 Gaussian 16, Revision C.01,

 ----------------------------------------------------------------------
 #t hf aug-cc-pvdz symm=none int=(grid=ultrafine) guess=(read,tcheck) s
 table=(opt,rrhf)
 ----------------------------------------------------------------------
 -----
 title
 -----
 Symbolic Z-matrix:
 Charge =  0 Multiplicity = 1

 SCF Done:  E(RHF) =  -1077.51762294     A.U. after   11 cycles
 Normal termination of Gaussian 16 at Tue Apr  8 23:40:17 2025.
 Gaussian 16:  ES64L-G16RevC.01  3-Jul-2019

 ----------------------------------------------------------------------
 #t hf aug-cc-pvdz iop(5/13=1,5/36=2,99/5=2) pseudo=read geom=check gue
 ss=(read,tcheck) scf=(maxcycle=1)
 ----------------------------------------------------------------------
 -----
 title
 -----
 Structure from the checkpoint file:  "BDE49_nonexpt_165_mol1.chk"
 Charge =  0 Multiplicity = 1

                         Standard orientation:
 ---------------------------------------------------------------------
 Center     Atomic      Atomic             Coordinates (Angstroms)
 Number     Number       Type             X           Y           Z
 ---------------------------------------------------------------------
      1         17           0       -1.237793    1.515672    0.000002
      2         17           0       -1.237796   -1.515670   -0.000009
      3          7           0        1.101231   -0.000001    0.000002
      4          5           0       -0.289190    0.000000   -0.000001
      5          6           0        1.917128    1.215020    0.000011
      6          1           0        2.559655    1.236498    0.886846
      7          1           0        1.289088    2.101017    0.000009
      8          1           0        2.559666    1.236502   -0.886817
      9          6           0        1.917126   -1.215023    0.000001
     10          1           0        1.289086   -2.101019   -0.000009
     11          1           0        2.559652   -1.236508    0.886837
     12          1           0        2.559665   -1.236496   -0.886826
 ---------------------------------------------------------------------

 SCF Done:  E(RHF) =  -1077.60430324     A.U. after    2 cycles

 The electronic state is 1-A.
 Alpha  occ. eigenvalues -- -103.65414-103.65414 -15.65102 -11.27964 -11.27964
 Alpha  occ. eigenvalues --  -10.68900 -10.68865  -8.34581  -8.34574  -8.34355
 Alpha  occ. eigenvalues --   -8.34352  -8.34349  -8.34346  -7.72097  -1.21443
 Alpha  occ. eigenvalues --   -1.15476  -1.12980  -0.97293  -0.89792  -0.71257
 Alpha  occ. eigenvalues --   -0.65160  -0.64436  -0.63864  -0.56608  -0.55383
 Alpha  occ. eigenvalues --   -0.54788  -0.53927  -0.51712  -0.48661  -0.46969
 Alpha  occ. eigenvalues --   -0.45138  -0.39367
 Alpha virt. eigenvalues --    0.03027   0.04461   0.04465   0.05588   0.07200
 Alpha virt. eigenvalues --    0.07438   0.07638   0.07741   0.08679   0.09409
 Alpha virt. eigenvalues --    0.13353   0.13469   0.13690   0.14349   0.16016

 Mulliken charges:
               1
     1  Cl  -0.397911
     2  Cl  -0.397912
     3  N   -0.321882
     4  B    0.493455
     5  C    0.745582
     6  H   -0.065028
     7  H   -0.303402
     8  H   -0.065027
     9  C    0.745583
    10  H   -0.303404
    11  H   -0.065027
    12  H   -0.065027
 Sum of Mulliken charges =  -0.00000

 Dipole moment (field-independent basis, Debye):
    X=              3.4424    Y=             -0.0000    Z=              0.0000  Tot=              3.4424

 Test job not archived.
 1\1\GINC-SE334\SP\RHF\Aug-CC-pVDZ\C2H6B1Cl2N1\OHZDE\08-Apr-2025\0\\#t
 hf aug-cc-pvdz iop(5/13=1,5/36=2,99/5=2) pseudo=read geom=check guess=
 (read,tcheck) scf=(maxcycle=1)\\title\\0,1\Cl,0,-1.237794,1.515671,0.0
 00002\Cl,0,-1.237795,-1.515671,-0.000009\N,0,1.101231,0.,0.000002\B,0,
 -0.28919,0.,-0.000001\C,0,1.917127,1.215021,0.000011\H,0,2.559654,1.23
 6499,0.886846\H,0,1.289087,2.101018,0.000009\H,0,2.559665,1.236503,-0.
 886817\C,0,1.917127,-1.215022,0.000001\H,0,1.289087,-2.101018,-0.00000
 9\H,0,2.559653,-1.236507,0.886837\H,0,2.559666,-1.236495,-0.886826\\Ve

 Normal termination of Gaussian 16 at Tue Apr  8 23:40:22 2025.
