 Gaussian 16, Revision C.01,

 ----------------------------------------------------------------------
 #t hf aug-cc-pvdz symm=none int=(grid=ultrafine) guess=(read,tcheck) s
 table=(opt,rrhf)
 ----------------------------------------------------------------------
 -----
 title
 -----
 Symbolic Z-matrix:
 Charge =  0 Multiplicity = 1

 SCF Done:  E(RHF) =  -437.730281746     A.U. after   11 cycles
 Normal termination of Gaussian 16 at Tue Apr  8 22:44:25 2025.
 Gaussian 16:  ES64L-G16RevC.01  3-Jul-2019

 ----------------------------------------------------------------------
 #t hf aug-cc-pvdz iop(5/13=1,5/36=2,99/5=2) pseudo=read geom=check gue
 ss=(read,tcheck) scf=(maxcycle=1)
 ----------------------------------------------------------------------
 -----
 title
 -----
 Structure from the checkpoint file:  "BDE49_expt_1545_mol1.chk"
 Charge =  0 Multiplicity = 1

                         Standard orientation:
 ---------------------------------------------------------------------
 Center     Atomic      Atomic             Coordinates (Angstroms)
 Number     Number       Type             X           Y           Z
 ---------------------------------------------------------------------
      1          6           0       -1.163284    0.020145    0.000002
      2         16           0        0.665889   -0.086845   -0.000001
      3          1           0       -1.529902    0.521235   -0.895050
      4          1           0       -1.529900    0.521223    0.895061
      5          1           0       -1.524621   -1.008379   -0.000005
      6          1           0        0.909894    1.234579    0.000007
 ---------------------------------------------------------------------

 SCF Done:  E(RHF) =  -437.765756888     A.U. after    2 cycles

 The electronic state is 1-A.
 Alpha  occ. eigenvalues --  -93.53502 -11.27133  -8.83235  -6.17385  -6.17162
 Alpha  occ. eigenvalues --   -6.16817  -1.02484  -0.86156  -0.60861  -0.59483
 Alpha  occ. eigenvalues --   -0.52851  -0.45667  -0.35595
 Alpha virt. eigenvalues --    0.03464   0.05055   0.05903   0.06350   0.10319
 Alpha virt. eigenvalues --    0.11889   0.13833   0.14401   0.16140   0.16179
 Alpha virt. eigenvalues --    0.17055   0.21443   0.24566   0.26140   0.26394

 Mulliken charges:
               1
     1  C    0.031479
     2  S    0.153765
     3  H   -0.080424
     4  H   -0.080425
     5  H   -0.084689
     6  H    0.060295
 Sum of Mulliken charges =  -0.00000

 Dipole moment (field-independent basis, Debye):
    X=             -1.4642    Y=              0.8355    Z=              0.0000  Tot=              1.6858

 Test job not archived.
 1\1\GINC-SE368\SP\RHF\Aug-CC-pVDZ\C1H4S1\OHZDE\08-Apr-2025\0\\#t hf au
 g-cc-pvdz iop(5/13=1,5/36=2,99/5=2) pseudo=read geom=check guess=(read
 ,tcheck) scf=(maxcycle=1)\\title\\0,1\C,0,-1.163284,0.020145,0.000002\
 S,0,0.665889,-0.086845,-0.000001\H,0,-1.529902,0.521235,-0.89505\H,0,-
 1.5299,0.521223,0.895061\H,0,-1.524621,-1.008379,-0.000005\H,0,0.90989
 4,1.234579,0.000007\\Version=ES64L-G16RevC.01\State=1-A\HF=-437.765756
 9\RMSD=5.619e-03\Dipole=-0.5760599,0.3287003,0.0000027\Quadrupole=0.44
 27443,1.050325,-1.4930694,1.0167893,0.0000038,0.0000154\PG=C01 [X(C1H4

 Normal termination of Gaussian 16 at Tue Apr  8 22:44:26 2025.
