 Gaussian 16, Revision C.01,

 ----------------------------------------------------------------------
 #t hf aug-cc-pvdz symm=none int=(grid=ultrafine) guess=(read,tcheck) s
 table=opt
 ----------------------------------------------------------------------
 -----
 title
 -----
 Symbolic Z-matrix:
 Charge =  0 Multiplicity = 2

 SCF Done:  E(UHF) =  -497.462947157     A.U. after   20 cycles
 Normal termination of Gaussian 16 at Tue Apr  8 23:50:29 2025.
 Gaussian 16:  ES64L-G16RevC.01  3-Jul-2019

 ----------------------------------------------------------------------
 #t hf aug-cc-pvdz iop(5/13=1,5/36=2,99/5=2) pseudo=read geom=check gue
 ss=(read,tcheck) scf=(maxcycle=1)
 ----------------------------------------------------------------------
 -----
 title
 -----
 Structure from the checkpoint file:  "BDE49_nonexpt_1893_mol2.chk"
 Charge =  0 Multiplicity = 2

                         Standard orientation:
 ---------------------------------------------------------------------
 Center     Atomic      Atomic             Coordinates (Angstroms)
 Number     Number       Type             X           Y           Z
 ---------------------------------------------------------------------
      1         14           0       -1.858579   -0.311002   -0.084921
      2          6           0       -0.040725    0.303420   -0.004373
      3          1           0       -2.046559   -1.672388    0.491369
      4          1           0       -2.742257    0.677669    0.568908
      5          8           0        0.175899    1.506744    0.008396
      6          7           0        0.946616   -0.641750   -0.020128
      7          6           0        2.362814   -0.302206    0.018297
      8          1           0        0.680749   -1.611802    0.044361
      9          1           0        2.447003    0.771128   -0.142192
     10          1           0        2.905495   -0.830195   -0.769761
     11          1           0        2.809637   -0.549380    0.986397
 ---------------------------------------------------------------------

 SCF Done:  E(UHF) =  -497.548749236     A.U. after    2 cycles

 The electronic state is 2-A.
 Alpha  occ. eigenvalues --  -69.08851 -20.54321 -15.65819 -11.35640 -11.27501
 Alpha  occ. eigenvalues --   -6.84273  -3.95623  -3.94731  -3.94709  -1.34685
 Alpha  occ. eigenvalues --   -1.19876  -0.95862  -0.80206  -0.75980  -0.65860
 Alpha  occ. eigenvalues --   -0.64859  -0.62844  -0.56688  -0.55499  -0.55266
 Alpha  occ. eigenvalues --   -0.49969  -0.41857  -0.40420  -0.33680
 Alpha virt. eigenvalues --    0.02892   0.04189   0.04952   0.05202   0.06385
 Alpha virt. eigenvalues --    0.07089   0.07610   0.08766   0.09417   0.10816
 Alpha virt. eigenvalues --    0.12385   0.13258   0.14400   0.14964   0.15644

  Beta  occ. eigenvalues --  -69.08270 -20.54084 -15.65780 -11.35708 -11.27505
  Beta  occ. eigenvalues --   -6.83409  -3.94323  -3.94295  -3.93397  -1.34262
  Beta  occ. eigenvalues --   -1.19700  -0.95762  -0.79748  -0.74038  -0.65254
  Beta  occ. eigenvalues --   -0.63323  -0.62628  -0.56290  -0.55370  -0.54151
  Beta  occ. eigenvalues --   -0.49229  -0.41048  -0.39408
  Beta virt. eigenvalues --    0.01894   0.02990   0.04396   0.05208   0.05694
  Beta virt. eigenvalues --    0.06592   0.07515   0.08466   0.09011   0.09665
  Beta virt. eigenvalues --    0.11424   0.13073   0.13479   0.14688   0.15693

 Mulliken charges and spin densities:
               1          2
     1  Si   0.254899   1.003602
     2  C    0.293033  -0.060026
     3  H   -0.048712  -0.005836
     4  H   -0.012365   0.002167
     5  O   -0.526488   0.054968
     6  N   -0.275102   0.007673
     7  C    0.777649   0.002676
     8  H   -0.085162  -0.005619
     9  H   -0.152326  -0.000186
    10  H   -0.127387   0.000525
    11  H   -0.098040   0.000056
 Sum of Mulliken charges =  -0.00000   1.00000

 Dipole moment (field-independent basis, Debye):
    X=              0.5566    Y=             -3.9812    Z=              0.0601  Tot=              4.0204
                          Isotropic Fermi Contact Couplings
        Atom                 a.u.       MegaHertz       Gauss      10(-4) cm-1
     1  Si(29)             0.53037    -471.35720    -168.19197    -157.22784
     2  C(13)             -0.00533      -5.99125      -2.13783      -1.99847
     3  H(1)               0.00023       1.04596       0.37322       0.34889
     4  H(1)              -0.00020      -0.88380      -0.31536      -0.29480
     5  O(17)              0.02015     -12.21424      -4.35835      -4.07423
     6  N(14)              0.00222       0.71605       0.25550       0.23885
     7  C(13)             -0.00082      -0.92129      -0.32874      -0.30731
     8  H(1)              -0.00016      -0.72886      -0.26008      -0.24312

 1\1\GINC-SE396\SP\UHF\Aug-CC-pVDZ\C2H6N1O1Si1(2)\OHZDE\08-Apr-2025\0\\
 #t hf aug-cc-pvdz iop(5/13=1,5/36=2,99/5=2) pseudo=read geom=check gue
 ss=(read,tcheck) scf=(maxcycle=1)\\title\\0,2\Si,0,-1.858579,-0.311002
 ,-0.084921\C,0,-0.040725,0.30342,-0.004373\H,0,-2.046559,-1.672388,0.4
 91369\H,0,-2.742257,0.677669,0.568908\O,0,0.175899,1.506744,0.008396\N
 ,0,0.946616,-0.64175,-0.020128\C,0,2.362814,-0.302206,0.018297\H,0,0.6
 80749,-1.611802,0.044361\H,0,2.447003,0.771128,-0.142192\H,0,2.905495,
 -0.830195,-0.769761\H,0,2.809637,-0.54938,0.986397\\Version=ES64L-G16R

 Normal termination of Gaussian 16 at Tue Apr  8 23:50:32 2025.
