 Gaussian 16, Revision C.01,

 ----------------------------------------------------------------------
 #t hf aug-cc-pvdz symm=none int=(grid=ultrafine) guess=(read,tcheck) s
 table=(opt,rrhf)
 ----------------------------------------------------------------------
 -----
 title
 -----
 Symbolic Z-matrix:
 Charge =  0 Multiplicity = 1

 SCF Done:  E(RHF) =  -1043.29316614     A.U. after   11 cycles

 1\1\GINC-SE336\Stability\RHF\Aug-CC-pVDZ\B1Cl2F1\OHZDE\09-Apr-2025\0\\
 #t hf aug-cc-pvdz symm=none int=(grid=ultrafine) guess=(read,tcheck) s
 table=(opt,rrhf)\\title\\0,1\Cl,0,0.,1.528606,-0.49653\B,0,0.,0.,0.360
 609\Cl,0,0.,-1.528606,-0.49653\F,0,0.,0.,1.67544\\Version=ES64L-G16Rev
 C.01\HF=-1043.2931661\RMSD=7.009e-09\Dipole=0.,0.,-0.0928185\Quadrupol
 e=1.3192286,-0.0604233,-1.2588053,0.,0.,0.\PG=Unknown\\@
 The archive entry for this job was punched.

 Normal termination of Gaussian 16 at Wed Apr  9 00:07:26 2025.
 Gaussian 16:  ES64L-G16RevC.01  3-Jul-2019

 ----------------------------------------------------------------------
 #t hf aug-cc-pvdz iop(5/13=1,5/36=2,99/5=2) pseudo=read geom=check gue
 ss=(read,tcheck) scf=(maxcycle=1)
 ----------------------------------------------------------------------
 -----
 title
 -----
 Structure from the checkpoint file:  "BDE49_nonexpt_231_mol1.chk"
 Charge =  0 Multiplicity = 1

                         Standard orientation:
 ---------------------------------------------------------------------
 Center     Atomic      Atomic             Coordinates (Angstroms)
 Number     Number       Type             X           Y           Z
 ---------------------------------------------------------------------
      1         17           0        0.000000    1.528606   -0.496530
      2          5           0        0.000000   -0.000000    0.360609
      3         17           0       -0.000000   -1.528606   -0.496530
      4          9           0        0.000000   -0.000000    1.675440
 ---------------------------------------------------------------------

 SCF Done:  E(RHF) =  -1043.37991132     A.U. after    2 cycles

 The electronic state is 1-A1.
 Alpha  occ. eigenvalues -- -103.68901-103.68901 -26.17040 -10.72420 -10.72390
 Alpha  occ. eigenvalues --   -8.38104  -8.38099  -8.37861  -8.37861  -8.37832
 Alpha  occ. eigenvalues --   -8.37830  -7.80856  -1.71504  -1.20080  -1.16912
 Alpha  occ. eigenvalues --   -0.87981  -0.79601  -0.77966  -0.68068  -0.58525
 Alpha  occ. eigenvalues --   -0.53885  -0.52658  -0.50041  -0.48830
 Alpha virt. eigenvalues --    0.04506   0.05488   0.05816   0.06007   0.09431
 Alpha virt. eigenvalues --    0.12541   0.12808   0.14815   0.15159   0.17505
 Alpha virt. eigenvalues --    0.18348   0.19217   0.24159   0.24333   0.25399

 Mulliken charges:
               1
     1  Cl  -0.252372
     2  B    0.798303
     3  Cl  -0.252372
     4  F   -0.293560
 Sum of Mulliken charges =  -0.00000

 Dipole moment (field-independent basis, Debye):
    X=              0.0000    Y=             -0.0000    Z=             -0.4098  Tot=              0.4098

 Test job not archived.
 1\1\GINC-SE336\SP\RHF\Aug-CC-pVDZ\B1Cl2F1\OHZDE\09-Apr-2025\0\\#t hf a
 ug-cc-pvdz iop(5/13=1,5/36=2,99/5=2) pseudo=read geom=check guess=(rea
 d,tcheck) scf=(maxcycle=1)\\title\\0,1\Cl,0,0.,1.528606,-0.49653\B,0,0
 .,0.,0.360609\Cl,0,0.,-1.528606,-0.49653\F,0,0.,0.,1.67544\\Version=ES
 64L-G16RevC.01\State=1-A1\HF=-1043.3799113\RMSD=4.069e-03\Dipole=0.,0.
 ,-0.1612093\Quadrupole=1.4223828,0.0635368,-1.4859196,0.,0.,0.\PG=C02V
  [C2(B1F1),SGV(Cl2)]\\@

 Normal termination of Gaussian 16 at Wed Apr  9 00:07:28 2025.
