 Gaussian 16, Revision C.01,

 ----------------------------------------------------------------------
 #t hf aug-cc-pvdz symm=none int=(grid=ultrafine) guess=(read,tcheck) s
 table=(opt,rrhf)
 ----------------------------------------------------------------------
 -----
 title
 -----
 Symbolic Z-matrix:
 Charge =  0 Multiplicity = 1

 SCF Done:  E(RHF) =  -1454.63864934     A.U. after   14 cycles
 Normal termination of Gaussian 16 at Tue Apr  8 23:57:23 2025.
 Gaussian 16:  ES64L-G16RevC.01  3-Jul-2019

 ----------------------------------------------------------------------
 #t hf aug-cc-pvdz iop(5/13=1,5/36=2,99/5=2) pseudo=read geom=check gue
 ss=(read,tcheck) scf=(maxcycle=1)
 ----------------------------------------------------------------------
 -----
 title
 -----
 Structure from the checkpoint file:  "BDE49_nonexpt_206_mol1.chk"
 Charge =  0 Multiplicity = 1

                         Standard orientation:
 ---------------------------------------------------------------------
 Center     Atomic      Atomic             Coordinates (Angstroms)
 Number     Number       Type             X           Y           Z
 ---------------------------------------------------------------------
      1         17           0        1.435944   -1.522240   -0.152258
      2         17           0        1.435804    1.522323   -0.152185
      3          5           0        0.612110   -0.000003    0.080461
      4          6           0       -0.902766   -0.000085    0.562414
      5          8           0       -1.169252   -0.000099    1.738232
      6         16           0       -2.229521   -0.000010   -0.671726
      7          1           0       -1.437317    0.000065   -1.759506
 ---------------------------------------------------------------------

 SCF Done:  E(RHF) =  -1454.73517795     A.U. after    2 cycles

 The electronic state is 1-A.
 Alpha  occ. eigenvalues -- -103.70027-103.70026 -93.58083 -20.60689 -11.39385
 Alpha  occ. eigenvalues --  -10.73517 -10.73485  -8.87905  -8.39200  -8.39193
 Alpha  occ. eigenvalues --   -8.38966  -8.38964  -8.38925  -8.38925  -7.77113
 Alpha  occ. eigenvalues --   -6.22016  -6.21830  -6.21472  -1.39712  -1.21315
 Alpha  occ. eigenvalues --   -1.17740  -1.03036  -0.84507  -0.73296  -0.67488
 Alpha  occ. eigenvalues --   -0.65602  -0.63507  -0.57715  -0.56222  -0.53694
 Alpha  occ. eigenvalues --   -0.53233  -0.50835  -0.49813  -0.42816  -0.40866
 Alpha virt. eigenvalues --    0.03384   0.04713   0.05330   0.05556   0.05671
 Alpha virt. eigenvalues --    0.07465   0.07684   0.09546   0.11005   0.12670
 Alpha virt. eigenvalues --    0.12808   0.13500   0.14471   0.14968   0.16064

 Mulliken charges:
               1
     1  Cl  -0.259230
     2  Cl  -0.259227
     3  B    0.673163
     4  C    0.019881
     5  O   -0.478073
     6  S    0.251050
     7  H    0.052437
 Sum of Mulliken charges =   0.00000

 Dipole moment (field-independent basis, Debye):
    X=              0.8693    Y=              0.0001    Z=             -2.8780  Tot=              3.0064

 Test job not archived.
 1\1\GINC-SE365\SP\RHF\Aug-CC-pVDZ\C1H1B1Cl2O1S1\OHZDE\08-Apr-2025\0\\#
 t hf aug-cc-pvdz iop(5/13=1,5/36=2,99/5=2) pseudo=read geom=check gues
 s=(read,tcheck) scf=(maxcycle=1)\\title\\0,1\Cl,0,1.435944,-1.52224,-0
 .152258\Cl,0,1.435803,1.522323,-0.152185\B,0,0.61211,-0.000003,0.08046
 1\C,0,-0.902766,-0.000085,0.562414\O,0,-1.169252,-0.000099,1.738232\S,
 0,-2.229521,-0.00001,-0.671726\H,0,-1.437317,0.000065,-1.759506\\Versi
 on=ES64L-G16RevC.01\State=1-A\HF=-1454.735178\RMSD=4.355e-03\Dipole=0.
 3419908,0.0000387,-1.1322832\Quadrupole=-0.5583847,0.687145,-0.1287603

 Normal termination of Gaussian 16 at Tue Apr  8 23:57:25 2025.
