 Gaussian 16, Revision C.01,

 ----------------------------------------------------------------------
 #t hf aug-cc-pvdz symm=none int=(grid=ultrafine) guess=(read,tcheck) s
 table=(opt,rrhf)
 ----------------------------------------------------------------------
 -----
 title
 -----
 Symbolic Z-matrix:
 Charge =  0 Multiplicity = 1

 SCF Done:  E(RHF) =  -876.198277455     A.U. after   13 cycles
 Normal termination of Gaussian 16 at Tue Apr  8 23:14:47 2025.
 Gaussian 16:  ES64L-G16RevC.01  3-Jul-2019

 ----------------------------------------------------------------------
 #t hf aug-cc-pvdz iop(5/13=1,5/36=2,99/5=2) pseudo=read geom=check gue
 ss=(read,tcheck) scf=(maxcycle=1)
 ----------------------------------------------------------------------
 -----
 title
 -----
 Structure from the checkpoint file:  "BDE49_nonexpt_1028_mol1.chk"
 Charge =  0 Multiplicity = 1

                         Standard orientation:
 ---------------------------------------------------------------------
 Center     Atomic      Atomic             Coordinates (Angstroms)
 Number     Number       Type             X           Y           Z
 ---------------------------------------------------------------------
      1         17           0       -1.468780   -0.156095   -0.008866
      2          8           0        0.017640    0.746085    0.055877
      3         15           0        1.388821   -0.260243   -0.079854
      4          1           0        1.779591   -0.261540    1.291007
      5          1           0        2.216232    0.850113   -0.389490
 ---------------------------------------------------------------------

 SCF Done:  E(RHF) =  -876.268214355     A.U. after    2 cycles

 The electronic state is 1-A.
 Alpha  occ. eigenvalues -- -103.72134 -81.32338 -20.65632 -10.74819  -8.40573
 Alpha  occ. eigenvalues --   -8.40153  -8.40131  -7.82116  -4.96178  -4.95870
 Alpha  occ. eigenvalues --   -4.95638  -1.35701  -1.10464  -0.81391  -0.65238
 Alpha  occ. eigenvalues --   -0.64325  -0.62190  -0.52351  -0.47964  -0.46395
 Alpha  occ. eigenvalues --   -0.38821
 Alpha virt. eigenvalues --    0.03492   0.04056   0.06475   0.06826   0.09720
 Alpha virt. eigenvalues --    0.09929   0.14001   0.15122   0.15684   0.16830
 Alpha virt. eigenvalues --    0.17455   0.19785   0.21705   0.24416   0.25113

 Mulliken charges:
               1
     1  Cl   0.285616
     2  O   -0.852864
     3  P    0.520011
     4  H    0.035832
     5  H    0.011404
 Sum of Mulliken charges =  -0.00000

 Dipole moment (field-independent basis, Debye):
    X=              1.3512    Y=             -0.5925    Z=              0.2469  Tot=              1.4960

 Test job not archived.
 1\1\GINC-SE339\SP\RHF\Aug-CC-pVDZ\Cl1H2O1P1\OHZDE\08-Apr-2025\0\\#t hf
  aug-cc-pvdz iop(5/13=1,5/36=2,99/5=2) pseudo=read geom=check guess=(r
 ead,tcheck) scf=(maxcycle=1)\\title\\0,1\Cl,0,-1.46878,-0.156095,-0.00
 8866\O,0,0.01764,0.746085,0.055877\P,0,1.388821,-0.260243,-0.079854\H,
 0,1.779591,-0.26154,1.291007\H,0,2.216232,0.850113,-0.38949\\Version=E
 S64L-G16RevC.01\State=1-A\HF=-876.2682144\RMSD=8.798e-03\Dipole=0.5316
 136,-0.2331236,0.097138\Quadrupole=2.7992593,-1.9742125,-0.8250468,0.9
 789345,0.3764063,-0.8854277\PG=C01 [X(Cl1H2O1P1)]\\@

 Normal termination of Gaussian 16 at Tue Apr  8 23:14:48 2025.
