 Gaussian 16, Revision C.01,

 ----------------------------------------------------------------------
 #t hf aug-cc-pvdz symm=none int=(grid=ultrafine) guess=(read,tcheck) s
 table=(opt,rrhf)
 ----------------------------------------------------------------------
 -----
 title
 -----
 Symbolic Z-matrix:
 Charge =  0 Multiplicity = 1

 SCF Done:  E(RHF) =  -1112.09174341     A.U. after   14 cycles
 Normal termination of Gaussian 16 at Wed Apr  9 00:02:59 2025.
 Gaussian 16:  ES64L-G16RevC.01  3-Jul-2019

 ----------------------------------------------------------------------
 #t hf aug-cc-pvdz iop(5/13=1,5/36=2,99/5=2) pseudo=read geom=check gue
 ss=(read,tcheck) scf=(maxcycle=1)
 ----------------------------------------------------------------------
 -----
 title
 -----
 Structure from the checkpoint file:  "BDE49_nonexpt_220_mol1.chk"
 Charge =  0 Multiplicity = 1

                         Standard orientation:
 ---------------------------------------------------------------------
 Center     Atomic      Atomic             Coordinates (Angstroms)
 Number     Number       Type             X           Y           Z
 ---------------------------------------------------------------------
      1         17           0        0.857144    1.664745   -0.000097
      2          5           0        0.512850   -0.056431    0.000869
      3         17           0        1.861921   -1.195855   -0.000408
      4          6           0       -0.920859   -0.625346    0.000413
      5          7           0       -1.915553    0.186842    0.000299
      6          1           0       -1.106343   -1.701453    0.000207
      7          8           0       -3.122352   -0.473221   -0.000059
      8          1           0       -3.769175    0.242422   -0.000077
 ---------------------------------------------------------------------

 SCF Done:  E(RHF) =  -1112.18403593     A.U. after    2 cycles

 The electronic state is 1-A.
 Alpha  occ. eigenvalues -- -103.67641-103.67217 -20.64660 -15.74071 -11.28776
 Alpha  occ. eigenvalues --  -10.71125 -10.70703  -8.36814  -8.36597  -8.36562
 Alpha  occ. eigenvalues --   -8.36400  -8.36173  -8.36136  -7.74162  -1.42290
 Alpha  occ. eigenvalues --   -1.19198  -1.15653  -1.14795  -0.85802  -0.76294
 Alpha  occ. eigenvalues --   -0.70768  -0.67555  -0.63823  -0.60328  -0.58050
 Alpha  occ. eigenvalues --   -0.53546  -0.49031  -0.48482  -0.47394  -0.46978
 Alpha  occ. eigenvalues --   -0.42644
 Alpha virt. eigenvalues --    0.03437   0.03638   0.04374   0.05577   0.05610
 Alpha virt. eigenvalues --    0.07100   0.08055   0.12430   0.13028   0.14109
 Alpha virt. eigenvalues --    0.14816   0.15409   0.15756   0.16964   0.17167

 Mulliken charges:
               1
     1  Cl  -0.257213
     2  B    0.577593
     3  Cl  -0.317299
     4  C    0.632116
     5  N   -0.129978
     6  H   -0.255832
     7  O   -0.443853
     8  H    0.194466
 Sum of Mulliken charges =   0.00000

 Dipole moment (field-independent basis, Debye):
    X=             -1.6955    Y=             -0.2459    Z=              0.0019  Tot=              1.7133

 Test job not archived.
 1\1\GINC-SE097\SP\RHF\Aug-CC-pVDZ\C1H2B1Cl2N1O1\OHZDE\09-Apr-2025\0\\#
 t hf aug-cc-pvdz iop(5/13=1,5/36=2,99/5=2) pseudo=read geom=check gues
 s=(read,tcheck) scf=(maxcycle=1)\\title\\0,1\Cl,0,-0.857144,1.664745,0
 .000097\B,0,-0.51285,-0.056431,-0.000869\Cl,0,-1.861921,-1.195855,0.00
 0408\C,0,0.920859,-0.625346,-0.000413\N,0,1.915553,0.186842,-0.000299\
 H,0,1.106343,-1.701453,-0.000207\O,0,3.122352,-0.47322,0.000059\H,0,3.
 769175,0.242423,0.000077\\Version=ES64L-G16RevC.01\State=1-A\HF=-1112.
 1840359\RMSD=2.552e-03\Dipole=0.6670781,-0.0967318,-0.0007565\Quadrupo

 Normal termination of Gaussian 16 at Wed Apr  9 00:03:02 2025.
