 Gaussian 16, Revision C.01,

 ----------------------------------------------------------------------
 #t hf aug-cc-pvdz symm=none int=(grid=ultrafine) guess=(read,tcheck) s
 table=(opt,rrhf)
 ----------------------------------------------------------------------
 -----
 title
 -----
 Symbolic Z-matrix:
 Charge =  0 Multiplicity = 1

 SCF Done:  E(RHF) =  -518.211360509     A.U. after   16 cycles
 Normal termination of Gaussian 16 at Tue Apr  8 23:22:15 2025.
 Gaussian 16:  ES64L-G16RevC.01  3-Jul-2019

 ----------------------------------------------------------------------
 #t hf aug-cc-pvdz iop(5/13=1,5/36=2,99/5=2) pseudo=read geom=check gue
 ss=(read,tcheck) scf=(maxcycle=1)
 ----------------------------------------------------------------------
 -----
 title
 -----
 Structure from the checkpoint file:  "BDE49_nonexpt_1178_mol1.chk"
 Charge =  0 Multiplicity = 1

                         Standard orientation:
 ---------------------------------------------------------------------
 Center     Atomic      Atomic             Coordinates (Angstroms)
 Number     Number       Type             X           Y           Z
 ---------------------------------------------------------------------
      1          9           0        3.413374   -0.246314    0.844415
      2          8           0        2.727398   -0.167709   -0.552341
      3          6           0        1.414555   -0.021952   -0.317325
      4          6           0        0.859157    1.263247   -0.178017
      5          6           0       -0.503259    1.411972   -0.032453
      6          6           0       -1.336385    0.277407   -0.003366
      7          6           0        0.587505   -1.150071   -0.264008
      8          1           0        1.042835   -2.128958   -0.350737
      9          6           0       -0.785108   -1.008443   -0.121925
     10          1           0       -1.414290   -1.887328   -0.100083
     11          1           0        1.521810    2.119568   -0.199851
     12          8           0       -2.655422    0.531723    0.141817
     13          6           0       -3.572204   -0.559153    0.192061
     14          1           0       -3.549918   -1.139396   -0.735763
     15          1           0       -4.555474   -0.109807    0.314327
     16          1           0       -3.362834   -1.214568    1.043202
     17          1           0       -0.963868    2.387160    0.063552
 ---------------------------------------------------------------------

 SCF Done:  E(RHF) =  -518.374200923     A.U. after    2 cycles

 The electronic state is 1-A.
 Alpha  occ. eigenvalues --  -26.12180 -20.70686 -20.62377 -11.34481 -11.31541
 Alpha  occ. eigenvalues --  -11.30907 -11.28021 -11.27680 -11.26343 -11.25873
 Alpha  occ. eigenvalues --   -1.60413  -1.39576  -1.35417  -1.15541  -1.04585
 Alpha  occ. eigenvalues --   -1.02476  -0.95591  -0.87097  -0.83501  -0.75867
 Alpha  occ. eigenvalues --   -0.74184  -0.73580  -0.70242  -0.69153  -0.68658
 Alpha  occ. eigenvalues --   -0.65109  -0.63837  -0.62847  -0.61883  -0.59065
 Alpha  occ. eigenvalues --   -0.56939  -0.55280  -0.53790  -0.50146  -0.49623
 Alpha  occ. eigenvalues --   -0.37070  -0.34260
 Alpha virt. eigenvalues --    0.02671   0.02931   0.03770   0.04281   0.05115
 Alpha virt. eigenvalues --    0.05713   0.05941   0.08244   0.08861   0.09218
 Alpha virt. eigenvalues --    0.10834   0.12122   0.12399   0.13417   0.13726

 Mulliken charges:
               1
     1  F   -0.423804
     2  O   -0.337508
     3  C    0.453850
     4  C    0.601854
     5  C    0.703264
     6  C    0.497247
     7  C    0.362180
     8  H   -0.445883
     9  C    0.578116
    10  H   -0.714110
    11  H   -0.434561
    12  O   -0.680615
    13  C    0.831827
    14  H   -0.082759
    15  H   -0.293045
    16  H   -0.084557
    17  H   -0.531495
 Sum of Mulliken charges =  -0.00000

 Dipole moment (field-independent basis, Debye):
    X=             -5.4780    Y=             -0.9062    Z=             -0.9839  Tot=              5.6389

 Test job not archived.
 1\1\GINC-SE118\SP\RHF\Aug-CC-pVDZ\C7H7F1O2\OHZDE\08-Apr-2025\0\\#t hf
 aug-cc-pvdz iop(5/13=1,5/36=2,99/5=2) pseudo=read geom=check guess=(re
 ad,tcheck) scf=(maxcycle=1)\\title\\0,1\F,0,3.413374,-0.246314,0.84441
 5\O,0,2.727398,-0.167709,-0.552341\C,0,1.414555,-0.021952,-0.317325\C,
 0,0.859157,1.263247,-0.178017\C,0,-0.503259,1.411972,-0.032453\C,0,-1.
 336385,0.277407,-0.003366\C,0,0.587505,-1.150071,-0.264008\H,0,1.04283
 5,-2.128958,-0.350737\C,0,-0.785108,-1.008443,-0.121925\H,0,-1.41429,-
 1.887328,-0.100083\H,0,1.52181,2.119568,-0.199851\O,0,-2.655422,0.5317

 Normal termination of Gaussian 16 at Tue Apr  8 23:22:23 2025.
