 Gaussian 16, Revision C.01,

 ----------------------------------------------------------------------
 #t hf aug-cc-pvdz symm=none int=(grid=ultrafine) guess=(read,tcheck) s
 table=(opt,rrhf)
 ----------------------------------------------------------------------
 -----
 title
 -----
 Symbolic Z-matrix:
 Charge =  0 Multiplicity = 1

 SCF Done:  E(RHF) =  -666.830294692     A.U. after   14 cycles
 Normal termination of Gaussian 16 at Tue Apr  8 23:16:51 2025.
 Gaussian 16:  ES64L-G16RevC.01  3-Jul-2019

 ----------------------------------------------------------------------
 #t hf aug-cc-pvdz iop(5/13=1,5/36=2,99/5=2) pseudo=read geom=check gue
 ss=(read,tcheck) scf=(maxcycle=1)
 ----------------------------------------------------------------------
 -----
 title
 -----
 Structure from the checkpoint file:  "BDE49_nonexpt_1065_mol1.chk"
 Charge =  0 Multiplicity = 1

                         Standard orientation:
 ---------------------------------------------------------------------
 Center     Atomic      Atomic             Coordinates (Angstroms)
 Number     Number       Type             X           Y           Z
 ---------------------------------------------------------------------
      1         17           0        1.762281   -0.088096   -0.000002
      2          8           0        0.155070   -0.736864   -0.000001
      3          6           0       -0.879881    0.204364    0.000001
      4          6           0       -2.162829   -0.581961    0.000002
      5          7           0       -0.809645    1.454436    0.000002
      6          1           0       -2.217515   -1.221760   -0.883070
      7          1           0       -2.991603    0.122657    0.000004
      8          1           0       -2.217512   -1.221762    0.883072
      9          1           0        0.151070    1.797943    0.000001
 ---------------------------------------------------------------------

 SCF Done:  E(RHF) =  -666.913896044     A.U. after    2 cycles

 The electronic state is 1-A.
 Alpha  occ. eigenvalues -- -103.73590 -20.68334 -15.62336 -11.37613 -11.25830
 Alpha  occ. eigenvalues --  -10.76249  -8.42011  -8.41594  -8.41561  -1.41306
 Alpha  occ. eigenvalues --   -1.19994  -1.13201  -1.00027  -0.79610  -0.73682
 Alpha  occ. eigenvalues --   -0.68087  -0.66892  -0.58786  -0.58238  -0.55754
 Alpha  occ. eigenvalues --   -0.50073  -0.49066  -0.45284  -0.43355
 Alpha virt. eigenvalues --    0.03322   0.03871   0.05723   0.05797   0.06282
 Alpha virt. eigenvalues --    0.09003   0.11174   0.12142   0.14402   0.15072
 Alpha virt. eigenvalues --    0.15178   0.15993   0.16215   0.16339   0.17258

 Mulliken charges:
               1
     1  Cl   0.265368
     2  O   -0.686472
     3  C    0.379385
     4  C    0.218201
     5  N   -0.245313
     6  H    0.027931
     7  H   -0.006704
     8  H    0.027930
     9  H    0.019674
 Sum of Mulliken charges =  -0.00000

 Dipole moment (field-independent basis, Debye):
    X=              0.0389    Y=             -0.8464    Z=             -0.0000  Tot=              0.8473

 Test job not archived.
 1\1\GINC-SE364\SP\RHF\Aug-CC-pVDZ\C2H4Cl1N1O1\OHZDE\08-Apr-2025\0\\#t
 hf aug-cc-pvdz iop(5/13=1,5/36=2,99/5=2) pseudo=read geom=check guess=
 (read,tcheck) scf=(maxcycle=1)\\title\\0,1\Cl,0,1.762281,-0.088096,-0.
 000002\O,0,0.15507,-0.736864,-0.000001\C,0,-0.879881,0.204364,0.000001
 \C,0,-2.162829,-0.581961,0.000002\N,0,-0.809645,1.454436,0.000002\H,0,
 -2.217515,-1.22176,-0.88307\H,0,-2.991603,0.122657,0.000004\H,0,-2.217
 512,-1.221762,0.883072\H,0,0.15107,1.797943,0.000001\\Version=ES64L-G1
 6RevC.01\State=1-A\HF=-666.913896\RMSD=3.416e-03\Dipole=0.0153042,-0.3

 Normal termination of Gaussian 16 at Tue Apr  8 23:16:54 2025.
