 Gaussian 16, Revision C.01,

 ----------------------------------------------------------------------
 #t hf aug-cc-pvdz symm=none int=(grid=ultrafine) guess=(read,tcheck) s
 table=(opt,rrhf)
 ----------------------------------------------------------------------
 -----
 title
 -----
 Symbolic Z-matrix:
 Charge =  0 Multiplicity = 1

 SCF Done:  E(RHF) =  -475.583892914     A.U. after   12 cycles
 Normal termination of Gaussian 16 at Tue Apr  8 23:25:52 2025.
 Gaussian 16:  ES64L-G16RevC.01  3-Jul-2019

 ----------------------------------------------------------------------
 #t hf aug-cc-pvdz iop(5/13=1,5/36=2,99/5=2) pseudo=read geom=check gue
 ss=(read,tcheck) scf=(maxcycle=1)
 ----------------------------------------------------------------------
 -----
 title
 -----
 Structure from the checkpoint file:  "BDE49_nonexpt_1306_mol1.chk"
 Charge =  0 Multiplicity = 1

                         Standard orientation:
 ---------------------------------------------------------------------
 Center     Atomic      Atomic             Coordinates (Angstroms)
 Number     Number       Type             X           Y           Z
 ---------------------------------------------------------------------
      1          6           0        0.032797    0.584751   -0.014713
      2          6           0       -1.062795   -0.483028    0.012385
      3         15           0        1.751047   -0.163483   -0.090919
      4          1           0       -0.064758    1.250421    0.847144
      5          1           0       -0.096761    1.193221   -0.914181
      6          7           0       -2.385540    0.147302   -0.082161
      7          1           0       -0.935068   -1.113920    0.907968
      8          1           0       -0.944778   -1.141854   -0.853773
      9          1           0       -2.584911    0.665582    0.768841
     10          1           0       -3.106692   -0.563043   -0.162128
     11          1           0        1.870165   -0.524087    1.278321
     12          1           0        2.475868    1.044474    0.080680
 ---------------------------------------------------------------------

 SCF Done:  E(RHF) =  -475.647450496     A.U. after    2 cycles

 The electronic state is 1-A.
 Alpha  occ. eigenvalues --  -81.25168 -15.61124 -11.26834 -11.24122  -7.75515
 Alpha  occ. eigenvalues --   -4.89501  -4.89459  -4.89137  -1.15247  -0.99378
 Alpha  occ. eigenvalues --   -0.84078  -0.75406  -0.66654  -0.62647  -0.59534
 Alpha  occ. eigenvalues --   -0.54567  -0.50525  -0.48663  -0.46269  -0.39220
 Alpha  occ. eigenvalues --   -0.34879
 Alpha virt. eigenvalues --    0.03340   0.04260   0.04840   0.05211   0.06799
 Alpha virt. eigenvalues --    0.07518   0.07865   0.08618   0.10589   0.11067
 Alpha virt. eigenvalues --    0.12533   0.14125   0.15384   0.16326   0.16607

 Mulliken charges:
               1
     1  C   -0.063759
     2  C    0.660027
     3  P    0.082964
     4  H   -0.148827
     5  H   -0.077480
     6  N   -0.351486
     7  H   -0.148669
     8  H   -0.173479
     9  H    0.023482
    10  H   -0.016296
    11  H    0.119759
    12  H    0.093763
 Sum of Mulliken charges =   0.00000

 Dipole moment (field-independent basis, Debye):
    X=             -0.9309    Y=             -0.1210    Z=              1.5048  Tot=              1.7736

 Test job not archived.
 1\1\GINC-SE015\SP\RHF\Aug-CC-pVDZ\C2H8N1P1\OHZDE\08-Apr-2025\0\\#t hf
 aug-cc-pvdz iop(5/13=1,5/36=2,99/5=2) pseudo=read geom=check guess=(re
 ad,tcheck) scf=(maxcycle=1)\\title\\0,1\C,0,0.032797,0.584751,-0.01471
 3\C,0,-1.062795,-0.483028,0.012385\P,0,1.751047,-0.163483,-0.090919\H,
 0,-0.064758,1.250421,0.847144\H,0,-0.096761,1.193221,-0.914181\N,0,-2.
 38554,0.147302,-0.082161\H,0,-0.935068,-1.11392,0.907968\H,0,-0.944778
 ,-1.141854,-0.853773\H,0,-2.584911,0.665582,0.768841\H,0,-3.106692,-0.
 563043,-0.162128\H,0,1.870165,-0.524087,1.278321\H,0,2.475868,1.044474

 Normal termination of Gaussian 16 at Tue Apr  8 23:25:55 2025.
