 Gaussian 16, Revision C.01,

 ----------------------------------------------------------------------
 #t hf aug-cc-pvdz symm=none int=(grid=ultrafine) guess=(read,tcheck) s
 table=opt
 ----------------------------------------------------------------------
 -----
 title
 -----
 Symbolic Z-matrix:
 Charge =  0 Multiplicity = 2

 SCF Done:  E(UHF) =  -630.052427938     A.U. after   24 cycles
 Normal termination of Gaussian 16 at Tue Apr  8 23:53:51 2025.
 Gaussian 16:  ES64L-G16RevC.01  3-Jul-2019

 ----------------------------------------------------------------------
 #t hf aug-cc-pvdz iop(5/13=1,5/36=2,99/5=2) pseudo=read geom=check gue
 ss=(read,tcheck) scf=(maxcycle=1)
 ----------------------------------------------------------------------
 -----
 title
 -----
 Structure from the checkpoint file:  "BDE49_nonexpt_1969_mol2.chk"
 Charge =  0 Multiplicity = 2

                         Standard orientation:
 ---------------------------------------------------------------------
 Center     Atomic      Atomic             Coordinates (Angstroms)
 Number     Number       Type             X           Y           Z
 ---------------------------------------------------------------------
      1         14           0        2.421213   -0.521703   -0.260026
      2          6           0        0.804222    0.362902    0.220000
      3          1           0        3.573898    0.178878    0.342295
      4          1           0        2.403196   -1.975071    0.015186
      5          8           0        0.727928    1.500145    0.581148
      6          8           0       -0.299038   -0.486510    0.085072
      7          6           0       -1.591607    0.010620   -0.159889
      8          8           0       -1.797952    1.050525   -0.699213
      9          6           0       -2.608568   -0.989992    0.312401
     10          1           0       -2.551606   -1.077364    1.400434
     11          1           0       -2.390937   -1.974490   -0.106248
     12          1           0       -3.603329   -0.662572    0.017569
 ---------------------------------------------------------------------

 SCF Done:  E(UHF) =  -630.181535742     A.U. after    2 cycles

 The electronic state is 2-A.
 Alpha  occ. eigenvalues --  -69.10450 -20.64041 -20.59624 -20.58473 -11.41769
 Alpha  occ. eigenvalues --  -11.40293 -11.26723  -6.85872  -3.97241  -3.96359
 Alpha  occ. eigenvalues --   -3.96303  -1.44988  -1.39119  -1.34175  -1.04088
 Alpha  occ. eigenvalues --   -0.91632  -0.78105  -0.75150  -0.71720  -0.70086
 Alpha  occ. eigenvalues --   -0.67952  -0.63118  -0.61612  -0.59373  -0.58204
 Alpha  occ. eigenvalues --   -0.55595  -0.52046  -0.51259  -0.49840  -0.44967
 Alpha  occ. eigenvalues --   -0.35188
 Alpha virt. eigenvalues --    0.03011   0.04110   0.05086   0.05447   0.05986
 Alpha virt. eigenvalues --    0.06373   0.07054   0.08591   0.09082   0.10246
 Alpha virt. eigenvalues --    0.12055   0.12143   0.12881   0.13390   0.14651

  Beta  occ. eigenvalues --  -69.09861 -20.64094 -20.58974 -20.58479 -11.41759
  Beta  occ. eigenvalues --  -11.40571 -11.26723  -6.84998  -3.95931  -3.95881
  Beta  occ. eigenvalues --   -3.94992  -1.44886  -1.38461  -1.33749  -1.04074
  Beta  occ. eigenvalues --   -0.91365  -0.76504  -0.74596  -0.71525  -0.69856
  Beta  occ. eigenvalues --   -0.66624  -0.62317  -0.61178  -0.59303  -0.57333
  Beta  occ. eigenvalues --   -0.54369  -0.51388  -0.50128  -0.49507  -0.44246
  Beta virt. eigenvalues --    0.00913   0.03091   0.04367   0.05255   0.05635
  Beta virt. eigenvalues --    0.06194   0.07107   0.07353   0.08993   0.10050
  Beta virt. eigenvalues --    0.11593   0.12137   0.12730   0.13389   0.13759

 Mulliken charges and spin densities:
               1          2
     1  Si   0.222253   1.015525
     2  C    0.319816  -0.151007
     3  H   -0.021679  -0.003815
     4  H    0.016584  -0.013302
     5  O   -0.386931   0.153173
     6  O   -0.486148  -0.019825
     7  C    0.401644   0.017434
     8  O   -0.381292  -0.000236
     9  C    0.260953   0.001769
    10  H    0.041099  -0.000171
    11  H    0.025708   0.000454
    12  H   -0.012007  -0.000000
 Sum of Mulliken charges =  -0.00000   1.00000

 Dipole moment (field-independent basis, Debye):
    X=              0.4246    Y=             -4.5362    Z=              0.4869  Tot=              4.5819
                          Isotropic Fermi Contact Couplings
        Atom                 a.u.       MegaHertz       Gauss      10(-4) cm-1
     1  Si(29)             0.53159    -472.43633    -168.57703    -157.58780
     2  C(13)             -0.02589     -29.10191     -10.38428      -9.70735
     3  H(1)              -0.00094      -4.21336      -1.50343      -1.40543
     4  H(1)              -0.00188      -8.40476      -2.99903      -2.80353
     5  O(17)              0.05368     -32.53978     -11.61100     -10.85410
     6  O(17)             -0.00560       3.39343       1.21086       1.13193
     7  C(13)              0.00118       1.33024       0.47466       0.44372
     8  O(17)             -0.00028       0.16950       0.06048       0.05654

 Normal termination of Gaussian 16 at Tue Apr  8 23:53:55 2025.
