 Gaussian 16, Revision C.01,

 ----------------------------------------------------------------------
 #t hf aug-cc-pvdz symm=none int=(grid=ultrafine) guess=(read,tcheck) s
 table=(opt,rrhf)
 ----------------------------------------------------------------------
 -----
 title
 -----
 Symbolic Z-matrix:
 Charge =  0 Multiplicity = 1

 SCF Done:  E(RHF) =  -841.441918811     A.U. after   16 cycles
 Normal termination of Gaussian 16 at Tue Apr  8 22:48:50 2025.
 Gaussian 16:  ES64L-G16RevC.01  3-Jul-2019

 ----------------------------------------------------------------------
 #t hf aug-cc-pvdz iop(5/13=1,5/36=2,99/5=2) pseudo=read geom=check gue
 ss=(read,tcheck) scf=(maxcycle=1)
 ----------------------------------------------------------------------
 -----
 title
 -----
 Structure from the checkpoint file:  "BDE49_expt_1679_mol1.chk"
 Charge =  0 Multiplicity = 1

                         Standard orientation:
 ---------------------------------------------------------------------
 Center     Atomic      Atomic             Coordinates (Angstroms)
 Number     Number       Type             X           Y           Z
 ---------------------------------------------------------------------
      1          6           0        0.987858   -1.208970   -0.000015
      2          6           0       -0.402605   -1.162476   -0.000057
      3          6           0       -1.079836    0.062385   -0.000070
      4          6           0       -0.332700    1.247657   -0.000034
      5          6           0        1.053909    1.217846    0.000009
      6          6           0        1.703018   -0.015745    0.000018
      7          1           0        1.512731   -2.155293   -0.000007
      8          1           0       -0.952379   -2.095466   -0.000081
      9          1           0        1.631438    2.133162    0.000035
     10         17           0        3.454398   -0.064831    0.000072
     11          6           0       -2.577458    0.169382   -0.000123
     12          8           0       -3.116659    1.257832    0.000036
     13          6           0       -3.401554   -1.105113    0.000013
     14          1           0       -3.182315   -1.713650   -0.882231
     15          1           0       -4.456066   -0.835284    0.000108
     16          1           0       -3.182141   -1.713589    0.882257
     17          1           0       -0.866552    2.189795   -0.000044
 ---------------------------------------------------------------------

 SCF Done:  E(RHF) =  -841.574069269     A.U. after    2 cycles

 The electronic state is 1-A.
 Alpha  occ. eigenvalues -- -103.67781 -20.56783 -11.35610 -11.33222 -11.28006
 Alpha  occ. eigenvalues --  -11.27230 -11.27168 -11.26993 -11.26917 -11.25327
 Alpha  occ. eigenvalues --  -10.71053  -8.36789  -8.36480  -8.36465  -1.36038
 Alpha  occ. eigenvalues --   -1.21193  -1.15031  -1.04747  -1.03887  -0.99645
 Alpha  occ. eigenvalues --   -0.86772  -0.85957  -0.77959  -0.71661  -0.68204
 Alpha  occ. eigenvalues --   -0.66287  -0.64269  -0.62387  -0.62159  -0.61857
 Alpha  occ. eigenvalues --   -0.56591  -0.56199  -0.54473  -0.53027  -0.52736
 Alpha  occ. eigenvalues --   -0.48406  -0.47853  -0.44137  -0.36868  -0.35594
 Alpha virt. eigenvalues --    0.02930   0.04029   0.04187   0.04628   0.06007
 Alpha virt. eigenvalues --    0.06064   0.06303   0.08191   0.08802   0.08836
 Alpha virt. eigenvalues --    0.09638   0.10924   0.11241   0.12460   0.13259

 Mulliken charges:
               1
     1  C    0.621887
     2  C    0.726317
     3  C    0.933369
     4  C    0.236614
     5  C    0.807634
     6  C   -0.398809
     7  H   -0.432229
     8  H   -0.691591
     9  H   -0.430937
    10  Cl  -0.349176
    11  C   -0.391848
    12  O   -0.520173
    13  C    0.464493
    14  H    0.110207
    15  H   -0.149501
    16  H    0.110176
    17  H   -0.646432
 Sum of Mulliken charges =   0.00000

 Dipole moment (field-independent basis, Debye):
    X=              0.0993    Y=             -2.8593    Z=             -0.0002  Tot=              2.8610

 Test job not archived.
 1\1\GINC-SE174\SP\RHF\Aug-CC-pVDZ\C8H7Cl1O1\OHZDE\08-Apr-2025\0\\#t hf
  aug-cc-pvdz iop(5/13=1,5/36=2,99/5=2) pseudo=read geom=check guess=(r
 ead,tcheck) scf=(maxcycle=1)\\title\\0,1\C,0,0.987858,-1.20897,-0.0000
 15\C,0,-0.402605,-1.162476,-0.000057\C,0,-1.079836,0.062385,-0.00007\C
 ,0,-0.3327,1.247657,-0.000034\C,0,1.053909,1.217846,0.000009\C,0,1.703
 018,-0.015745,0.000018\H,0,1.512731,-2.155293,-0.000007\H,0,-0.952379,
 -2.095466,-0.000081\H,0,1.631438,2.133162,0.000035\Cl,0,3.454398,-0.06
 4831,0.000072\C,0,-2.577458,0.169382,-0.000123\O,0,-3.116659,1.257832,

 Normal termination of Gaussian 16 at Tue Apr  8 22:48:59 2025.
