 Gaussian 16, Revision C.01,

 ----------------------------------------------------------------------
 #t hf aug-cc-pvdz symm=none int=(grid=ultrafine) guess=(read,tcheck) s
 table=(opt,rrhf)
 ----------------------------------------------------------------------
 -----
 title
 -----
 Symbolic Z-matrix:
 Charge =  0 Multiplicity = 1

 SCF Done:  E(RHF) =  -841.437818285     A.U. after   17 cycles
 Normal termination of Gaussian 16 at Tue Apr  8 22:50:02 2025.
 Gaussian 16:  ES64L-G16RevC.01  3-Jul-2019

 ----------------------------------------------------------------------
 #t hf aug-cc-pvdz iop(5/13=1,5/36=2,99/5=2) pseudo=read geom=check gue
 ss=(read,tcheck) scf=(maxcycle=1)
 ----------------------------------------------------------------------
 -----
 title
 -----
 Structure from the checkpoint file:  "BDE49_expt_1714_mol1.chk"
 Charge =  0 Multiplicity = 1

                         Standard orientation:
 ---------------------------------------------------------------------
 Center     Atomic      Atomic             Coordinates (Angstroms)
 Number     Number       Type             X           Y           Z
 ---------------------------------------------------------------------
      1          6           0       -3.049814   -0.723317   -0.104235
      2          6           0       -1.995453   -1.525882    0.325899
      3          6           0       -0.716445   -0.991037    0.447162
      4          6           0       -2.825186    0.618962   -0.414043
      5          6           0       -1.550961    1.154927   -0.291169
      6          6           0       -0.482636    0.356057    0.141269
      7          1           0       -4.045059   -1.142786   -0.199725
      8          1           0       -2.167805   -2.569248    0.563025
      9          1           0        0.094506   -1.633043    0.766787
     10          1           0       -3.644945    1.243418   -0.750051
     11          1           0       -1.353781    2.194281   -0.522190
     12          6           0        0.856364    1.002180    0.277401
     13          6           0        2.059242    0.172342    0.734318
     14         17           0        2.614579   -0.963728   -0.567111
     15          1           0        1.842088   -0.433798    1.612561
     16          1           0        2.881736    0.853130    0.931404
     17          8           0        1.021844    2.185753    0.067432
 ---------------------------------------------------------------------

 SCF Done:  E(RHF) =  -841.568635809     A.U. after    2 cycles

 The electronic state is 1-A.
 Alpha  occ. eigenvalues -- -103.66749 -20.57989 -11.36652 -11.32353 -11.27173
 Alpha  occ. eigenvalues --  -11.26899 -11.26745 -11.26409 -11.26100 -11.25929
 Alpha  occ. eigenvalues --  -10.69976  -8.35698  -8.35401  -8.35395  -1.37239
 Alpha  occ. eigenvalues --   -1.17668  -1.16258  -1.04854  -1.03017  -0.97657
 Alpha  occ. eigenvalues --   -0.87646  -0.84636  -0.77936  -0.73114  -0.68039
 Alpha  occ. eigenvalues --   -0.67520  -0.64964  -0.63166  -0.61700  -0.60724
 Alpha  occ. eigenvalues --   -0.59538  -0.54648  -0.53676  -0.51495  -0.51218
 Alpha  occ. eigenvalues --   -0.48805  -0.46281  -0.43788  -0.36084  -0.35696
 Alpha virt. eigenvalues --    0.02945   0.03606   0.04096   0.04809   0.05271
 Alpha virt. eigenvalues --    0.06006   0.06747   0.07376   0.09239   0.09607
 Alpha virt. eigenvalues --    0.10310   0.11157   0.11802   0.12844   0.13034

 Mulliken charges:
               1
     1  C    0.484432
     2  C    0.454781
     3  C    0.184949
     4  C    0.586713
     5  C   -0.160435
     6  C    1.511451
     7  H   -0.434164
     8  H   -0.433629
     9  H   -0.644207
    10  H   -0.420698
    11  H   -0.609084
    12  C   -0.285469
    13  C    0.411473
    14  Cl  -0.111196
    15  H    0.049901
    16  H   -0.088553
    17  O   -0.496266
 Sum of Mulliken charges =  -0.00000

 Dipole moment (field-independent basis, Debye):
    X=             -2.2022    Y=             -2.1303    Z=              1.7290  Tot=              3.5182

 Test job not archived.
 1\1\GINC-SE184\SP\RHF\Aug-CC-pVDZ\C8H7Cl1O1\OHZDE\08-Apr-2025\0\\#t hf
  aug-cc-pvdz iop(5/13=1,5/36=2,99/5=2) pseudo=read geom=check guess=(r
 ead,tcheck) scf=(maxcycle=1)\\title\\0,1\C,0,-3.049814,-0.723317,-0.10
 4235\C,0,-1.995453,-1.525882,0.325899\C,0,-0.716445,-0.991037,0.447162
 \C,0,-2.825186,0.618962,-0.414043\C,0,-1.550961,1.154927,-0.291169\C,0
 ,-0.482636,0.356057,0.141269\H,0,-4.045059,-1.142786,-0.199725\H,0,-2.
 167805,-2.569248,0.563025\H,0,0.094506,-1.633043,0.766787\H,0,-3.64494
 5,1.243418,-0.750051\H,0,-1.353781,2.194281,-0.52219\C,0,0.856364,1.00

 Normal termination of Gaussian 16 at Tue Apr  8 22:50:12 2025.
