 Gaussian 16, Revision C.01,

 ----------------------------------------------------------------------
 #t hf aug-cc-pvdz symm=none int=(grid=ultrafine) guess=(read,tcheck) s
 table=opt
 ----------------------------------------------------------------------
 -----
 title
 -----
 Symbolic Z-matrix:
 Charge =  0 Multiplicity = 2

 SCF Done:  E(UHF) =  -292.761048444     A.U. after   15 cycles
 Normal termination of Gaussian 16 at Tue Apr  8 23:53:49 2025.
 Gaussian 16:  ES64L-G16RevC.01  3-Jul-2019

 ----------------------------------------------------------------------
 #t hf aug-cc-pvdz iop(5/13=1,5/36=2,99/5=2) pseudo=read geom=check gue
 ss=(read,tcheck) scf=(maxcycle=1)
 ----------------------------------------------------------------------
 -----
 title
 -----
 Structure from the checkpoint file:  "BDE49_nonexpt_1959_mol2.chk"
 Charge =  0 Multiplicity = 2

                         Standard orientation:
 ---------------------------------------------------------------------
 Center     Atomic      Atomic             Coordinates (Angstroms)
 Number     Number       Type             X           Y           Z
 ---------------------------------------------------------------------
      1          6           0        0.753121    1.813269   -0.000082
      2          5           0        0.005103    0.467784   -0.000016
      3          8           0       -1.362541    0.506116   -0.000021
      4          8           0        0.604986   -0.767449    0.000020
      5          6           0       -2.127906   -0.695263    0.000022
      6          1           0       -3.180510   -0.410254    0.000011
      7          1           0       -1.914622   -1.299746    0.886437
      8          1           0       -1.914622   -1.299811   -0.886349
      9          6           0        2.015104   -0.936320    0.000014
     10          1           0        2.218294   -2.008036    0.000048
     11          1           0        2.472130   -0.492937    0.890743
     12          1           0        2.472118   -0.492996   -0.890751
     13          1           0        1.833539    1.914795    0.000105
     14          1           0        0.206679    2.750617    0.000122
 ---------------------------------------------------------------------

 SCF Done:  E(UHF) =  -292.863136475     A.U. after    2 cycles

 The electronic state is 2-A.
 Alpha  occ. eigenvalues --  -20.56997 -20.56084 -11.29264 -11.27816 -11.23393
 Alpha  occ. eigenvalues --   -7.64450  -1.33869  -1.30319  -0.95809  -0.94113
 Alpha  occ. eigenvalues --   -0.91525  -0.72784  -0.68982  -0.65549  -0.65307
 Alpha  occ. eigenvalues --   -0.62235  -0.60065  -0.56511  -0.55002  -0.50025
 Alpha  occ. eigenvalues --   -0.50025  -0.48366  -0.46340  -0.38693
 Alpha virt. eigenvalues --    0.03325   0.04689   0.04757   0.05405   0.06349
 Alpha virt. eigenvalues --    0.06462   0.07155   0.07675   0.08662   0.09764
 Alpha virt. eigenvalues --    0.09935   0.10859   0.14176   0.14243   0.15880

  Beta  occ. eigenvalues --  -20.56904 -20.55909 -11.29269 -11.27833 -11.21327
  Beta  occ. eigenvalues --   -7.64577  -1.33578  -1.29959  -0.94400  -0.93071
  Beta  occ. eigenvalues --   -0.85568  -0.72519  -0.68816  -0.64883  -0.64881
  Beta  occ. eigenvalues --   -0.61754  -0.59919  -0.55298  -0.54050  -0.49798
  Beta  occ. eigenvalues --   -0.49096  -0.47640  -0.45297
  Beta virt. eigenvalues --    0.03380   0.04278   0.04699   0.04809   0.06373
  Beta virt. eigenvalues --    0.06470   0.06794   0.07381   0.07715   0.09648
  Beta virt. eigenvalues --    0.09816   0.10024   0.10863   0.14201   0.14622

 Mulliken charges and spin densities:
               1          2
     1  C    0.422911   1.194088
     2  B    0.797348  -0.114633
     3  O   -0.612091   0.062411
     4  O   -0.505376   0.009076
     5  C    0.888745  -0.007221
     6  H   -0.281757   0.000303
     7  H   -0.134331   0.002193
     8  H   -0.134328   0.002193
     9  C    0.892886   0.003192
    10  H   -0.316420   0.000332
    11  H   -0.146816  -0.000491
    12  H   -0.146785  -0.000492
    13  H   -0.338838  -0.072435
    14  H   -0.385149  -0.078517
 Sum of Mulliken charges =  -0.00000   1.00000

 Dipole moment (field-independent basis, Debye):
    X=              1.5072    Y=             -0.6407    Z=              0.0003  Tot=              1.6377
                          Isotropic Fermi Contact Couplings
        Atom                 a.u.       MegaHertz       Gauss      10(-4) cm-1
     1  C(13)              0.16055     180.48398      64.40117      60.20298
     2  B(11)             -0.02594     -37.20987     -13.27741     -12.41188
     3  O(17)              0.01450      -8.79069      -3.13674      -2.93226
     4  O(17)              0.00958      -5.80586      -2.07168      -1.93663
     5  C(13)             -0.00284      -3.19600      -1.14041      -1.06607
     6  H(1)               0.00006       0.24892       0.08882       0.08303
     7  H(1)               0.00055       2.47967       0.88481       0.82713
     8  H(1)               0.00055       2.48003       0.88493       0.82725

 Normal termination of Gaussian 16 at Tue Apr  8 23:53:54 2025.
