 Gaussian 16, Revision C.01,

 ----------------------------------------------------------------------
 #t hf aug-cc-pvdz symm=none int=(grid=ultrafine) guess=(read,tcheck) s
 table=(opt,rrhf)
 ----------------------------------------------------------------------
 -----
 title
 -----
 Symbolic Z-matrix:
 Charge =  0 Multiplicity = 1

 SCF Done:  E(RHF) =  -816.962533124     A.U. after   15 cycles
 Normal termination of Gaussian 16 at Tue Apr  8 22:47:13 2025.
 Gaussian 16:  ES64L-G16RevC.01  3-Jul-2019

 ----------------------------------------------------------------------
 #t hf aug-cc-pvdz iop(5/13=1,5/36=2,99/5=2) pseudo=read geom=check gue
 ss=(read,tcheck) scf=(maxcycle=1)
 ----------------------------------------------------------------------
 -----
 title
 -----
 Structure from the checkpoint file:  "BDE49_expt_1603_mol1.chk"
 Charge =  0 Multiplicity = 1

                         Standard orientation:
 ---------------------------------------------------------------------
 Center     Atomic      Atomic             Coordinates (Angstroms)
 Number     Number       Type             X           Y           Z
 ---------------------------------------------------------------------
      1         16           0        0.091799   -1.480654   -0.000000
      2          6           0       -1.656760   -1.902588    0.000000
      3          8           0        0.644646   -1.925736    1.264166
      4          8           0        0.644646   -1.925736   -1.264166
      5          1           0       -2.120890   -1.500956    0.899638
      6          1           0       -1.701681   -2.992518   -0.000000
      7          1           0       -2.120890   -1.500956   -0.899638
      8          6           0        0.091099    0.315021    0.000000
      9          6           0        0.099838    0.996385    1.215838
     10          6           0        0.099838    0.996385   -1.215838
     11          6           0        0.099838    2.388829    1.209702
     12          6           0        0.099838    2.388829   -1.209702
     13          6           0        0.095860    3.082349    0.000000
     14          1           0        0.129355    0.438367    2.143248
     15          1           0        0.112487    2.931141    2.147944
     16          1           0        0.129355    0.438367   -2.143248
     17          1           0        0.112487    2.931141   -2.147944
     18          1           0        0.099341    4.166397    0.000000
 ---------------------------------------------------------------------

 SCF Done:  E(RHF) =  -817.163167327     A.U. after    2 cycles

 The electronic state is 1-A'.
 Alpha  occ. eigenvalues --  -93.78157 -20.55467 -20.55465 -11.28869 -11.28533
 Alpha  occ. eigenvalues --  -11.27762 -11.27753 -11.27510 -11.26934 -11.26924
 Alpha  occ. eigenvalues --   -9.04855  -6.39517  -6.39292  -6.39213  -1.41690
 Alpha  occ. eigenvalues --   -1.30336  -1.17438  -1.06107  -1.03924  -1.02226
 Alpha  occ. eigenvalues --   -0.89120  -0.85860  -0.80674  -0.74237  -0.68987
 Alpha  occ. eigenvalues --   -0.67494  -0.67476  -0.64827  -0.64743  -0.62115
 Alpha  occ. eigenvalues --   -0.60810  -0.60558  -0.55403  -0.53423  -0.52729
 Alpha  occ. eigenvalues --   -0.51797  -0.50813  -0.49100  -0.45091  -0.37472
 Alpha  occ. eigenvalues --   -0.36594
 Alpha virt. eigenvalues --    0.02683   0.03666   0.03700   0.05064   0.05744
 Alpha virt. eigenvalues --    0.06045   0.06963   0.07314   0.07459   0.08771
 Alpha virt. eigenvalues --    0.10234   0.10968   0.12006   0.12312   0.13629

 Mulliken charges:
               1
     1  S    2.548616
     2  C   -0.059477
     3  O   -1.138504
     4  O   -1.138504
     5  H   -0.011737
     6  H    0.001621
     7  H   -0.011737
     8  C    0.410101
     9  C   -0.007281
    10  C   -0.007281
    11  C    0.632527
    12  C    0.632527
    13  C    0.485123
    14  H   -0.521102
    15  H   -0.429384
    16  H   -0.521102
    17  H   -0.429384
    18  H   -0.435017
 Sum of Mulliken charges =  -0.00000

 Dipole moment (field-independent basis, Debye):
    X=             -4.0018    Y=              4.1649    Z=              0.0000  Tot=              5.7759

 Test job not archived.
 1\1\GINC-SE099\SP\RHF\Aug-CC-pVDZ\C7H8O2S1\OHZDE\08-Apr-2025\0\\#t hf
 aug-cc-pvdz iop(5/13=1,5/36=2,99/5=2) pseudo=read geom=check guess=(re
 ad,tcheck) scf=(maxcycle=1)\\title\\0,1\S,0,-0.091799,-1.480654,0.\C,0
 ,1.65676,-1.902588,0.\O,0,-0.644646,-1.925736,-1.264166\O,0,-0.644646,
 -1.925736,1.264166\H,0,2.12089,-1.500956,-0.899638\H,0,1.701681,-2.992
 518,0.\H,0,2.12089,-1.500956,0.899638\C,0,-0.091099,0.315021,0.\C,0,-0
 .099838,0.996385,-1.215838\C,0,-0.099838,0.996385,1.215838\C,0,-0.0998
 38,2.388829,-1.209702\C,0,-0.099838,2.388829,1.209702\C,0,-0.09586,3.0

 Normal termination of Gaussian 16 at Tue Apr  8 22:47:21 2025.
