 Gaussian 16, Revision C.01,

 ----------------------------------------------------------------------
 #t hf aug-cc-pvdz symm=none int=(grid=ultrafine) guess=(read,tcheck) s
 table=(opt,rrhf)
 ----------------------------------------------------------------------
 -----
 title
 -----
 Symbolic Z-matrix:
 Charge =  0 Multiplicity = 1

 SCF Done:  E(RHF) =  -1616.65901211     A.U. after   13 cycles
 Normal termination of Gaussian 16 at Wed Apr  9 00:47:58 2025.
 Gaussian 16:  ES64L-G16RevC.01  3-Jul-2019

 ----------------------------------------------------------------------
 #t hf aug-cc-pvdz iop(5/13=1,5/36=2,99/5=2) pseudo=read geom=check gue
 ss=(read,tcheck) scf=(maxcycle=1)
 ----------------------------------------------------------------------
 -----
 title
 -----
 Structure from the checkpoint file:  "BDE49_nonexpt_901_mol1.chk"
 Charge =  0 Multiplicity = 1

                         Standard orientation:
 ---------------------------------------------------------------------
 Center     Atomic      Atomic             Coordinates (Angstroms)
 Number     Number       Type             X           Y           Z
 ---------------------------------------------------------------------
      1         16           0       -0.672067   -1.148285   -0.019850
      2          5           0        0.717348    0.047151   -0.002561
      3         16           0        0.603922    1.846259   -0.004308
      4         16           0        2.386233   -0.681075    0.013379
      5         16           0       -2.455767   -0.028469   -0.065824
      6          1           0        2.014305   -1.974672    0.028497
      7          1           0       -0.744681    1.891750   -0.055822
      8          1           0       -2.653490    0.032280    1.265788
 ---------------------------------------------------------------------

 SCF Done:  E(RHF) =  -1616.74107033     A.U. after    2 cycles

 The electronic state is 1-A.
 Alpha  occ. eigenvalues --  -93.58777 -93.57737 -93.55220 -93.54868  -8.88336
 Alpha  occ. eigenvalues --   -8.87468  -8.85169  -8.84869  -7.70841  -6.22441
 Alpha  occ. eigenvalues --   -6.22224  -6.21904  -6.21600  -6.21290  -6.21050
 Alpha  occ. eigenvalues --   -6.19343  -6.19101  -6.19033  -6.18833  -6.18819
 Alpha  occ. eigenvalues --   -6.18555  -1.05657  -0.99895  -0.96128  -0.88539
 Alpha  occ. eigenvalues --   -0.65930  -0.60588  -0.56935  -0.53648  -0.51718
 Alpha  occ. eigenvalues --   -0.46292  -0.45521  -0.44662  -0.39096  -0.38350
 Alpha  occ. eigenvalues --   -0.37643
 Alpha virt. eigenvalues --    0.03427   0.04272   0.05825   0.06085   0.06856
 Alpha virt. eigenvalues --    0.07281   0.08991   0.09208   0.09617   0.10771
 Alpha virt. eigenvalues --    0.11109   0.11901   0.12910   0.13833   0.14783

 Mulliken charges:
               1
     1  S   -0.263084
     2  B    0.745637
     3  S   -0.181497
     4  S   -0.270252
     5  S   -0.244831
     6  H    0.004389
     7  H    0.066036
     8  H    0.143602
 Sum of Mulliken charges =  -0.00000

 Dipole moment (field-independent basis, Debye):
    X=             -1.3435    Y=             -0.2872    Z=              0.8367  Tot=              1.6086

 Test job not archived.
 1\1\GINC-SE424\SP\RHF\Aug-CC-pVDZ\B1H3S4\OHZDE\09-Apr-2025\0\\#t hf au
 g-cc-pvdz iop(5/13=1,5/36=2,99/5=2) pseudo=read geom=check guess=(read
 ,tcheck) scf=(maxcycle=1)\\title\\0,1\S,0,-0.672067,-1.148285,-0.01985
 \B,0,0.717348,0.047151,-0.002561\S,0,0.603922,1.846259,-0.004308\S,0,2
 .386233,-0.681075,0.013379\S,0,-2.455767,-0.028469,-0.065824\H,0,2.014
 305,-1.974672,0.028497\H,0,-0.744681,1.89175,-0.055822\H,0,-2.65349,0.
 03228,1.265788\\Version=ES64L-G16RevC.01\State=1-A\HF=-1616.7410703\RM
 SD=7.097e-03\Dipole=-0.5285853,-0.112986,0.3291836\Quadrupole=0.289998

 Normal termination of Gaussian 16 at Wed Apr  9 00:48:02 2025.
