 Gaussian 16, Revision C.01,

 ----------------------------------------------------------------------
 #t hf aug-cc-pvdz symm=none int=(grid=ultrafine) guess=(read,tcheck) s
 table=(opt,rrhf)
 ----------------------------------------------------------------------
 -----
 title
 -----
 Symbolic Z-matrix:
 Charge =  0 Multiplicity = 1

 SCF Done:  E(RHF) =  -1014.69959934     A.U. after   15 cycles
 Normal termination of Gaussian 16 at Tue Apr  8 23:49:28 2025.
 Gaussian 16:  ES64L-G16RevC.01  3-Jul-2019

 ----------------------------------------------------------------------
 #t hf aug-cc-pvdz iop(5/13=1,5/36=2,99/5=2) pseudo=read geom=check gue
 ss=(read,tcheck) scf=(maxcycle=1)
 ----------------------------------------------------------------------
 -----
 title
 -----
 Structure from the checkpoint file:  "BDE49_nonexpt_1873_mol1.chk"
 Charge =  0 Multiplicity = 1

                         Standard orientation:
 ---------------------------------------------------------------------
 Center     Atomic      Atomic             Coordinates (Angstroms)
 Number     Number       Type             X           Y           Z
 ---------------------------------------------------------------------
      1          6           0       -0.180766   -0.820878    0.813060
      2         14           0        1.156127   -0.992193   -0.534852
      3          6           0       -1.508731   -0.411136    0.278842
      4          8           0       -2.496383   -1.046535    0.171417
      5         17           0       -1.482568    1.344752   -0.314280
      6          6           0        2.414754    0.439724   -0.213856
      7          1           0        0.603098   -0.923216   -1.903425
      8          1           0        1.882023   -2.271649   -0.359081
      9          8           0        2.381054    1.060837    0.823949
     10          1           0        3.195241    0.677747   -0.974026
     11          1           0        0.214521   -0.051765    1.484263
     12          1           0       -0.305903   -1.761881    1.351747
 ---------------------------------------------------------------------

 SCF Done:  E(RHF) =  -1014.82319301     A.U. after    2 cycles

 The electronic state is 1-A.
 Alpha  occ. eigenvalues -- -103.66934 -69.10861 -20.61793 -20.60576 -11.43462
 Alpha  occ. eigenvalues --  -11.35474 -11.27692 -10.70242  -8.35936  -8.35666
 Alpha  occ. eigenvalues --   -8.35650  -6.86138  -3.96918  -3.96902  -3.96885
 Alpha  occ. eigenvalues --   -1.42661  -1.38210  -1.16085  -1.03625  -0.86436
 Alpha  occ. eigenvalues --   -0.79332  -0.73645  -0.69702  -0.68903  -0.68469
 Alpha  occ. eigenvalues --   -0.64660  -0.61086  -0.58721  -0.56841  -0.51407
 Alpha  occ. eigenvalues --   -0.49733  -0.48110  -0.47757  -0.46576  -0.42359
 Alpha virt. eigenvalues --    0.02700   0.03720   0.04651   0.05032   0.06322
 Alpha virt. eigenvalues --    0.06780   0.07148   0.07541   0.08913   0.09855
 Alpha virt. eigenvalues --    0.10483   0.11430   0.12025   0.13369   0.13733

 Mulliken charges:
               1
     1  C    0.176765
     2  Si   0.595839
     3  C    0.083914
     4  O   -0.356000
     5  Cl  -0.190069
     6  C    0.303362
     7  H    0.083550
     8  H    0.039120
     9  O   -0.438270
    10  H   -0.248493
    11  H    0.040167
    12  H   -0.089886
 Sum of Mulliken charges =  -0.00000

 Dipole moment (field-independent basis, Debye):
    X=              3.0569    Y=             -2.1753    Z=             -1.0863  Tot=              3.9060

 Test job not archived.
 1\1\GINC-SE419\SP\RHF\Aug-CC-pVDZ\C3H5Cl1O2Si1\OHZDE\08-Apr-2025\0\\#t
  hf aug-cc-pvdz iop(5/13=1,5/36=2,99/5=2) pseudo=read geom=check guess
 =(read,tcheck) scf=(maxcycle=1)\\title\\0,1\C,0,-0.180766,-0.820878,0.
 81306\Si,0,1.156127,-0.992193,-0.534852\C,0,-1.508731,-0.411136,0.2788
 42\O,0,-2.496383,-1.046535,0.171417\Cl,0,-1.482568,1.344752,-0.31428\C
 ,0,2.414754,0.439724,-0.213856\H,0,0.603098,-0.923216,-1.903425\H,0,1.
 882023,-2.271649,-0.359081\O,0,2.381054,1.060837,0.823949\H,0,3.195241
 ,0.677747,-0.974026\H,0,0.214521,-0.051765,1.484263\H,0,-0.305903,-1.7

 Normal termination of Gaussian 16 at Tue Apr  8 23:49:33 2025.
