 Gaussian 16, Revision C.01,

 ----------------------------------------------------------------------
 #t hf aug-cc-pvdz symm=none int=(grid=ultrafine) guess=(read,tcheck) s
 table=(opt,rrhf)
 ----------------------------------------------------------------------
 -----
 title
 -----
 Symbolic Z-matrix:
 Charge =  0 Multiplicity = 1

 SCF Done:  E(RHF) =  -101.339937940     A.U. after   11 cycles
 Normal termination of Gaussian 16 at Wed Apr  9 00:33:43 2025.
 Gaussian 16:  ES64L-G16RevC.01  3-Jul-2019

 ----------------------------------------------------------------------
 #t hf aug-cc-pvdz iop(5/13=1,5/36=2,99/5=2) pseudo=read geom=check gue
 ss=(read,tcheck) scf=(maxcycle=1)
 ----------------------------------------------------------------------
 -----
 title
 -----
 Structure from the checkpoint file:  "BDE49_nonexpt_451_mol1.chk"
 Charge =  0 Multiplicity = 1

                         Standard orientation:
 ---------------------------------------------------------------------
 Center     Atomic      Atomic             Coordinates (Angstroms)
 Number     Number       Type             X           Y           Z
 ---------------------------------------------------------------------
      1          1           0       -1.367019   -0.964764    0.000012
      2          1           0       -1.206052    1.121987    0.000011
      3          8           0        0.627785   -0.127064    0.000003
      4          5           0       -0.712675    0.031192   -0.000011
      5          1           0        1.114166    0.703330    0.000009
 ---------------------------------------------------------------------

 SCF Done:  E(RHF) =  -101.378788149     A.U. after    2 cycles

 The electronic state is 1-A.
 Alpha  occ. eigenvalues --  -20.59682  -7.64090  -1.33847  -0.78531  -0.66043
 Alpha  occ. eigenvalues --   -0.58712  -0.56381  -0.46846
 Alpha virt. eigenvalues --    0.03522   0.05058   0.05138   0.05973   0.08444
 Alpha virt. eigenvalues --    0.11106   0.11917   0.14348   0.18048   0.22098
 Alpha virt. eigenvalues --    0.23456   0.24685   0.25714   0.26721   0.32253

 Mulliken charges:
               1
     1  H    0.160409
     2  H    0.065846
     3  O   -0.441291
     4  B    0.034373
     5  H    0.180662
 Sum of Mulliken charges =   0.00000

 Dipole moment (field-independent basis, Debye):
    X=              0.3190    Y=              1.5812    Z=             -0.0000  Tot=              1.6130

 Test job not archived.
 1\1\GINC-SE044\SP\RHF\Aug-CC-pVDZ\B1H3O1\OHZDE\09-Apr-2025\0\\#t hf au
 g-cc-pvdz iop(5/13=1,5/36=2,99/5=2) pseudo=read geom=check guess=(read
 ,tcheck) scf=(maxcycle=1)\\title\\0,1\H,0,-1.367019,-0.964764,0.000012
 \H,0,-1.206052,1.121987,0.000011\O,0,0.627785,-0.127064,0.000003\B,0,-
 0.712675,0.031192,-0.000011\H,0,1.114166,0.70333,0.000009\\Version=ES6
 4L-G16RevC.01\State=1-A\HF=-101.3787881\RMSD=2.999e-03\Dipole=0.125502
 1,0.622082,-0.0000153\Quadrupole=-0.0943751,-0.1938589,0.288234,1.6035
 03,0.0000378,0.0000115\PG=C01 [X(B1H3O1)]\\@

 Normal termination of Gaussian 16 at Wed Apr  9 00:33:45 2025.
