 Gaussian 16, Revision C.01,

 ----------------------------------------------------------------------
 #t hf aug-cc-pvdz symm=none int=(grid=ultrafine) guess=(read,tcheck) s
 table=(opt,rrhf)
 ----------------------------------------------------------------------
 -----
 title
 -----
 Symbolic Z-matrix:
 Charge =  0 Multiplicity = 1

 SCF Done:  E(RHF) =  -419.903222900     A.U. after   13 cycles
 Normal termination of Gaussian 16 at Tue Apr  8 22:51:31 2025.
 Gaussian 16:  ES64L-G16RevC.01  3-Jul-2019

 ----------------------------------------------------------------------
 #t hf aug-cc-pvdz iop(5/13=1,5/36=2,99/5=2) pseudo=read geom=check gue
 ss=(read,tcheck) scf=(maxcycle=1)
 ----------------------------------------------------------------------
 -----
 title
 -----
 Structure from the checkpoint file:  "BDE49_expt_1814_mol1.chk"
 Charge =  0 Multiplicity = 1

                         Standard orientation:
 ---------------------------------------------------------------------
 Center     Atomic      Atomic             Coordinates (Angstroms)
 Number     Number       Type             X           Y           Z
 ---------------------------------------------------------------------
      1         14           0        0.532398   -0.851646    0.000000
      2          7           0        0.000000    0.943057    0.000000
      3          8           0       -1.196282    1.136488    0.000000
      4          1           0       -0.620042   -1.779045    0.000000
      5          1           0        1.368363   -0.995603    1.211175
      6          1           0        1.368363   -0.995603   -1.211175
 ---------------------------------------------------------------------

 SCF Done:  E(RHF) =  -419.967316226     A.U. after    2 cycles

 The electronic state is 1-A'.
 Alpha  occ. eigenvalues --  -69.10871 -20.65646 -15.74719  -6.86043  -3.96853
 Alpha  occ. eigenvalues --   -3.96770  -3.96762  -1.45897  -0.93790  -0.75559
 Alpha  occ. eigenvalues --   -0.67232  -0.64126  -0.59904  -0.51115  -0.50892
 Alpha  occ. eigenvalues --   -0.37974
 Alpha virt. eigenvalues --    0.03455   0.05243   0.05415   0.05484   0.06323
 Alpha virt. eigenvalues --    0.08723   0.08807   0.12426   0.14852   0.15423
 Alpha virt. eigenvalues --    0.17102   0.17239   0.19034   0.19750   0.23807

 Mulliken charges:
               1
     1  Si   0.857473
     2  N   -0.247077
     3  O   -0.361896
     4  H   -0.060940
     5  H   -0.093780
     6  H   -0.093780
 Sum of Mulliken charges =  -0.00000

 Dipole moment (field-independent basis, Debye):
    X=              1.4716    Y=             -2.3828    Z=              0.0000  Tot=              2.8006

 Test job not archived.
 1\1\GINC-SE454\SP\RHF\Aug-CC-pVDZ\H3N1O1Si1\OHZDE\08-Apr-2025\0\\#t hf
  aug-cc-pvdz iop(5/13=1,5/36=2,99/5=2) pseudo=read geom=check guess=(r
 ead,tcheck) scf=(maxcycle=1)\\title\\0,1\Si,0,0.532398,-0.851646,0.\N,
 0,0.,0.943057,0.\O,0,-1.196282,1.136488,0.\H,0,-0.620042,-1.779045,0.\
 H,0,1.368363,-0.995603,1.211175\H,0,1.368363,-0.995603,-1.211175\\Vers
 ion=ES64L-G16RevC.01\State=1-A'\HF=-419.9673162\RMSD=4.804e-03\Dipole=
 0.5789598,-0.937463,0.\Quadrupole=-0.763188,-0.7811522,1.5443403,0.492
 5759,0.,0.\PG=CS [SG(H1N1O1Si1),X(H2)]\\@

 Normal termination of Gaussian 16 at Tue Apr  8 22:51:33 2025.
