 Gaussian 16, Revision C.01,

 ----------------------------------------------------------------------
 #t hf aug-cc-pvdz symm=none int=(grid=ultrafine) guess=(read,tcheck) s
 table=(opt,rrhf)
 ----------------------------------------------------------------------
 -----
 title
 -----
 Symbolic Z-matrix:
 Charge =  0 Multiplicity = 1

 SCF Done:  E(RHF) =  -1530.58824242     A.U. after   13 cycles
 Normal termination of Gaussian 16 at Tue Apr  8 23:59:31 2025.
 Gaussian 16:  ES64L-G16RevC.01  3-Jul-2019

 ----------------------------------------------------------------------
 #t hf aug-cc-pvdz iop(5/13=1,5/36=2,99/5=2) pseudo=read geom=check gue
 ss=(read,tcheck) scf=(maxcycle=1)
 ----------------------------------------------------------------------
 -----
 title
 -----
 Structure from the checkpoint file:  "BDE49_nonexpt_213_mol1.chk"
 Charge =  0 Multiplicity = 1

                         Standard orientation:
 ---------------------------------------------------------------------
 Center     Atomic      Atomic             Coordinates (Angstroms)
 Number     Number       Type             X           Y           Z
 ---------------------------------------------------------------------
      1         17           0       -1.786808   -1.343566   -0.000025
      2         17           0       -1.404394    1.683639   -0.000003
      3          5           0       -0.773000    0.058332    0.000031
      4         16           0        1.104299   -0.265589    0.000010
      5          8           0        1.408302   -0.916081   -1.265542
      6          6           0        1.931013    1.330704    0.000016
      7          8           0        1.408329   -0.916105    1.265544
      8          1           0        1.666264    1.880640   -0.901630
      9          1           0        2.994970    1.088527    0.000003
     10          1           0        1.666281    1.880624    0.901677
 ---------------------------------------------------------------------

 SCF Done:  E(RHF) =  -1530.76171533     A.U. after    2 cycles

 The electronic state is 1-A.
 Alpha  occ. eigenvalues -- -103.71664-103.70615 -93.78394 -20.56789 -20.56788
 Alpha  occ. eigenvalues --  -11.29786 -10.75137 -10.74079  -9.05331  -8.40830
 Alpha  occ. eigenvalues --   -8.40595  -8.40563  -8.39780  -8.39533  -8.39498
 Alpha  occ. eigenvalues --   -7.79290  -6.39964  -6.39714  -6.39636  -1.42404
 Alpha  occ. eigenvalues --   -1.31225  -1.22512  -1.18916  -1.04732  -0.88322
 Alpha  occ. eigenvalues --   -0.75124  -0.69307  -0.68523  -0.67422  -0.63229
 Alpha  occ. eigenvalues --   -0.62045  -0.60695  -0.57101  -0.56042  -0.53165
 Alpha  occ. eigenvalues --   -0.51392  -0.51136  -0.50446  -0.50163  -0.44536
 Alpha virt. eigenvalues --    0.02937   0.03012   0.04497   0.05055   0.05570
 Alpha virt. eigenvalues --    0.06814   0.06820   0.07883   0.11225   0.12224
 Alpha virt. eigenvalues --    0.12933   0.13415   0.14565   0.15542   0.16226

 Mulliken charges:
               1
     1  Cl  -0.257062
     2  Cl  -0.207901
     3  B    0.699234
     4  S    2.024746
     5  O   -1.079557
     6  C   -0.057407
     7  O   -1.079558
     8  H   -0.024605
     9  H    0.006715
    10  H   -0.024604
 Sum of Mulliken charges =  -0.00000

 Dipole moment (field-independent basis, Debye):
    X=             -1.2755    Y=              4.5634    Z=              0.0001  Tot=              4.7383

 Test job not archived.
 1\1\GINC-SE460\SP\RHF\Aug-CC-pVDZ\C1H3B1Cl2O2S1\OHZDE\08-Apr-2025\0\\#
 t hf aug-cc-pvdz iop(5/13=1,5/36=2,99/5=2) pseudo=read geom=check gues
 s=(read,tcheck) scf=(maxcycle=1)\\title\\0,1\Cl,0,1.786808,-1.343566,0
 .000025\Cl,0,1.404394,1.683639,0.000003\B,0,0.773,0.058332,-0.000031\S
 ,0,-1.104299,-0.265589,-0.00001\O,0,-1.408302,-0.916081,1.265542\C,0,-
 1.931013,1.330704,-0.000016\O,0,-1.408329,-0.916105,-1.265544\H,0,-1.6
 66263,1.88064,0.90163\H,0,-2.99497,1.088528,-0.000003\H,0,-1.66628,1.8
 80624,-0.901677\\Version=ES64L-G16RevC.01\State=1-A\HF=-1530.7617153\R

 Normal termination of Gaussian 16 at Tue Apr  8 23:59:36 2025.
