 Gaussian 16, Revision C.01,

 ----------------------------------------------------------------------
 #t hf aug-cc-pvdz symm=none int=(grid=ultrafine) guess=(read,tcheck) s
 table=(opt,rrhf)
 ----------------------------------------------------------------------
 -----
 title
 -----
 Symbolic Z-matrix:
 Charge =  0 Multiplicity = 1

 SCF Done:  E(RHF) =  -459.597290495     A.U. after   11 cycles
 Normal termination of Gaussian 16 at Tue Apr  8 23:27:07 2025.
 Gaussian 16:  ES64L-G16RevC.01  3-Jul-2019

 ----------------------------------------------------------------------
 #t hf aug-cc-pvdz iop(5/13=1,5/36=2,99/5=2) pseudo=read geom=check gue
 ss=(read,tcheck) scf=(maxcycle=1)
 ----------------------------------------------------------------------
 -----
 title
 -----
 Structure from the checkpoint file:  "BDE49_nonexpt_1347_mol1.chk"
 Charge =  0 Multiplicity = 1

                         Standard orientation:
 ---------------------------------------------------------------------
 Center     Atomic      Atomic             Coordinates (Angstroms)
 Number     Number       Type             X           Y           Z
 ---------------------------------------------------------------------
      1         15           0       -0.000039   -0.000061   -0.599778
      2          6           0       -0.003354    1.636067    0.278233
      3          1           0       -0.003171    1.530433    1.368439
      4          1           0       -0.886356    2.207435   -0.019542
      5          1           0        0.877341    2.211004   -0.019507
      6          6           0       -1.415304   -0.820906    0.278367
      7          1           0       -2.353542   -0.345873   -0.019774
      8          1           0       -1.324295   -0.767653    1.368603
      9          1           0       -1.468460   -1.871366   -0.019186
     10          6           0        1.418714   -0.815064    0.278180
     11          1           0        2.354946   -0.336174   -0.020094
     12          1           0        1.476155   -1.865302   -0.019369
     13          1           0        1.327638   -0.762173    1.368424
 ---------------------------------------------------------------------

 SCF Done:  E(RHF) =  -459.662967878     A.U. after    2 cycles

 The electronic state is 1-A.
 Alpha  occ. eigenvalues --  -81.24425 -11.22948 -11.22948 -11.22946  -7.74661
 Alpha  occ. eigenvalues --   -4.88626  -4.88626  -4.88279  -0.99295  -0.92846
 Alpha  occ. eigenvalues --   -0.92845  -0.68224  -0.59680  -0.58059  -0.58058
 Alpha  occ. eigenvalues --   -0.55141  -0.55138  -0.53649  -0.44866  -0.44865
 Alpha  occ. eigenvalues --   -0.31791
 Alpha virt. eigenvalues --    0.03677   0.04658   0.04658   0.05672   0.07023
 Alpha virt. eigenvalues --    0.07023   0.07709   0.07710   0.08842   0.09005
 Alpha virt. eigenvalues --    0.12480   0.12481   0.14456   0.16765   0.16766

 Mulliken charges:
               1
     1  P    0.397297
     2  C    0.314712
     3  H   -0.154221
     4  H   -0.146477
     5  H   -0.146474
     6  C    0.314589
     7  H   -0.146411
     8  H   -0.154166
     9  H   -0.146430
    10  C    0.314591
    11  H   -0.146413
    12  H   -0.146428
    13  H   -0.154168
 Sum of Mulliken charges =  -0.00000

 Dipole moment (field-independent basis, Debye):
    X=              0.0001    Y=              0.0000    Z=              1.2978  Tot=              1.2978

 Test job not archived.
 1\1\GINC-SE074\SP\RHF\Aug-CC-pVDZ\C3H9P1\OHZDE\08-Apr-2025\0\\#t hf au
 g-cc-pvdz iop(5/13=1,5/36=2,99/5=2) pseudo=read geom=check guess=(read
 ,tcheck) scf=(maxcycle=1)\\title\\0,1\P,0,-0.000039,-0.000061,-0.59977
 8\C,0,-0.004076,1.636066,0.278233\H,0,-0.003846,1.530432,1.368439\H,0,
 -0.88733,2.207044,-0.019542\H,0,0.876365,2.211391,-0.019507\C,0,-1.414
 942,-0.82153,0.278367\H,0,-2.353389,-0.346911,-0.019774\H,0,-1.323956,
 -0.768237,1.368603\H,0,-1.467634,-1.872014,-0.019186\C,0,1.419073,-0.8
 14438,0.27818\H,0,2.355094,-0.335135,-0.020094\H,0,1.476978,-1.86465,-

 Normal termination of Gaussian 16 at Tue Apr  8 23:27:10 2025.
