 Gaussian 16, Revision C.01,

 ----------------------------------------------------------------------
 #t hf aug-cc-pvdz symm=none int=(grid=ultrafine) guess=(read,tcheck) s
 table=(opt,rrhf)
 ----------------------------------------------------------------------
 -----
 title
 -----
 Symbolic Z-matrix:
 Charge =  0 Multiplicity = 1

 SCF Done:  E(RHF) =  -315.494727667     A.U. after   14 cycles
 Normal termination of Gaussian 16 at Wed Apr  9 00:42:40 2025.
 Gaussian 16:  ES64L-G16RevC.01  3-Jul-2019

 ----------------------------------------------------------------------
 #t hf aug-cc-pvdz iop(5/13=1,5/36=2,99/5=2) pseudo=read geom=check gue
 ss=(read,tcheck) scf=(maxcycle=1)
 ----------------------------------------------------------------------
 -----
 title
 -----
 Structure from the checkpoint file:  "BDE49_nonexpt_73_mol1.chk"
 Charge =  0 Multiplicity = 1

                         Standard orientation:
 ---------------------------------------------------------------------
 Center     Atomic      Atomic             Coordinates (Angstroms)
 Number     Number       Type             X           Y           Z
 ---------------------------------------------------------------------
      1          5           0        0.407731    0.710992    1.157568
      2          5           0       -0.407632   -0.709179    1.158675
      3          6           0       -1.703609   -1.052427    0.300396
      4          7           0       -2.361803   -0.276984   -0.475978
      5          6           0        1.704266    1.052582    0.299465
      6          7           0        2.362114    0.276050   -0.476117
      7          6           0       -1.959823    1.083558   -0.702606
      8          1           0       -2.771173    1.751462   -0.397243
      9          1           0       -1.804373    1.234610   -1.775250
     10          1           0       -1.038046    1.396436   -0.170537
     11          6           0        1.959075   -1.084304   -0.701996
     12          1           0        1.804143   -1.235997   -1.774626
     13          1           0        1.036703   -1.395988   -0.170259
     14          1           0        2.769651   -1.752702   -0.395660
     15          1           0       -2.123380   -2.060390    0.378223
     16          1           0        2.124659    2.060347    0.376494
     17          1           0       -0.075522   -1.572836    1.921831
     18          1           0        0.075210    1.576081    1.918921
 ---------------------------------------------------------------------

 SCF Done:  E(RHF) =  -315.589041811     A.U. after    2 cycles

 The electronic state is 1-A.
 Alpha  occ. eigenvalues --  -15.64771 -15.64770 -11.27520 -11.27519 -11.27136
 Alpha  occ. eigenvalues --  -11.27136  -7.61023  -7.60929  -1.20264  -1.19977
 Alpha  occ. eigenvalues --   -0.97120  -0.96803  -0.82490  -0.78309  -0.71034
 Alpha  occ. eigenvalues --   -0.67161  -0.64844  -0.64614  -0.60668  -0.60297
 Alpha  occ. eigenvalues --   -0.57844  -0.55476  -0.53337  -0.51699  -0.45297
 Alpha  occ. eigenvalues --   -0.42661  -0.42066  -0.39151  -0.38612
 Alpha virt. eigenvalues --    0.02802   0.03446   0.03573   0.03655   0.05177
 Alpha virt. eigenvalues --    0.05344   0.05869   0.05952   0.06411   0.07095
 Alpha virt. eigenvalues --    0.07193   0.08404   0.09079   0.09330   0.10395

 Mulliken charges:
               1
     1  B    0.143983
     2  B    0.143149
     3  C    0.529187
     4  N   -0.625451
     5  C    0.528815
     6  N   -0.625177
     7  C    1.036272
     8  H   -0.103598
     9  H   -0.104314
    10  H   -0.497634
    11  C    1.036639
    12  H   -0.104225
    13  H   -0.498466
    14  H   -0.103388
    15  H   -0.472730
    16  H   -0.473118
    17  H    0.095234
    18  H    0.094824
 Sum of Mulliken charges =  -0.00000

 Dipole moment (field-independent basis, Debye):
    X=             -0.0004    Y=              0.0009    Z=              0.7116  Tot=              0.7116

 Test job not archived.
 1\1\GINC-SE419\SP\RHF\Aug-CC-pVDZ\C4H10B2N2\OHZDE\09-Apr-2025\0\\#t hf
  aug-cc-pvdz iop(5/13=1,5/36=2,99/5=2) pseudo=read geom=check guess=(r
 ead,tcheck) scf=(maxcycle=1)\\title\\0,1\B,0,-0.407731,-0.710992,1.157
 568\B,0,0.407632,0.709179,1.158675\C,0,1.703609,1.052427,0.300396\N,0,
 2.361803,0.276984,-0.475978\C,0,-1.704266,-1.052582,0.299465\N,0,-2.36
 2114,-0.27605,-0.476117\C,0,1.959823,-1.083558,-0.702606\H,0,2.771173,
 -1.751462,-0.397243\H,0,1.804373,-1.23461,-1.77525\H,0,1.038046,-1.396
 436,-0.170537\C,0,-1.959075,1.084304,-0.701996\H,0,-1.804143,1.235997,

 Normal termination of Gaussian 16 at Wed Apr  9 00:42:47 2025.
