 Gaussian 16, Revision C.01,

 ----------------------------------------------------------------------
 #t hf aug-cc-pvdz symm=none int=(grid=ultrafine) guess=(read,tcheck) s
 table=opt
 ----------------------------------------------------------------------
 -----
 title
 -----
 Symbolic Z-matrix:
 Charge =  0 Multiplicity = 2

 SCF Done:  E(UHF) =  -715.595165591     A.U. after   19 cycles
 Normal termination of Gaussian 16 at Wed Apr  9 00:18:11 2025.
 Gaussian 16:  ES64L-G16RevC.01  3-Jul-2019

 ----------------------------------------------------------------------
 #t hf aug-cc-pvdz iop(5/13=1,5/36=2,99/5=2) pseudo=read geom=check gue
 ss=(read,tcheck) scf=(maxcycle=1)
 ----------------------------------------------------------------------
 -----
 title
 -----
 Structure from the checkpoint file:  "BDE49_nonexpt_258_mol2.chk"
 Charge =  0 Multiplicity = 2

                         Standard orientation:
 ---------------------------------------------------------------------
 Center     Atomic      Atomic             Coordinates (Angstroms)
 Number     Number       Type             X           Y           Z
 ---------------------------------------------------------------------
      1          9           0       -2.760067   -0.980327   -0.308535
      2          6           0       -1.301328    0.911463   -0.178342
      3          6           0       -2.357740    0.115163    0.495009
      4          1           0       -3.248650    0.722299    0.670532
      5          1           0       -1.993612   -0.302658    1.436704
      6          7           0       -0.021138    0.551995   -0.116449
      7          5           0        1.181650    0.203778   -0.051486
      8         17           0        2.814779   -0.256525    0.040568
      9          1           0       -1.574258    1.721614   -0.847510
 ---------------------------------------------------------------------

 SCF Done:  E(UHF) =  -715.697901795     A.U. after    2 cycles

 The electronic state is 2-A.
 Alpha  occ. eigenvalues -- -103.70675 -26.09609 -15.63239 -11.32596 -11.29636
 Alpha  occ. eigenvalues --  -10.74103  -8.39775  -8.39598  -8.39550  -7.69865
 Alpha  occ. eigenvalues --   -1.62586  -1.20087  -1.17711  -1.01253  -0.88349
 Alpha  occ. eigenvalues --   -0.74772  -0.73506  -0.72190  -0.67986  -0.65534
 Alpha  occ. eigenvalues --   -0.58968  -0.56379  -0.54568  -0.53946  -0.51122
 Alpha  occ. eigenvalues --   -0.41109  -0.31266
 Alpha virt. eigenvalues --    0.03311   0.04127   0.04478   0.05435   0.06556
 Alpha virt. eigenvalues --    0.07088   0.08674   0.10875   0.12988   0.13469
 Alpha virt. eigenvalues --    0.13900   0.14806   0.15461   0.15922   0.16798

  Beta  occ. eigenvalues -- -103.70665 -26.09265 -15.64246 -11.32876 -11.27338
  Beta  occ. eigenvalues --  -10.74092  -8.39871  -8.39531  -8.39469  -7.69177
  Beta  occ. eigenvalues --   -1.61495  -1.19866  -1.17112  -0.99783  -0.85281
  Beta  occ. eigenvalues --   -0.74157  -0.72591  -0.70314  -0.66878  -0.65171
  Beta  occ. eigenvalues --   -0.58262  -0.54439  -0.54281  -0.53624  -0.47697
  Beta  occ. eigenvalues --   -0.42276
  Beta virt. eigenvalues --    0.03383   0.04171   0.04488   0.05354   0.06549
  Beta virt. eigenvalues --    0.07086   0.07199   0.08786   0.11774   0.13338
  Beta virt. eigenvalues --    0.13667   0.14097   0.15021   0.15748   0.16241

 Mulliken charges and spin densities:
               1          2
     1  F   -0.456537   0.024864
     2  C    0.568900   1.194648
     3  C    0.636933  -0.175288
     4  H   -0.090346   0.009090
     5  H   -0.151669   0.004577
     6  N    0.120477  -0.339315
     7  B   -0.181450   0.376725
     8  Cl  -0.198502   0.002724
     9  H   -0.247806  -0.098024
 Sum of Mulliken charges =  -0.00000   1.00000

 Dipole moment (field-independent basis, Debye):
    X=              1.0191    Y=              1.8167    Z=              1.1448  Tot=              2.3769
                          Isotropic Fermi Contact Couplings
        Atom                 a.u.       MegaHertz       Gauss      10(-4) cm-1
     1  F(19)              0.07002     294.60775     105.12337      98.27057
     2  C(13)              0.20032     225.19374      80.35473      75.11655
     3  C(13)             -0.04031     -45.31057     -16.16794     -15.11398
     4  H(1)               0.00226      10.11785       3.61030       3.37495
     5  H(1)               0.00369      16.50017       5.88767       5.50387
     6  N(14)             -0.16229     -52.43718     -18.71089     -17.49116
     7  B(11)              0.04629      66.39928      23.69292      22.14842
     8  Cl(35)             0.00810       3.55166       1.26732       1.18471

 Normal termination of Gaussian 16 at Wed Apr  9 00:18:15 2025.
