 Gaussian 16, Revision C.01,

 ----------------------------------------------------------------------
 #t hf aug-cc-pvdz symm=none int=(grid=ultrafine) guess=(read,tcheck) s
 table=(opt,rrhf)
 ----------------------------------------------------------------------
 -----
 title
 -----
 Symbolic Z-matrix:
 Charge =  0 Multiplicity = 1

 SCF Done:  E(RHF) =  -846.809044794     A.U. after   12 cycles
 Normal termination of Gaussian 16 at Wed Apr  9 00:51:59 2025.
 Gaussian 16:  ES64L-G16RevC.01  3-Jul-2019

 ----------------------------------------------------------------------
 #t hf aug-cc-pvdz iop(5/13=1,5/36=2,99/5=2) pseudo=read geom=check gue
 ss=(read,tcheck) scf=(maxcycle=1)
 ----------------------------------------------------------------------
 -----
 title
 -----
 Structure from the checkpoint file:  "BDE49_nonexpt_99_mol1.chk"
 Charge =  0 Multiplicity = 1

                         Standard orientation:
 ---------------------------------------------------------------------
 Center     Atomic      Atomic             Coordinates (Angstroms)
 Number     Number       Type             X           Y           Z
 ---------------------------------------------------------------------
      1          5           0       -0.751266    0.800060    0.365337
      2          5           0        0.751267    0.800048   -0.365358
      3         16           0        2.021904   -0.352432    0.142316
      4          1           0        3.028995    0.050486   -0.655283
      5         16           0       -2.021915   -0.352411   -0.142331
      6          1           0       -3.028937    0.050390    0.655415
      7          1           0        1.025520    1.588136   -1.215787
      8          1           0       -1.025406    1.587942    1.215992
 ---------------------------------------------------------------------

 SCF Done:  E(RHF) =  -846.862311656     A.U. after    2 cycles

 The electronic state is 1-A.
 Alpha  occ. eigenvalues --  -93.54531 -93.54530  -8.84492  -8.84491  -7.63284
 Alpha  occ. eigenvalues --   -7.63206  -6.18674  -6.18659  -6.18396  -6.18391
 Alpha  occ. eigenvalues --   -6.18212  -6.18195  -0.98209  -0.96918  -0.71561
 Alpha  occ. eigenvalues --   -0.61664  -0.57934  -0.57124  -0.46218  -0.44826
 Alpha  occ. eigenvalues --   -0.43590  -0.39900  -0.39772
 Alpha virt. eigenvalues --    0.03569   0.03949   0.05156   0.05297   0.06856
 Alpha virt. eigenvalues --    0.06936   0.07498   0.08269   0.08957   0.09695
 Alpha virt. eigenvalues --    0.10078   0.10798   0.12883   0.13248   0.14606

 Mulliken charges:
               1
     1  B    0.047030
     2  B    0.047021
     3  S   -0.209612
     4  H   -0.021476
     5  S   -0.209610
     6  H   -0.021476
     7  H    0.184063
     8  H    0.184060
 Sum of Mulliken charges =  -0.00000

 Dipole moment (field-independent basis, Debye):
    X=              0.0000    Y=              1.0371    Z=              0.0000  Tot=              1.0371

 Test job not archived.
 1\1\GINC-SE454\SP\RHF\Aug-CC-pVDZ\B2H4S2\OHZDE\09-Apr-2025\0\\#t hf au
 g-cc-pvdz iop(5/13=1,5/36=2,99/5=2) pseudo=read geom=check guess=(read
 ,tcheck) scf=(maxcycle=1)\\title\\0,1\B,0,-0.751266,0.80006,0.365337\B
 ,0,0.751267,0.800048,-0.365358\S,0,2.021904,-0.352432,0.142316\H,0,3.0
 28995,0.050486,-0.655283\S,0,-2.021915,-0.352411,-0.142331\H,0,-3.0289
 37,0.05039,0.655415\H,0,1.02552,1.588136,-1.215787\H,0,-1.025406,1.587
 942,1.215992\\Version=ES64L-G16RevC.01\State=1-A\HF=-846.8623117\RMSD=
 6.538e-03\Dipole=0.000007,0.4080313,0.0000056\Quadrupole=2.9727752,-1.

 Normal termination of Gaussian 16 at Wed Apr  9 00:52:01 2025.
