 Gaussian 16, Revision C.01,

 ----------------------------------------------------------------------
 #t hf aug-cc-pvdz symm=none int=(grid=ultrafine) guess=(read,tcheck) s
 table=(opt,rrhf)
 ----------------------------------------------------------------------
 -----
 title
 -----
 Symbolic Z-matrix:
 Charge =  0 Multiplicity = 1

 SCF Done:  E(RHF) =  -2273.37484925     A.U. after   13 cycles

 1\1\GINC-SE106\Stability\RHF\Aug-CC-pVDZ\C1Cl4S1\OHZDE\09-Apr-2025\0\\
 #t hf aug-cc-pvdz symm=none int=(grid=ultrafine) guess=(read,tcheck) s
 table=(opt,rrhf)\\title\\0,1\Cl,0,2.497238,-0.015446,-0.000071\S,0,0.8
 17576,1.184282,-0.000596\C,0,-0.533609,-0.037447,-0.000009\Cl,0,-1.957
 245,1.065763,0.000643\Cl,0,-0.559922,-1.075871,1.455541\Cl,0,-0.561221
 ,-1.075849,-1.455549\\Version=ES64L-G16RevC.01\HF=-2273.3748493\RMSD=6
 .349e-09\Dipole=-0.1242899,0.1531295,-0.0000104\Quadrupole=-0.0771674,
 0.8501634,-0.772996,-0.6535595,0.0001993,-0.0008159\PG=Unknown\\@

 Normal termination of Gaussian 16 at Wed Apr  9 00:15:37 2025.
 Gaussian 16:  ES64L-G16RevC.01  3-Jul-2019

 ----------------------------------------------------------------------
 #t hf aug-cc-pvdz iop(5/13=1,5/36=2,99/5=2) pseudo=read geom=check gue
 ss=(read,tcheck) scf=(maxcycle=1)
 ----------------------------------------------------------------------
 -----
 title
 -----
 Structure from the checkpoint file:  "BDE49_nonexpt_2538_mol1.chk"
 Charge =  0 Multiplicity = 1

                         Standard orientation:
 ---------------------------------------------------------------------
 Center     Atomic      Atomic             Coordinates (Angstroms)
 Number     Number       Type             X           Y           Z
 ---------------------------------------------------------------------
      1         17           0       -2.497238   -0.015445    0.000071
      2         16           0       -0.817576    1.184282    0.000596
      3          6           0        0.533609   -0.037447    0.000009
      4         17           0        1.957245    1.065763   -0.000643
      5         17           0        0.559922   -1.075871   -1.455541
      6         17           0        0.561221   -1.075849    1.455549
 ---------------------------------------------------------------------

 SCF Done:  E(RHF) =  -2273.48205786     A.U. after    2 cycles

 The electronic state is 1-A.
 Alpha  occ. eigenvalues -- -103.71274-103.70363-103.70363-103.70146 -93.63792
 Alpha  occ. eigenvalues --  -11.48946 -10.74548 -10.73668 -10.73643 -10.73318
 Alpha  occ. eigenvalues --   -8.93114  -8.40261  -8.39926  -8.39905  -8.39378
 Alpha  occ. eigenvalues --   -8.39371  -8.39050  -8.39021  -8.39020  -8.39019
 Alpha  occ. eigenvalues --   -8.39017  -8.38692  -8.38655  -6.27160  -6.26890
 Alpha  occ. eigenvalues --   -6.26439  -1.28451  -1.19024  -1.17782  -1.17093
 Alpha  occ. eigenvalues --   -0.99899  -0.82668  -0.66976  -0.66206  -0.65288
 Alpha  occ. eigenvalues --   -0.56190  -0.55088  -0.52368  -0.52061  -0.51158
 Alpha  occ. eigenvalues --   -0.48945  -0.48932  -0.47816  -0.46977  -0.39995
 Alpha virt. eigenvalues --    0.03350   0.04849   0.07799   0.08148   0.08311
 Alpha virt. eigenvalues --    0.08565   0.10194   0.10925   0.12355   0.14163
 Alpha virt. eigenvalues --    0.14695   0.14917   0.16118   0.16465   0.18261

 Mulliken charges:
               1
     1  Cl  -0.281847
     2  S    0.724374
     3  C   -0.892348
     4  Cl   0.203291
     5  Cl   0.123273
     6  Cl   0.123258
 Sum of Mulliken charges =   0.00000

 Dipole moment (field-independent basis, Debye):
    X=              0.3247    Y=              0.5314    Z=              0.0001  Tot=              0.6228

 Test job not archived.
 1\1\GINC-SE106\SP\RHF\Aug-CC-pVDZ\C1Cl4S1\OHZDE\09-Apr-2025\0\\#t hf a
 ug-cc-pvdz iop(5/13=1,5/36=2,99/5=2) pseudo=read geom=check guess=(rea
 d,tcheck) scf=(maxcycle=1)\\title\\0,1\Cl,0,2.497238,-0.015446,-0.0000
 71\S,0,0.817576,1.184282,-0.000596\C,0,-0.533609,-0.037447,-0.000009\C
 l,0,-1.957245,1.065763,0.000643\Cl,0,-0.559922,-1.075871,1.455541\Cl,0
 ,-0.561221,-1.075849,-1.455549\\Version=ES64L-G16RevC.01\State=1-A\HF=
 -2273.4820579\RMSD=4.038e-03\Dipole=-0.1277645,0.2090657,-0.0000381\Qu
 adrupole=-0.2206176,0.9858164,-0.7651988,-0.605353,0.000163,-0.0008878

 Normal termination of Gaussian 16 at Wed Apr  9 00:15:40 2025.
