 Gaussian 16, Revision C.01,

 ----------------------------------------------------------------------
 #t hf aug-cc-pvdz symm=none int=(grid=ultrafine) guess=(read,tcheck) s
 table=(opt,rrhf)
 ----------------------------------------------------------------------
 -----
 title
 -----
 Symbolic Z-matrix:
 Charge =  0 Multiplicity = 1

 SCF Done:  E(RHF) =  -1473.64364618     A.U. after   15 cycles
 Normal termination of Gaussian 16 at Tue Apr  8 23:49:34 2025.
 Gaussian 16:  ES64L-G16RevC.01  3-Jul-2019

 ----------------------------------------------------------------------
 #t hf aug-cc-pvdz iop(5/13=1,5/36=2,99/5=2) pseudo=read geom=check gue
 ss=(read,tcheck) scf=(maxcycle=1)
 ----------------------------------------------------------------------
 -----
 title
 -----
 Structure from the checkpoint file:  "BDE49_nonexpt_1875_mol1.chk"
 Charge =  0 Multiplicity = 1

                         Standard orientation:
 ---------------------------------------------------------------------
 Center     Atomic      Atomic             Coordinates (Angstroms)
 Number     Number       Type             X           Y           Z
 ---------------------------------------------------------------------
      1         14           0       -0.370112    1.394870    0.503255
      2          6           0        0.941541    0.986695   -0.810644
      3          6           0       -1.642610   -0.039573    0.646967
      4          8           0       -1.991010   -0.646899    1.589571
      5          1           0       -1.140246    2.569582    0.056210
      6          1           0        0.235077    1.591409    1.832618
      7         17           0       -2.427726   -0.376988   -1.034506
      8          6           0        2.097699    0.206370   -0.272027
      9          8           0        3.194359    0.580691   -0.052195
     10         17           0        1.622449   -1.531080    0.105038
     11          1           0        1.328414    1.926966   -1.212270
     12          1           0        0.441450    0.429719   -1.605949
 ---------------------------------------------------------------------

 SCF Done:  E(RHF) =  -1473.78431331     A.U. after    2 cycles

 The electronic state is 1-A.
 Alpha  occ. eigenvalues -- -103.68266-103.66952 -69.13544 -20.64433 -20.62878
 Alpha  occ. eigenvalues --  -11.44532 -11.42784 -11.29520 -10.71574 -10.70264
 Alpha  occ. eigenvalues --   -8.37270  -8.36994  -8.36978  -8.35944  -8.35683
 Alpha  occ. eigenvalues --   -8.35680  -6.88723  -3.99535  -3.99472  -3.99449
 Alpha  occ. eigenvalues --   -1.44410  -1.43736  -1.17569  -1.15342  -1.05081
 Alpha  occ. eigenvalues --   -0.85758  -0.80267  -0.75236  -0.70999  -0.70325
 Alpha  occ. eigenvalues --   -0.68753  -0.66996  -0.63506  -0.62039  -0.60625
 Alpha  occ. eigenvalues --   -0.53824  -0.51519  -0.49353  -0.49136  -0.48368
 Alpha  occ. eigenvalues --   -0.48075  -0.47698  -0.44720
 Alpha virt. eigenvalues --    0.02467   0.03876   0.04734   0.05397   0.06082
 Alpha virt. eigenvalues --    0.06631   0.07310   0.08414   0.08636   0.09196
 Alpha virt. eigenvalues --    0.09372   0.11005   0.11967   0.12615   0.12931

 Mulliken charges:
               1
     1  Si   0.635331
     2  C    0.258221
     3  C    0.190197
     4  O   -0.389958
     5  H    0.086491
     6  H    0.119471
     7  Cl  -0.289926
     8  C    0.093454
     9  O   -0.351556
    10  Cl  -0.182262
    11  H   -0.131352
    12  H   -0.038111
 Sum of Mulliken charges =   0.00000

 Dipole moment (field-independent basis, Debye):
    X=             -0.2616    Y=              3.5328    Z=             -1.2581  Tot=              3.7593

 Test job not archived.
 1\1\GINC-SE453\SP\RHF\Aug-CC-pVDZ\C3H4Cl2O2Si1\OHZDE\08-Apr-2025\0\\#t
  hf aug-cc-pvdz iop(5/13=1,5/36=2,99/5=2) pseudo=read geom=check guess
 =(read,tcheck) scf=(maxcycle=1)\\title\\0,1\Si,0,-0.370112,1.39487,0.5
 03255\C,0,0.941541,0.986695,-0.810644\C,0,-1.64261,-0.039573,0.646967\
 O,0,-1.99101,-0.646899,1.589571\H,0,-1.140246,2.569582,0.05621\H,0,0.2
 35077,1.591409,1.832618\Cl,0,-2.427726,-0.376988,-1.034506\C,0,2.09769
 9,0.20637,-0.272027\O,0,3.194359,0.580691,-0.052195\Cl,0,1.622449,-1.5
 3108,0.105038\H,0,1.328414,1.926966,-1.21227\H,0,0.44145,0.429719,-1.6

 Normal termination of Gaussian 16 at Tue Apr  8 23:49:40 2025.
