 Gaussian 16, Revision C.01,

 ----------------------------------------------------------------------
 #t hf aug-cc-pvdz symm=none int=(grid=ultrafine) guess=(read,tcheck) s
 table=(opt,rrhf)
 ----------------------------------------------------------------------
 -----
 title
 -----
 Symbolic Z-matrix:
 Charge =  0 Multiplicity = 1

 SCF Done:  E(RHF) =  -317.185982257     A.U. after   13 cycles
 Normal termination of Gaussian 16 at Wed Apr  9 00:31:15 2025.
 Gaussian 16:  ES64L-G16RevC.01  3-Jul-2019

 ----------------------------------------------------------------------
 #t hf aug-cc-pvdz iop(5/13=1,5/36=2,99/5=2) pseudo=read geom=check gue
 ss=(read,tcheck) scf=(maxcycle=1)
 ----------------------------------------------------------------------
 -----
 title
 -----
 Structure from the checkpoint file:  "BDE49_nonexpt_406_mol1.chk"
 Charge =  0 Multiplicity = 1

                         Standard orientation:
 ---------------------------------------------------------------------
 Center     Atomic      Atomic             Coordinates (Angstroms)
 Number     Number       Type             X           Y           Z
 ---------------------------------------------------------------------
      1          9           0       -1.594737   -0.761803   -0.000009
      2          9           0       -0.639581    1.292567    0.000009
      3          5           0       -0.497684   -0.025180    0.000008
      4          6           0        0.935036   -0.663496   -0.000006
      5          7           0        2.020691    0.009856   -0.000002
      6          1           0        1.810164    1.014532    0.000009
      7          1           0        1.032061   -1.753525    0.000001
 ---------------------------------------------------------------------

 SCF Done:  E(RHF) =  -317.304880331     A.U. after    2 cycles

 The electronic state is 1-A.
 Alpha  occ. eigenvalues --  -26.15897 -26.15829 -15.66337 -11.29820  -7.76170
 Alpha  occ. eigenvalues --   -1.71183  -1.68998  -1.20083  -0.90623  -0.86224
 Alpha  occ. eigenvalues --   -0.83938  -0.79675  -0.78815  -0.74095  -0.73589
 Alpha  occ. eigenvalues --   -0.66393  -0.61508  -0.46991  -0.44058
 Alpha virt. eigenvalues --    0.03691   0.04332   0.04483   0.05726   0.06514
 Alpha virt. eigenvalues --    0.07636   0.08461   0.11728   0.13235   0.16523
 Alpha virt. eigenvalues --    0.18726   0.18922   0.20475   0.21663   0.23679

 Mulliken charges:
               1
     1  F   -0.455233
     2  F   -0.447343
     3  B    1.056621
     4  C    0.440037
     5  N   -0.332608
     6  H    0.058728
     7  H   -0.320202
 Sum of Mulliken charges =  -0.00000

 Dipole moment (field-independent basis, Debye):
    X=             -0.3162    Y=             -0.1921    Z=              0.0001  Tot=              0.3699

 Test job not archived.
 1\1\GINC-SE126\SP\RHF\Aug-CC-pVDZ\C1H2B1F2N1\OHZDE\09-Apr-2025\0\\#t h
 f aug-cc-pvdz iop(5/13=1,5/36=2,99/5=2) pseudo=read geom=check guess=(
 read,tcheck) scf=(maxcycle=1)\\title\\0,1\F,0,-1.594737,-0.761803,-0.0
 00009\F,0,-0.639581,1.292567,0.000009\B,0,-0.497684,-0.02518,0.000008\
 C,0,0.935036,-0.663496,-0.000006\N,0,2.020691,0.009856,-0.000002\H,0,1
 .810164,1.014532,0.000009\H,0,1.032061,-1.753525,0.000001\\Version=ES6
 4L-G16RevC.01\State=1-A\HF=-317.3048803\RMSD=5.275e-03\Dipole=-0.12438
 52,-0.0755669,0.0000233\Quadrupole=-4.6158902,1.9531218,2.6627684,0.89

 Normal termination of Gaussian 16 at Wed Apr  9 00:31:17 2025.
