 Gaussian 16, Revision C.01,

 ----------------------------------------------------------------------
 #t hf aug-cc-pvdz symm=none int=(grid=ultrafine) guess=(read,tcheck) s
 table=(opt,rrhf)
 ----------------------------------------------------------------------
 -----
 title
 -----
 Symbolic Z-matrix:
 Charge =  0 Multiplicity = 1

 SCF Done:  E(RHF) =  -760.695585912     A.U. after   16 cycles
 Normal termination of Gaussian 16 at Tue Apr  8 22:50:05 2025.
 Gaussian 16:  ES64L-G16RevC.01  3-Jul-2019

 ----------------------------------------------------------------------
 #t hf aug-cc-pvdz iop(5/13=1,5/36=2,99/5=2) pseudo=read geom=check gue
 ss=(read,tcheck) scf=(maxcycle=1)
 ----------------------------------------------------------------------
 -----
 title
 -----
 Structure from the checkpoint file:  "BDE49_expt_1461_mol1.chk"
 Charge =  0 Multiplicity = 1

                         Standard orientation:
 ---------------------------------------------------------------------
 Center     Atomic      Atomic             Coordinates (Angstroms)
 Number     Number       Type             X           Y           Z
 ---------------------------------------------------------------------
      1          6           0        2.377492    0.161494   -0.124401
      2          6           0        1.146876    0.948956   -0.391475
      3          8           0        0.000000    0.259029    0.000003
      4          6           0       -1.146877    0.948955    0.391479
      5          8           0        1.104736    2.018695   -0.924616
      6          8           0       -1.104739    2.018697    0.924616
      7          6           0       -2.377493    0.161494    0.124403
      8          6           0        2.359683   -1.055175    0.566953
      9          6           0        3.549067   -1.739969    0.794973
     10          6           0        4.756306   -1.217077    0.334462
     11          6           0        4.777050   -0.004104   -0.354776
     12          6           0        3.592709    0.684330   -0.583533
     13          6           0       -2.359681   -1.055177   -0.566949
     14          6           0       -3.592710    0.684330    0.583529
     15          6           0       -4.777051   -0.004104    0.354770
     16          6           0       -4.756305   -1.217079   -0.334465
     17          6           0       -3.549064   -1.739972   -0.794971
     18          1           0       -3.534717   -2.680844   -1.332777
     19          1           0       -1.419628   -1.453632   -0.924052
     20          1           0       -3.585095    1.628849    1.112980
     21          1           0       -5.716315    0.402746    0.710912
     22          1           0       -5.681365   -1.753509   -0.513672
     23          1           0        1.419631   -1.453629    0.924060
     24          1           0        3.534721   -2.680841    1.332781
     25          1           0        5.681366   -1.753507    0.513667
     26          1           0        5.716313    0.402745   -0.710922
     27          1           0        3.585092    1.628847   -1.112986
 ---------------------------------------------------------------------

 SCF Done:  E(RHF) =  -760.922500893     A.U. after    2 cycles

 The electronic state is 1-A.
 Alpha  occ. eigenvalues --  -20.63763 -20.57595 -20.57595 -11.41489 -11.41458
 Alpha  occ. eigenvalues --  -11.27182 -11.27181 -11.27046 -11.27046 -11.26992
 Alpha  occ. eigenvalues --  -11.26992 -11.26688 -11.26688 -11.26122 -11.26122
 Alpha  occ. eigenvalues --  -11.26017 -11.26017  -1.45008  -1.37980  -1.33406
 Alpha  occ. eigenvalues --   -1.16754  -1.16533  -1.06049  -1.04392  -1.03089
 Alpha  occ. eigenvalues --   -1.03041  -0.94705  -0.87841  -0.85456  -0.84730
 Alpha  occ. eigenvalues --   -0.82632  -0.76661  -0.74900  -0.74684  -0.70612
 Alpha  occ. eigenvalues --   -0.69262  -0.68836  -0.65879  -0.65743  -0.64510
 Alpha  occ. eigenvalues --   -0.64220  -0.61950  -0.61772  -0.60969  -0.60906
 Alpha  occ. eigenvalues --   -0.57324  -0.54006  -0.53963  -0.52762  -0.51777
 Alpha  occ. eigenvalues --   -0.51589  -0.51575  -0.50128  -0.49747  -0.46707
 Alpha  occ. eigenvalues --   -0.36421  -0.36243  -0.35803  -0.35787
 Alpha virt. eigenvalues --    0.02717   0.03017   0.03722   0.04239   0.04698
 Alpha virt. eigenvalues --    0.05094   0.05481   0.06008   0.06574   0.06816
 Alpha virt. eigenvalues --    0.07008   0.07722   0.09328   0.09421   0.09649

 Mulliken charges:
               1
     1  C    1.374066
     2  C   -0.128106
     3  O   -0.595025
     4  C   -0.128098
     5  O   -0.394778
     6  O   -0.394781
     7  C    1.374062
     8  C    0.580185
     9  C    0.330228
    10  C    0.571713
    11  C    0.553769
    12  C   -0.053460
    13  C    0.580183
    14  C   -0.053465
    15  C    0.553771
    16  C    0.571709
    17  C    0.330237
    18  H   -0.455286
    19  H   -0.611173
    20  H   -0.602897
    21  H   -0.427086
    22  H   -0.439664
    23  H   -0.611172
    24  H   -0.455284
    25  H   -0.439664
    26  H   -0.427086
    27  H   -0.602900
 Sum of Mulliken charges =  -0.00000

 Dipole moment (field-independent basis, Debye):
    X=              0.0000    Y=             -5.1609    Z=             -0.0000  Tot=              5.1609

 Test job not archived.
 1\1\GINC-SE070\SP\RHF\Aug-CC-pVDZ\C14H10O3\OHZDE\08-Apr-2025\0\\#t hf
 aug-cc-pvdz iop(5/13=1,5/36=2,99/5=2) pseudo=read geom=check guess=(re
 ad,tcheck) scf=(maxcycle=1)\\title\\0,1\C,0,2.377492,0.161494,-0.12440
 1\C,0,1.146876,0.948956,-0.391475\O,0,0.,0.259029,0.000003\C,0,-1.1468
 77,0.948955,0.391479\O,0,1.104736,2.018695,-0.924616\O,0,-1.104739,2.0
 18697,0.924616\C,0,-2.377493,0.161494,0.124403\C,0,2.359683,-1.055175,
 0.566953\C,0,3.549067,-1.739969,0.794973\C,0,4.756306,-1.217077,0.3344
 62\C,0,4.77705,-0.004104,-0.354776\C,0,3.592709,0.68433,-0.583533\C,0,

 Normal termination of Gaussian 16 at Tue Apr  8 22:50:37 2025.
