 Gaussian 16, Revision C.01,

 ----------------------------------------------------------------------
 #t hf aug-cc-pvdz symm=none int=(grid=ultrafine) guess=(read,tcheck) s
 table=(opt,rrhf)
 ----------------------------------------------------------------------
 -----
 title
 -----
 Symbolic Z-matrix:
 Charge =  0 Multiplicity = 1

 SCF Done:  E(RHF) =  -383.664027240     A.U. after   15 cycles

 1\1\GINC-SE435\Stability\RHF\Aug-CC-pVDZ\C8H10O1\OHZDE\08-Apr-2025\0\\
 #t hf aug-cc-pvdz symm=none int=(grid=ultrafine) guess=(read,tcheck) s
 table=(opt,rrhf)\\title\\0,1\C,0,-2.286609,-0.675232,0.\C,0,-1.844579,
 0.649638,0.\C,0,-0.490714,0.971134,0.\C,0,-1.353918,-1.702806,0.\C,0,0
 .012465,-1.414438,0.\C,0,0.440909,-0.086606,0.\H,0,-1.677618,-2.737638
 ,0.\H,0,0.727451,-2.226203,0.\O,0,1.753685,0.296325,0.\C,0,2.755899,-0
 .70763,0.000001\H,0,3.707951,-0.178829,0.000001\H,0,2.693877,-1.339219
 ,-0.8936\H,0,2.693876,-1.339219,0.893601\H,0,-3.347758,-0.895003,-0.00

 Normal termination of Gaussian 16 at Tue Apr  8 22:41:37 2025.
 Gaussian 16:  ES64L-G16RevC.01  3-Jul-2019

 ----------------------------------------------------------------------
 #t hf aug-cc-pvdz iop(5/13=1,5/36=2,99/5=2) pseudo=read geom=check gue
 ss=(read,tcheck) scf=(maxcycle=1)
 ----------------------------------------------------------------------
 -----
 title
 -----
 Structure from the checkpoint file:  "BDE49_expt_1409_mol1.chk"
 Charge =  0 Multiplicity = 1

                         Standard orientation:
 ---------------------------------------------------------------------
 Center     Atomic      Atomic             Coordinates (Angstroms)
 Number     Number       Type             X           Y           Z
 ---------------------------------------------------------------------
      1          6           0       -2.286609   -0.675232   -0.000000
      2          6           0       -1.844579    0.649638   -0.000000
      3          6           0       -0.490714    0.971134   -0.000000
      4          6           0       -1.353918   -1.702806   -0.000000
      5          6           0        0.012465   -1.414438   -0.000000
      6          6           0        0.440909   -0.086606   -0.000000
      7          1           0       -1.677618   -2.737638   -0.000000
      8          1           0        0.727451   -2.226203   -0.000000
      9          8           0        1.753685    0.296325   -0.000000
     10          6           0        2.755899   -0.707630    0.000001
     11          1           0        3.707951   -0.178829    0.000001
     12          1           0        2.693877   -1.339219   -0.893600
     13          1           0        2.693876   -1.339219    0.893601
     14          1           0       -3.347758   -0.895003   -0.000001
     15          6           0       -0.006538    2.397151   -0.000000
     16          1           0       -0.848042    3.092373   -0.000001
     17          1           0        0.614571    2.604358   -0.876455
     18          1           0        0.614570    2.604358    0.876455
     19          1           0       -2.569845    1.457158   -0.000001
 ---------------------------------------------------------------------

 SCF Done:  E(RHF) =  -383.782384496     A.U. after    2 cycles

 The electronic state is 1-A.
 Alpha  occ. eigenvalues --  -20.59739 -11.30518 -11.29648 -11.24273 -11.24231
 Alpha  occ. eigenvalues --  -11.23975 -11.23772 -11.23239 -11.22654  -1.36681
 Alpha  occ. eigenvalues --   -1.13797  -1.03975  -1.00823  -0.94933  -0.92042
 Alpha  occ. eigenvalues --   -0.81604  -0.80190  -0.71991  -0.67707  -0.66531
 Alpha  occ. eigenvalues --   -0.65439  -0.61753  -0.59133  -0.57045  -0.56940
 Alpha  occ. eigenvalues --   -0.54309  -0.52883  -0.51577  -0.50247  -0.48050
 Alpha  occ. eigenvalues --   -0.47149  -0.33451  -0.30992
 Alpha virt. eigenvalues --    0.03344   0.03962   0.04123   0.05345   0.05499
 Alpha virt. eigenvalues --    0.05722   0.07181   0.07309   0.07960   0.08777
 Alpha virt. eigenvalues --    0.11069   0.11160   0.12230   0.12271   0.13117

 Mulliken charges:
               1
     1  C    0.306736
     2  C    1.004222
     3  C   -0.371993
     4  C    0.248960
     5  C    0.628199
     6  C    0.356817
     7  H   -0.450284
     8  H   -0.759834
     9  O   -0.759586
    10  C    0.851820
    11  H   -0.314326
    12  H   -0.082588
    13  H   -0.082590
    14  H   -0.458800
    15  C    0.497728
    16  H   -0.221091
    17  H    0.079207
    18  H    0.079206
    19  H   -0.551803
 Sum of Mulliken charges =  -0.00000

 Dipole moment (field-independent basis, Debye):
    X=              0.8323    Y=             -0.9220    Z=              0.0000  Tot=              1.2421

 Test job not archived.
 1\1\GINC-SE435\SP\RHF\Aug-CC-pVDZ\C8H10O1\OHZDE\08-Apr-2025\0\\#t hf a
 ug-cc-pvdz iop(5/13=1,5/36=2,99/5=2) pseudo=read geom=check guess=(rea
 d,tcheck) scf=(maxcycle=1)\\title\\0,1\C,0,-2.286609,-0.675232,0.\C,0,
 -1.844579,0.649638,0.\C,0,-0.490714,0.971134,0.\C,0,-1.353918,-1.70280
 6,0.\C,0,0.012465,-1.414438,0.\C,0,0.440909,-0.086606,0.\H,0,-1.677618
 ,-2.737638,0.\H,0,0.727451,-2.226203,0.\O,0,1.753685,0.296325,0.\C,0,2
 .755899,-0.70763,0.000001\H,0,3.707951,-0.178829,0.000001\H,0,2.693877
 ,-1.339219,-0.8936\H,0,2.693876,-1.339219,0.893601\H,0,-3.347758,-0.89

 Normal termination of Gaussian 16 at Tue Apr  8 22:41:46 2025.
