 Gaussian 16, Revision C.01,

 ----------------------------------------------------------------------
 #t hf aug-cc-pvdz symm=none int=(grid=ultrafine) guess=(read,tcheck) s
 table=(opt,rrhf)
 ----------------------------------------------------------------------
 -----
 title
 -----
 Symbolic Z-matrix:
 Charge =  0 Multiplicity = 1

 SCF Done:  E(RHF) =  -193.081503218     A.U. after   13 cycles
 Normal termination of Gaussian 16 at Wed Apr  9 00:34:45 2025.
 Gaussian 16:  ES64L-G16RevC.01  3-Jul-2019

 ----------------------------------------------------------------------
 #t hf aug-cc-pvdz iop(5/13=1,5/36=2,99/5=2) pseudo=read geom=check gue
 ss=(read,tcheck) scf=(maxcycle=1)
 ----------------------------------------------------------------------
 -----
 title
 -----
 Structure from the checkpoint file:  "BDE49_nonexpt_510_mol1.chk"
 Charge =  0 Multiplicity = 1

                         Standard orientation:
 ---------------------------------------------------------------------
 Center     Atomic      Atomic             Coordinates (Angstroms)
 Number     Number       Type             X           Y           Z
 ---------------------------------------------------------------------
      1          1           0       -2.714228   -0.763587   -0.000201
      2          5           0       -1.912658    0.114798   -0.000020
      3          6           0        0.643966   -0.025226    0.000009
      4          8           0        1.805128    0.076939   -0.000008
      5          7           0       -0.541656   -0.219435    0.000010
      6          1           0       -2.235706    1.261487    0.000243
 ---------------------------------------------------------------------

 SCF Done:  E(RHF) =  -193.146043879     A.U. after    2 cycles

 The electronic state is 1-A.
 Alpha  occ. eigenvalues --  -20.64077 -15.65994 -11.43994  -7.66831  -1.44513
 Alpha  occ. eigenvalues --   -1.23835  -0.86057  -0.75328  -0.67921  -0.67146
 Alpha  occ. eigenvalues --   -0.61686  -0.55475  -0.47976  -0.43249
 Alpha virt. eigenvalues --    0.03440   0.04380   0.04460   0.04812   0.08327
 Alpha virt. eigenvalues --    0.09866   0.10335   0.10515   0.11713   0.13177
 Alpha virt. eigenvalues --    0.13770   0.19462   0.20642   0.20650   0.23010

 Mulliken charges:
               1
     1  H    0.196806
     2  B   -0.165025
     3  C    0.002668
     4  O   -0.184126
     5  N   -0.002390
     6  H    0.152068
 Sum of Mulliken charges =   0.00000

 Dipole moment (field-independent basis, Debye):
    X=             -1.8546    Y=              0.2036    Z=             -0.0001  Tot=              1.8657

 Test job not archived.
 1\1\GINC-SE328\SP\RHF\Aug-CC-pVDZ\C1H2B1N1O1\OHZDE\09-Apr-2025\0\\#t h
 f aug-cc-pvdz iop(5/13=1,5/36=2,99/5=2) pseudo=read geom=check guess=(
 read,tcheck) scf=(maxcycle=1)\\title\\0,1\H,0,-2.714228,-0.763587,-0.0
 00201\B,0,-1.912658,0.114798,-0.00002\C,0,0.643966,-0.025226,0.000009\
 O,0,1.805128,0.076939,-0.000008\N,0,-0.541656,-0.219435,0.00001\H,0,-2
 .235706,1.261487,0.000243\\Version=ES64L-G16RevC.01\State=1-A\HF=-193.
 1460439\RMSD=3.945e-03\Dipole=-0.7296395,0.080116,-0.0000228\Quadrupol
 e=-2.6026103,0.557966,2.0446442,-0.3785716,0.0001174,-0.0002907\PG=C01

 Normal termination of Gaussian 16 at Wed Apr  9 00:34:46 2025.
