 Gaussian 16, Revision C.01,

 ----------------------------------------------------------------------
 #t hf aug-cc-pvdz symm=none int=(grid=ultrafine) guess=(read,tcheck) s
 table=(opt,rrhf)
 ----------------------------------------------------------------------
 -----
 title
 -----
 Symbolic Z-matrix:
 Charge =  0 Multiplicity = 1

 SCF Done:  E(RHF) =  -1236.83734890     A.U. after   16 cycles
 Normal termination of Gaussian 16 at Tue Apr  8 22:59:49 2025.
 Gaussian 16:  ES64L-G16RevC.01  3-Jul-2019

 ----------------------------------------------------------------------
 #t hf aug-cc-pvdz iop(5/13=1,5/36=2,99/5=2) pseudo=read geom=check gue
 ss=(read,tcheck) scf=(maxcycle=1)
 ----------------------------------------------------------------------
 -----
 title
 -----
 Structure from the checkpoint file:  "BDE49_expt_1983_mol1.chk"
 Charge =  0 Multiplicity = 1

                         Standard orientation:
 ---------------------------------------------------------------------
 Center     Atomic      Atomic             Coordinates (Angstroms)
 Number     Number       Type             X           Y           Z
 ---------------------------------------------------------------------
      1          6           0        3.240385   -0.000000    0.259803
      2          6           0        2.558846    1.210867    0.141517
      3          6           0        1.187394    1.220748   -0.092569
      4          6           0        2.558846   -1.210867    0.141516
      5          6           0        1.187393   -1.220748   -0.092570
      6          6           0        0.525207    0.000000   -0.203739
      7          1           0        4.308764   -0.000000    0.442026
      8          1           0        3.094185    2.148717    0.227815
      9          1           0        0.639512    2.147921   -0.195964
     10          1           0        3.094184   -2.148717    0.227813
     11          1           0        0.639512   -2.147921   -0.195965
     12         16           0       -1.223875    0.000000   -0.531977
     13         17           0       -1.996958   -0.000001    1.452036
     14          8           0       -1.612143   -1.259609   -1.100154
     15          8           0       -1.612143    1.259610   -1.100152
 ---------------------------------------------------------------------

 SCF Done:  E(RHF) =  -1237.04423390     A.U. after    2 cycles

 The electronic state is 1-A.
 Alpha  occ. eigenvalues -- -103.68206 -93.84180 -20.60038 -20.60037 -11.31408
 Alpha  occ. eigenvalues --  -11.29527 -11.29519 -11.28974 -11.28208 -11.28200
 Alpha  occ. eigenvalues --  -10.71476  -9.10489  -8.37182  -8.36860  -8.36848
 Alpha  occ. eigenvalues --   -6.45097  -6.44928  -6.44782  -1.46392  -1.35138
 Alpha  occ. eigenvalues --   -1.19296  -1.15999  -1.07031  -1.05538  -0.92662
 Alpha  occ. eigenvalues --   -0.87492  -0.83015  -0.76356  -0.71700  -0.70582
 Alpha  occ. eigenvalues --   -0.69998  -0.66801  -0.66203  -0.63731  -0.57610
 Alpha  occ. eigenvalues --   -0.56704  -0.55893  -0.54311  -0.54103  -0.53987
 Alpha  occ. eigenvalues --   -0.49422  -0.48696  -0.48183  -0.38953  -0.37973
 Alpha virt. eigenvalues --    0.02427   0.03021   0.03468   0.04379   0.06204
 Alpha virt. eigenvalues --    0.06263   0.07714   0.07763   0.09147   0.10438
 Alpha virt. eigenvalues --    0.10734   0.11270   0.12186   0.12700   0.13324

 Mulliken charges:
               1
     1  C    0.374307
     2  C    0.768989
     3  C   -0.274372
     4  C    0.768992
     5  C   -0.274374
     6  C    0.722165
     7  H   -0.426247
     8  H   -0.419593
     9  H   -0.489802
    10  H   -0.419594
    11  H   -0.489804
    12  S    2.639185
    13  Cl  -0.292472
    14  O   -1.093689
    15  O   -1.093689
 Sum of Mulliken charges =  -0.00000

 Dipole moment (field-independent basis, Debye):
    X=              5.7084    Y=             -0.0000    Z=              1.6661  Tot=              5.9466

 Test job not archived.
 1\1\GINC-SE080\SP\RHF\Aug-CC-pVDZ\C6H5Cl1O2S1\OHZDE\08-Apr-2025\0\\#t
 hf aug-cc-pvdz iop(5/13=1,5/36=2,99/5=2) pseudo=read geom=check guess=
 (read,tcheck) scf=(maxcycle=1)\\title\\0,1\C,0,3.240385,0.,0.259803\C,
 0,2.558846,1.210867,0.141517\C,0,1.187394,1.220748,-0.092569\C,0,2.558
 846,-1.210867,0.141516\C,0,1.187393,-1.220748,-0.09257\C,0,0.525207,0.
 ,-0.203739\H,0,4.308764,0.,0.442026\H,0,3.094185,2.148717,0.227815\H,0
 ,0.639512,2.147921,-0.195964\H,0,3.094184,-2.148717,0.227813\H,0,0.639
 512,-2.147921,-0.195965\S,0,-1.223875,0.,-0.531977\Cl,0,-1.996958,-0.0

 Normal termination of Gaussian 16 at Tue Apr  8 22:59:57 2025.
