 Gaussian 16, Revision C.01,

 ----------------------------------------------------------------------
 #t hf aug-cc-pvdz symm=none int=(grid=ultrafine) guess=(read,tcheck) s
 table=(opt,rrhf)
 ----------------------------------------------------------------------
 -----
 title
 -----
 Symbolic Z-matrix:
 Charge =  0 Multiplicity = 1

 SCF Done:  E(RHF) =  -1264.00575941     A.U. after   11 cycles

 1\1\GINC-SE106\Stability\RHF\Aug-CC-pVDZ\H8P2Si2\OHZDE\09-Apr-2025\0\\
 #t hf aug-cc-pvdz symm=none int=(grid=ultrafine) guess=(read,tcheck) s
 table=(opt,rrhf)\\title\\0,1\Si,0,-0.971172,-0.670134,0.913699\Si,0,0.
 971172,0.670134,0.913699\P,0,0.971172,2.079821,-0.887826\H,0,2.176252,
 -0.194861,0.965832\H,0,0.963186,1.528703,2.124773\H,0,1.263231,1.05765
 9,-1.829255\H,0,2.332886,2.452382,-0.735748\P,0,-0.971172,-2.079821,-0
 .887826\H,0,-2.176252,0.194861,0.965832\H,0,-0.963186,-1.528703,2.1247
 73\H,0,-1.263231,-1.057659,-1.829255\H,0,-2.332886,-2.452382,-0.735748

 Normal termination of Gaussian 16 at Wed Apr  9 00:12:10 2025.
 Gaussian 16:  ES64L-G16RevC.01  3-Jul-2019

 ----------------------------------------------------------------------
 #t hf aug-cc-pvdz iop(5/13=1,5/36=2,99/5=2) pseudo=read geom=check gue
 ss=(read,tcheck) scf=(maxcycle=1)
 ----------------------------------------------------------------------
 -----
 title
 -----
 Structure from the checkpoint file:  "BDE49_nonexpt_2444_mol1.chk"
 Charge =  0 Multiplicity = 1

                         Standard orientation:
 ---------------------------------------------------------------------
 Center     Atomic      Atomic             Coordinates (Angstroms)
 Number     Number       Type             X           Y           Z
 ---------------------------------------------------------------------
      1         14           0       -0.971172   -0.670134    0.913699
      2         14           0        0.971172    0.670134    0.913699
      3         15           0        0.971172    2.079821   -0.887826
      4          1           0        2.176252   -0.194861    0.965832
      5          1           0        0.963186    1.528703    2.124773
      6          1           0        1.263231    1.057659   -1.829255
      7          1           0        2.332886    2.452382   -0.735748
      8         15           0       -0.971172   -2.079821   -0.887826
      9          1           0       -2.176252    0.194861    0.965832
     10          1           0       -0.963186   -1.528703    2.124773
     11          1           0       -1.263231   -1.057659   -1.829255
     12          1           0       -2.332886   -2.452382   -0.735748
 ---------------------------------------------------------------------

 SCF Done:  E(RHF) =  -1264.08197062     A.U. after    2 cycles

 The electronic state is 1-A.
 Alpha  occ. eigenvalues --  -81.25613 -81.25613 -69.07607 -69.07607  -7.76126
 Alpha  occ. eigenvalues --   -7.76126  -6.82914  -6.82908  -4.90055  -4.90041
 Alpha  occ. eigenvalues --   -4.89970  -4.89968  -4.89758  -4.89752  -3.93665
 Alpha  occ. eigenvalues --   -3.93647  -3.93644  -3.93631  -3.93621  -3.93567
 Alpha  occ. eigenvalues --   -0.81838  -0.80130  -0.70435  -0.63905  -0.53560
 Alpha  occ. eigenvalues --   -0.52154  -0.50770  -0.48582  -0.46200  -0.43580
 Alpha  occ. eigenvalues --   -0.38927  -0.35940  -0.35874
 Alpha virt. eigenvalues --    0.03509   0.04405   0.04672   0.05542   0.06902
 Alpha virt. eigenvalues --    0.06926   0.07533   0.07614   0.08309   0.09187
 Alpha virt. eigenvalues --    0.09695   0.10203   0.10321   0.10973   0.10990

 Mulliken charges:
               1
     1  Si   0.081290
     2  Si   0.081290
     3  P   -0.522008
     4  H    0.045069
     5  H    0.047880
     6  H    0.174580
     7  H    0.173189
     8  P   -0.522008
     9  H    0.045069
    10  H    0.047880
    11  H    0.174580
    12  H    0.173189
 Sum of Mulliken charges =  -0.00000

 Dipole moment (field-independent basis, Debye):
    X=              0.0000    Y=             -0.0000    Z=              0.1597  Tot=              0.1597

 Test job not archived.
 1\1\GINC-SE106\SP\RHF\Aug-CC-pVDZ\H8P2Si2\OHZDE\09-Apr-2025\0\\#t hf a
 ug-cc-pvdz iop(5/13=1,5/36=2,99/5=2) pseudo=read geom=check guess=(rea
 d,tcheck) scf=(maxcycle=1)\\title\\0,1\Si,0,-0.971172,-0.670134,0.9136
 99\Si,0,0.971172,0.670134,0.913699\P,0,0.971172,2.079821,-0.887826\H,0
 ,2.176252,-0.194861,0.965832\H,0,0.963186,1.528703,2.124773\H,0,1.2632
 31,1.057659,-1.829255\H,0,2.332886,2.452382,-0.735748\P,0,-0.971172,-2
 .079821,-0.887826\H,0,-2.176252,0.194861,0.965832\H,0,-0.963186,-1.528
 703,2.124773\H,0,-1.263231,-1.057659,-1.829255\H,0,-2.332886,-2.452382

 Normal termination of Gaussian 16 at Wed Apr  9 00:12:14 2025.
