 Gaussian 16, Revision C.01,

 ----------------------------------------------------------------------
 #t hf aug-cc-pvdz symm=none int=(grid=ultrafine) guess=(read,tcheck) s
 table=(opt,rrhf)
 ----------------------------------------------------------------------
 -----
 title
 -----
 Symbolic Z-matrix:
 Charge =  0 Multiplicity = 1

 SCF Done:  E(RHF) =  -679.124412578     A.U. after   16 cycles
 Normal termination of Gaussian 16 at Tue Apr  8 22:34:02 2025.
 Gaussian 16:  ES64L-G16RevC.01  3-Jul-2019

 ----------------------------------------------------------------------
 #t hf aug-cc-pvdz iop(5/13=1,5/36=2,99/5=2) pseudo=read geom=check gue
 ss=(read,tcheck) scf=(maxcycle=1)
 ----------------------------------------------------------------------
 -----
 title
 -----
 Structure from the checkpoint file:  "BDE49_expt_1099_mol1.chk"
 Charge =  0 Multiplicity = 1

                         Standard orientation:
 ---------------------------------------------------------------------
 Center     Atomic      Atomic             Coordinates (Angstroms)
 Number     Number       Type             X           Y           Z
 ---------------------------------------------------------------------
      1          6           0        1.681870    1.274029   -0.000000
      2          6           0        0.663863    0.307716   -0.000003
      3          6           0       -0.735626    0.806044   -0.000005
      4          8           0       -1.034430    1.975438   -0.000000
      5          6           0       -1.896487   -0.234060    0.000002
      6          6           0        3.014260    0.889059    0.000001
      7          6           0        3.346979   -0.466646   -0.000000
      8          6           0        2.343352   -1.432860   -0.000004
      9          6           0        1.005367   -1.052765   -0.000005
     10          1           0        0.239031   -1.815133   -0.000008
     11          1           0        4.388216   -0.768753    0.000001
     12          1           0        2.602148   -2.485084   -0.000005
     13          1           0        1.400201    2.319569    0.000001
     14          1           0        3.794780    1.640852    0.000004
     15          9           0       -3.081686    0.368710   -0.000005
     16          9           0       -1.830844   -1.030922   -1.090423
     17          9           0       -1.830848   -1.030905    1.090439
 ---------------------------------------------------------------------

 SCF Done:  E(RHF) =  -679.345985251     A.U. after    2 cycles

 The electronic state is 1-A.
 Alpha  occ. eigenvalues --  -26.18092 -26.18083 -26.17576 -20.60537 -11.54224
 Alpha  occ. eigenvalues --  -11.39039 -11.28204 -11.28093 -11.27882 -11.27618
 Alpha  occ. eigenvalues --  -11.26867 -11.26790  -1.77464  -1.70408  -1.70381
 Alpha  occ. eigenvalues --   -1.39837  -1.17560  -1.07852  -1.04463  -1.03905
 Alpha  occ. eigenvalues --   -0.93582  -0.89352  -0.89230  -0.87834  -0.85023
 Alpha  occ. eigenvalues --   -0.78695  -0.78521  -0.78176  -0.74758  -0.74114
 Alpha  occ. eigenvalues --   -0.72942  -0.72924  -0.68556  -0.68256  -0.64015
 Alpha  occ. eigenvalues --   -0.63879  -0.61961  -0.59496  -0.54903  -0.52507
 Alpha  occ. eigenvalues --   -0.52462  -0.48042  -0.37191  -0.36637
 Alpha virt. eigenvalues --    0.02703   0.03545   0.03715   0.04522   0.06165
 Alpha virt. eigenvalues --    0.06365   0.08510   0.08933   0.09037   0.10230
 Alpha virt. eigenvalues --    0.10968   0.11286   0.12925   0.12928   0.13435

 Mulliken charges:
               1
     1  C   -0.322460
     2  C    1.724768
     3  C   -0.562083
     4  O   -0.416865
     5  C    1.200036
     6  C    0.656613
     7  C    0.482701
     8  C    0.401165
     9  C    0.211847
    10  H   -0.594320
    11  H   -0.437445
    12  H   -0.423969
    13  H   -0.620875
    14  H   -0.409543
    15  F   -0.243512
    16  F   -0.323029
    17  F   -0.323029
 Sum of Mulliken charges =  -0.00000

 Dipole moment (field-independent basis, Debye):
    X=              4.1980    Y=             -1.6302    Z=             -0.0000  Tot=              4.5034

 Test job not archived.
 1\1\GINC-SE082\SP\RHF\Aug-CC-pVDZ\C8H5F3O1\OHZDE\08-Apr-2025\0\\#t hf
 aug-cc-pvdz iop(5/13=1,5/36=2,99/5=2) pseudo=read geom=check guess=(re
 ad,tcheck) scf=(maxcycle=1)\\title\\0,1\C,0,-1.68187,1.274029,0.\C,0,-
 0.663863,0.307716,0.000003\C,0,0.735626,0.806044,0.000005\O,0,1.03443,
 1.975438,0.\C,0,1.896487,-0.23406,-0.000002\C,0,-3.01426,0.889059,-0.0
 00001\C,0,-3.346979,-0.466646,0.\C,0,-2.343352,-1.43286,0.000004\C,0,-
 1.005367,-1.052765,0.000005\H,0,-0.239031,-1.815133,0.000008\H,0,-4.38
 8216,-0.768753,-0.000001\H,0,-2.602148,-2.485084,0.000005\H,0,-1.40020

 Normal termination of Gaussian 16 at Tue Apr  8 22:34:13 2025.
