 Gaussian 16, Revision C.01,

 ----------------------------------------------------------------------
 #t hf aug-cc-pvdz symm=none int=(grid=ultrafine) guess=(read,tcheck) s
 table=(opt,rrhf)
 ----------------------------------------------------------------------
 -----
 title
 -----
 Symbolic Z-matrix:
 Charge =  0 Multiplicity = 1

 SCF Done:  E(RHF) =  -315.531845204     A.U. after   14 cycles
 Normal termination of Gaussian 16 at Wed Apr  9 00:41:51 2025.
 Gaussian 16:  ES64L-G16RevC.01  3-Jul-2019

 ----------------------------------------------------------------------
 #t hf aug-cc-pvdz iop(5/13=1,5/36=2,99/5=2) pseudo=read geom=check gue
 ss=(read,tcheck) scf=(maxcycle=1)
 ----------------------------------------------------------------------
 -----
 title
 -----
 Structure from the checkpoint file:  "BDE49_nonexpt_71_mol1.chk"
 Charge =  0 Multiplicity = 1

                         Standard orientation:
 ---------------------------------------------------------------------
 Center     Atomic      Atomic             Coordinates (Angstroms)
 Number     Number       Type             X           Y           Z
 ---------------------------------------------------------------------
      1          5           0        0.702561   -1.030457   -0.427029
      2          5           0       -0.702559   -1.030452    0.427039
      3          6           0       -1.839470    0.031026    0.223642
      4          7           0       -1.666858    1.209217    0.701764
      5          1           0       -0.733203    1.333754    1.108172
      6          6           0        1.839472    0.031024   -0.223646
      7          7           0        1.666851    1.209214   -0.701766
      8          1           0        0.733193    1.333747   -1.108167
      9          6           0       -3.147254   -0.303368   -0.441598
     10          1           0       -3.644052   -1.128565    0.079619
     11          1           0       -2.986541   -0.628631   -1.475142
     12          1           0       -3.795513    0.575060   -0.435251
     13          6           0        3.147258   -0.303363    0.441595
     14          1           0        3.644058   -1.128559   -0.079619
     15          1           0        2.986548   -0.628621    1.475140
     16          1           0        3.795513    0.575068    0.435243
     17          1           0       -0.871350   -1.829813    1.305141
     18          1           0        0.871347   -1.829822   -1.305129
 ---------------------------------------------------------------------

 SCF Done:  E(RHF) =  -315.625613899     A.U. after    2 cycles

 The electronic state is 1-A.
 Alpha  occ. eigenvalues --  -15.62018 -15.62018 -11.28833 -11.28833 -11.24351
 Alpha  occ. eigenvalues --  -11.24351  -7.62318  -7.62227  -1.18210  -1.17662
 Alpha  occ. eigenvalues --   -0.98771  -0.98591  -0.81109  -0.77710  -0.73219
 Alpha  occ. eigenvalues --   -0.69697  -0.61861  -0.59738  -0.59439  -0.57617
 Alpha  occ. eigenvalues --   -0.57105  -0.56153  -0.54227  -0.53009  -0.49288
 Alpha  occ. eigenvalues --   -0.42441  -0.41217  -0.39980  -0.38108
 Alpha virt. eigenvalues --    0.02227   0.03054   0.03835   0.04451   0.05047
 Alpha virt. eigenvalues --    0.05562   0.06168   0.06700   0.06855   0.07117
 Alpha virt. eigenvalues --    0.08109   0.08118   0.09045   0.09146   0.09723

 Mulliken charges:
               1
     1  B   -0.211222
     2  B   -0.211221
     3  C    0.253887
     4  N   -0.450003
     5  H    0.018868
     6  C    0.253887
     7  N   -0.450002
     8  H    0.018868
     9  C    0.116441
    10  H   -0.000752
    11  H    0.013719
    12  H   -0.052794
    13  C    0.116444
    14  H   -0.000754
    15  H    0.013717
    16  H   -0.052794
    17  H    0.311856
    18  H    0.311854
 Sum of Mulliken charges =  -0.00000

 Dipole moment (field-independent basis, Debye):
    X=              0.0000    Y=             -3.9381    Z=              0.0000  Tot=              3.9381

 Test job not archived.
 1\1\GINC-SE044\SP\RHF\Aug-CC-pVDZ\C4H10B2N2\OHZDE\09-Apr-2025\0\\#t hf
  aug-cc-pvdz iop(5/13=1,5/36=2,99/5=2) pseudo=read geom=check guess=(r
 ead,tcheck) scf=(maxcycle=1)\\title\\0,1\B,0,0.702561,-1.030457,-0.427
 029\B,0,-0.702559,-1.030452,0.427039\C,0,-1.83947,0.031026,0.223642\N,
 0,-1.666858,1.209217,0.701764\H,0,-0.733203,1.333754,1.108172\C,0,1.83
 9472,0.031024,-0.223646\N,0,1.666851,1.209214,-0.701766\H,0,0.733193,1
 .333747,-1.108167\C,0,-3.147254,-0.303368,-0.441598\H,0,-3.644052,-1.1
 28565,0.079619\H,0,-2.986541,-0.628631,-1.475142\H,0,-3.795513,0.57506

 Normal termination of Gaussian 16 at Wed Apr  9 00:41:59 2025.
