 Gaussian 16, Revision C.01,

 ----------------------------------------------------------------------
 #t hf aug-cc-pvdz symm=none int=(grid=ultrafine) guess=(read,tcheck) s
 table=(opt,rrhf)
 ----------------------------------------------------------------------
 -----
 title
 -----
 Symbolic Z-matrix:
 Charge =  0 Multiplicity = 1

 SCF Done:  E(RHF) =  -516.030519408     A.U. after   11 cycles

 1\1\GINC-SE455\Stability\RHF\Aug-CC-pVDZ\H4O3Si1\OHZDE\09-Apr-2025\0\\
 #t hf aug-cc-pvdz symm=none int=(grid=ultrafine) guess=(read,tcheck) s
 table=(opt,rrhf)\\title\\0,1\Si,0,-0.000026,0.002232,0.328146\O,0,0.00
 9079,1.57727,-0.139304\O,0,1.270612,-0.845898,-0.259754\H,0,0.010009,1
 .769242,-1.081222\H,0,2.152332,-0.554971,-0.018778\O,0,-1.280153,-0.83
 1337,-0.259993\H,0,-2.158513,-0.531269,-0.017958\H,0,0.000241,0.085483
 ,1.796323\\Version=ES64L-G16RevC.01\HF=-516.0305194\RMSD=8.732e-09\Dip
 ole=0.0027458,0.5107376,0.0229958\Quadrupole=5.1951738,-4.8685477,-0.3

 Normal termination of Gaussian 16 at Wed Apr  9 00:04:26 2025.
 Gaussian 16:  ES64L-G16RevC.01  3-Jul-2019

 ----------------------------------------------------------------------
 #t hf aug-cc-pvdz iop(5/13=1,5/36=2,99/5=2) pseudo=read geom=check gue
 ss=(read,tcheck) scf=(maxcycle=1)
 ----------------------------------------------------------------------
 -----
 title
 -----
 Structure from the checkpoint file:  "BDE49_nonexpt_2246_mol1.chk"
 Charge =  0 Multiplicity = 1

                         Standard orientation:
 ---------------------------------------------------------------------
 Center     Atomic      Atomic             Coordinates (Angstroms)
 Number     Number       Type             X           Y           Z
 ---------------------------------------------------------------------
      1         14           0       -0.000026    0.002232    0.328146
      2          8           0        0.009082    1.577270   -0.139304
      3          8           0        1.270610   -0.845901   -0.259754
      4          1           0        0.010012    1.769242   -1.081222
      5          1           0        2.152331   -0.554976   -0.018778
      6          8           0       -1.280155   -0.831335   -0.259993
      7          1           0       -2.158514   -0.531265   -0.017958
      8          1           0        0.000241    0.085483    1.796323
 ---------------------------------------------------------------------

 SCF Done:  E(RHF) =  -516.156846819     A.U. after    2 cycles

 The electronic state is 1-A.
 Alpha  occ. eigenvalues --  -69.13857 -20.57678 -20.57525 -20.57524  -6.87956
 Alpha  occ. eigenvalues --   -3.99012  -3.98969  -3.98795  -1.32993  -1.30022
 Alpha  occ. eigenvalues --   -1.29889  -0.79631  -0.74515  -0.69289  -0.61956
 Alpha  occ. eigenvalues --   -0.61299  -0.59956  -0.55120  -0.54199  -0.51997
 Alpha  occ. eigenvalues --   -0.49110
 Alpha virt. eigenvalues --    0.03052   0.04732   0.05408   0.06610   0.07200
 Alpha virt. eigenvalues --    0.08447   0.08727   0.12652   0.17874   0.17908
 Alpha virt. eigenvalues --    0.19374   0.20609   0.22287   0.22425   0.23166

 Mulliken charges:
               1
     1  Si   1.971276
     2  O   -0.775254
     3  O   -0.749277
     4  H    0.125834
     5  H    0.120412
     6  O   -0.749251
     7  H    0.120409
     8  H   -0.064148
 Sum of Mulliken charges =   0.00000

 Dipole moment (field-independent basis, Debye):
    X=              0.0073    Y=              1.3623    Z=              0.0783  Tot=              1.3646

 Test job not archived.
 1\1\GINC-SE455\SP\RHF\Aug-CC-pVDZ\H4O3Si1\OHZDE\09-Apr-2025\0\\#t hf a
 ug-cc-pvdz iop(5/13=1,5/36=2,99/5=2) pseudo=read geom=check guess=(rea
 d,tcheck) scf=(maxcycle=1)\\title\\0,1\Si,0,-0.000026,0.002232,0.32814
 6\O,0,0.009079,1.57727,-0.139304\O,0,1.270612,-0.845898,-0.259754\H,0,
 0.010009,1.769242,-1.081222\H,0,2.152332,-0.554971,-0.018778\O,0,-1.28
 0153,-0.831337,-0.259993\H,0,-2.158513,-0.531269,-0.017958\H,0,0.00024
 1,0.085483,1.796323\\Version=ES64L-G16RevC.01\State=1-A\HF=-516.156846
 8\RMSD=3.723e-03\Dipole=0.0028852,0.5359773,0.0308252\Quadrupole=5.306

 Normal termination of Gaussian 16 at Wed Apr  9 00:04:28 2025.
