 Gaussian 16, Revision C.01,

 ----------------------------------------------------------------------
 #t hf aug-cc-pvdz symm=none int=(grid=ultrafine) guess=(read,tcheck) s
 table=opt
 ----------------------------------------------------------------------
 -----
 title
 -----
 Symbolic Z-matrix:
 Charge =  0 Multiplicity = 2

 SCF Done:  E(UHF) =  -457.789125519     A.U. after   16 cycles
 Normal termination of Gaussian 16 at Tue Apr  8 23:35:10 2025.
 Gaussian 16:  ES64L-G16RevC.01  3-Jul-2019

 ----------------------------------------------------------------------
 #t hf aug-cc-pvdz iop(5/13=1,5/36=2,99/5=2) pseudo=read geom=check gue
 ss=(read,tcheck) scf=(maxcycle=1)
 ----------------------------------------------------------------------
 -----
 title
 -----
 Structure from the checkpoint file:  "BDE49_nonexpt_1531_mol2.chk"
 Charge =  0 Multiplicity = 2

                         Standard orientation:
 ---------------------------------------------------------------------
 Center     Atomic      Atomic             Coordinates (Angstroms)
 Number     Number       Type             X           Y           Z
 ---------------------------------------------------------------------
      1          6           0       -0.217760   -0.000002    0.556945
      2          6           0       -1.331918   -0.747414   -0.171229
      3          6           0       -1.331915    0.747415   -0.171230
      4          1           0       -1.072403    1.262989   -1.087860
      5          1           0       -2.058356    1.265335    0.444578
      6          1           0       -2.058360   -1.265330    0.444579
      7          1           0       -1.072408   -1.262990   -1.087859
      8         15           0        1.510634    0.000000   -0.015699
      9          1           0       -0.296970   -0.000001    1.639753
     10          1           0        1.188537   -0.000008   -1.404615
 ---------------------------------------------------------------------

 SCF Done:  E(UHF) =  -457.844309960     A.U. after    2 cycles

 The electronic state is 2-A.
 Alpha  occ. eigenvalues --  -81.25761 -11.25139 -11.25059 -11.25059  -7.76219
 Alpha  occ. eigenvalues --   -4.90905  -4.89881  -4.89582  -1.13742  -0.86091
 Alpha  occ. eigenvalues --   -0.83367  -0.74868  -0.66574  -0.61628  -0.52917
 Alpha  occ. eigenvalues --   -0.47981  -0.46702  -0.46069  -0.38360  -0.32018
 Alpha virt. eigenvalues --    0.03565   0.04688   0.05128   0.05379   0.07119
 Alpha virt. eigenvalues --    0.07414   0.09828   0.10836   0.11253   0.12164
 Alpha virt. eigenvalues --    0.13280   0.14010   0.15495   0.16267   0.16379

  Beta  occ. eigenvalues --  -81.25083 -11.25277 -11.24949 -11.24891  -7.75406
  Beta  occ. eigenvalues --   -4.89405  -4.89230  -4.87805  -1.13217  -0.84478
  Beta  occ. eigenvalues --   -0.82794  -0.71995  -0.65741  -0.60697  -0.52723
  Beta  occ. eigenvalues --   -0.47801  -0.45586  -0.43439  -0.36120
  Beta virt. eigenvalues --    0.03604   0.03733   0.04717   0.05443   0.06071
  Beta virt. eigenvalues --    0.07507   0.07565   0.09962   0.10934   0.12305
  Beta virt. eigenvalues --    0.12973   0.13500   0.14027   0.16324   0.16422

 Mulliken charges and spin densities:
               1          2
     1  C    0.180528  -0.168725
     2  C    0.650693   0.055759
     3  C    0.650692   0.055760
     4  H   -0.340086  -0.006438
     5  H   -0.295813  -0.000810
     6  H   -0.295817  -0.000810
     7  H   -0.340084  -0.006438
     8  P    0.236794   1.237320
     9  H   -0.398198  -0.007210
    10  H   -0.048710  -0.158407
 Sum of Mulliken charges =  -0.00000   1.00000

 Dipole moment (field-independent basis, Debye):
    X=             -1.5523    Y=             -0.0000    Z=             -0.0979  Tot=              1.5554
                          Isotropic Fermi Contact Couplings
        Atom                 a.u.       MegaHertz       Gauss      10(-4) cm-1
     1  C(13)             -0.03904     -43.88614     -15.65967     -14.63884
     2  C(13)              0.02687      30.21185      10.78034      10.07759
     3  C(13)              0.02688      30.21267      10.78063      10.07786
     4  H(1)              -0.00114      -5.07747      -1.81177      -1.69366
     5  H(1)               0.00052       2.31672       0.82666       0.77277
     6  H(1)               0.00052       2.31678       0.82668       0.77279
     7  H(1)              -0.00114      -5.07734      -1.81172      -1.69362
     8  P(31)              0.23104     418.43493     149.30799     139.57487

 Normal termination of Gaussian 16 at Tue Apr  8 23:35:13 2025.
