 Gaussian 16, Revision C.01,

 ----------------------------------------------------------------------
 #t hf aug-cc-pvdz symm=none int=(grid=ultrafine) guess=(read,tcheck) s
 table=(opt,rrhf)
 ----------------------------------------------------------------------
 -----
 title
 -----
 Symbolic Z-matrix:
 Charge =  0 Multiplicity = 1

 SCF Done:  E(RHF) =  -1283.74671684     A.U. after   11 cycles
 Normal termination of Gaussian 16 at Tue Apr  8 23:46:21 2025.
 Gaussian 16:  ES64L-G16RevC.01  3-Jul-2019

 ----------------------------------------------------------------------
 #t hf aug-cc-pvdz iop(5/13=1,5/36=2,99/5=2) pseudo=read geom=check gue
 ss=(read,tcheck) scf=(maxcycle=1)
 ----------------------------------------------------------------------
 -----
 title
 -----
 Structure from the checkpoint file:  "BDE49_nonexpt_1800_mol1.chk"
 Charge =  0 Multiplicity = 1

                         Standard orientation:
 ---------------------------------------------------------------------
 Center     Atomic      Atomic             Coordinates (Angstroms)
 Number     Number       Type             X           Y           Z
 ---------------------------------------------------------------------
      1         14           0        0.549270    0.441138    0.000001
      2          6           0       -1.238155   -0.234964    0.000001
      3         17           0        1.902572   -1.062441   -0.000008
      4          9           0        0.731745    1.344430    1.283688
      5          9           0        0.731741    1.344441   -1.283679
      6          9           0       -1.476722   -0.994098   -1.090275
      7          9           0       -2.132777    0.776597    0.000008
      8          9           0       -1.476718   -0.994110    1.090269
 ---------------------------------------------------------------------

 SCF Done:  E(RHF) =  -1284.00524649     A.U. after    2 cycles

 The electronic state is 1-A.
 Alpha  occ. eigenvalues -- -103.70724 -69.25392 -26.18862 -26.18853 -26.18802
 Alpha  occ. eigenvalues --  -26.16978 -26.16977 -11.53887 -10.74216  -8.39910
 Alpha  occ. eigenvalues --   -8.39664  -8.39657  -6.99107  -4.10122  -4.10067
 Alpha  occ. eigenvalues --   -4.09921  -1.78034  -1.71186  -1.71130  -1.70666
 Alpha  occ. eigenvalues --   -1.69485  -1.19663  -1.05002  -0.91154  -0.89762
 Alpha  occ. eigenvalues --   -0.89697  -0.86644  -0.82710  -0.79875  -0.79237
 Alpha  occ. eigenvalues --   -0.78979  -0.78659  -0.77072  -0.75685  -0.75001
 Alpha  occ. eigenvalues --   -0.74858  -0.73837  -0.64852  -0.57600  -0.53495
 Alpha  occ. eigenvalues --   -0.53033
 Alpha virt. eigenvalues --    0.04875   0.05692   0.05821   0.05929   0.10185
 Alpha virt. eigenvalues --    0.10912   0.11661   0.12600   0.14412   0.14479
 Alpha virt. eigenvalues --    0.15733   0.17415   0.18682   0.19514   0.21290

 Mulliken charges:
               1
     1  Si   2.162211
     2  C    0.773611
     3  Cl  -0.398696
     4  F   -0.762180
     5  F   -0.762180
     6  F   -0.336543
     7  F   -0.339678
     8  F   -0.336543
 Sum of Mulliken charges =   0.00000

 Dipole moment (field-independent basis, Debye):
    X=              1.2676    Y=             -0.4361    Z=             -0.0000  Tot=              1.3406

 Test job not archived.
 1\1\GINC-SE339\SP\RHF\Aug-CC-pVDZ\C1Cl1F5Si1\OHZDE\08-Apr-2025\0\\#t h
 f aug-cc-pvdz iop(5/13=1,5/36=2,99/5=2) pseudo=read geom=check guess=(
 read,tcheck) scf=(maxcycle=1)\\title\\0,1\Si,0,0.54927,0.441138,0.0000
 01\C,0,-1.238155,-0.234964,0.000001\Cl,0,1.902572,-1.062441,-0.000008\
 F,0,0.731745,1.34443,1.283688\F,0,0.731741,1.344441,-1.283679\F,0,-1.4
 76722,-0.994098,-1.090275\F,0,-2.132777,0.776597,0.000008\F,0,-1.47671
 8,-0.99411,1.090269\\Version=ES64L-G16RevC.01\State=1-A\HF=-1284.00524
 65\RMSD=5.302e-03\Dipole=0.4987267,-0.1715925,-0.0000002\Quadrupole=0.

 Normal termination of Gaussian 16 at Tue Apr  8 23:46:25 2025.
