 Gaussian 16, Revision C.01,

 ----------------------------------------------------------------------
 #t hf aug-cc-pvdz symm=none int=(grid=ultrafine) guess=(read,tcheck) s
 table=(opt,rrhf)
 ----------------------------------------------------------------------
 -----
 title
 -----
 Symbolic Z-matrix:
 Charge =  0 Multiplicity = 1

 SCF Done:  E(RHF) =  -298.722596648     A.U. after   15 cycles
 Normal termination of Gaussian 16 at Tue Apr  8 23:04:44 2025.
 Gaussian 16:  ES64L-G16RevC.01  3-Jul-2019

 ----------------------------------------------------------------------
 #t hf aug-cc-pvdz iop(5/13=1,5/36=2,99/5=2) pseudo=read geom=check gue
 ss=(read,tcheck) scf=(maxcycle=1)
 ----------------------------------------------------------------------
 -----
 title
 -----
 Structure from the checkpoint file:  "BDE49_expt_408_mol1.chk"
 Charge =  0 Multiplicity = 1

                         Standard orientation:
 ---------------------------------------------------------------------
 Center     Atomic      Atomic             Coordinates (Angstroms)
 Number     Number       Type             X           Y           Z
 ---------------------------------------------------------------------
      1          7           0       -0.562246   -0.658866   -0.202688
      2          6           0       -1.815651    0.023541    0.087270
      3          1           0       -1.880358    0.368248    1.124688
      4          1           0       -2.617097   -0.687719   -0.114385
      5          1           0       -1.923296    0.878831   -0.576456
      6          7           0        0.615910    0.049660   -0.019917
      7          1           0       -0.427056   -1.602661    0.134813
      8          8           0        0.539186    1.268077   -0.027801
      9          8           0        1.631572   -0.622265    0.086046
 ---------------------------------------------------------------------

 SCF Done:  E(RHF) =  -298.815983294     A.U. after    2 cycles

 The electronic state is 1-A.
 Alpha  occ. eigenvalues --  -20.62185 -20.61754 -15.95389 -15.71752 -11.30351
 Alpha  occ. eigenvalues --   -1.57137  -1.37859  -1.25373  -1.00316  -0.87362
 Alpha  occ. eigenvalues --   -0.79689  -0.75672  -0.75291  -0.67141  -0.62276
 Alpha  occ. eigenvalues --   -0.59344  -0.53398  -0.51755  -0.48724  -0.44766
 Alpha virt. eigenvalues --    0.02453   0.04189   0.04841   0.06268   0.09109
 Alpha virt. eigenvalues --    0.10612   0.12536   0.13379   0.14698   0.15551
 Alpha virt. eigenvalues --    0.17104   0.17250   0.18061   0.21132   0.21315

 Mulliken charges:
               1
     1  N   -0.079378
     2  C    0.863204
     3  H   -0.065153
     4  H   -0.160006
     5  H   -0.110520
     6  N    0.578505
     7  H    0.046548
     8  O   -0.524501
     9  O   -0.548699
 Sum of Mulliken charges =  -0.00000

 Dipole moment (field-independent basis, Debye):
    X=             -4.3862    Y=             -1.9893    Z=              0.5485  Tot=              4.8473

 Test job not archived.
 1\1\GINC-SE179\SP\RHF\Aug-CC-pVDZ\C1H4N2O2\OHZDE\08-Apr-2025\0\\#t hf
 aug-cc-pvdz iop(5/13=1,5/36=2,99/5=2) pseudo=read geom=check guess=(re
 ad,tcheck) scf=(maxcycle=1)\\title\\0,1\N,0,-0.562246,-0.658866,-0.202
 688\C,0,-1.815651,0.023541,0.08727\H,0,-1.880358,0.368248,1.124688\H,0
 ,-2.617097,-0.687719,-0.114385\H,0,-1.923296,0.878831,-0.576456\N,0,0.
 61591,0.04966,-0.019917\H,0,-0.427056,-1.602661,0.134813\O,0,0.539186,
 1.268077,-0.027801\O,0,1.631572,-0.622265,0.086046\\Version=ES64L-G16R
 evC.01\State=1-A\HF=-298.8159833\RMSD=3.323e-03\Dipole=-1.7256587,-0.7

 Normal termination of Gaussian 16 at Tue Apr  8 23:04:47 2025.
