 Gaussian 16, Revision C.01,

 ----------------------------------------------------------------------
 #t hf aug-cc-pvdz symm=none int=(grid=ultrafine) guess=(read,tcheck) s
 table=opt
 ----------------------------------------------------------------------
 -----
 title
 -----
 Symbolic Z-matrix:
 Charge =  0 Multiplicity = 2

 SCF Done:  E(UHF) =  -982.716007415     A.U. after   16 cycles
 Normal termination of Gaussian 16 at Tue Apr  8 23:41:11 2025.
 Gaussian 16:  ES64L-G16RevC.01  3-Jul-2019

 ----------------------------------------------------------------------
 #t hf aug-cc-pvdz iop(5/13=1,5/36=2,99/5=2) pseudo=read geom=check gue
 ss=(read,tcheck) scf=(maxcycle=1)
 ----------------------------------------------------------------------
 -----
 title
 -----
 Structure from the checkpoint file:  "BDE49_nonexpt_167_mol2.chk"
 Charge =  0 Multiplicity = 2

                         Standard orientation:
 ---------------------------------------------------------------------
 Center     Atomic      Atomic             Coordinates (Angstroms)
 Number     Number       Type             X           Y           Z
 ---------------------------------------------------------------------
      1         17           0        1.854476   -0.331321   -0.000001
      2          5           0        0.769474    1.001234    0.000001
      3          6           0       -0.770289    1.071581    0.000002
      4         17           0       -1.677320   -0.532136   -0.000000
      5          1           0       -1.118642    1.621554   -0.877757
      6          1           0       -1.118642    1.621552    0.877762
 ---------------------------------------------------------------------

 SCF Done:  E(UHF) =  -982.771122741     A.U. after    2 cycles

 The electronic state is 2-A.
 Alpha  occ. eigenvalues -- -103.68476-103.65717 -11.31078 -10.71980 -10.68931
 Alpha  occ. eigenvalues --   -8.37713  -8.37451  -8.37395  -8.34806  -8.34324
 Alpha  occ. eigenvalues --   -8.34323  -7.71268  -1.18577  -1.15698  -0.95413
 Alpha  occ. eigenvalues --   -0.69540  -0.63587  -0.60148  -0.57713  -0.51920
 Alpha  occ. eigenvalues --   -0.51358  -0.45674  -0.45663  -0.35470
 Alpha virt. eigenvalues --    0.03249   0.04191   0.05198   0.05747   0.06086
 Alpha virt. eigenvalues --    0.08858   0.08965   0.10316   0.12990   0.14798
 Alpha virt. eigenvalues --    0.16014   0.16475   0.16752   0.17371   0.17375

  Beta  occ. eigenvalues -- -103.68408-103.65609 -11.31006 -10.71900 -10.68817
  Beta  occ. eigenvalues --   -8.37607  -8.37424  -8.37203  -8.34386  -8.34260
  Beta  occ. eigenvalues --   -8.34242  -7.69319  -1.17760  -1.14960  -0.94525
  Beta  occ. eigenvalues --   -0.67005  -0.63445  -0.58261  -0.55691  -0.51433
  Beta  occ. eigenvalues --   -0.49759  -0.45472  -0.45128
  Beta virt. eigenvalues --    0.02372   0.04575   0.05075   0.05384   0.06823
  Beta virt. eigenvalues --    0.07320   0.09161   0.10289   0.12903   0.13119
  Beta virt. eigenvalues --    0.15602   0.16068   0.16576   0.17376   0.17487

 Mulliken charges and spin densities:
               1          2
     1  Cl  -0.194824   0.002952
     2  B    0.294946   0.985057
     3  C    0.042722  -0.039613
     4  Cl  -0.222960   0.076941
     5  H    0.040058  -0.012669
     6  H    0.040058  -0.012669
 Sum of Mulliken charges =  -0.00000   1.00000

 Dipole moment (field-independent basis, Debye):
    X=              0.1553    Y=              2.1456    Z=              0.0000  Tot=              2.1512
                          Isotropic Fermi Contact Couplings
        Atom                 a.u.       MegaHertz       Gauss      10(-4) cm-1
     1  Cl(35)             0.07134      31.28093      11.16181      10.43420
     2  B(11)              0.31970     458.57351     163.63043     152.96366
     3  C(13)              0.06972      78.37805      27.96724      26.14410
     4  Cl(35)             0.03485      15.27960       5.45214       5.09672
     5  H(1)              -0.00006      -0.26664      -0.09514      -0.08894
     6  H(1)              -0.00006      -0.26666      -0.09515      -0.08895
 --------------------------------------------------------
       Center         ----  Spin Dipole Couplings  ----

 Normal termination of Gaussian 16 at Tue Apr  8 23:41:13 2025.
