 Gaussian 16, Revision C.01,

 ----------------------------------------------------------------------
 #t hf aug-cc-pvdz symm=none int=(grid=ultrafine) guess=(read,tcheck) s
 table=(opt,rrhf)
 ----------------------------------------------------------------------
 -----
 title
 -----
 Symbolic Z-matrix:
 Charge =  0 Multiplicity = 1

 SCF Done:  E(RHF) =  -512.560276911     A.U. after   13 cycles
 Normal termination of Gaussian 16 at Tue Apr  8 22:42:25 2025.
 Gaussian 16:  ES64L-G16RevC.01  3-Jul-2019

 ----------------------------------------------------------------------
 #t hf aug-cc-pvdz iop(5/13=1,5/36=2,99/5=2) pseudo=read geom=check gue
 ss=(read,tcheck) scf=(maxcycle=1)
 ----------------------------------------------------------------------
 -----
 title
 -----
 Structure from the checkpoint file:  "BDE49_expt_1494_mol1.chk"
 Charge =  0 Multiplicity = 1

                         Standard orientation:
 ---------------------------------------------------------------------
 Center     Atomic      Atomic             Coordinates (Angstroms)
 Number     Number       Type             X           Y           Z
 ---------------------------------------------------------------------
      1         16           0       -1.070603   -0.087631   -0.094905
      2          8           0        0.440623    0.628744    0.091575
      3          1           0       -1.225952   -0.569937    1.160036
      4          6           0        1.549725   -0.269539   -0.032497
      5          1           0        1.577308   -0.979869    0.801358
      6          1           0        2.440851    0.359801   -0.003825
      7          1           0        1.514098   -0.820629   -0.976703
 ---------------------------------------------------------------------

 SCF Done:  E(RHF) =  -512.623913186     A.U. after    2 cycles

 The electronic state is 1-A.
 Alpha  occ. eigenvalues --  -93.59058 -20.60967 -11.29756  -8.88154  -6.22383
 Alpha  occ. eigenvalues --   -6.22041  -6.21670  -1.34132  -0.98194  -0.88503
 Alpha  occ. eigenvalues --   -0.67504  -0.64802  -0.64149  -0.54335  -0.50884
 Alpha  occ. eigenvalues --   -0.45739  -0.37229
 Alpha virt. eigenvalues --    0.03498   0.05034   0.06074   0.06179   0.07882
 Alpha virt. eigenvalues --    0.10862   0.12741   0.14561   0.15147   0.15432
 Alpha virt. eigenvalues --    0.17009   0.18922   0.19754   0.21985   0.25537

 Mulliken charges:
               1
     1  S    0.405489
     2  O   -0.842576
     3  H    0.053235
     4  C    0.754688
     5  H   -0.101910
     6  H   -0.197383
     7  H   -0.071544
 Sum of Mulliken charges =  -0.00000

 Dipole moment (field-independent basis, Debye):
    X=              0.8489    Y=             -1.6229    Z=              0.5780  Tot=              1.9206

 Test job not archived.
 1\1\GINC-SE403\SP\RHF\Aug-CC-pVDZ\C1H4O1S1\OHZDE\08-Apr-2025\0\\#t hf
 aug-cc-pvdz iop(5/13=1,5/36=2,99/5=2) pseudo=read geom=check guess=(re
 ad,tcheck) scf=(maxcycle=1)\\title\\0,1\S,0,-1.070603,-0.087631,-0.094
 905\O,0,0.440623,0.628744,0.091575\H,0,-1.225952,-0.569937,1.160036\C,
 0,1.549725,-0.269539,-0.032497\H,0,1.577308,-0.979869,0.801358\H,0,2.4
 40851,0.359801,-0.003825\H,0,1.514098,-0.820629,-0.976703\\Version=ES6
 4L-G16RevC.01\State=1-A\HF=-512.6239132\RMSD=4.576e-03\Dipole=0.333994
 1,-0.6385086,0.2273939\Quadrupole=1.7853044,-2.0589654,0.273661,0.2557

 Normal termination of Gaussian 16 at Tue Apr  8 22:42:26 2025.
