 Gaussian 16, Revision C.01,

 ----------------------------------------------------------------------
 #t hf aug-cc-pvdz symm=none int=(grid=ultrafine) guess=(read,tcheck) s
 table=(opt,rrhf)
 ----------------------------------------------------------------------
 -----
 title
 -----
 Symbolic Z-matrix:
 Charge =  0 Multiplicity = 1

 SCF Done:  E(RHF) =  -1173.94922164     A.U. after   15 cycles
 Normal termination of Gaussian 16 at Wed Apr  9 00:11:16 2025.
 Gaussian 16:  ES64L-G16RevC.01  3-Jul-2019

 ----------------------------------------------------------------------
 #t hf aug-cc-pvdz iop(5/13=1,5/36=2,99/5=2) pseudo=read geom=check gue
 ss=(read,tcheck) scf=(maxcycle=1)
 ----------------------------------------------------------------------
 -----
 title
 -----
 Structure from the checkpoint file:  "BDE49_nonexpt_239_mol1.chk"
 Charge =  0 Multiplicity = 1

                         Standard orientation:
 ---------------------------------------------------------------------
 Center     Atomic      Atomic             Coordinates (Angstroms)
 Number     Number       Type             X           Y           Z
 ---------------------------------------------------------------------
      1         17           0        2.086848   -1.505096   -0.000025
      2         17           0        2.086848    1.505096   -0.000007
      3          5           0        1.150590    0.000000    0.000024
      4          6           0       -0.391708    0.000000    0.000015
      5          6           0       -1.120035   -1.206734    0.000006
      6          1           0       -0.587187   -2.149861    0.000001
      7          6           0       -2.509343   -1.207779    0.000000
      8          1           0       -3.050263   -2.147141   -0.000008
      9          6           0       -3.206235    0.000000    0.000005
     10          6           0       -1.120035    1.206734    0.000021
     11          1           0       -0.587187    2.149861    0.000028
     12          6           0       -2.509343    1.207779    0.000015
     13          1           0       -3.050263    2.147141    0.000018
     14          1           0       -4.290688    0.000000    0.000000
 ---------------------------------------------------------------------

 SCF Done:  E(RHF) =  -1174.05693224     A.U. after    2 cycles

 The electronic state is 1-A.
 Alpha  occ. eigenvalues -- -103.66478-103.66477 -11.27104 -11.26840 -11.26838
 Alpha  occ. eigenvalues --  -11.25789 -11.25785 -11.24735 -10.69974 -10.69942
 Alpha  occ. eigenvalues --   -8.35653  -8.35648  -8.35433  -8.35431  -8.35411
 Alpha  occ. eigenvalues --   -8.35407  -7.72728  -1.18099  -1.15475  -1.14020
 Alpha  occ. eigenvalues --   -1.02727  -1.02650  -0.84927  -0.84271  -0.73854
 Alpha  occ. eigenvalues --   -0.68864  -0.65069  -0.64252  -0.60878  -0.60380
 Alpha  occ. eigenvalues --   -0.56784  -0.53796  -0.52149  -0.51080  -0.50856
 Alpha  occ. eigenvalues --   -0.47702  -0.47339  -0.46233  -0.36139  -0.35594
 Alpha virt. eigenvalues --    0.02984   0.03938   0.04028   0.04389   0.05749
 Alpha virt. eigenvalues --    0.06020   0.06097   0.07297   0.08461   0.08630
 Alpha virt. eigenvalues --    0.09621   0.12565   0.13199   0.13263   0.13759

 Mulliken charges:
               1
     1  Cl  -0.341135
     2  Cl  -0.341135
     3  B    0.507142
     4  C    0.097135
     5  C    0.424989
     6  H   -0.640307
     7  C    0.538163
     8  H   -0.444526
     9  C    0.748707
    10  C    0.424989
    11  H   -0.640307
    12  C    0.538163
    13  H   -0.444526
    14  H   -0.427351
 Sum of Mulliken charges =  -0.00000

 Dipole moment (field-independent basis, Debye):
    X=             -2.9612    Y=              0.0000    Z=              0.0001  Tot=              2.9612

 Test job not archived.
 1\1\GINC-SE454\SP\RHF\Aug-CC-pVDZ\C6H5B1Cl2\OHZDE\09-Apr-2025\0\\#t hf
  aug-cc-pvdz iop(5/13=1,5/36=2,99/5=2) pseudo=read geom=check guess=(r
 ead,tcheck) scf=(maxcycle=1)\\title\\0,1\Cl,0,2.086848,1.505096,0.0000
 25\Cl,0,2.086848,-1.505096,0.000007\B,0,1.15059,0.,-0.000024\C,0,-0.39
 1708,0.,-0.000015\C,0,-1.120035,1.206734,-0.000006\H,0,-0.587187,2.149
 861,-0.000001\C,0,-2.509343,1.207779,0.\H,0,-3.050263,2.147141,0.00000
 8\C,0,-3.206235,0.,-0.000005\C,0,-1.120035,-1.206734,-0.000021\H,0,-0.
 587187,-2.149861,-0.000028\C,0,-2.509343,-1.207779,-0.000015\H,0,-3.05

 Normal termination of Gaussian 16 at Wed Apr  9 00:11:22 2025.
