 Gaussian 16, Revision C.01,

 ----------------------------------------------------------------------
 #t hf aug-cc-pvdz symm=none int=(grid=ultrafine) guess=(read,tcheck) s
 table=(opt,rrhf)
 ----------------------------------------------------------------------
 -----
 title
 -----
 Symbolic Z-matrix:
 Charge =  0 Multiplicity = 1

 SCF Done:  E(RHF) =  -644.248403755     A.U. after   15 cycles
 Normal termination of Gaussian 16 at Tue Apr  8 23:06:54 2025.
 Gaussian 16:  ES64L-G16RevC.01  3-Jul-2019

 ----------------------------------------------------------------------
 #t hf aug-cc-pvdz iop(5/13=1,5/36=2,99/5=2) pseudo=read geom=check gue
 ss=(read,tcheck) scf=(maxcycle=1)
 ----------------------------------------------------------------------
 -----
 title
 -----
 Structure from the checkpoint file:  "BDE49_expt_545_mol1.chk"
 Charge =  0 Multiplicity = 1

                         Standard orientation:
 ---------------------------------------------------------------------
 Center     Atomic      Atomic             Coordinates (Angstroms)
 Number     Number       Type             X           Y           Z
 ---------------------------------------------------------------------
      1          6           0        0.000000    1.188923   -1.487067
      2          6           0        0.000000    1.213039   -0.129614
      3          7           0        0.000000    0.000000   -2.168181
      4          6           0       -0.000000   -1.188923   -1.487067
      5          6           0       -0.000000   -1.213039   -0.129614
      6          6           0        0.000000    0.000000    0.653696
      7          1           0        0.000000    0.000000   -3.175263
      8          1           0        0.000000    2.084547   -2.094227
      9          1           0        0.000000    2.163064    0.387008
     10         16           0        0.000000    0.000000    2.327810
     11          1           0       -0.000000   -2.163064    0.387008
     12          1           0       -0.000000   -2.084547   -2.094227
 ---------------------------------------------------------------------

 SCF Done:  E(RHF) =  -644.338324924     A.U. after    2 cycles

 The electronic state is 1-A1.
 Alpha  occ. eigenvalues --  -93.46284 -15.72060 -11.33312 -11.33301 -11.31358
 Alpha  occ. eigenvalues --  -11.26035 -11.26029  -8.76127  -6.10358  -6.09870
 Alpha  occ. eigenvalues --   -6.09760  -1.29778  -1.11174  -1.07091  -0.95851
 Alpha  occ. eigenvalues --   -0.88783  -0.81797  -0.79585  -0.69970  -0.67372
 Alpha  occ. eigenvalues --   -0.64601  -0.61883  -0.60877  -0.53694  -0.47735
 Alpha  occ. eigenvalues --   -0.44591  -0.39799  -0.30126  -0.28490
 Alpha virt. eigenvalues --    0.01143   0.02800   0.04466   0.05187   0.06309
 Alpha virt. eigenvalues --    0.06957   0.08414   0.09262   0.10493   0.10633
 Alpha virt. eigenvalues --    0.11504   0.11735   0.12979   0.13175   0.13277

 Mulliken charges:
               1
     1  C    0.606837
     2  C    0.833188
     3  N   -0.332463
     4  C    0.606837
     5  C    0.833188
     6  C   -0.820610
     7  H   -0.035486
     8  H   -0.367723
     9  H   -0.432445
    10  S   -0.091156
    11  H   -0.432445
    12  H   -0.367723
 Sum of Mulliken charges =  -0.00000

 Dipole moment (field-independent basis, Debye):
    X=             -0.0000    Y=              0.0000    Z=             -8.8212  Tot=              8.8212

 Test job not archived.
 1\1\GINC-SE331\SP\RHF\Aug-CC-pVDZ\C5H5N1S1\OHZDE\08-Apr-2025\0\\#t hf
 aug-cc-pvdz iop(5/13=1,5/36=2,99/5=2) pseudo=read geom=check guess=(re
 ad,tcheck) scf=(maxcycle=1)\\title\\0,1\C,0,0.,1.188923,-1.487067\C,0,
 0.,1.213039,-0.129614\N,0,0.,0.,-2.168181\C,0,0.,-1.188923,-1.487067\C
 ,0,0.,-1.213039,-0.129614\C,0,0.,0.,0.653696\H,0,0.,0.,-3.175263\H,0,0
 .,2.084547,-2.094227\H,0,0.,2.163064,0.387008\S,0,0.,0.,2.32781\H,0,0.
 ,-2.163064,0.387008\H,0,0.,-2.084547,-2.094227\\Version=ES64L-G16RevC.
 01\State=1-A1\HF=-644.3383249\RMSD=1.836e-02\Dipole=0.,0.,-3.4705244\Q

 Normal termination of Gaussian 16 at Tue Apr  8 23:06:58 2025.
