 Gaussian 16, Revision C.01,

 ----------------------------------------------------------------------
 #t hf aug-cc-pvdz symm=none int=(grid=ultrafine) guess=(read,tcheck) s
 table=(opt,rrhf)
 ----------------------------------------------------------------------
 -----
 title
 -----
 Symbolic Z-matrix:
 Charge =  0 Multiplicity = 1

 SCF Done:  E(RHF) =  -1165.03418002     A.U. after   17 cycles
 Normal termination of Gaussian 16 at Wed Apr  9 00:51:14 2025.
 Gaussian 16:  ES64L-G16RevC.01  3-Jul-2019

 ----------------------------------------------------------------------
 #t hf aug-cc-pvdz iop(5/13=1,5/36=2,99/5=2) pseudo=read geom=check gue
 ss=(read,tcheck) scf=(maxcycle=1)
 ----------------------------------------------------------------------
 -----
 title
 -----
 Structure from the checkpoint file:  "BDE49_nonexpt_917_mol1.chk"
 Charge =  0 Multiplicity = 1

                         Standard orientation:
 ---------------------------------------------------------------------
 Center     Atomic      Atomic             Coordinates (Angstroms)
 Number     Number       Type             X           Y           Z
 ---------------------------------------------------------------------
      1          5           0        1.393549   -0.015202   -0.000249
      2         16           0        2.716705   -1.288047    0.000073
      3         16           0        1.797048    1.762951    0.000050
      4          6           0       -0.079749   -0.534489   -0.000129
      5          6           0       -1.215293    0.316324   -0.000045
      6          1           0       -1.579012    3.563563   -0.000037
      7          1           0       -2.662925    2.468734   -0.894965
      8          1           0       -2.662788    2.468744    0.895067
      9          8           0       -0.964990    1.650617   -0.000073
     10          6           0       -2.041840    2.578522    0.000004
     11          6           0       -2.513589   -0.203997    0.000055
     12          1           0       -3.370391    0.455332    0.000115
     13          6           0       -2.710244   -1.581071    0.000080
     14          1           0       -3.721654   -1.972435    0.000159
     15          6           0       -1.621673   -2.447482    0.000006
     16          1           0       -1.770864   -3.520429    0.000025
     17          6           0       -0.337431   -1.918564   -0.000095
     18          1           0        0.499289   -2.607819   -0.000152
     19          1           0        3.137046    1.634780    0.000131
     20          1           0        3.782344   -0.473327    0.000266
 ---------------------------------------------------------------------

 SCF Done:  E(RHF) =  -1165.18073775     A.U. after    2 cycles

 The electronic state is 1-A.
 Alpha  occ. eigenvalues --  -93.53208 -93.53012 -20.60775 -11.32854 -11.30405
 Alpha  occ. eigenvalues --  -11.26450 -11.26027 -11.24631 -11.24058 -11.23334
 Alpha  occ. eigenvalues --   -8.83172  -8.82895  -7.66600  -6.17388  -6.17119
 Alpha  occ. eigenvalues --   -6.17087  -6.16865  -6.16822  -6.16570  -1.38131
 Alpha  occ. eigenvalues --   -1.14590  -1.03369  -1.02130  -0.98131  -0.95135
 Alpha  occ. eigenvalues --   -0.93201  -0.84601  -0.81831  -0.74129  -0.68890
 Alpha  occ. eigenvalues --   -0.68471  -0.67456  -0.64110  -0.62701  -0.59536
 Alpha  occ. eigenvalues --   -0.56311  -0.55308  -0.54180  -0.53628  -0.51904
 Alpha  occ. eigenvalues --   -0.50385  -0.48542  -0.47559  -0.42277  -0.41286
 Alpha  occ. eigenvalues --   -0.35886  -0.34735  -0.32502
 Alpha virt. eigenvalues --    0.03040   0.03965   0.04251   0.05004   0.05440
 Alpha virt. eigenvalues --    0.05887   0.06133   0.07093   0.07131   0.07261
 Alpha virt. eigenvalues --    0.07616   0.09462   0.09788   0.09944   0.11657

 Mulliken charges:
               1
     1  B    0.385385
     2  S   -0.131856
     3  S   -0.119847
     4  C   -0.463978
     5  C    0.392222
     6  H   -0.314682
     7  H   -0.069417
     8  H   -0.069419
     9  O   -0.675300
    10  C    0.919561
    11  C    0.776270
    12  H   -0.752055
    13  C    0.639196
    14  H   -0.460017
    15  C    0.653447
    16  H   -0.495613
    17  C    0.582107
    18  H   -0.639070
    19  H   -0.051160
    20  H   -0.105774
 Sum of Mulliken charges =  -0.00000

 Dipole moment (field-independent basis, Debye):
    X=             -2.2736    Y=              0.7121    Z=              0.0001  Tot=              2.3825

 Test job not archived.
 1\1\GINC-SE253\SP\RHF\Aug-CC-pVDZ\C7H9B1O1S2\OHZDE\09-Apr-2025\0\\#t h
 f aug-cc-pvdz iop(5/13=1,5/36=2,99/5=2) pseudo=read geom=check guess=(
 read,tcheck) scf=(maxcycle=1)\\title\\0,1\B,0,1.393549,-0.015202,-0.00
 0249\S,0,2.716705,-1.288047,0.000073\S,0,1.797048,1.762951,0.00005\C,0
 ,-0.079749,-0.534489,-0.000129\C,0,-1.215293,0.316324,-0.000045\H,0,-1
 .579011,3.563563,-0.000037\H,0,-2.662924,2.468735,-0.894965\H,0,-2.662
 787,2.468745,0.895067\O,0,-0.96499,1.650617,-0.000073\C,0,-2.041839,2.
 578522,0.000004\C,0,-2.513589,-0.203996,0.000055\H,0,-3.370391,0.45533

 Normal termination of Gaussian 16 at Wed Apr  9 00:51:28 2025.
