 Gaussian 16, Revision C.01,

 ----------------------------------------------------------------------
 #t hf aug-cc-pvdz symm=none int=(grid=ultrafine) guess=(read,tcheck) s
 table=opt
 ----------------------------------------------------------------------
 -----
 title
 -----
 Symbolic Z-matrix:
 Charge =  0 Multiplicity = 2

 SCF Done:  E(UHF) =  -474.083489417     A.U. after   15 cycles
 Normal termination of Gaussian 16 at Tue Apr  8 22:43:33 2025.
 Gaussian 16:  ES64L-G16RevC.01  3-Jul-2019

 ----------------------------------------------------------------------
 #t hf aug-cc-pvdz iop(5/13=1,5/36=2,99/5=2) pseudo=read geom=check gue
 ss=(read,tcheck) scf=(maxcycle=1)
 ----------------------------------------------------------------------
 -----
 title
 -----
 Structure from the checkpoint file:  "BDE49_expt_1512_mol2.chk"
 Charge =  0 Multiplicity = 2

                         Standard orientation:
 ---------------------------------------------------------------------
 Center     Atomic      Atomic             Coordinates (Angstroms)
 Number     Number       Type             X           Y           Z
 ---------------------------------------------------------------------
      1          6           0        0.932774    0.691373   -0.133747
      2          6           0       -0.387735    0.019858   -0.013636
      3          9           0        1.997953   -0.095117    0.002621
      4          1           0        1.070679    1.736011    0.109667
      5          9           0       -1.358776    0.902756   -0.316527
      6          9           0       -0.630245   -0.438277    1.239206
      7          9           0       -0.491256   -1.036406   -0.839230
 ---------------------------------------------------------------------

 SCF Done:  E(UHF) =  -474.254793477     A.U. after    2 cycles

 The electronic state is 2-A.
 Alpha  occ. eigenvalues --  -26.18440 -26.17957 -26.17949 -26.17679 -11.54926
 Alpha  occ. eigenvalues --  -11.38673  -1.77592  -1.72474  -1.70762  -1.70254
 Alpha  occ. eigenvalues --   -1.11824  -0.99053  -0.89846  -0.89744  -0.88137
 Alpha  occ. eigenvalues --   -0.82254  -0.81045  -0.78563  -0.78228  -0.74528
 Alpha  occ. eigenvalues --   -0.74087  -0.73982  -0.73048  -0.62443  -0.45948
 Alpha virt. eigenvalues --    0.03425   0.07651   0.08666   0.09155   0.11587
 Alpha virt. eigenvalues --    0.11740   0.11910   0.15554   0.20342   0.21930
 Alpha virt. eigenvalues --    0.22520   0.24847   0.27253   0.28276   0.30438

  Beta  occ. eigenvalues --  -26.18434 -26.17896 -26.17454 -26.17441 -11.55168
  Beta  occ. eigenvalues --  -11.35948  -1.77339  -1.71176  -1.70550  -1.69690
  Beta  occ. eigenvalues --   -1.08509  -0.96429  -0.89726  -0.88794  -0.87438
  Beta  occ. eigenvalues --   -0.80729  -0.78201  -0.78038  -0.75366  -0.74217
  Beta  occ. eigenvalues --   -0.73719  -0.72828  -0.72183  -0.61298
  Beta virt. eigenvalues --    0.03479   0.04931   0.07734   0.08775   0.11410
  Beta virt. eigenvalues --    0.11657   0.11836   0.13038   0.16014   0.20828
  Beta virt. eigenvalues --    0.22201   0.22811   0.25430   0.27759   0.29084

 Mulliken charges and spin densities:
               1          2
     1  C    0.350428   1.168584
     2  C    1.002300  -0.104908
     3  F   -0.324401   0.021652
     4  H   -0.138160  -0.100073
     5  F   -0.289871   0.002430
     6  F   -0.308950   0.012802
     7  F   -0.291346  -0.000488
 Sum of Mulliken charges =  -0.00000   1.00000

 Dipole moment (field-independent basis, Debye):
    X=              0.7972    Y=              2.1218    Z=             -0.0468  Tot=              2.2671
                          Isotropic Fermi Contact Couplings
        Atom                 a.u.       MegaHertz       Gauss      10(-4) cm-1
     1  C(13)              0.28740     323.08972     115.28645     107.77113
     2  C(13)             -0.05262     -59.15928     -21.10950     -19.73341
     3  F(19)              0.06042     254.22466      90.71368      84.80022
     4  H(1)              -0.02378    -106.28916     -37.92662     -35.45425
     5  F(19)             -0.00241     -10.16069      -3.62559      -3.38924
     6  F(19)              0.04084     171.82482      61.31137      57.31459
     7  F(19)              0.00949      39.93416      14.24950      13.32060
 --------------------------------------------------------

 Normal termination of Gaussian 16 at Tue Apr  8 22:43:35 2025.
