 Gaussian 16, Revision C.01,

 ----------------------------------------------------------------------
 #t hf aug-cc-pvdz symm=none int=(grid=ultrafine) guess=(read,tcheck) s
 table=(opt,rrhf)
 ----------------------------------------------------------------------
 -----
 title
 -----
 Symbolic Z-matrix:
 Charge =  0 Multiplicity = 1

 SCF Done:  E(RHF) =  -737.536035641     A.U. after   11 cycles
 Normal termination of Gaussian 16 at Tue Apr  8 23:10:37 2025.
 Gaussian 16:  ES64L-G16RevC.01  3-Jul-2019

 ----------------------------------------------------------------------
 #t hf aug-cc-pvdz iop(5/13=1,5/36=2,99/5=2) pseudo=read geom=check gue
 ss=(read,tcheck) scf=(maxcycle=1)
 ----------------------------------------------------------------------
 -----
 title
 -----
 Structure from the checkpoint file:  "BDE49_expt_802_mol1.chk"
 Charge =  0 Multiplicity = 1

                         Standard orientation:
 ---------------------------------------------------------------------
 Center     Atomic      Atomic             Coordinates (Angstroms)
 Number     Number       Type             X           Y           Z
 ---------------------------------------------------------------------
      1         14           0       -0.313409    1.141533   -0.000000
      2         14           0        0.313409   -1.141533   -0.000000
      3          6           0        0.313409    2.027487    1.548852
      4          1           0       -1.803844    1.213805    0.000000
      5          6           0        0.313409    2.027487   -1.548852
      6          6           0       -0.313409   -2.027487   -1.548852
      7          6           0       -0.313409   -2.027487    1.548852
      8          1           0        1.803844   -1.213805    0.000000
      9          1           0        1.405518    1.998724   -1.605385
     10          1           0        0.005467    3.077559   -1.547107
     11          1           0       -0.081178    1.566619   -2.458540
     12          1           0       -0.081178    1.566619    2.458540
     13          1           0        0.005467    3.077559    1.547107
     14          1           0        1.405518    1.998724    1.605385
     15          1           0       -1.405518   -1.998724    1.605385
     16          1           0        0.081178   -1.566619    2.458540
     17          1           0       -0.005467   -3.077559    1.547107
     18          1           0       -1.405518   -1.998724   -1.605385
     19          1           0       -0.005467   -3.077559   -1.547107
     20          1           0        0.081178   -1.566619   -2.458540
 ---------------------------------------------------------------------

 SCF Done:  E(RHF) =  -737.635948183     A.U. after    2 cycles

 The electronic state is 1-AG.
 Alpha  occ. eigenvalues --  -69.04250 -69.04250 -11.21263 -11.21263 -11.21259
 Alpha  occ. eigenvalues --  -11.21259  -6.79558  -6.79547  -3.90327  -3.90319
 Alpha  occ. eigenvalues --   -3.90314  -3.90313  -3.90304  -3.90226  -0.95145
 Alpha  occ. eigenvalues --   -0.94191  -0.91937  -0.91774  -0.67142  -0.61113
 Alpha  occ. eigenvalues --   -0.56990  -0.56537  -0.56449  -0.55322  -0.55057
 Alpha  occ. eigenvalues --   -0.54562  -0.54419  -0.53824  -0.45217  -0.44387
 Alpha  occ. eigenvalues --   -0.43719  -0.42724  -0.35967
 Alpha virt. eigenvalues --    0.03351   0.04128   0.04459   0.04719   0.06105
 Alpha virt. eigenvalues --    0.06136   0.06600   0.06689   0.07353   0.08081
 Alpha virt. eigenvalues --    0.08312   0.08740   0.08831   0.09855   0.10109

 Mulliken charges:
               1
     1  Si   0.953984
     2  Si   0.953984
     3  C    0.295161
     4  H    0.013510
     5  C    0.295161
     6  C    0.295161
     7  C    0.295161
     8  H    0.013510
     9  H   -0.190664
    10  H   -0.295992
    11  H   -0.292252
    12  H   -0.292252
    13  H   -0.295992
    14  H   -0.190664
    15  H   -0.190664
    16  H   -0.292252
    17  H   -0.295992
    18  H   -0.190664
    19  H   -0.295992
    20  H   -0.292252
 Sum of Mulliken charges =  -0.00000

 Dipole moment (field-independent basis, Debye):
    X=              0.0000    Y=              0.0000    Z=              0.0000  Tot=              0.0000

 Test job not archived.
 1\1\GINC-SE126\SP\RHF\Aug-CC-pVDZ\C4H14Si2\OHZDE\08-Apr-2025\0\\#t hf
 aug-cc-pvdz iop(5/13=1,5/36=2,99/5=2) pseudo=read geom=check guess=(re
 ad,tcheck) scf=(maxcycle=1)\\title\\0,1\Si,0,-0.313409,1.141533,0.\Si,
 0,0.313409,-1.141533,0.\C,0,0.313409,2.027487,1.548852\H,0,-1.803844,1
 .213805,0.\C,0,0.313409,2.027487,-1.548852\C,0,-0.313409,-2.027487,-1.
 548852\C,0,-0.313409,-2.027487,1.548852\H,0,1.803844,-1.213805,0.\H,0,
 1.405518,1.998724,-1.605385\H,0,0.005467,3.077559,-1.547107\H,0,-0.081
 178,1.566619,-2.45854\H,0,-0.081178,1.566619,2.45854\H,0,0.005467,3.07

 Normal termination of Gaussian 16 at Tue Apr  8 23:10:44 2025.
