 Gaussian 16, Revision C.01,

 ----------------------------------------------------------------------
 #t hf aug-cc-pvdz symm=none int=(grid=ultrafine) guess=(read,tcheck) s
 table=(opt,rrhf)
 ----------------------------------------------------------------------
 -----
 title
 -----
 Symbolic Z-matrix:
 Charge =  0 Multiplicity = 1

 SCF Done:  E(RHF) =  -857.268240269     A.U. after   13 cycles
 Normal termination of Gaussian 16 at Tue Apr  8 23:41:13 2025.
 Gaussian 16:  ES64L-G16RevC.01  3-Jul-2019

 ----------------------------------------------------------------------
 #t hf aug-cc-pvdz iop(5/13=1,5/36=2,99/5=2) pseudo=read geom=check gue
 ss=(read,tcheck) scf=(maxcycle=1)
 ----------------------------------------------------------------------
 -----
 title
 -----
 Structure from the checkpoint file:  "BDE49_nonexpt_1680_mol1.chk"
 Charge =  0 Multiplicity = 1

                         Standard orientation:
 ---------------------------------------------------------------------
 Center     Atomic      Atomic             Coordinates (Angstroms)
 Number     Number       Type             X           Y           Z
 ---------------------------------------------------------------------
      1         14           0        1.815056   -0.040707    0.002008
      2         15           0       -0.452455   -0.023005    0.123522
      3          8           0       -1.059354   -0.482112    1.385648
      4          8           0       -0.969851   -0.877056   -1.158158
      5          1           0       -1.400449   -1.692077   -0.869958
      6          8           0       -0.765747    1.489716   -0.325121
      7          1           0       -1.688978    1.746699   -0.193874
      8          1           0        2.229473   -1.440894    0.229309
      9          1           0        2.341839    0.837157    1.065958
     10          1           0        2.253771    0.419696   -1.331322
 ---------------------------------------------------------------------

 SCF Done:  E(RHF) =  -857.425506244     A.U. after    2 cycles

 The electronic state is 1-A.
 Alpha  occ. eigenvalues --  -81.41056 -69.09224 -20.61932 -20.61512 -20.52785
 Alpha  occ. eigenvalues --   -7.89551  -6.84603  -5.04162  -5.04046  -5.03625
 Alpha  occ. eigenvalues --   -3.95379  -3.95339  -3.95334  -1.37797  -1.34618
 Alpha  occ. eigenvalues --   -1.25825  -0.85757  -0.76031  -0.73557  -0.68286
 Alpha  occ. eigenvalues --   -0.65235  -0.62647  -0.57803  -0.57336  -0.52511
 Alpha  occ. eigenvalues --   -0.50800  -0.50270  -0.48764  -0.43530
 Alpha virt. eigenvalues --    0.03026   0.04327   0.04775   0.06497   0.06757
 Alpha virt. eigenvalues --    0.07116   0.08784   0.09018   0.10537   0.11541
 Alpha virt. eigenvalues --    0.12179   0.14797   0.15292   0.16108   0.16730

 Mulliken charges:
               1
     1  Si   0.242324
     2  P    1.864780
     3  O   -0.939668
     4  O   -0.705507
     5  H    0.139700
     6  O   -0.668040
     7  H    0.144387
     8  H   -0.039340
     9  H   -0.029260
    10  H   -0.009375
 Sum of Mulliken charges =   0.00000

 Dipole moment (field-independent basis, Debye):
    X=              0.7111    Y=              0.1280    Z=             -1.9034  Tot=              2.0359

 Test job not archived.
 1\1\GINC-SE402\SP\RHF\Aug-CC-pVDZ\H5O3P1Si1\OHZDE\08-Apr-2025\0\\#t hf
  aug-cc-pvdz iop(5/13=1,5/36=2,99/5=2) pseudo=read geom=check guess=(r
 ead,tcheck) scf=(maxcycle=1)\\title\\0,1\Si,0,1.815056,-0.040706,0.002
 008\P,0,-0.452455,-0.023005,0.123522\O,0,-1.059354,-0.482112,1.385648\
 O,0,-0.969851,-0.877056,-1.158158\H,0,-1.400449,-1.692077,-0.869958\O,
 0,-0.765747,1.489716,-0.325121\H,0,-1.688978,1.746699,-0.193874\H,0,2.
 229473,-1.440893,0.229309\H,0,2.341839,0.837158,1.065958\H,0,2.253771,
 0.419697,-1.331322\\Version=ES64L-G16RevC.01\State=1-A\HF=-857.4255062

 Normal termination of Gaussian 16 at Tue Apr  8 23:41:16 2025.
