 Gaussian 16, Revision C.01,

 ----------------------------------------------------------------------
 #t hf aug-cc-pvdz symm=none int=(grid=ultrafine) guess=(read,tcheck) s
 table=(opt,rrhf)
 ----------------------------------------------------------------------
 -----
 title
 -----
 Symbolic Z-matrix:
 Charge =  0 Multiplicity = 1

 SCF Done:  E(RHF) =  -709.142740987     A.U. after   14 cycles
 Normal termination of Gaussian 16 at Wed Apr  9 00:20:06 2025.
 Gaussian 16:  ES64L-G16RevC.01  3-Jul-2019

 ----------------------------------------------------------------------
 #t hf aug-cc-pvdz iop(5/13=1,5/36=2,99/5=2) pseudo=read geom=check gue
 ss=(read,tcheck) scf=(maxcycle=1)
 ----------------------------------------------------------------------
 -----
 title
 -----
 Structure from the checkpoint file:  "BDE49_nonexpt_2648_mol1.chk"
 Charge =  0 Multiplicity = 1

                         Standard orientation:
 ---------------------------------------------------------------------
 Center     Atomic      Atomic             Coordinates (Angstroms)
 Number     Number       Type             X           Y           Z
 ---------------------------------------------------------------------
      1          9           0       -1.795867    0.543334   -0.000008
      2         16           0       -0.728649   -0.705449    0.000001
      3          6           0        0.760452    0.234069    0.000004
      4          8           0        0.927823    1.397036    0.000011
      5          9           0        1.759544   -0.687059   -0.000006
 ---------------------------------------------------------------------

 SCF Done:  E(RHF) =  -709.276758194     A.U. after    2 cycles

 The electronic state is 1-A.
 Alpha  occ. eigenvalues --  -93.68624 -26.19891 -26.17704 -20.63693 -11.49729
 Alpha  occ. eigenvalues --   -8.97510  -6.31684  -6.31324  -6.30866  -1.74065
 Alpha  occ. eigenvalues --   -1.69179  -1.44474  -1.08247  -0.93161  -0.83887
 Alpha  occ. eigenvalues --   -0.81459  -0.79381  -0.78091  -0.75713  -0.72049
 Alpha  occ. eigenvalues --   -0.63568  -0.61744  -0.52613  -0.44531
 Alpha virt. eigenvalues --    0.03479   0.05932   0.08024   0.09487   0.09762
 Alpha virt. eigenvalues --    0.11152   0.11720   0.13465   0.13527   0.19871
 Alpha virt. eigenvalues --    0.21683   0.23046   0.23113   0.25905   0.28322

 Mulliken charges:
               1
     1  F   -0.584233
     2  S    0.949725
     3  C    0.179999
     4  O   -0.259264
     5  F   -0.286227
 Sum of Mulliken charges =  -0.00000

 Dipole moment (field-independent basis, Debye):
    X=             -0.6039    Y=             -2.5876    Z=              0.0000  Tot=              2.6571

 Test job not archived.
 1\1\GINC-SE179\SP\RHF\Aug-CC-pVDZ\C1F2O1S1\OHZDE\09-Apr-2025\0\\#t hf
 aug-cc-pvdz iop(5/13=1,5/36=2,99/5=2) pseudo=read geom=check guess=(re
 ad,tcheck) scf=(maxcycle=1)\\title\\0,1\F,0,1.795867,0.543334,0.000008
 \S,0,0.728649,-0.705449,-0.000001\C,0,-0.760452,0.234069,-0.000004\O,0
 ,-0.927823,1.397036,-0.000011\F,0,-1.759544,-0.687059,0.000006\\Versio
 n=ES64L-G16RevC.01\State=1-A\HF=-709.2767582\RMSD=5.128e-03\Dipole=0.2
 3761,-1.018039,-0.0000026\Quadrupole=-1.2632082,-0.550075,1.8132832,-0
 .7573115,-0.0000046,0.0000281\PG=C01 [X(C1F2O1S1)]\\@

 Normal termination of Gaussian 16 at Wed Apr  9 00:20:08 2025.
