 Gaussian 16, Revision C.01,

 ----------------------------------------------------------------------
 #t hf aug-cc-pvdz symm=none int=(grid=ultrafine) guess=(read,tcheck) s
 table=(opt,rrhf)
 ----------------------------------------------------------------------
 -----
 title
 -----
 Symbolic Z-matrix:
 Charge =  0 Multiplicity = 1

 SCF Done:  E(RHF) =  -672.621816013     A.U. after   15 cycles
 Normal termination of Gaussian 16 at Wed Apr  9 00:03:02 2025.
 Gaussian 16:  ES64L-G16RevC.01  3-Jul-2019

 ----------------------------------------------------------------------
 #t hf aug-cc-pvdz iop(5/13=1,5/36=2,99/5=2) pseudo=read geom=check gue
 ss=(read,tcheck) scf=(maxcycle=1)
 ----------------------------------------------------------------------
 -----
 title
 -----
 Structure from the checkpoint file:  "BDE49_nonexpt_2182_mol1.chk"
 Charge =  0 Multiplicity = 1

                         Standard orientation:
 ---------------------------------------------------------------------
 Center     Atomic      Atomic             Coordinates (Angstroms)
 Number     Number       Type             X           Y           Z
 ---------------------------------------------------------------------
      1          8           0       -0.414170   -1.222333   -0.006860
      2          6           0        0.744452   -0.494335   -0.010342
      3          6           0        1.921190   -1.168877    0.324301
      4          6           0        0.787786    0.864823   -0.329346
      5          6           0        2.008128    1.538428   -0.314781
      6          6           0        3.183820    0.870967    0.016494
      7          6           0        3.131927   -0.485774    0.336594
      8          1           0        1.862922   -2.222641    0.567975
      9          1           0        4.040379   -1.017508    0.597013
     10          1           0       -0.122829    1.396254   -0.579098
     11          1           0        2.033310    2.593608   -0.563403
     12          1           0        4.129214    1.400325    0.026682
     13         14           0       -1.979311   -0.852391   -0.432969
     14          6           0       -2.775973    0.370337    0.722330
     15          6           0       -3.366540    1.489809    0.294679
     16          1           0       -2.792702    0.153933    1.790111
     17          1           0       -3.383391    1.762541   -0.757569
     18          1           0       -3.861175    2.182610    0.970344
     19          1           0       -2.656571   -2.161723   -0.372867
     20          1           0       -2.034187   -0.287532   -1.802324
 ---------------------------------------------------------------------

 SCF Done:  E(RHF) =  -672.770475812     A.U. after    2 cycles

 The electronic state is 1-A.
 Alpha  occ. eigenvalues --  -69.09919 -20.58265 -11.31551 -11.26284 -11.24951
 Alpha  occ. eigenvalues --  -11.24832 -11.24129 -11.23791 -11.23741 -11.23716
 Alpha  occ. eigenvalues --   -6.84702  -3.95611  -3.95468  -3.95454  -1.34045
 Alpha  occ. eigenvalues --   -1.13669  -1.03910  -1.01324  -1.00046  -0.84952
 Alpha  occ. eigenvalues --   -0.83211  -0.79743  -0.74650  -0.69380  -0.66320
 Alpha  occ. eigenvalues --   -0.65829  -0.62260  -0.61662  -0.60774  -0.59345
 Alpha  occ. eigenvalues --   -0.56389  -0.55577  -0.52121  -0.49954  -0.49274
 Alpha  occ. eigenvalues --   -0.46891  -0.45349  -0.39373  -0.34343  -0.32066
 Alpha virt. eigenvalues --    0.03114   0.04022   0.04116   0.04710   0.05230
 Alpha virt. eigenvalues --    0.05564   0.06538   0.06937   0.07181   0.08122
 Alpha virt. eigenvalues --    0.08820   0.09810   0.10088   0.10848   0.11261

 Mulliken charges:
               1
     1  O   -0.881679
     2  C    0.258422
     3  C    0.359762
     4  C    0.451929
     5  C    0.558770
     6  C    0.504809
     7  C    0.736752
     8  H   -0.558649
     9  H   -0.429337
    10  H   -0.689515
    11  H   -0.433751
    12  H   -0.453262
    13  Si   0.659545
    14  C    0.228355
    15  C    0.556207
    16  H   -0.458805
    17  H   -0.309718
    18  H   -0.253742
    19  H    0.081725
    20  H    0.072181
 Sum of Mulliken charges =  -0.00000

 Dipole moment (field-independent basis, Debye):
    X=             -0.6614    Y=              1.3344    Z=              0.1593  Tot=              1.4979

 Test job not archived.
 1\1\GINC-SE335\SP\RHF\Aug-CC-pVDZ\C8H10O1Si1\OHZDE\09-Apr-2025\0\\#t h
 f aug-cc-pvdz iop(5/13=1,5/36=2,99/5=2) pseudo=read geom=check guess=(
 read,tcheck) scf=(maxcycle=1)\\title\\0,1\O,0,-0.41417,-1.222333,-0.00
 686\C,0,0.744452,-0.494335,-0.010342\C,0,1.92119,-1.168877,0.324301\C,
 0,0.787786,0.864823,-0.329346\C,0,2.008128,1.538428,-0.314781\C,0,3.18
 382,0.870967,0.016494\C,0,3.131927,-0.485774,0.336594\H,0,1.862922,-2.
 222641,0.567975\H,0,4.040379,-1.017508,0.597013\H,0,-0.122829,1.396254
 ,-0.579098\H,0,2.03331,2.593608,-0.563403\H,0,4.129214,1.400325,0.0266

 Normal termination of Gaussian 16 at Wed Apr  9 00:03:13 2025.
