 Gaussian 16, Revision C.01,

 ----------------------------------------------------------------------
 #t hf aug-cc-pvdz symm=none int=(grid=ultrafine) guess=(read,tcheck) s
 table=(opt,rrhf)
 ----------------------------------------------------------------------
 -----
 title
 -----
 Symbolic Z-matrix:
 Charge =  0 Multiplicity = 1

 SCF Done:  E(RHF) =  -572.338919311     A.U. after   15 cycles
 Normal termination of Gaussian 16 at Tue Apr  8 23:26:23 2025.
 Gaussian 16:  ES64L-G16RevC.01  3-Jul-2019

 ----------------------------------------------------------------------
 #t hf aug-cc-pvdz iop(5/13=1,5/36=2,99/5=2) pseudo=read geom=check gue
 ss=(read,tcheck) scf=(maxcycle=1)
 ----------------------------------------------------------------------
 -----
 title
 -----
 Structure from the checkpoint file:  "BDE49_nonexpt_1318_mol1.chk"
 Charge =  0 Multiplicity = 1

                         Standard orientation:
 ---------------------------------------------------------------------
 Center     Atomic      Atomic             Coordinates (Angstroms)
 Number     Number       Type             X           Y           Z
 ---------------------------------------------------------------------
      1          6           0       -1.020396   -0.326188   -0.016484
      2         15           0        0.700871    0.136360   -0.617040
      3          6           0        1.661550   -1.186921    0.244463
      4          1           0        1.553053   -1.140122    1.330516
      5          1           0        2.716879   -1.102364   -0.022568
      6          1           0        1.288482   -2.152418   -0.098875
      7          8           0       -1.280707   -1.476586    0.259762
      8          6           0       -2.080358    0.761616    0.000468
      9          1           0       -2.034416    1.371698   -0.905815
     10          1           0       -1.913837    1.427412    0.853409
     11          1           0       -3.065153    0.302856    0.094891
     12          6           0        1.061623    1.625050    0.440159
     13          1           0        0.454885    2.471220    0.111971
     14          1           0        2.109295    1.900151    0.297599
     15          1           0        0.888891    1.447508    1.504742
 ---------------------------------------------------------------------

 SCF Done:  E(RHF) =  -572.436898143     A.U. after    2 cycles

 The electronic state is 1-A.
 Alpha  occ. eigenvalues --  -81.26052 -20.56876 -11.34433 -11.24942 -11.24923
 Alpha  occ. eigenvalues --  -11.23642  -7.76416  -4.90426  -4.90386  -4.90050
 Alpha  occ. eigenvalues --   -1.35619  -1.01434  -0.98471  -0.94122  -0.80417
 Alpha  occ. eigenvalues --   -0.70264  -0.63777  -0.62712  -0.61362  -0.59241
 Alpha  occ. eigenvalues --   -0.57449  -0.56704  -0.56510  -0.53291  -0.51662
 Alpha  occ. eigenvalues --   -0.46829  -0.40774  -0.33366
 Alpha virt. eigenvalues --    0.03214   0.04107   0.04827   0.05125   0.06529
 Alpha virt. eigenvalues --    0.06736   0.07529   0.07797   0.08676   0.09063
 Alpha virt. eigenvalues --    0.10262   0.11622   0.12273   0.13643   0.13966

 Mulliken charges:
               1
     1  C    0.037519
     2  P    0.454487
     3  C    0.300443
     4  H   -0.137529
     5  H   -0.161753
     6  H   -0.093498
     7  O   -0.519184
     8  C    0.257638
     9  H    0.043753
    10  H    0.041418
    11  H   -0.106646
    12  C    0.350844
    13  H   -0.163638
    14  H   -0.170168
    15  H   -0.133686
 Sum of Mulliken charges =  -0.00000

 Dipole moment (field-independent basis, Debye):
    X=              1.0398    Y=              3.0648    Z=              0.6049  Tot=              3.2924

 Test job not archived.
 1\1\GINC-SE252\SP\RHF\Aug-CC-pVDZ\C4H9O1P1\OHZDE\08-Apr-2025\0\\#t hf
 aug-cc-pvdz iop(5/13=1,5/36=2,99/5=2) pseudo=read geom=check guess=(re
 ad,tcheck) scf=(maxcycle=1)\\title\\0,1\C,0,-1.020396,-0.326188,-0.016
 484\P,0,0.700871,0.13636,-0.61704\C,0,1.66155,-1.186921,0.244463\H,0,1
 .553053,-1.140122,1.330516\H,0,2.716879,-1.102365,-0.022568\H,0,1.2884
 82,-2.152418,-0.098875\O,0,-1.280707,-1.476586,0.259762\C,0,-2.080358,
 0.761616,0.000468\H,0,-2.034416,1.371698,-0.905815\H,0,-1.913837,1.427
 412,0.853409\H,0,-3.065153,0.302857,0.094891\C,0,1.061623,1.62505,0.44

 Normal termination of Gaussian 16 at Tue Apr  8 23:26:28 2025.
