 Gaussian 16, Revision C.01,

 ----------------------------------------------------------------------
 #t hf aug-cc-pvdz symm=none int=(grid=ultrafine) guess=(read,tcheck) s
 table=(opt,rrhf)
 ----------------------------------------------------------------------
 -----
 title
 -----
 Symbolic Z-matrix:
 Charge =  0 Multiplicity = 1

 SCF Done:  E(RHF) =  -1377.45135681     A.U. after   16 cycles
 Normal termination of Gaussian 16 at Wed Apr  9 00:15:26 2025.
 Gaussian 16:  ES64L-G16RevC.01  3-Jul-2019

 ----------------------------------------------------------------------
 #t hf aug-cc-pvdz iop(5/13=1,5/36=2,99/5=2) pseudo=read geom=check gue
 ss=(read,tcheck) scf=(maxcycle=1)
 ----------------------------------------------------------------------
 -----
 title
 -----
 Structure from the checkpoint file:  "BDE49_nonexpt_247_mol1.chk"
 Charge =  0 Multiplicity = 1

                         Standard orientation:
 ---------------------------------------------------------------------
 Center     Atomic      Atomic             Coordinates (Angstroms)
 Number     Number       Type             X           Y           Z
 ---------------------------------------------------------------------
      1         17           0       -3.443157    0.786635   -0.000020
      2         17           0       -2.219362   -1.966287   -0.000029
      3          5           0       -1.988452   -0.217190    0.000045
      4          6           0       -0.572270    0.413883    0.000029
      5          6           0        0.574993   -0.398100    0.000018
      6          6           0        1.830730    0.187781    0.000003
      7          6           0        2.006913    1.567637   -0.000003
      8          6           0       -0.391825    1.811095    0.000022
      9          1           0       -1.260926    2.457342    0.000030
     10          6           0        0.877846    2.380014    0.000007
     11          1           0        0.991050    3.457267    0.000002
     12          1           0        3.008427    1.975062   -0.000015
     13          7           0        3.030674   -0.685331   -0.000006
     14          8           0        2.850099   -1.893775    0.000019
     15          8           0        4.123860   -0.137423    0.000001
     16          1           0        0.501813   -1.476606    0.000022
 ---------------------------------------------------------------------

 SCF Done:  E(RHF) =  -1377.61911791     A.U. after    2 cycles

 The electronic state is 1-A.
 Alpha  occ. eigenvalues -- -103.68155-103.68028 -20.62823 -20.62788 -15.93106
 Alpha  occ. eigenvalues --  -11.33256 -11.30706 -11.30536 -11.30195 -11.28617
 Alpha  occ. eigenvalues --  -11.27600 -10.71637 -10.71506  -8.37328  -8.37201
 Alpha  occ. eigenvalues --   -8.37107  -8.37084  -8.36979  -8.36955  -7.74645
 Alpha  occ. eigenvalues --   -1.56100  -1.37719  -1.20767  -1.19110  -1.15713
 Alpha  occ. eigenvalues --   -1.09577  -1.06150  -0.96580  -0.88583  -0.84653
 Alpha  occ. eigenvalues --   -0.80376  -0.75019  -0.73764  -0.72821  -0.70927
 Alpha  occ. eigenvalues --   -0.68405  -0.65462  -0.63280  -0.58836  -0.56974
 Alpha  occ. eigenvalues --   -0.56347  -0.55088  -0.53236  -0.52566  -0.52099
 Alpha  occ. eigenvalues --   -0.49223  -0.49157  -0.48493  -0.47896  -0.39662
 Alpha  occ. eigenvalues --   -0.38888
 Alpha virt. eigenvalues --    0.01377   0.02475   0.03317   0.03988   0.04575
 Alpha virt. eigenvalues --    0.04972   0.05865   0.06038   0.07511   0.08522
 Alpha virt. eigenvalues --    0.10312   0.11151   0.11510   0.12283   0.12536

 Mulliken charges:
               1
     1  Cl  -0.347155
     2  Cl  -0.313195
     3  B    0.512242
     4  C    0.082783
     5  C    0.059737
     6  C    1.391528
     7  C    0.692599
     8  C    0.574325
     9  H   -0.666438
    10  C    0.562092
    11  H   -0.437273
    12  H   -0.453965
    13  N    0.072743
    14  O   -0.556684
    15  O   -0.565038
    16  H   -0.608302
 Sum of Mulliken charges =   0.00000

 Dipole moment (field-independent basis, Debye):
    X=             -1.9994    Y=              3.9962    Z=              0.0001  Tot=              4.4685

 Test job not archived.
 1\1\GINC-SE016\SP\RHF\Aug-CC-pVDZ\C6H4B1Cl2N1O2\OHZDE\09-Apr-2025\0\\#
 t hf aug-cc-pvdz iop(5/13=1,5/36=2,99/5=2) pseudo=read geom=check gues
 s=(read,tcheck) scf=(maxcycle=1)\\title\\0,1\Cl,0,-3.443157,0.786635,-
 0.00002\Cl,0,-2.219362,-1.966287,-0.000029\B,0,-1.988452,-0.21719,0.00
 0045\C,0,-0.57227,0.413883,0.000029\C,0,0.574993,-0.3981,0.000018\C,0,
 1.83073,0.187781,0.000003\C,0,2.006913,1.567637,-0.000003\C,0,-0.39182
 5,1.811095,0.000022\H,0,-1.260926,2.457342,0.00003\C,0,0.877846,2.3800
 14,0.000007\H,0,0.99105,3.457267,0.000002\H,0,3.008427,1.975062,-0.000

 Normal termination of Gaussian 16 at Wed Apr  9 00:15:37 2025.
