 Gaussian 16, Revision C.01,

 ----------------------------------------------------------------------
 #t hf aug-cc-pvdz symm=none int=(grid=ultrafine) guess=(read,tcheck) s
 table=(opt,rrhf)
 ----------------------------------------------------------------------
 -----
 title
 -----
 Symbolic Z-matrix:
 Charge =  0 Multiplicity = 1

 SCF Done:  E(RHF) =  -938.596761391     A.U. after   13 cycles
 Normal termination of Gaussian 16 at Tue Apr  8 23:42:24 2025.
 Gaussian 16:  ES64L-G16RevC.01  3-Jul-2019

 ----------------------------------------------------------------------
 #t hf aug-cc-pvdz iop(5/13=1,5/36=2,99/5=2) pseudo=read geom=check gue
 ss=(read,tcheck) scf=(maxcycle=1)
 ----------------------------------------------------------------------
 -----
 title
 -----
 Structure from the checkpoint file:  "BDE49_nonexpt_1678_mol1.chk"
 Charge =  0 Multiplicity = 1

                         Standard orientation:
 ---------------------------------------------------------------------
 Center     Atomic      Atomic             Coordinates (Angstroms)
 Number     Number       Type             X           Y           Z
 ---------------------------------------------------------------------
      1         14           0        0.526278    0.219294    0.354896
      2         15           0       -1.735465    0.134996    0.396848
      3          6           0       -2.011094   -1.671185    0.000016
      4          1           0       -1.544438   -1.989924   -0.935423
      5          1           0       -3.085753   -1.857722   -0.067100
      6          1           0       -1.619569   -2.283473    0.815631
      7          8           0        1.122551   -0.413253    1.768503
      8          6           0        1.426327   -0.739010   -0.982553
      9          6           0       -2.138128    0.928949   -1.244809
     10          1           0       -1.802347    1.967225   -1.221428
     11          1           0       -3.221541    0.924292   -1.387503
     12          1           0       -1.672240    0.426177   -2.096349
     13          6           0        2.954856   -0.540061   -0.978626
     14          1           0        1.013033   -0.454608   -1.957039
     15          1           0        1.192760   -1.800993   -0.848173
     16          1           0        3.225508    0.503822   -1.167043
     17          1           0        3.437561   -1.140708   -1.754913
     18          1           0        3.386754   -0.827972   -0.017295
     19          1           0        0.745706   -0.078611    2.586903
     20          8           0        0.813948    1.849586    0.245108
     21          1           0        1.724896    2.154615    0.255418
 ---------------------------------------------------------------------

 SCF Done:  E(RHF) =  -938.756775750     A.U. after    2 cycles

 The electronic state is 1-A.
 Alpha  occ. eigenvalues --  -81.23253 -69.10487 -20.56725 -20.56621 -11.23518
 Alpha  occ. eigenvalues --  -11.23389 -11.23334 -11.22089  -7.73696  -6.84932
 Alpha  occ. eigenvalues --   -4.87687  -4.87629  -4.87371  -3.95903  -3.95770
 Alpha  occ. eigenvalues --   -3.95670  -1.30632  -1.28684  -1.01486  -0.97401
 Alpha  occ. eigenvalues --   -0.92984  -0.84867  -0.76191  -0.72245  -0.68725
 Alpha  occ. eigenvalues --   -0.61848  -0.59718  -0.59562  -0.59006  -0.58347
 Alpha  occ. eigenvalues --   -0.55999  -0.55699  -0.55418  -0.54838  -0.51843
 Alpha  occ. eigenvalues --   -0.51614  -0.49670  -0.45549  -0.45382  -0.40295
 Alpha  occ. eigenvalues --   -0.31045
 Alpha virt. eigenvalues --    0.03134   0.04137   0.04598   0.04711   0.05935
 Alpha virt. eigenvalues --    0.06114   0.06648   0.06958   0.07075   0.08256
 Alpha virt. eigenvalues --    0.08830   0.09200   0.09264   0.09706   0.10515

 Mulliken charges:
               1
     1  Si   2.359881
     2  P    0.070475
     3  C    0.375030
     4  H   -0.201236
     5  H   -0.215387
     6  H   -0.198733
     7  O   -0.844577
     8  C    0.121262
     9  C    0.345220
    10  H   -0.188718
    11  H   -0.211804
    12  H   -0.187265
    13  C    0.290868
    14  H   -0.249680
    15  H   -0.211795
    16  H   -0.155050
    17  H   -0.078553
    18  H   -0.110831
    19  H    0.093773
    20  O   -0.866979
    21  H    0.064100
 Sum of Mulliken charges =   0.00000

 Dipole moment (field-independent basis, Debye):
    X=              0.7813    Y=             -0.3612    Z=             -0.9902  Tot=              1.3120

 Test job not archived.
 1\1\GINC-SE284\SP\RHF\Aug-CC-pVDZ\C4H13O2P1Si1\OHZDE\08-Apr-2025\0\\#t
  hf aug-cc-pvdz iop(5/13=1,5/36=2,99/5=2) pseudo=read geom=check guess
 =(read,tcheck) scf=(maxcycle=1)\\title\\0,1\Si,0,0.526278,0.219294,0.3
 54896\P,0,-1.735465,0.134996,0.396848\C,0,-2.011094,-1.671185,0.000016
 \H,0,-1.544438,-1.989924,-0.935423\H,0,-3.085753,-1.857722,-0.0671\H,0
 ,-1.619569,-2.283473,0.815631\O,0,1.122551,-0.413253,1.768503\C,0,1.42
 6327,-0.73901,-0.982553\C,0,-2.138128,0.928949,-1.244809\H,0,-1.802347
 ,1.967225,-1.221428\H,0,-3.221541,0.924292,-1.387503\H,0,-1.67224,0.42

 Normal termination of Gaussian 16 at Tue Apr  8 23:42:35 2025.
