 Gaussian 16, Revision C.01,

 ----------------------------------------------------------------------
 #t hf aug-cc-pvdz symm=none int=(grid=ultrafine) guess=(read,tcheck) s
 table=(opt,rrhf)
 ----------------------------------------------------------------------
 -----
 title
 -----
 Symbolic Z-matrix:
 Charge =  0 Multiplicity = 1

 SCF Done:  E(RHF) =  -441.917786231     A.U. after   14 cycles
 Normal termination of Gaussian 16 at Wed Apr  9 00:38:26 2025.
 Gaussian 16:  ES64L-G16RevC.01  3-Jul-2019

 ----------------------------------------------------------------------
 #t hf aug-cc-pvdz iop(5/13=1,5/36=2,99/5=2) pseudo=read geom=check gue
 ss=(read,tcheck) scf=(maxcycle=1)
 ----------------------------------------------------------------------
 -----
 title
 -----
 Structure from the checkpoint file:  "BDE49_nonexpt_621_mol1.chk"
 Charge =  0 Multiplicity = 1

                         Standard orientation:
 ---------------------------------------------------------------------
 Center     Atomic      Atomic             Coordinates (Angstroms)
 Number     Number       Type             X           Y           Z
 ---------------------------------------------------------------------
      1          8           0       -0.562559    0.555845    0.463654
      2          5           0       -1.735714   -0.055363    0.008361
      3          8           0       -1.795408   -1.337428   -0.435447
      4          8           0       -2.824489    0.754743    0.048593
      5          8           0        0.517459   -0.405299    0.422851
      6          6           0        1.689254    0.182576   -0.022310
      7          6           0        1.814798    1.444120   -0.418838
      8          6           0        2.769812   -0.855382    0.041590
      9          1           0        3.713020   -0.428318   -0.297404
     10          1           0        2.528212   -1.714716   -0.591265
     11          1           0        2.894261   -1.220518    1.064808
     12          1           0        0.981666    2.129230   -0.416578
     13          1           0        2.783260    1.799290   -0.741512
     14          1           0       -3.612272    0.305089   -0.269671
     15          1           0       -0.932782   -1.764016   -0.390032
 ---------------------------------------------------------------------

 SCF Done:  E(RHF) =  -442.067937757     A.U. after    2 cycles

 The electronic state is 1-A.
 Alpha  occ. eigenvalues --  -20.67381 -20.64744 -20.59239 -20.58801 -11.32231
 Alpha  occ. eigenvalues --  -11.25306 -11.22760  -7.70152  -1.45749  -1.35508
 Alpha  occ. eigenvalues --   -1.32335  -1.24005  -1.04902  -0.95780  -0.81330
 Alpha  occ. eigenvalues --   -0.78081  -0.77390  -0.72836  -0.69673  -0.67837
 Alpha  occ. eigenvalues --   -0.62549  -0.61284  -0.59611  -0.58754  -0.58050
 Alpha  occ. eigenvalues --   -0.56579  -0.55356  -0.53615  -0.53070  -0.51221
 Alpha  occ. eigenvalues --   -0.36049
 Alpha virt. eigenvalues --    0.03163   0.04262   0.04642   0.05437   0.05874
 Alpha virt. eigenvalues --    0.06539   0.06989   0.08431   0.08818   0.09314
 Alpha virt. eigenvalues --    0.10973   0.11525   0.12584   0.14144   0.15778

 Mulliken charges:
               1
     1  O   -0.315204
     2  B    0.828624
     3  O   -0.349730
     4  O   -0.452024
     5  O   -0.591946
     6  C    0.208435
     7  C    0.899837
     8  C    0.112044
     9  H   -0.096531
    10  H    0.013489
    11  H    0.019996
    12  H   -0.348903
    13  H   -0.314928
    14  H    0.163412
    15  H    0.223431
 Sum of Mulliken charges =  -0.00000

 Dipole moment (field-independent basis, Debye):
    X=              1.3953    Y=             -1.6325    Z=             -0.9748  Tot=              2.3584

 Test job not archived.
 1\1\GINC-SE363\SP\RHF\Aug-CC-pVDZ\C3H7B1O4\OHZDE\09-Apr-2025\0\\#t hf
 aug-cc-pvdz iop(5/13=1,5/36=2,99/5=2) pseudo=read geom=check guess=(re
 ad,tcheck) scf=(maxcycle=1)\\title\\0,1\O,0,-0.562559,0.555845,0.46365
 4\B,0,-1.735714,-0.055363,0.008361\O,0,-1.795408,-1.337428,-0.435447\O
 ,0,-2.824489,0.754743,0.048593\O,0,0.517459,-0.405299,0.422851\C,0,1.6
 89254,0.182576,-0.02231\C,0,1.814798,1.44412,-0.418838\C,0,2.769812,-0
 .855382,0.04159\H,0,3.71302,-0.428318,-0.297404\H,0,2.528212,-1.714716
 ,-0.591265\H,0,2.894261,-1.220518,1.064808\H,0,0.981666,2.12923,-0.416

 Normal termination of Gaussian 16 at Wed Apr  9 00:38:31 2025.
