 Gaussian 16, Revision C.01,

 ----------------------------------------------------------------------
 #t hf aug-cc-pvdz symm=none int=(grid=ultrafine) guess=(read,tcheck) s
 table=(opt,rrhf)
 ----------------------------------------------------------------------
 -----
 title
 -----
 Symbolic Z-matrix:
 Charge =  0 Multiplicity = 1

 SCF Done:  E(RHF) =  -2065.68459594     A.U. after   14 cycles
 Normal termination of Gaussian 16 at Wed Apr  9 00:14:35 2025.
 Gaussian 16:  ES64L-G16RevC.01  3-Jul-2019

 ----------------------------------------------------------------------
 #t hf aug-cc-pvdz iop(5/13=1,5/36=2,99/5=2) pseudo=read geom=check gue
 ss=(read,tcheck) scf=(maxcycle=1)
 ----------------------------------------------------------------------
 -----
 title
 -----
 Structure from the checkpoint file:  "BDE49_nonexpt_2532_mol1.chk"
 Charge =  0 Multiplicity = 1

                         Standard orientation:
 ---------------------------------------------------------------------
 Center     Atomic      Atomic             Coordinates (Angstroms)
 Number     Number       Type             X           Y           Z
 ---------------------------------------------------------------------
      1         17           0       -2.595266    0.051802    0.211087
      2         16           0       -0.984923   -1.077157   -0.484554
      3         14           0        0.580179    0.048275    0.466155
      4         17           0        2.265953   -1.046399    0.014215
      5         17           0        0.755273    1.960583   -0.265872
      6          1           0        0.394942    0.136913    1.916382
 ---------------------------------------------------------------------

 SCF Done:  E(RHF) =  -2065.78647946     A.U. after    2 cycles

 The electronic state is 1-A.
 Alpha  occ. eigenvalues -- -103.70151-103.68608-103.68108 -93.61035 -69.20410
 Alpha  occ. eigenvalues --  -10.73248 -10.72062 -10.71574  -8.90582  -8.38983
 Alpha  occ. eigenvalues --   -8.38628  -8.38595  -8.37753  -8.37514  -8.37506
 Alpha  occ. eigenvalues --   -8.37267  -8.37022  -8.37018  -6.94523  -6.24639
 Alpha  occ. eigenvalues --   -6.24354  -6.24026  -4.05384  -4.05322  -4.05181
 Alpha  occ. eigenvalues --   -1.18858  -1.17646  -1.15764  -0.94430  -0.72193
 Alpha  occ. eigenvalues --   -0.59768  -0.58836  -0.58345  -0.54528  -0.53569
 Alpha  occ. eigenvalues --   -0.51590  -0.50602  -0.49623  -0.49105  -0.44918
 Alpha  occ. eigenvalues --   -0.40087
 Alpha virt. eigenvalues --    0.02050   0.05071   0.05485   0.05767   0.06491
 Alpha virt. eigenvalues --    0.08562   0.10420   0.11750   0.12108   0.12209
 Alpha virt. eigenvalues --    0.12990   0.13954   0.14591   0.15493   0.16652

 Mulliken charges:
               1
     1  Cl  -0.321179
     2  S   -0.129154
     3  Si   1.386646
     4  Cl  -0.465287
     5  Cl  -0.456891
     6  H   -0.014136
 Sum of Mulliken charges =  -0.00000

 Dipole moment (field-independent basis, Debye):
    X=              0.3126    Y=             -0.3962    Z=              0.7872  Tot=              0.9351

 Test job not archived.
 1\1\GINC-SE460\SP\RHF\Aug-CC-pVDZ\Cl3H1S1Si1\OHZDE\09-Apr-2025\0\\#t h
 f aug-cc-pvdz iop(5/13=1,5/36=2,99/5=2) pseudo=read geom=check guess=(
 read,tcheck) scf=(maxcycle=1)\\title\\0,1\Cl,0,-2.595266,0.051802,0.21
 1087\S,0,-0.984923,-1.077157,-0.484554\Si,0,0.580179,0.048275,0.466155
 \Cl,0,2.265953,-1.046399,0.014215\Cl,0,0.755273,1.960583,-0.265872\H,0
 ,0.394942,0.136913,1.916382\\Version=ES64L-G16RevC.01\State=1-A\HF=-20
 65.7864795\RMSD=4.671e-03\Dipole=0.1229809,-0.1558952,0.3097249\Quadru
 pole=-1.0888158,-0.1317199,1.2205357,-0.3539849,0.2891619,0.8410436\PG

 Normal termination of Gaussian 16 at Wed Apr  9 00:14:38 2025.
