 Gaussian 16, Revision C.01,

 ----------------------------------------------------------------------
 #t hf aug-cc-pvdz symm=none int=(grid=ultrafine) guess=(read,tcheck) s
 table=opt
 ----------------------------------------------------------------------
 -----
 title
 -----
 Symbolic Z-matrix:
 Charge =  0 Multiplicity = 2

 SCF Done:  E(UHF) =  -181.922189272     A.U. after   15 cycles

 1\1\GINC-SE084\Stability\UHF\Aug-CC-pVDZ\C4H10B1\OHZDE\09-Apr-2025\0\\
 #t hf aug-cc-pvdz symm=none int=(grid=ultrafine) guess=(read,tcheck) s
 table=opt\\title\\0,2\H,0,-1.428665,1.839893,1.025784\B,0,-1.52938,1.2
 78464,-0.022302\C,0,-1.412364,-0.23467,-0.307409\C,0,-0.253266,-0.9865
 86,0.394211\H,0,-2.373599,-0.616504,0.087246\C,0,1.124964,-0.619298,-0
 .174459\H,0,-0.405606,-2.06626,0.287493\H,0,-0.274869,-0.770283,1.4684
 78\C,0,1.496001,0.855378,-0.005043\H,0,1.154892,-0.882963,-1.238601\H,
 0,1.884302,-1.239285,0.314781\H,0,0.782516,1.518384,-0.515756\H,0,2.47

 Normal termination of Gaussian 16 at Wed Apr  9 00:34:25 2025.
 Gaussian 16:  ES64L-G16RevC.01  3-Jul-2019

 ----------------------------------------------------------------------
 #t hf aug-cc-pvdz iop(5/13=1,5/36=2,99/5=2) pseudo=read geom=check gue
 ss=(read,tcheck) scf=(maxcycle=1)
 ----------------------------------------------------------------------
 -----
 title
 -----
 Structure from the checkpoint file:  "BDE49_nonexpt_471_mol2.chk"
 Charge =  0 Multiplicity = 2

                         Standard orientation:
 ---------------------------------------------------------------------
 Center     Atomic      Atomic             Coordinates (Angstroms)
 Number     Number       Type             X           Y           Z
 ---------------------------------------------------------------------
      1          1           0       -1.428664    1.839894    1.025784
      2          5           0       -1.529380    1.278465   -0.022302
      3          6           0       -1.412364   -0.234669   -0.307409
      4          6           0       -0.253266   -0.986586    0.394211
      5          1           0       -2.373599   -0.616503    0.087246
      6          6           0        1.124964   -0.619298   -0.174459
      7          1           0       -0.405607   -2.066260    0.287493
      8          1           0       -0.274869   -0.770283    1.468478
      9          6           0        1.496001    0.855378   -0.005043
     10          1           0        1.154892   -0.882963   -1.238601
     11          1           0        1.884302   -1.239286    0.314781
     12          1           0        0.782517    1.518384   -0.515756
     13          1           0        2.477745    1.070991   -0.435066
     14          1           0        1.520768    1.143227    1.049842
     15          1           0       -1.422595   -0.478468   -1.376491
 ---------------------------------------------------------------------

 SCF Done:  E(UHF) =  -181.979782718     A.U. after    2 cycles

 The electronic state is 2-A.
 Alpha  occ. eigenvalues --  -11.23570 -11.23233 -11.22969 -11.21625  -7.62882
 Alpha  occ. eigenvalues --   -1.06831  -0.97807  -0.88519  -0.78572  -0.66660
 Alpha  occ. eigenvalues --   -0.63279  -0.60412  -0.58063  -0.53645  -0.52961
 Alpha  occ. eigenvalues --   -0.50153  -0.47344  -0.47117  -0.45937  -0.31403
 Alpha virt. eigenvalues --    0.03261   0.04143   0.04549   0.04678   0.06060
 Alpha virt. eigenvalues --    0.06390   0.06708   0.07092   0.07393   0.08830
 Alpha virt. eigenvalues --    0.09653   0.10241   0.11276   0.11635   0.13962

  Beta  occ. eigenvalues --  -11.23464 -11.23240 -11.22961 -11.21642  -7.61116
  Beta  occ. eigenvalues --   -1.06638  -0.97517  -0.88107  -0.78300  -0.64431
  Beta  occ. eigenvalues --   -0.63157  -0.59460  -0.56691  -0.53475  -0.52278
  Beta  occ. eigenvalues --   -0.49513  -0.46963  -0.46927  -0.45266
  Beta virt. eigenvalues --    0.03208   0.04117   0.04441   0.04594   0.06311
  Beta virt. eigenvalues --    0.06354   0.06704   0.06962   0.07430   0.09056
  Beta virt. eigenvalues --    0.09551   0.10264   0.10778   0.12047   0.13142

 Mulliken charges and spin densities:
               1          2
     1  H    0.511351  -0.039143
     2  B   -0.550248   1.087776
     3  C    0.369361  -0.066384
     4  C    0.070630   0.022191
     5  H   -0.092958  -0.011889
     6  C    0.118964  -0.000400
     7  H   -0.081373   0.005314
     8  H   -0.124049   0.001324
     9  C    0.418673   0.006302
    10  H   -0.102653  -0.000892
    11  H   -0.077889  -0.000593
    12  H   -0.090001  -0.008344
    13  H   -0.128217  -0.001082
    14  H   -0.063630  -0.000882
    15  H   -0.177962   0.006702
 Sum of Mulliken charges =  -0.00000   1.00000

 Dipole moment (field-independent basis, Debye):
    X=              0.4998    Y=             -1.0815    Z=              0.3049  Tot=              1.2298
                          Isotropic Fermi Contact Couplings
        Atom                 a.u.       MegaHertz       Gauss      10(-4) cm-1
     1  H(1)               0.00579      25.86905       9.23072       8.62899
     2  B(11)              0.25607     367.29834     131.06118     122.51754
     3  C(13)              0.00397       4.45891       1.59105       1.48733
     4  C(13)              0.02480      27.88268       9.94923       9.30066
     5  H(1)              -0.00024      -1.07329      -0.38298      -0.35801
     6  C(13)             -0.00157      -1.76311      -0.62912      -0.58811
     7  H(1)               0.00140       6.27749       2.23996       2.09395
     8  H(1)              -0.00054      -2.39368      -0.85412      -0.79845

 Normal termination of Gaussian 16 at Wed Apr  9 00:34:32 2025.
