 Gaussian 16, Revision C.01,

 ----------------------------------------------------------------------
 #t hf aug-cc-pvdz symm=none int=(grid=ultrafine) guess=(read,tcheck) s
 table=opt
 ----------------------------------------------------------------------
 -----
 title
 -----
 Symbolic Z-matrix:
 Charge =  0 Multiplicity = 2

 SCF Done:  E(UHF) =  -404.597406752     A.U. after   14 cycles
 Normal termination of Gaussian 16 at Wed Apr  9 00:05:55 2025.
 Gaussian 16:  ES64L-G16RevC.01  3-Jul-2019

 ----------------------------------------------------------------------
 #t hf aug-cc-pvdz iop(5/13=1,5/36=2,99/5=2) pseudo=read geom=check gue
 ss=(read,tcheck) scf=(maxcycle=1)
 ----------------------------------------------------------------------
 -----
 title
 -----
 Structure from the checkpoint file:  "BDE49_nonexpt_2273_mol2.chk"
 Charge =  0 Multiplicity = 2

                         Standard orientation:
 ---------------------------------------------------------------------
 Center     Atomic      Atomic             Coordinates (Angstroms)
 Number     Number       Type             X           Y           Z
 ---------------------------------------------------------------------
      1         14           0        0.118723    0.537278   -0.136499
      2          8           0        1.308652   -0.610912    0.053954
      3          1           0        2.222317   -0.315464    0.058629
      4          6           0       -1.510987   -0.373024    0.041801
      5          1           0       -1.656477   -1.089341   -0.769880
      6          1           0       -2.345308    0.333483    0.031376
      7          1           0       -1.530794   -0.920459    0.990228
      8          1           0        0.244856    1.595324    0.918190
 ---------------------------------------------------------------------

 SCF Done:  E(UHF) =  -404.665949135     A.U. after    2 cycles

 The electronic state is 2-A.
 Alpha  occ. eigenvalues --  -69.09354 -20.57436 -11.22124  -6.84211  -3.95464
 Alpha  occ. eigenvalues --   -3.94788  -3.94642  -1.30421  -0.94521  -0.74659
 Alpha  occ. eigenvalues --   -0.63774  -0.58061  -0.56213  -0.55109  -0.54044
 Alpha  occ. eigenvalues --   -0.45795  -0.31573
 Alpha virt. eigenvalues --    0.03439   0.04481   0.05478   0.05881   0.07389
 Alpha virt. eigenvalues --    0.08074   0.08692   0.09452   0.13711   0.15290
 Alpha virt. eigenvalues --    0.16131   0.16342   0.17258   0.18089   0.21270

  Beta  occ. eigenvalues --  -69.08839 -20.57040 -11.21992  -6.83408  -3.94476
  Beta  occ. eigenvalues --   -3.94325  -3.93509  -1.29297  -0.93869  -0.73679
  Beta  occ. eigenvalues --   -0.61348  -0.56229  -0.55714  -0.53158  -0.52526
  Beta  occ. eigenvalues --   -0.44369
  Beta virt. eigenvalues --    0.02951   0.04604   0.05057   0.05630   0.07022
  Beta virt. eigenvalues --    0.07518   0.08257   0.09463   0.10338   0.15202
  Beta virt. eigenvalues --    0.15855   0.16423   0.16943   0.17902   0.19458

 Mulliken charges and spin densities:
               1          2
     1  Si   1.083602   0.863733
     2  O   -0.812273   0.045040
     3  H    0.129973  -0.012249
     4  C    0.188134   0.026827
     5  H   -0.152526  -0.003494
     6  H   -0.200981  -0.005139
     7  H   -0.165944   0.011590
     8  H   -0.069985   0.073691
 Sum of Mulliken charges =  -0.00000   1.00000

 Dipole moment (field-independent basis, Debye):
    X=              0.3105    Y=              0.6768    Z=             -0.0367  Tot=              0.7455
                          Isotropic Fermi Contact Couplings
        Atom                 a.u.       MegaHertz       Gauss      10(-4) cm-1
     1  Si(29)             0.58346    -518.53348    -185.02564    -172.96415
     2  O(17)              0.04575     -27.73583      -9.89683      -9.25168
     3  H(1)              -0.00173      -7.74962      -2.76526      -2.58500
     4  C(13)              0.02895      32.54764      11.61381      10.85672
     5  H(1)               0.00025       1.10463       0.39416       0.36847
     6  H(1)              -0.00099      -4.43558      -1.58273      -1.47955
     7  H(1)               0.00750      33.53781      11.96712      11.18701
     8  H(1)               0.02012      89.93192      32.08994      29.99806

 Normal termination of Gaussian 16 at Wed Apr  9 00:05:57 2025.
