 Gaussian 16, Revision C.01,

 ----------------------------------------------------------------------
 #t hf aug-cc-pvdz symm=none int=(grid=ultrafine) guess=(read,tcheck) s
 table=(opt,rrhf)
 ----------------------------------------------------------------------
 -----
 title
 -----
 Symbolic Z-matrix:
 Charge =  0 Multiplicity = 1

 SCF Done:  E(RHF) =  -1088.38602701     A.U. after   15 cycles
 Normal termination of Gaussian 16 at Wed Apr  9 00:18:38 2025.
 Gaussian 16:  ES64L-G16RevC.01  3-Jul-2019

 ----------------------------------------------------------------------
 #t hf aug-cc-pvdz iop(5/13=1,5/36=2,99/5=2) pseudo=read geom=check gue
 ss=(read,tcheck) scf=(maxcycle=1)
 ----------------------------------------------------------------------
 -----
 title
 -----
 Structure from the checkpoint file:  "BDE49_nonexpt_2611_mol1.chk"
 Charge =  0 Multiplicity = 1

                         Standard orientation:
 ---------------------------------------------------------------------
 Center     Atomic      Atomic             Coordinates (Angstroms)
 Number     Number       Type             X           Y           Z
 ---------------------------------------------------------------------
      1          9           0        3.220633   -0.728555   -0.426280
      2          6           0        1.051027   -0.063196    0.216864
      3          6           0        2.520822    0.189424    0.357299
      4          1           0        2.837565    0.040448    1.395651
      5          1           0        2.769267    1.202161    0.035185
      6          7           0        0.249278    0.902277    0.012752
      7         16           0       -1.348634    0.985891   -0.139228
      8         17           0       -2.170178   -0.966996    0.046524
      9          1           0        0.702604   -1.094253    0.308185
 ---------------------------------------------------------------------

 SCF Done:  E(RHF) =  -1088.50597400     A.U. after    2 cycles

 The electronic state is 1-A.
 Alpha  occ. eigenvalues -- -103.67888 -93.64409 -26.12777 -15.70250 -11.35434
 Alpha  occ. eigenvalues --  -11.33715 -10.71042  -8.93409  -8.36756  -8.36448
 Alpha  occ. eigenvalues --   -8.36409  -6.27587  -6.27194  -6.26723  -1.65826
 Alpha  occ. eigenvalues --   -1.26841  -1.15548  -1.05338  -0.95143  -0.81406
 Alpha  occ. eigenvalues --   -0.76822  -0.74972  -0.73489  -0.68232  -0.62077
 Alpha  occ. eigenvalues --   -0.59114  -0.55938  -0.52477  -0.49241  -0.47919
 Alpha  occ. eigenvalues --   -0.45166  -0.36146
 Alpha virt. eigenvalues --    0.03318   0.03817   0.05261   0.05872   0.06828
 Alpha virt. eigenvalues --    0.08287   0.09691   0.11361   0.11941   0.12622
 Alpha virt. eigenvalues --    0.13316   0.13995   0.14932   0.15783   0.16585

 Mulliken charges:
               1
     1  F   -0.403972
     2  C    0.297536
     3  C    0.677347
     4  H   -0.009651
     5  H   -0.133529
     6  N   -0.643258
     7  S    0.781152
     8  Cl  -0.368787
     9  H   -0.196839
 Sum of Mulliken charges =  -0.00000

 Dipole moment (field-independent basis, Debye):
    X=              1.0411    Y=              1.1782    Z=              1.4958  Tot=              2.1701

 Test job not archived.
 1\1\GINC-SE362\SP\RHF\Aug-CC-pVDZ\C2H3Cl1F1N1S1\OHZDE\09-Apr-2025\0\\#
 t hf aug-cc-pvdz iop(5/13=1,5/36=2,99/5=2) pseudo=read geom=check gues
 s=(read,tcheck) scf=(maxcycle=1)\\title\\0,1\F,0,3.220633,-0.728555,-0
 .42628\C,0,1.051027,-0.063196,0.216864\C,0,2.520822,0.189424,0.357299\
 H,0,2.837565,0.040448,1.395651\H,0,2.769267,1.202161,0.035185\N,0,0.24
 9278,0.902277,0.012752\S,0,-1.348634,0.985891,-0.139228\Cl,0,-2.170178
 ,-0.966996,0.046524\H,0,0.702604,-1.094253,0.308185\\Version=ES64L-G16
 RevC.01\State=1-A\HF=-1088.505974\RMSD=5.690e-03\Dipole=0.4096148,0.46

 Normal termination of Gaussian 16 at Wed Apr  9 00:18:41 2025.
