 Gaussian 16, Revision C.01,

 ----------------------------------------------------------------------
 #t hf aug-cc-pvdz symm=none int=(grid=ultrafine) guess=(read,tcheck) s
 table=(opt,rrhf)
 ----------------------------------------------------------------------
 -----
 title
 -----
 Symbolic Z-matrix:
 Charge =  0 Multiplicity = 1

 SCF Done:  E(RHF) =  -369.881363546     A.U. after   16 cycles
 Normal termination of Gaussian 16 at Wed Apr  9 00:35:58 2025.
 Gaussian 16:  ES64L-G16RevC.01  3-Jul-2019

 ----------------------------------------------------------------------
 #t hf aug-cc-pvdz iop(5/13=1,5/36=2,99/5=2) pseudo=read geom=check gue
 ss=(read,tcheck) scf=(maxcycle=1)
 ----------------------------------------------------------------------
 -----
 title
 -----
 Structure from the checkpoint file:  "BDE49_nonexpt_527_mol1.chk"
 Charge =  0 Multiplicity = 1

                         Standard orientation:
 ---------------------------------------------------------------------
 Center     Atomic      Atomic             Coordinates (Angstroms)
 Number     Number       Type             X           Y           Z
 ---------------------------------------------------------------------
      1          1           0       -0.923765    2.946047    0.000016
      2          1           0        1.097293    3.315925    0.000008
      3          5           0        0.191925    2.536407   -0.000003
      4          6           0        0.525684    1.039621   -0.000004
      5          6           0       -0.461030    0.013361   -0.000000
      6          6           0       -0.088373   -1.335532    0.000001
      7          1           0       -0.833088   -2.119435    0.000003
      8          6           0        1.261675   -1.680644   -0.000001
      9          6           0        1.875279    0.632017   -0.000006
     10          1           0        2.635671    1.405538   -0.000009
     11          6           0        2.254901   -0.703992   -0.000005
     12          1           0        3.301458   -0.983946   -0.000007
     13          1           0        1.533994   -2.730871   -0.000000
     14          8           0       -1.752874    0.419693    0.000001
     15          6           0       -2.789627   -0.551470    0.000009
     16          1           0       -3.720541    0.012719    0.000013
     17          1           0       -2.749348   -1.182865    0.894381
     18          1           0       -2.749358   -1.182870   -0.894359
 ---------------------------------------------------------------------

 SCF Done:  E(RHF) =  -369.994397100     A.U. after    2 cycles

 The electronic state is 1-A.
 Alpha  occ. eigenvalues --  -20.60412 -11.32531 -11.30129 -11.26482 -11.25758
 Alpha  occ. eigenvalues --  -11.24272 -11.23689 -11.21666  -7.59454  -1.37740
 Alpha  occ. eigenvalues --   -1.14031  -1.02288  -1.01517  -0.94654  -0.84283
 Alpha  occ. eigenvalues --   -0.81453  -0.73857  -0.68821  -0.67952  -0.67041
 Alpha  occ. eigenvalues --   -0.64145  -0.62231  -0.58923  -0.55925  -0.53541
 Alpha  occ. eigenvalues --   -0.53001  -0.51387  -0.47992  -0.46751  -0.46097
 Alpha  occ. eigenvalues --   -0.35175  -0.32236
 Alpha virt. eigenvalues --    0.03051   0.03821   0.04393   0.04501   0.05460
 Alpha virt. eigenvalues --    0.05785   0.05799   0.07060   0.07278   0.07547
 Alpha virt. eigenvalues --    0.08403   0.09673   0.11120   0.11615   0.12834

 Mulliken charges:
               1
     1  H    0.594009
     2  H    0.462094
     3  B   -1.462838
     4  C   -0.670825
     5  C    0.958109
     6  C    0.337186
     7  H   -0.760820
     8  C    0.550495
     9  C    1.321367
    10  H   -0.525125
    11  C    0.290236
    12  H   -0.450131
    13  H   -0.450626
    14  O   -0.642864
    15  C    0.897314
    16  H   -0.313776
    17  H   -0.066900
    18  H   -0.066903
 Sum of Mulliken charges =  -0.00000

 Dipole moment (field-independent basis, Debye):
    X=             -0.6232    Y=             -2.6796    Z=             -0.0000  Tot=              2.7512

 Test job not archived.
 1\1\GINC-SE072\SP\RHF\Aug-CC-pVDZ\C7H9B1O1\OHZDE\09-Apr-2025\0\\#t hf
 aug-cc-pvdz iop(5/13=1,5/36=2,99/5=2) pseudo=read geom=check guess=(re
 ad,tcheck) scf=(maxcycle=1)\\title\\0,1\H,0,-0.923765,2.946047,0.00001
 6\H,0,1.097293,3.315925,0.000008\B,0,0.191925,2.536407,-0.000003\C,0,0
 .525684,1.039621,-0.000004\C,0,-0.46103,0.013361,0.\C,0,-0.088373,-1.3
 35532,0.000001\H,0,-0.833088,-2.119435,0.000003\C,0,1.261675,-1.680644
 ,-0.000001\C,0,1.875279,0.632017,-0.000006\H,0,2.635671,1.405538,-0.00
 0009\C,0,2.254901,-0.703992,-0.000005\H,0,3.301458,-0.983946,-0.000007

 Normal termination of Gaussian 16 at Wed Apr  9 00:36:06 2025.
