 Gaussian 16, Revision C.01,

 ----------------------------------------------------------------------
 #t hf aug-cc-pvdz symm=none int=(grid=ultrafine) guess=(read,tcheck) s
 table=(opt,rrhf)
 ----------------------------------------------------------------------
 -----
 title
 -----
 Symbolic Z-matrix:
 Charge =  0 Multiplicity = 1

 SCF Done:  E(RHF) =  -2249.62089200     A.U. after   13 cycles
 Normal termination of Gaussian 16 at Wed Apr  9 00:12:54 2025.
 Gaussian 16:  ES64L-G16RevC.01  3-Jul-2019

 ----------------------------------------------------------------------
 #t hf aug-cc-pvdz iop(5/13=1,5/36=2,99/5=2) pseudo=read geom=check gue
 ss=(read,tcheck) scf=(maxcycle=1)
 ----------------------------------------------------------------------
 -----
 title
 -----
 Structure from the checkpoint file:  "BDE49_nonexpt_2420_mol1.chk"
 Charge =  0 Multiplicity = 1

                         Standard orientation:
 ---------------------------------------------------------------------
 Center     Atomic      Atomic             Coordinates (Angstroms)
 Number     Number       Type             X           Y           Z
 ---------------------------------------------------------------------
      1         14           0       -0.833211   -1.096598    0.834417
      2         14           0        0.833208   -1.096610   -0.834404
      3         16           0        2.833541   -0.995907    0.029496
      4          1           0        0.655956    0.003192   -1.808757
      5          1           0        0.801918   -2.397121   -1.549408
      6         16           0        2.806017    0.981099    0.758879
      7         16           0       -2.833536   -0.995907   -0.029505
      8          1           0       -0.655972    0.003216    1.808759
      9          1           0       -0.801930   -2.397099    1.549442
     10         16           0       -2.806023    0.981100   -0.758886
     11          6           0        3.447370    1.928484   -0.664562
     12          1           0        3.504881    2.964994   -0.322607
     13          1           0        2.770886    1.866071   -1.516093
     14          1           0        4.442632    1.581320   -0.938305
     15          6           0       -3.447360    1.928482    0.664565
     16          1           0       -3.504888    2.964989    0.322607
     17          1           0       -2.770859    1.866079    1.516084
     18          1           0       -4.442613    1.581308    0.938327
 ---------------------------------------------------------------------

 SCF Done:  E(RHF) =  -2249.76612880     A.U. after    2 cycles

 The electronic state is 1-A.
 Alpha  occ. eigenvalues --  -93.56570 -93.56569 -93.55190 -93.55188 -69.09448
 Alpha  occ. eigenvalues --  -69.09448 -11.27708 -11.27708  -8.86061  -8.86060
 Alpha  occ. eigenvalues --   -8.84898  -8.84898  -6.84544  -6.84544  -6.20175
 Alpha  occ. eigenvalues --   -6.20173  -6.19918  -6.19914  -6.19597  -6.19589
 Alpha  occ. eigenvalues --   -6.18989  -6.18989  -6.18745  -6.18735  -6.18493
 Alpha  occ. eigenvalues --   -6.18486  -3.95335  -3.95335  -3.95266  -3.95252
 Alpha  occ. eigenvalues --   -3.95242  -3.95165  -1.05535  -1.05399  -0.95144
 Alpha  occ. eigenvalues --   -0.94864  -0.81609  -0.81058  -0.71354  -0.65259
 Alpha  occ. eigenvalues --   -0.60534  -0.60487  -0.60276  -0.60247  -0.53117
 Alpha  occ. eigenvalues --   -0.52129  -0.51306  -0.49757  -0.48884  -0.47485
 Alpha  occ. eigenvalues --   -0.44483  -0.44100  -0.43200  -0.37880  -0.35731
 Alpha  occ. eigenvalues --   -0.35105  -0.34373
 Alpha virt. eigenvalues --    0.03291   0.03979   0.04743   0.04945   0.05682
 Alpha virt. eigenvalues --    0.05840   0.06355   0.06601   0.06888   0.07261
 Alpha virt. eigenvalues --    0.08371   0.08424   0.09235   0.09758   0.09890

 Mulliken charges:
               1
     1  Si   0.433384
     2  Si   0.433385
     3  S   -0.488124
     4  H    0.086932
     5  H    0.042727
     6  S    0.080025
     7  S   -0.488122
     8  H    0.086928
     9  H    0.042726
    10  S    0.080024
    11  C    0.054721
    12  H   -0.058713
    13  H   -0.114903
    14  H   -0.036050
    15  C    0.054724
    16  H   -0.058715
    17  H   -0.114902
    18  H   -0.036049
 Sum of Mulliken charges =   0.00000

 Dipole moment (field-independent basis, Debye):
    X=              0.0000    Y=              2.3453    Z=              0.0000  Tot=              2.3453

 Test job not archived.
 1\1\GINC-SE284\SP\RHF\Aug-CC-pVDZ\C2H10S4Si2\OHZDE\09-Apr-2025\0\\#t h
 f aug-cc-pvdz iop(5/13=1,5/36=2,99/5=2) pseudo=read geom=check guess=(
 read,tcheck) scf=(maxcycle=1)\\title\\0,1\Si,0,0.833211,-1.096598,-0.8
 34417\Si,0,-0.833208,-1.09661,0.834404\S,0,-2.833541,-0.995907,-0.0294
 96\H,0,-0.655956,0.003192,1.808757\H,0,-0.801918,-2.397121,1.549408\S,
 0,-2.806017,0.981099,-0.758879\S,0,2.833536,-0.995907,0.029505\H,0,0.6
 55972,0.003216,-1.808759\H,0,0.80193,-2.397099,-1.549442\S,0,2.806023,
 0.9811,0.758886\C,0,-3.44737,1.928484,0.664562\H,0,-3.504881,2.964994,

 Normal termination of Gaussian 16 at Wed Apr  9 00:13:03 2025.
