 Gaussian 16, Revision C.01,

 ----------------------------------------------------------------------
 #t hf aug-cc-pvdz symm=none int=(grid=ultrafine) guess=(read,tcheck) s
 table=opt
 ----------------------------------------------------------------------
 -----
 title
 -----
 Symbolic Z-matrix:
 Charge =  0 Multiplicity = 2

 SCF Done:  E(UHF) =  -501.606720830     A.U. after   17 cycles

 1\1\GINC-SE044\Stability\UHF\Aug-CC-pVDZ\C9H19O2\OHZDE\08-Apr-2025\0\\
 #t hf aug-cc-pvdz symm=none int=(grid=ultrafine) guess=(read,tcheck) s
 table=opt\\title\\0,2\C,0,0.186495,-1.394159,0.072958\O,0,1.313133,-1.
 318711,-0.679372\O,0,-0.836031,-0.586186,-0.367457\H,0,-0.086896,-2.43
 1456,0.279977\C,0,1.897482,-0.012386,-0.843964\C,0,-2.026195,-0.671225
 ,0.418368\C,0,-3.117621,0.180642,-0.223817\H,0,-1.816999,-0.328171,1.4
 40841\H,0,-2.348767,-1.72062,0.474028\C,0,-2.718696,1.659745,-0.284502
 \H,0,-2.587366,2.068852,0.723446\H,0,-3.490091,2.250598,-0.786226\H,0,

 Normal termination of Gaussian 16 at Tue Apr  8 23:04:54 2025.
 Gaussian 16:  ES64L-G16RevC.01  3-Jul-2019

 ----------------------------------------------------------------------
 #t hf aug-cc-pvdz iop(5/13=1,5/36=2,99/5=2) pseudo=read geom=check gue
 ss=(read,tcheck) scf=(maxcycle=1)
 ----------------------------------------------------------------------
 -----
 title
 -----
 Structure from the checkpoint file:  "BDE49_expt_193_mol2.chk"
 Charge =  0 Multiplicity = 2

                         Standard orientation:
 ---------------------------------------------------------------------
 Center     Atomic      Atomic             Coordinates (Angstroms)
 Number     Number       Type             X           Y           Z
 ---------------------------------------------------------------------
      1          6           0        0.186495   -1.394159    0.072958
      2          8           0        1.313133   -1.318711   -0.679372
      3          8           0       -0.836031   -0.586186   -0.367457
      4          1           0       -0.086896   -2.431456    0.279977
      5          6           0        1.897482   -0.012386   -0.843964
      6          6           0       -2.026195   -0.671225    0.418368
      7          6           0       -3.117621    0.180642   -0.223817
      8          1           0       -1.816999   -0.328171    1.440841
      9          1           0       -2.348767   -1.720620    0.474028
     10          6           0       -2.718696    1.659745   -0.284502
     11          1           0       -2.587366    2.068852    0.723446
     12          1           0       -3.490091    2.250598   -0.786226
     13          1           0       -1.781517    1.791300   -0.827539
     14          6           0       -4.440555   -0.016744    0.527979
     15          1           0       -3.243564   -0.186001   -1.249785
     16          1           0       -4.356657    0.316005    1.568116
     17          1           0       -4.749007   -1.066346    0.535366
     18          1           0       -5.241239    0.562101    0.060775
     19          6           0        2.720811    0.418685    0.373710
     20          1           0        1.111042    0.714330   -1.059781
     21          1           0        2.536997   -0.103177   -1.725895
     22          6           0        3.232511    1.850624    0.171578
     23          1           0        3.891472    1.913921   -0.701479
     24          1           0        3.805333    2.186038    1.040261
     25          1           0        2.409817    2.556080    0.021610
     26          6           0        3.866668   -0.560296    0.651981
     27          1           0        2.042215    0.411386    1.235775
     28          1           0        4.400927   -0.289718    1.567131
     29          1           0        4.590469   -0.556009   -0.170873
     30          1           0        3.491612   -1.579266    0.763136
 ---------------------------------------------------------------------

 SCF Done:  E(UHF) =  -501.768293268     A.U. after    2 cycles

 The electronic state is 2-A.
 Alpha  occ. eigenvalues --  -20.58687 -20.58294 -11.33442 -11.29060 -11.28105
 Alpha  occ. eigenvalues --  -11.24062 -11.23388 -11.22912 -11.22446 -11.22170
 Alpha  occ. eigenvalues --  -11.21639  -1.38913  -1.32348  -1.08047  -1.06980
 Alpha  occ. eigenvalues --   -0.96483  -0.92990  -0.92525  -0.92118  -0.84454
 Alpha  occ. eigenvalues --   -0.78433  -0.77280  -0.71844  -0.69152  -0.68086
 Alpha  occ. eigenvalues --   -0.65299  -0.62936  -0.61642  -0.60147  -0.59062
 Alpha  occ. eigenvalues --   -0.56059  -0.55708  -0.54139  -0.53718  -0.53389
 Alpha  occ. eigenvalues --   -0.53045  -0.51129  -0.50523  -0.48182  -0.47534
 Alpha  occ. eigenvalues --   -0.47149  -0.46893  -0.46327  -0.44746  -0.33236
 Alpha virt. eigenvalues --    0.03339   0.03939   0.04267   0.04529   0.05168
 Alpha virt. eigenvalues --    0.05315   0.05531   0.06287   0.06938   0.07194
 Alpha virt. eigenvalues --    0.07406   0.07809   0.07930   0.08316   0.09201

  Beta  occ. eigenvalues --  -20.58178 -20.57886 -11.30964 -11.29078 -11.28082
  Beta  occ. eigenvalues --  -11.24068 -11.23367 -11.22913 -11.22452 -11.22170
  Beta  occ. eigenvalues --  -11.21641  -1.37037  -1.31148  -1.07858  -1.06897
  Beta  occ. eigenvalues --   -0.95002  -0.92989  -0.92505  -0.92002  -0.81627
  Beta  occ. eigenvalues --   -0.78270  -0.76635  -0.70548  -0.68597  -0.65285
  Beta  occ. eigenvalues --   -0.63619  -0.62028  -0.60987  -0.59421  -0.58170
  Beta  occ. eigenvalues --   -0.55727  -0.55290  -0.53925  -0.53570  -0.52843
  Beta  occ. eigenvalues --   -0.52218  -0.50807  -0.48887  -0.48064  -0.47398
  Beta  occ. eigenvalues --   -0.46998  -0.46247  -0.45991  -0.43416
  Beta virt. eigenvalues --    0.03341   0.03929   0.04282   0.04515   0.05176
  Beta virt. eigenvalues --    0.05307   0.05531   0.06228   0.06917   0.07190
  Beta virt. eigenvalues --    0.07402   0.07747   0.07933   0.08306   0.09204

 Mulliken charges and spin densities:
               1          2
     1  C    0.907470   1.032042
     2  O   -0.680241   0.013148
     3  O   -0.522554   0.034835
     4  H   -0.407178  -0.055793
     5  C    1.310725  -0.024108
     6  C    0.932457  -0.006735
     7  C   -1.325929   0.006699
     8  H   -0.209592  -0.012330
     9  H   -0.221399   0.005860
    10  C    0.777465   0.000053
    11  H   -0.020822   0.000912
    12  H   -0.069936   0.000024
    13  H   -0.114916  -0.002249
    14  C    0.799774  -0.001213
    15  H   -0.160456   0.002091
    16  H   -0.005050   0.000429
    17  H   -0.072658  -0.000157
    18  H   -0.065300  -0.000131
    19  C   -1.591660   0.018879
    20  H   -0.244407  -0.000969
    21  H   -0.180333   0.004444
    22  C    0.804080  -0.005397
    23  H    0.009738   0.000051
    24  H   -0.063051   0.000381
    25  H   -0.084501   0.000507
    26  C    0.757361   0.001272
    27  H   -0.132969  -0.011466
    28  H   -0.058487   0.001232
    29  H   -0.015079  -0.000098
    30  H   -0.052551  -0.002216
 Sum of Mulliken charges =  -0.00000   1.00000

 Dipole moment (field-independent basis, Debye):
    X=             -1.1091    Y=              0.7112    Z=              1.0290  Tot=              1.6718
                          Isotropic Fermi Contact Couplings
        Atom                 a.u.       MegaHertz       Gauss      10(-4) cm-1
     1  C(13)              0.34987     393.31844     140.34580     131.19691
     2  O(17)              0.03034     -18.38926      -6.56174      -6.13400
     3  O(17)              0.05488     -33.26746     -11.87066     -11.09683
     4  H(1)              -0.00236     -10.53696      -3.75985      -3.51475
     5  C(13)              0.00632       7.09972       2.53336       2.36821
     6  C(13)             -0.00094      -1.06036      -0.37836      -0.35370
     7  C(13)             -0.00140      -1.57624      -0.56244      -0.52578
     8  H(1)              -0.00040      -1.76770      -0.63076      -0.58964

 Normal termination of Gaussian 16 at Tue Apr  8 23:05:21 2025.
