 Gaussian 16, Revision C.01,

 ----------------------------------------------------------------------
 #t hf aug-cc-pvdz symm=none int=(grid=ultrafine) guess=(read,tcheck) s
 table=opt
 ----------------------------------------------------------------------
 -----
 title
 -----
 Symbolic Z-matrix:
 Charge =  0 Multiplicity = 2

 SCF Done:  E(UHF) =  -509.678039999     A.U. after   18 cycles
 Normal termination of Gaussian 16 at Tue Apr  8 23:34:05 2025.
 Gaussian 16:  ES64L-G16RevC.01  3-Jul-2019

 ----------------------------------------------------------------------
 #t hf aug-cc-pvdz iop(5/13=1,5/36=2,99/5=2) pseudo=read geom=check gue
 ss=(read,tcheck) scf=(maxcycle=1)
 ----------------------------------------------------------------------
 -----
 title
 -----
 Structure from the checkpoint file:  "BDE49_nonexpt_1493_mol2.chk"
 Charge =  0 Multiplicity = 2

                         Standard orientation:
 ---------------------------------------------------------------------
 Center     Atomic      Atomic             Coordinates (Angstroms)
 Number     Number       Type             X           Y           Z
 ---------------------------------------------------------------------
      1          6           0        0.482679   -0.149804   -0.000009
      2          8           0        0.967453   -1.266010   -0.000032
      3          7           0        1.230151    0.991714   -0.000011
      4          1           0        2.235981    0.900578   -0.000019
      5          1           0        0.820376    1.908650    0.000026
      6         15           0       -1.388863   -0.009380    0.000022
      7          1           0       -1.470164    1.416382    0.000061
 ---------------------------------------------------------------------

 SCF Done:  E(UHF) =  -509.748672314     A.U. after    2 cycles

 The electronic state is 2-A.
 Alpha  occ. eigenvalues --  -81.29086 -20.55832 -15.66476 -11.38059  -7.79535
 Alpha  occ. eigenvalues --   -4.94159  -4.93152  -4.92815  -1.36542  -1.18999
 Alpha  occ. eigenvalues --   -0.88277  -0.78767  -0.71684  -0.67582  -0.60316
 Alpha  occ. eigenvalues --   -0.59362  -0.45681  -0.44227  -0.40886  -0.37657
 Alpha virt. eigenvalues --    0.02621   0.04556   0.06041   0.08325   0.09614
 Alpha virt. eigenvalues --    0.10485   0.12276   0.12847   0.13526   0.15727
 Alpha virt. eigenvalues --    0.15951   0.16754   0.17932   0.18230   0.19374

  Beta  occ. eigenvalues --  -81.28394 -20.55327 -15.66474 -11.38394  -7.78706
  Beta  occ. eigenvalues --   -4.92647  -4.92440  -4.91011  -1.35716  -1.18822
  Beta  occ. eigenvalues --   -0.85752  -0.77347  -0.70150  -0.66495  -0.58880
  Beta  occ. eigenvalues --   -0.58424  -0.44215  -0.42073  -0.39391
  Beta virt. eigenvalues --    0.01156   0.02668   0.04628   0.06112   0.08474
  Beta virt. eigenvalues --    0.10585   0.11372   0.12559   0.13214   0.13679
  Beta virt. eigenvalues --    0.16713   0.17189   0.17677   0.18162   0.19898

 Mulliken charges and spin densities:
               1          2
     1  C    0.374044  -0.179266
     2  O   -0.499119   0.112774
     3  N   -0.134395   0.007054
     4  H   -0.013032   0.001062
     5  H   -0.006558  -0.000470
     6  P    0.314677   1.226949
     7  H   -0.035617  -0.168103
 Sum of Mulliken charges =  -0.00000   1.00000

 Dipole moment (field-independent basis, Debye):
    X=             -0.2519    Y=              4.5154    Z=              0.0001  Tot=              4.5224
                          Isotropic Fermi Contact Couplings
        Atom                 a.u.       MegaHertz       Gauss      10(-4) cm-1
     1  C(13)             -0.05409     -60.80263     -21.69589     -20.28157
     2  O(17)              0.04165     -25.25097      -9.01017      -8.42282
     3  N(14)             -0.00279      -0.90056      -0.32134      -0.30039
     4  H(1)              -0.00037      -1.65589      -0.59086      -0.55234
     5  H(1)               0.00014       0.61364       0.21896       0.20469
     6  P(31)              0.21726     393.47793     140.40271     131.25011
     7  H(1)              -0.01523     -68.08345     -24.29387     -22.71019
 --------------------------------------------------------

 Normal termination of Gaussian 16 at Tue Apr  8 23:34:08 2025.
