 Gaussian 16, Revision C.01,

 ----------------------------------------------------------------------
 #t hf aug-cc-pvdz symm=none int=(grid=ultrafine) guess=(read,tcheck) s
 table=opt
 ----------------------------------------------------------------------
 -----
 title
 -----
 Symbolic Z-matrix:
 Charge =  0 Multiplicity = 2

 SCF Done:  E(UHF) =  -899.460904209     A.U. after   15 cycles
 Normal termination of Gaussian 16 at Tue Apr  8 23:45:13 2025.
 Gaussian 16:  ES64L-G16RevC.01  3-Jul-2019

 ----------------------------------------------------------------------
 #t hf aug-cc-pvdz iop(5/13=1,5/36=2,99/5=2) pseudo=read geom=check gue
 ss=(read,tcheck) scf=(maxcycle=1)
 ----------------------------------------------------------------------
 -----
 title
 -----
 Structure from the checkpoint file:  "BDE49_nonexpt_1780_mol2.chk"
 Charge =  0 Multiplicity = 2

                         Standard orientation:
 ---------------------------------------------------------------------
 Center     Atomic      Atomic             Coordinates (Angstroms)
 Number     Number       Type             X           Y           Z
 ---------------------------------------------------------------------
      1         14           0        0.426388   -0.011067    0.434335
      2         17           0       -1.612020   -0.051267   -0.106895
      3          8           0        1.215371   -1.307687   -0.168680
      4          1           0        1.850702   -1.162230   -0.878119
      5          8           0        1.144712    1.310936   -0.233629
      6          1           0        0.703531    2.162709   -0.166876
 ---------------------------------------------------------------------

 SCF Done:  E(UHF) =  -899.568496897     A.U. after    2 cycles

 The electronic state is 2-A.
 Alpha  occ. eigenvalues -- -103.65575 -69.18002 -20.60456 -20.59633 -10.69006
 Alpha  occ. eigenvalues --   -8.34886  -8.34438  -8.34417  -6.92102  -4.03134
 Alpha  occ. eigenvalues --   -4.02652  -4.02576  -1.34785  -1.32296  -1.14044
 Alpha  occ. eigenvalues --   -0.80014  -0.75427  -0.64603  -0.61496  -0.59230
 Alpha  occ. eigenvalues --   -0.57049  -0.56060  -0.48655  -0.48116  -0.36540
 Alpha virt. eigenvalues --    0.03371   0.04881   0.05905   0.06179   0.07502
 Alpha virt. eigenvalues --    0.10799   0.13597   0.14718   0.15966   0.16726
 Alpha virt. eigenvalues --    0.17689   0.18601   0.20429   0.21270   0.23420

  Beta  occ. eigenvalues -- -103.65404 -69.17392 -20.60036 -20.59319 -10.68815
  Beta  occ. eigenvalues --   -8.34394  -8.34318  -8.34179  -6.91038  -4.02249
  Beta  occ. eigenvalues --   -4.02206  -4.01306  -1.33640  -1.31235  -1.12625
  Beta  occ. eigenvalues --   -0.78424  -0.74454  -0.63129  -0.59718  -0.58095
  Beta  occ. eigenvalues --   -0.55594  -0.53377  -0.47810  -0.47788
  Beta virt. eigenvalues --    0.01578   0.04873   0.05048   0.06180   0.07264
  Beta virt. eigenvalues --    0.07703   0.12424   0.14274   0.15700   0.16323
  Beta virt. eigenvalues --    0.17488   0.19139   0.20296   0.21434   0.22359

 Mulliken charges and spin densities:
               1          2
     1  Si   1.679735   0.950854
     2  Cl  -0.482170   0.059945
     3  O   -0.742530  -0.023525
     4  H    0.160257   0.002178
     5  O   -0.751190   0.020866
     6  H    0.135898  -0.010318
 Sum of Mulliken charges =  -0.00000   1.00000

 Dipole moment (field-independent basis, Debye):
    X=              1.3567    Y=              1.7045    Z=             -0.0413  Tot=              2.1789
                          Isotropic Fermi Contact Couplings
        Atom                 a.u.       MegaHertz       Gauss      10(-4) cm-1
     1  Si(29)             1.07466    -955.08348    -340.79754    -318.58156
     2  Cl(35)             0.12222      53.59044      19.12240      17.87585
     3  O(17)              0.10953     -66.39786     -23.69241     -22.14794
     4  H(1)               0.00325      14.51197       5.17823       4.84067
     5  O(17)              0.07194     -43.61084     -15.56143     -14.54701
     6  H(1)              -0.00197      -8.81715      -3.14618      -2.94108
 --------------------------------------------------------
       Center         ----  Spin Dipole Couplings  ----

 Normal termination of Gaussian 16 at Tue Apr  8 23:45:15 2025.
