 Gaussian 16, Revision C.01,

 ----------------------------------------------------------------------
 #t hf aug-cc-pvdz symm=none int=(grid=ultrafine) guess=(read,tcheck) s
 table=(opt,rrhf)
 ----------------------------------------------------------------------
 -----
 title
 -----
 Symbolic Z-matrix:
 Charge =  0 Multiplicity = 1

 SCF Done:  E(RHF) =  -1903.60881514     A.U. after   15 cycles

 1\1\GINC-SE105\Stability\RHF\Aug-CC-pVDZ\C8H18S4\OHZDE\08-Apr-2025\0\\
 #t hf aug-cc-pvdz symm=none int=(grid=ultrafine) guess=(read,tcheck) s
 table=(opt,rrhf)\\title\\0,1\S,0,-2.556908,-1.089146,-0.062799\S,0,-0.
 689272,-1.322049,0.800796\C,0,-2.985366,0.745595,-0.009247\S,0,0.78421
 8,-1.414901,-0.737887\S,0,1.697078,0.43223,-0.964768\C,0,3.156589,0.45
 8541,0.229944\C,0,-4.431831,0.763471,-0.530623\H,0,-4.497754,0.371099,
 -1.54862\H,0,-4.794769,1.795977,-0.544732\H,0,-5.098897,0.180527,0.109
 185\C,0,3.796136,1.828164,-0.048004\H,0,3.106904,2.646971,0.173308\H,0

 Normal termination of Gaussian 16 at Tue Apr  8 23:06:00 2025.
 Gaussian 16:  ES64L-G16RevC.01  3-Jul-2019

 ----------------------------------------------------------------------
 #t hf aug-cc-pvdz iop(5/13=1,5/36=2,99/5=2) pseudo=read geom=check gue
 ss=(read,tcheck) scf=(maxcycle=1)
 ----------------------------------------------------------------------
 -----
 title
 -----
 Structure from the checkpoint file:  "BDE49_expt_1970_mol1.chk"
 Charge =  0 Multiplicity = 1

                         Standard orientation:
 ---------------------------------------------------------------------
 Center     Atomic      Atomic             Coordinates (Angstroms)
 Number     Number       Type             X           Y           Z
 ---------------------------------------------------------------------
      1         16           0       -2.556908   -1.089146   -0.062799
      2         16           0       -0.689272   -1.322049    0.800796
      3          6           0       -2.985366    0.745595   -0.009247
      4         16           0        0.784218   -1.414901   -0.737887
      5         16           0        1.697078    0.432230   -0.964768
      6          6           0        3.156589    0.458541    0.229944
      7          6           0       -4.431831    0.763471   -0.530623
      8          1           0       -4.497754    0.371099   -1.548620
      9          1           0       -4.794769    1.795977   -0.544732
     10          1           0       -5.098897    0.180527    0.109185
     11          6           0        3.796136    1.828164   -0.048004
     12          1           0        3.106904    2.646971    0.173308
     13          1           0        4.117766    1.918147   -1.088648
     14          1           0        4.678494    1.949302    0.588173
     15          6           0       -2.918982    1.267183    1.427652
     16          1           0       -3.589314    0.708294    2.084194
     17          1           0       -3.214784    2.321747    1.450232
     18          1           0       -1.905735    1.195814    1.828360
     19          6           0        2.671697    0.368265    1.678130
     20          1           0        1.963664    1.165593    1.913184
     21          1           0        3.526975    0.456068    2.357100
     22          1           0        2.187851   -0.589913    1.877173
     23          6           0       -2.064474    1.543142   -0.934623
     24          1           0       -2.091316    1.153960   -1.954728
     25          1           0       -1.030504    1.518307   -0.587045
     26          1           0       -2.386228    2.590463   -0.958188
     27          6           0        4.130074   -0.674797   -0.101763
     28          1           0        4.488187   -0.600338   -1.130740
     29          1           0        3.659476   -1.651364    0.028787
     30          1           0        4.995056   -0.626171    0.568712
 ---------------------------------------------------------------------

 SCF Done:  E(RHF) =  -1903.78417288     A.U. after    2 cycles

 The electronic state is 1-A.
 Alpha  occ. eigenvalues --  -93.58017 -93.57980 -93.55490 -93.55263 -11.29394
 Alpha  occ. eigenvalues --  -11.29043 -11.24271 -11.23938 -11.23576 -11.23448
 Alpha  occ. eigenvalues --  -11.23294 -11.22879  -8.87352  -8.87324  -8.85052
 Alpha  occ. eigenvalues --   -8.84823  -6.21462  -6.21392  -6.21152  -6.21126
 Alpha  occ. eigenvalues --   -6.20850  -6.20831  -6.19188  -6.18962  -6.18908
 Alpha  occ. eigenvalues --   -6.18664  -6.18638  -6.18382  -1.11374  -1.10825
 Alpha  occ. eigenvalues --   -1.04271  -0.97747  -0.94721  -0.94376  -0.94295
 Alpha  occ. eigenvalues --   -0.93883  -0.88184  -0.80297  -0.73931  -0.71674
 Alpha  occ. eigenvalues --   -0.63076  -0.62244  -0.61974  -0.61704  -0.61610
 Alpha  occ. eigenvalues --   -0.61063  -0.56392  -0.55983  -0.55655  -0.55301
 Alpha  occ. eigenvalues --   -0.53070  -0.52731  -0.51587  -0.49908  -0.49473
 Alpha  occ. eigenvalues --   -0.49173  -0.48680  -0.47988  -0.47717  -0.44207
 Alpha  occ. eigenvalues --   -0.43896  -0.37745  -0.36073  -0.35250  -0.33575
 Alpha virt. eigenvalues --    0.03217   0.03788   0.04567   0.04649   0.05366
 Alpha virt. eigenvalues --    0.05414   0.05806   0.06223   0.06726   0.06929
 Alpha virt. eigenvalues --    0.07445   0.07562   0.07860   0.08365   0.08451

 Mulliken charges:
               1
     1  S   -0.002857
     2  S   -0.064807
     3  C   -2.197497
     4  S   -0.178606
     5  S    0.122126
     6  C   -2.478497
     7  C    1.158210
     8  H   -0.047688
     9  H   -0.012600
    10  H   -0.060475
    11  C    1.108639
    12  H   -0.034635
    13  H   -0.050751
    14  H   -0.006859
    15  C    0.779649
    16  H   -0.036238
    17  H    0.003492
    18  H   -0.114092
    19  C    0.872393
    20  H   -0.090530
    21  H   -0.022982
    22  H   -0.053043
    23  C    0.941153
    24  H   -0.089935
    25  H   -0.211567
    26  H    0.006814
    27  C    0.863689
    28  H   -0.046721
    29  H   -0.046026
    30  H   -0.009760
 Sum of Mulliken charges =  -0.00000

 Dipole moment (field-independent basis, Debye):
    X=              0.9227    Y=              2.7233    Z=              1.0269  Tot=              3.0532

 Test job not archived.
 1\1\GINC-SE105\SP\RHF\Aug-CC-pVDZ\C8H18S4\OHZDE\08-Apr-2025\0\\#t hf a
 ug-cc-pvdz iop(5/13=1,5/36=2,99/5=2) pseudo=read geom=check guess=(rea
 d,tcheck) scf=(maxcycle=1)\\title\\0,1\S,0,-2.556908,-1.089146,-0.0627
 99\S,0,-0.689272,-1.322049,0.800796\C,0,-2.985366,0.745595,-0.009247\S
 ,0,0.784218,-1.414901,-0.737887\S,0,1.697078,0.43223,-0.964768\C,0,3.1
 56589,0.458541,0.229944\C,0,-4.431831,0.763471,-0.530623\H,0,-4.497754
 ,0.371099,-1.54862\H,0,-4.794769,1.795977,-0.544732\H,0,-5.098897,0.18
 0527,0.109185\C,0,3.796136,1.828164,-0.048004\H,0,3.106904,2.646971,0.

 Normal termination of Gaussian 16 at Tue Apr  8 23:06:31 2025.
