 Gaussian 16, Revision C.01,

 ----------------------------------------------------------------------
 #t hf aug-cc-pvdz symm=none int=(grid=ultrafine) guess=(read,tcheck) s
 table=(opt,rrhf)
 ----------------------------------------------------------------------
 -----
 title
 -----
 Symbolic Z-matrix:
 Charge =  0 Multiplicity = 1

 SCF Done:  E(RHF) =  -951.210196654     A.U. after   14 cycles
 Normal termination of Gaussian 16 at Tue Apr  8 23:03:07 2025.
 Gaussian 16:  ES64L-G16RevC.01  3-Jul-2019

 ----------------------------------------------------------------------
 #t hf aug-cc-pvdz iop(5/13=1,5/36=2,99/5=2) pseudo=read geom=check gue
 ss=(read,tcheck) scf=(maxcycle=1)
 ----------------------------------------------------------------------
 -----
 title
 -----
 Structure from the checkpoint file:  "BDE49_expt_378_mol1.chk"
 Charge =  0 Multiplicity = 1

                         Standard orientation:
 ---------------------------------------------------------------------
 Center     Atomic      Atomic             Coordinates (Angstroms)
 Number     Number       Type             X           Y           Z
 ---------------------------------------------------------------------
      1         16           0       -0.123349   -1.509447   -0.156367
      2          6           0       -1.690007   -0.578474    0.035410
      3          6           0       -1.359893    0.777594    0.641302
      4          1           0       -2.330378   -1.169239    0.695535
      5          1           0       -2.178542   -0.465847   -0.933134
      6         16           0        0.011555    1.487833   -0.336109
      7          1           0       -1.074225    0.685871    1.690545
      8          1           0       -2.198848    1.472898    0.561095
      9          6           0        1.007264   -0.060350   -0.422578
     10          6           0        2.173585   -0.096456    0.561830
     11          1           0        1.374423   -0.110530   -1.448171
     12          1           0        1.821655    0.007595    1.589459
     13          1           0        2.874137    0.715428    0.348565
     14          1           0        2.714789   -1.044230    0.479923
 ---------------------------------------------------------------------

 SCF Done:  E(RHF) =  -951.297462100     A.U. after    2 cycles

 The electronic state is 1-A.
 Alpha  occ. eigenvalues --  -93.53424 -93.53178 -11.30528 -11.28162 -11.27979
 Alpha  occ. eigenvalues --  -11.23880  -8.83164  -8.82915  -6.17296  -6.17116
 Alpha  occ. eigenvalues --   -6.17057  -6.16856  -6.16769  -6.16511  -1.11981
 Alpha  occ. eigenvalues --   -1.03402  -0.96394  -0.91105  -0.79956  -0.76525
 Alpha  occ. eigenvalues --   -0.65614  -0.62608  -0.60280  -0.58054  -0.55244
 Alpha  occ. eigenvalues --   -0.54691  -0.48551  -0.47708  -0.46839  -0.41059
 Alpha  occ. eigenvalues --   -0.34891  -0.34261
 Alpha virt. eigenvalues --    0.03568   0.04241   0.04924   0.05457   0.06419
 Alpha virt. eigenvalues --    0.06557   0.06704   0.08632   0.09258   0.10723
 Alpha virt. eigenvalues --    0.11799   0.13508   0.13818   0.13988   0.14714

 Mulliken charges:
               1
     1  S    0.429133
     2  C   -0.086879
     3  C   -0.090232
     4  H   -0.024697
     5  H   -0.069570
     6  S    0.417597
     7  H   -0.107154
     8  H   -0.056208
     9  C   -0.490529
    10  C    0.404152
    11  H   -0.145182
    12  H   -0.076486
    13  H   -0.050659
    14  H   -0.053285
 Sum of Mulliken charges =   0.00000

 Dipole moment (field-independent basis, Debye):
    X=             -0.7625    Y=              0.1907    Z=              0.7398  Tot=              1.0794

 Test job not archived.
 1\1\GINC-SE060\SP\RHF\Aug-CC-pVDZ\C4H8S2\OHZDE\08-Apr-2025\0\\#t hf au
 g-cc-pvdz iop(5/13=1,5/36=2,99/5=2) pseudo=read geom=check guess=(read
 ,tcheck) scf=(maxcycle=1)\\title\\0,1\S,0,-0.123351,-1.509447,-0.15636
 7\C,0,-1.690008,-0.578472,0.03541\C,0,-1.359892,0.777596,0.641302\H,0,
 -2.330379,-1.169236,0.695535\H,0,-2.178542,-0.465844,-0.933134\S,0,0.0
 11557,1.487833,-0.336109\H,0,-1.074224,0.685872,1.690545\H,0,-2.198846
 ,1.472901,0.561095\C,0,1.007264,-0.060351,-0.422578\C,0,2.173585,-0.09
 6458,0.56183\H,0,1.374423,-0.110531,-1.448171\H,0,1.821655,0.007593,1.

 Normal termination of Gaussian 16 at Tue Apr  8 23:03:12 2025.
