 Gaussian 16, Revision C.01,

 ----------------------------------------------------------------------
 #t hf aug-cc-pvdz symm=none int=(grid=ultrafine) guess=(read,tcheck) s
 table=(opt,rrhf)
 ----------------------------------------------------------------------
 -----
 title
 -----
 Symbolic Z-matrix:
 Charge =  0 Multiplicity = 1

 SCF Done:  E(RHF) =  -632.926110839     A.U. after   12 cycles

 1\1\GINC-SE364\Stability\RHF\Aug-CC-pVDZ\C6H14S1\OHZDE\08-Apr-2025\0\\
 #t hf aug-cc-pvdz symm=none int=(grid=ultrafine) guess=(read,tcheck) s
 table=(opt,rrhf)\\title\\0,1\S,0,3.609168,-0.26209,-0.085375\C,0,2.009
 596,0.637859,0.041341\H,0,3.488257,-0.966848,1.053134\C,0,0.77045,-0.2
 55246,-0.007943\H,0,2.025175,1.321457,-0.811782\H,0,2.022638,1.250814,
 0.94499\C,0,-0.537407,0.547442,0.026881\H,0,0.793344,-0.95209,0.838197
 \H,0,0.808139,-0.869393,-0.913482\C,0,-1.790162,-0.335508,-0.013343\H,
 0,-0.558188,1.243367,-0.82149\H,0,-0.561368,1.168347,0.931515\C,0,-3.1

 Normal termination of Gaussian 16 at Tue Apr  8 22:45:21 2025.
 Gaussian 16:  ES64L-G16RevC.01  3-Jul-2019

 ----------------------------------------------------------------------
 #t hf aug-cc-pvdz iop(5/13=1,5/36=2,99/5=2) pseudo=read geom=check gue
 ss=(read,tcheck) scf=(maxcycle=1)
 ----------------------------------------------------------------------
 -----
 title
 -----
 Structure from the checkpoint file:  "BDE49_expt_1556_mol1.chk"
 Charge =  0 Multiplicity = 1

                         Standard orientation:
 ---------------------------------------------------------------------
 Center     Atomic      Atomic             Coordinates (Angstroms)
 Number     Number       Type             X           Y           Z
 ---------------------------------------------------------------------
      1         16           0        3.609168   -0.262090   -0.085375
      2          6           0        2.009596    0.637859    0.041341
      3          1           0        3.488257   -0.966848    1.053134
      4          6           0        0.770450   -0.255246   -0.007943
      5          1           0        2.025175    1.321457   -0.811782
      6          1           0        2.022638    1.250814    0.944990
      7          6           0       -0.537407    0.547442    0.026881
      8          1           0        0.793344   -0.952090    0.838197
      9          1           0        0.808139   -0.869393   -0.913482
     10          6           0       -1.790162   -0.335508   -0.013343
     11          1           0       -0.558188    1.243367   -0.821490
     12          1           0       -0.561368    1.168347    0.931515
     13          6           0       -3.101055    0.458744    0.016749
     14          1           0       -1.770238   -1.031414    0.835231
     15          1           0       -1.765485   -0.957830   -0.916984
     16          6           0       -4.347345   -0.430173   -0.023590
     17          1           0       -3.120791    1.153811   -0.831330
     18          1           0       -3.125154    1.080680    0.919766
     19          1           0       -4.369555   -1.039104   -0.932731
     20          1           0       -5.263731    0.165778   -0.001069
     21          1           0       -4.374184   -1.112851    0.831463
 ---------------------------------------------------------------------

 SCF Done:  E(RHF) =  -633.020936311     A.U. after    2 cycles

 The electronic state is 1-A.
 Alpha  occ. eigenvalues --  -93.52974 -11.27100 -11.23814 -11.23385 -11.23076
 Alpha  occ. eigenvalues --  -11.23010 -11.22452  -8.82697  -6.16864  -6.16658
 Alpha  occ. eigenvalues --   -6.16311  -1.08855  -1.05052  -0.99144  -0.92048
 Alpha  occ. eigenvalues --   -0.84656  -0.80322  -0.79291  -0.66588  -0.63094
 Alpha  occ. eigenvalues --   -0.59885  -0.58216  -0.57551  -0.55292  -0.53068
 Alpha  occ. eigenvalues --   -0.51475  -0.49391  -0.48178  -0.47714  -0.47047
 Alpha  occ. eigenvalues --   -0.46777  -0.43154  -0.35159
 Alpha virt. eigenvalues --    0.03441   0.04066   0.04227   0.04542   0.05734
 Alpha virt. eigenvalues --    0.06215   0.06322   0.06792   0.07844   0.08422
 Alpha virt. eigenvalues --    0.08891   0.09574   0.10310   0.10562   0.11823

 Mulliken charges:
               1
     1  S    0.375490
     2  C    0.084336
     3  H    0.031181
     4  C    0.324249
     5  H   -0.093940
     6  H   -0.132434
     7  C    0.086706
     8  H   -0.157987
     9  H   -0.129305
    10  C    0.003915
    11  H   -0.178454
    12  H   -0.179672
    13  C    0.325701
    14  H   -0.188868
    15  H   -0.180784
    16  C    0.550427
    17  H   -0.152108
    18  H   -0.153856
    19  H   -0.085111
    20  H   -0.064795
    21  H   -0.084692
 Sum of Mulliken charges =   0.00000

 Dipole moment (field-independent basis, Debye):
    X=             -1.8236    Y=              0.3852    Z=              0.6918  Tot=              1.9881

 Test job not archived.
 1\1\GINC-SE364\SP\RHF\Aug-CC-pVDZ\C6H14S1\OHZDE\08-Apr-2025\0\\#t hf a
 ug-cc-pvdz iop(5/13=1,5/36=2,99/5=2) pseudo=read geom=check guess=(rea
 d,tcheck) scf=(maxcycle=1)\\title\\0,1\S,0,3.609168,-0.26209,-0.085375
 \C,0,2.009596,0.637859,0.041341\H,0,3.488257,-0.966848,1.053134\C,0,0.
 77045,-0.255246,-0.007943\H,0,2.025175,1.321457,-0.811782\H,0,2.022638
 ,1.250814,0.94499\C,0,-0.537407,0.547442,0.026881\H,0,0.793344,-0.9520
 9,0.838197\H,0,0.808139,-0.869393,-0.913482\C,0,-1.790162,-0.335508,-0
 .013343\H,0,-0.558188,1.243367,-0.82149\H,0,-0.561368,1.168347,0.93151

 Normal termination of Gaussian 16 at Tue Apr  8 22:45:29 2025.
