 Gaussian 16, Revision C.01,

 ----------------------------------------------------------------------
 #t hf aug-cc-pvdz symm=none int=(grid=ultrafine) guess=(read,tcheck) s
 table=(opt,rrhf)
 ----------------------------------------------------------------------
 -----
 title
 -----
 Symbolic Z-matrix:
 Charge =  0 Multiplicity = 1

 SCF Done:  E(RHF) =  -563.472862934     A.U. after   13 cycles
 Normal termination of Gaussian 16 at Tue Apr  8 22:33:49 2025.
 Gaussian 16:  ES64L-G16RevC.01  3-Jul-2019

 ----------------------------------------------------------------------
 #t hf aug-cc-pvdz iop(5/13=1,5/36=2,99/5=2) pseudo=read geom=check gue
 ss=(read,tcheck) scf=(maxcycle=1)
 ----------------------------------------------------------------------
 -----
 title
 -----
 Structure from the checkpoint file:  "BDE49_expt_1128_mol1.chk"
 Charge =  0 Multiplicity = 1

                         Standard orientation:
 ---------------------------------------------------------------------
 Center     Atomic      Atomic             Coordinates (Angstroms)
 Number     Number       Type             X           Y           Z
 ---------------------------------------------------------------------
      1          6           0        0.472379    0.407321   -0.000043
      2          8           0        0.775931    1.565405   -0.000015
      3          8           0        1.294444   -0.637512   -0.000010
      4          6           0       -0.993060   -0.089210   -0.000000
      5          6           0        2.705941   -0.324898    0.000012
      6          1           0        3.211887   -1.286315    0.000042
      7          1           0        2.961879    0.249673    0.890590
      8          1           0        2.961914    0.249637   -0.890578
      9          9           0       -1.833035    0.945466    0.000028
     10          9           0       -1.239639   -0.839140   -1.088563
     11          9           0       -1.239575   -0.839149    1.088572
 ---------------------------------------------------------------------

 SCF Done:  E(RHF) =  -563.669435512     A.U. after    2 cycles

 The electronic state is 1-A.
 Alpha  occ. eigenvalues --  -26.18398 -26.18389 -26.18116 -20.65668 -20.60873
 Alpha  occ. eigenvalues --  -11.55248 -11.44277 -11.32593  -1.77989  -1.70872
 Alpha  occ. eigenvalues --   -1.70842  -1.46477  -1.37304  -1.08358  -1.00613
 Alpha  occ. eigenvalues --   -0.91664  -0.89814  -0.89577  -0.81729  -0.78966
 Alpha  occ. eigenvalues --   -0.78717  -0.74639  -0.74627  -0.73270  -0.73270
 Alpha  occ. eigenvalues --   -0.72172  -0.71259  -0.62724  -0.59341  -0.57346
 Alpha  occ. eigenvalues --   -0.51860  -0.51455
 Alpha virt. eigenvalues --    0.03005   0.05265   0.05432   0.07127   0.08585
 Alpha virt. eigenvalues --    0.09563   0.10459   0.12257   0.12923   0.13109
 Alpha virt. eigenvalues --    0.14775   0.14889   0.15009   0.17011   0.18532

 Mulliken charges:
               1
     1  C    0.181154
     2  O   -0.369389
     3  O   -0.514758
     4  C    1.158243
     5  C    0.752240
     6  H   -0.226692
     7  H   -0.048912
     8  H   -0.048915
     9  F   -0.267161
    10  F   -0.307904
    11  F   -0.307906
 Sum of Mulliken charges =  -0.00000

 Dipole moment (field-independent basis, Debye):
    X=              3.0867    Y=             -1.2600    Z=             -0.0001  Tot=              3.3340

 Test job not archived.
 1\1\GINC-SE166\SP\RHF\Aug-CC-pVDZ\C3H3F3O2\OHZDE\08-Apr-2025\0\\#t hf
 aug-cc-pvdz iop(5/13=1,5/36=2,99/5=2) pseudo=read geom=check guess=(re
 ad,tcheck) scf=(maxcycle=1)\\title\\0,1\C,0,0.472379,0.407321,-0.00004
 3\O,0,0.775931,1.565405,-0.000015\O,0,1.294444,-0.637512,-0.00001\C,0,
 -0.99306,-0.08921,0.\C,0,2.705941,-0.324898,0.000012\H,0,3.211887,-1.2
 86315,0.000042\H,0,2.961879,0.249673,0.89059\H,0,2.961914,0.249637,-0.
 890578\F,0,-1.833035,0.945466,0.000028\F,0,-1.239639,-0.83914,-1.08856
 3\F,0,-1.239575,-0.839149,1.088572\\Version=ES64L-G16RevC.01\State=1-A

 Normal termination of Gaussian 16 at Tue Apr  8 22:33:54 2025.
