 Gaussian 16, Revision C.01,

 ----------------------------------------------------------------------
 #t hf aug-cc-pvdz symm=none int=(grid=ultrafine) guess=(read,tcheck) s
 table=(opt,rrhf)
 ----------------------------------------------------------------------
 -----
 title
 -----
 Symbolic Z-matrix:
 Charge =  0 Multiplicity = 1

 SCF Done:  E(RHF) =  -1713.41196762     A.U. after   13 cycles
 Normal termination of Gaussian 16 at Wed Apr  9 00:14:15 2025.
 Gaussian 16:  ES64L-G16RevC.01  3-Jul-2019

 ----------------------------------------------------------------------
 #t hf aug-cc-pvdz iop(5/13=1,5/36=2,99/5=2) pseudo=read geom=check gue
 ss=(read,tcheck) scf=(maxcycle=1)
 ----------------------------------------------------------------------
 -----
 title
 -----
 Structure from the checkpoint file:  "BDE49_nonexpt_2447_mol1.chk"
 Charge =  0 Multiplicity = 1

                         Standard orientation:
 ---------------------------------------------------------------------
 Center     Atomic      Atomic             Coordinates (Angstroms)
 Number     Number       Type             X           Y           Z
 ---------------------------------------------------------------------
      1         14           0       -1.190830    1.766635    0.004672
      2         14           0        1.190772    1.766646   -0.004682
      3         15           0        1.808239   -0.420393    0.092247
      4          1           0        1.712753    2.443012    1.203007
      5          1           0        1.723610    2.405063   -1.228051
      6          8           0        1.517853   -1.107017   -1.312446
      7          8           0        3.407567   -0.407049    0.125355
      8          1           0        0.539622   -1.252655   -1.434079
      9          1           0        3.807892   -1.248784   -0.133656
     10          8           0        1.143629   -1.082601    1.249794
     11         15           0       -1.808234   -0.420413   -0.092243
     12          1           0       -1.712827    2.442976   -1.203024
     13          1           0       -1.723681    2.405047    1.228038
     14          8           0       -1.517798   -1.106998    1.312457
     15          1           0       -0.539558   -1.252560    1.434053
     16          8           0       -3.407562   -0.407119   -0.125352
     17          1           0       -3.807857   -1.248888    0.133584
     18          8           0       -1.143590   -1.082598   -1.249784
 ---------------------------------------------------------------------

 SCF Done:  E(RHF) =  -1713.72018530     A.U. after    2 cycles

 The electronic state is 1-A.
 Alpha  occ. eigenvalues --  -81.41857 -81.41857 -69.09854 -69.09854 -20.62355
 Alpha  occ. eigenvalues --  -20.62355 -20.59810 -20.59809 -20.54054 -20.54053
 Alpha  occ. eigenvalues --   -7.90289  -7.90289  -6.85266  -6.85258  -5.04927
 Alpha  occ. eigenvalues --   -5.04923  -5.04854  -5.04848  -5.04420  -5.04388
 Alpha  occ. eigenvalues --   -3.96013  -3.96006  -3.95990  -3.95975  -3.95968
 Alpha  occ. eigenvalues --   -3.95914  -1.38224  -1.38005  -1.34098  -1.33637
 Alpha  occ. eigenvalues --   -1.27445  -1.26920  -0.86090  -0.84342  -0.78002
 Alpha  occ. eigenvalues --   -0.77226  -0.76092  -0.70604  -0.69055  -0.67392
 Alpha  occ. eigenvalues --   -0.65507  -0.64153  -0.62422  -0.61030  -0.59888
 Alpha  occ. eigenvalues --   -0.59105  -0.58446  -0.58145  -0.53864  -0.52704
 Alpha  occ. eigenvalues --   -0.51834  -0.50421  -0.50177  -0.49505  -0.46182
 Alpha  occ. eigenvalues --   -0.43248  -0.41714
 Alpha virt. eigenvalues --    0.03099   0.03603   0.04155   0.05210   0.05685
 Alpha virt. eigenvalues --    0.06493   0.06895   0.07451   0.07613   0.08365
 Alpha virt. eigenvalues --    0.08757   0.09719   0.09882   0.10575   0.10975

 Mulliken charges:
               1
     1  Si  -0.312332
     2  Si  -0.312302
     3  P    2.196495
     4  H    0.152672
     5  H    0.141186
     6  O   -0.834252
     7  O   -0.687291
     8  H    0.272984
     9  H    0.159775
    10  O   -1.089262
    11  P    2.196511
    12  H    0.152671
    13  H    0.141188
    14  O   -0.834242
    15  H    0.272973
    16  O   -0.687291
    17  H    0.159776
    18  O   -1.089260
 Sum of Mulliken charges =   0.00000

 Dipole moment (field-independent basis, Debye):
    X=             -0.0001    Y=              2.4310    Z=             -0.0002  Tot=              2.4310

 Test job not archived.
 1\1\GINC-SE044\SP\RHF\Aug-CC-pVDZ\H8O6P2Si2\OHZDE\09-Apr-2025\0\\#t hf
  aug-cc-pvdz iop(5/13=1,5/36=2,99/5=2) pseudo=read geom=check guess=(r
 ead,tcheck) scf=(maxcycle=1)\\title\\0,1\Si,0,1.19083,1.766635,-0.0046
 72\Si,0,-1.190772,1.766646,0.004682\P,0,-1.808239,-0.420393,-0.092247\
 H,0,-1.712753,2.443012,-1.203007\H,0,-1.72361,2.405063,1.228051\O,0,-1
 .517853,-1.107017,1.312446\O,0,-3.407567,-0.407049,-0.125355\H,0,-0.53
 9622,-1.252655,1.434079\H,0,-3.807892,-1.248783,0.133656\O,0,-1.143629
 ,-1.082601,-1.249794\P,0,1.808234,-0.420413,0.092243\H,0,1.712827,2.44

 Normal termination of Gaussian 16 at Wed Apr  9 00:14:27 2025.
