 Gaussian 16, Revision C.01,

 ----------------------------------------------------------------------
 #t hf aug-cc-pvdz symm=none int=(grid=ultrafine) guess=(read,tcheck) s
 table=(opt,rrhf)
 ----------------------------------------------------------------------
 -----
 title
 -----
 Symbolic Z-matrix:
 Charge =  0 Multiplicity = 1

 SCF Done:  E(RHF) =  -948.101776674     A.U. after   11 cycles
 Normal termination of Gaussian 16 at Tue Apr  8 23:45:12 2025.
 Gaussian 16:  ES64L-G16RevC.01  3-Jul-2019

 ----------------------------------------------------------------------
 #t hf aug-cc-pvdz iop(5/13=1,5/36=2,99/5=2) pseudo=read geom=check gue
 ss=(read,tcheck) scf=(maxcycle=1)
 ----------------------------------------------------------------------
 -----
 title
 -----
 Structure from the checkpoint file:  "BDE49_nonexpt_1787_mol1.chk"
 Charge =  0 Multiplicity = 1

                         Standard orientation:
 ---------------------------------------------------------------------
 Center     Atomic      Atomic             Coordinates (Angstroms)
 Number     Number       Type             X           Y           Z
 ---------------------------------------------------------------------
      1         14           0       -0.555281   -0.060916    0.000000
      2          9           0       -0.555281   -0.996728    1.280558
      3          9           0       -0.555281   -0.996728   -1.280558
      4         17           0        1.147851    1.059541   -0.000000
      5          1           0       -1.744471    0.781734    0.000000
 ---------------------------------------------------------------------

 SCF Done:  E(RHF) =  -948.238198751     A.U. after    2 cycles

 The electronic state is 1-A'.
 Alpha  occ. eigenvalues -- -103.68305 -69.22196 -26.14588 -26.14587 -10.71838
 Alpha  occ. eigenvalues --   -8.37529  -8.37285  -8.37285  -6.95906  -4.06904
 Alpha  occ. eigenvalues --   -4.06858  -4.06661  -1.68257  -1.67042  -1.17196
 Alpha  occ. eigenvalues --   -0.86270  -0.80318  -0.77550  -0.77024  -0.74713
 Alpha  occ. eigenvalues --   -0.73235  -0.63827  -0.55676  -0.51311  -0.50607
 Alpha virt. eigenvalues --    0.04866   0.05410   0.05747   0.05911   0.09989
 Alpha virt. eigenvalues --    0.13204   0.14907   0.15950   0.16116   0.16258
 Alpha virt. eigenvalues --    0.20644   0.20881   0.22211   0.25569   0.26692

 Mulliken charges:
               1
     1  Si   1.968854
     2  F   -0.750019
     3  F   -0.750019
     4  Cl  -0.412338
     5  H   -0.056478
 Sum of Mulliken charges =   0.00000

 Dipole moment (field-independent basis, Debye):
    X=             -0.9787    Y=              1.3102    Z=             -0.0000  Tot=              1.6354

 Test job not archived.
 1\1\GINC-SE069\SP\RHF\Aug-CC-pVDZ\Cl1F2H1Si1\OHZDE\08-Apr-2025\0\\#t h
 f aug-cc-pvdz iop(5/13=1,5/36=2,99/5=2) pseudo=read geom=check guess=(
 read,tcheck) scf=(maxcycle=1)\\title\\0,1\Si,0,-0.555281,-0.060916,0.\
 F,0,-0.555281,-0.996728,1.280558\F,0,-0.555281,-0.996728,-1.280558\Cl,
 0,1.147851,1.059541,0.\H,0,-1.744471,0.781734,0.\\Version=ES64L-G16Rev
 C.01\State=1-A'\HF=-948.2381988\RMSD=5.294e-03\Dipole=-0.3850623,0.515
 487,0.\Quadrupole=1.9724276,-0.4382155,-1.5342121,-0.9947991,0.,0.\PG=
 CS [SG(Cl1H1Si1),X(F2)]\\@

 Normal termination of Gaussian 16 at Tue Apr  8 23:45:13 2025.
