 Gaussian 16, Revision C.01,

 ----------------------------------------------------------------------
 #t hf aug-cc-pvdz symm=none int=(grid=ultrafine) guess=(read,tcheck) s
 table=(opt,rrhf)
 ----------------------------------------------------------------------
 -----
 title
 -----
 Symbolic Z-matrix:
 Charge =  0 Multiplicity = 1

 SCF Done:  E(RHF) =  -950.499424821     A.U. after   14 cycles
 Normal termination of Gaussian 16 at Wed Apr  9 00:16:34 2025.
 Gaussian 16:  ES64L-G16RevC.01  3-Jul-2019

 ----------------------------------------------------------------------
 #t hf aug-cc-pvdz iop(5/13=1,5/36=2,99/5=2) pseudo=read geom=check gue
 ss=(read,tcheck) scf=(maxcycle=1)
 ----------------------------------------------------------------------
 -----
 title
 -----
 Structure from the checkpoint file:  "BDE49_nonexpt_2580_mol1.chk"
 Charge =  0 Multiplicity = 1

                         Standard orientation:
 ---------------------------------------------------------------------
 Center     Atomic      Atomic             Coordinates (Angstroms)
 Number     Number       Type             X           Y           Z
 ---------------------------------------------------------------------
      1         17           0       -1.408728   -0.521515    0.000008
      2         16           0       -0.045935    1.028597   -0.000010
      3          6           0        1.513073    0.138075   -0.000017
      4          7           0        1.767166   -1.091067    0.000015
      5          1           0        0.921585   -1.667452    0.000038
      6          1           0        2.313152    0.884683   -0.000025
 ---------------------------------------------------------------------

 SCF Done:  E(RHF) =  -950.567747133     A.U. after    2 cycles

 The electronic state is 1-A.
 Alpha  occ. eigenvalues -- -103.70235 -93.62277 -15.64745 -11.35430 -10.73395
 Alpha  occ. eigenvalues --   -8.91722  -8.39126  -8.38784  -8.38740  -6.25793
 Alpha  occ. eigenvalues --   -6.25510  -6.25111  -1.22483  -1.18121  -0.98528
 Alpha  occ. eigenvalues --   -0.82152  -0.67837  -0.62931  -0.55458  -0.54887
 Alpha  occ. eigenvalues --   -0.49738  -0.49159  -0.43073  -0.38204
 Alpha virt. eigenvalues --    0.02801   0.03963   0.06020   0.07402   0.10045
 Alpha virt. eigenvalues --    0.10647   0.11612   0.12215   0.13772   0.14486
 Alpha virt. eigenvalues --    0.15642   0.15981   0.16377   0.18062   0.20481

 Mulliken charges:
               1
     1  Cl  -0.308124
     2  S    0.505951
     3  C    0.134039
     4  N   -0.199646
     5  H    0.063572
     6  H   -0.195792
 Sum of Mulliken charges =  -0.00000

 Dipole moment (field-independent basis, Debye):
    X=             -0.1069    Y=              1.3585    Z=             -0.0000  Tot=              1.3627

 Test job not archived.
 1\1\GINC-SE457\SP\RHF\Aug-CC-pVDZ\C1H2Cl1N1S1\OHZDE\09-Apr-2025\0\\#t
 hf aug-cc-pvdz iop(5/13=1,5/36=2,99/5=2) pseudo=read geom=check guess=
 (read,tcheck) scf=(maxcycle=1)\\title\\0,1\Cl,0,-1.408728,-0.521515,0.
 000008\S,0,-0.045935,1.028597,-0.00001\C,0,1.513073,0.138075,-0.000017
 \N,0,1.767166,-1.091067,0.000015\H,0,0.921585,-1.667452,0.000038\H,0,2
 .313152,0.884683,-0.000025\\Version=ES64L-G16RevC.01\State=1-A\HF=-950
 .5677471\RMSD=3.770e-03\Dipole=-0.0420447,0.5344792,-0.0000038\Quadrup
 ole=-1.109933,1.9716053,-0.8616722,4.1536801,-0.0000729,-0.0000635\PG=

 Normal termination of Gaussian 16 at Wed Apr  9 00:16:35 2025.
