 Gaussian 16, Revision C.01,

 ----------------------------------------------------------------------
 #t hf aug-cc-pvdz symm=none int=(grid=ultrafine) guess=(read,tcheck) s
 table=(opt,rrhf)
 ----------------------------------------------------------------------
 -----
 title
 -----
 Symbolic Z-matrix:
 Charge =  0 Multiplicity = 1

 SCF Done:  E(RHF) =  -1982.14334888     A.U. after   16 cycles
 Normal termination of Gaussian 16 at Tue Apr  8 23:26:56 2025.
 Gaussian 16:  ES64L-G16RevC.01  3-Jul-2019

 ----------------------------------------------------------------------
 #t hf aug-cc-pvdz iop(5/13=1,5/36=2,99/5=2) pseudo=read geom=check gue
 ss=(read,tcheck) scf=(maxcycle=1)
 ----------------------------------------------------------------------
 -----
 title
 -----
 Structure from the checkpoint file:  "BDE49_nonexpt_1263_mol1.chk"
 Charge =  0 Multiplicity = 1

                         Standard orientation:
 ---------------------------------------------------------------------
 Center     Atomic      Atomic             Coordinates (Angstroms)
 Number     Number       Type             X           Y           Z
 ---------------------------------------------------------------------
      1         17           0       -2.778898   -1.540988   -0.412319
      2         17           0        0.749687    2.232818    1.178594
      3          8           0       -2.044366    1.583447   -1.508395
      4          8           0        0.232801   -1.513129    1.742926
      5         15           0       -1.830779   -0.054290    0.729919
      6         15           0        0.600692    1.368814   -0.753968
      7          6           0       -1.310842    1.095756   -0.703017
      8          6           0       -0.073068   -0.833425    0.803504
      9          6           0        0.886378   -0.440309   -0.327924
     10          1           0        0.493699   -0.919968   -1.241653
     11          6           0        2.348613   -0.892733   -0.095703
     12          1           0        2.597134   -0.633366    0.938347
     13          6           0        2.469445   -2.418358   -0.247040
     14          1           0        3.492469   -2.737345   -0.031526
     15          1           0        2.235956   -2.726424   -1.272067
     16          1           0        1.803639   -2.945243    0.435716
     17          6           0        3.344306   -0.185092   -1.026070
     18          1           0        4.352004   -0.570185   -0.851162
     19          1           0        3.102687   -0.359166   -2.079853
     20          1           0        3.373830    0.895132   -0.862493
 ---------------------------------------------------------------------

 SCF Done:  E(RHF) =  -1982.33410999     A.U. after    2 cycles

 The electronic state is 1-A.
 Alpha  occ. eigenvalues -- -103.68689-103.68410 -81.35400 -81.35015 -20.63139
 Alpha  occ. eigenvalues --  -20.61330 -11.39391 -11.39025 -11.30296 -11.27356
 Alpha  occ. eigenvalues --  -11.24878 -11.23993 -10.71969 -10.71685  -8.37666
 Alpha  occ. eigenvalues --   -8.37397  -8.37393  -8.37391  -8.37097  -8.37090
 Alpha  occ. eigenvalues --   -7.85225  -7.84918  -4.99055  -4.98955  -4.98761
 Alpha  occ. eigenvalues --   -4.98710  -4.98629  -4.98406  -1.41757  -1.40472
 Alpha  occ. eigenvalues --   -1.16968  -1.16255  -1.11656  -1.02592  -0.94950
 Alpha  occ. eigenvalues --   -0.91283  -0.85068  -0.81550  -0.75688  -0.75011
 Alpha  occ. eigenvalues --   -0.70824  -0.67879  -0.65929  -0.63788  -0.62616
 Alpha  occ. eigenvalues --   -0.61301  -0.60763  -0.59413  -0.57266  -0.56026
 Alpha  occ. eigenvalues --   -0.53898  -0.52209  -0.51762  -0.51337  -0.50970
 Alpha  occ. eigenvalues --   -0.50604  -0.50320  -0.49334  -0.47383  -0.42954
 Alpha  occ. eigenvalues --   -0.39415  -0.36362
 Alpha virt. eigenvalues --    0.02006   0.03067   0.04078   0.04653   0.05264
 Alpha virt. eigenvalues --    0.05703   0.06526   0.06748   0.06928   0.07256
 Alpha virt. eigenvalues --    0.07476   0.08220   0.08641   0.09529   0.09950

 Mulliken charges:
               1
     1  Cl  -0.388374
     2  Cl  -0.456190
     3  O   -0.480912
     4  O   -0.514680
     5  P    0.548975
     6  P    0.611357
     7  C    0.215718
     8  C    0.406867
     9  C   -0.121042
    10  H    0.005734
    11  C   -0.958747
    12  H   -0.168366
    13  C    0.717614
    14  H   -0.083974
    15  H   -0.022938
    16  H   -0.079866
    17  C    0.903057
    18  H   -0.044754
    19  H   -0.014955
    20  H   -0.074524
 Sum of Mulliken charges =  -0.00000

 Dipole moment (field-independent basis, Debye):
    X=              2.9769    Y=             -0.4277    Z=             -1.3005  Tot=              3.2766

 Test job not archived.
 1\1\GINC-SE364\SP\RHF\Aug-CC-pVDZ\C6H8Cl2O2P2\OHZDE\08-Apr-2025\0\\#t
 hf aug-cc-pvdz iop(5/13=1,5/36=2,99/5=2) pseudo=read geom=check guess=
 (read,tcheck) scf=(maxcycle=1)\\title\\0,1\Cl,0,-2.778898,-1.540988,-0
 .412319\Cl,0,0.749687,2.232818,1.178594\O,0,-2.044366,1.583447,-1.5083
 95\O,0,0.232801,-1.513129,1.742926\P,0,-1.830779,-0.05429,0.729919\P,0
 ,0.600692,1.368814,-0.753968\C,0,-1.310842,1.095756,-0.703017\C,0,-0.0
 73068,-0.833425,0.803504\C,0,0.886378,-0.440309,-0.327924\H,0,0.493699
 ,-0.919968,-1.241653\C,0,2.348613,-0.892733,-0.095703\H,0,2.597134,-0.

 Normal termination of Gaussian 16 at Tue Apr  8 23:27:13 2025.
