 Gaussian 16, Revision C.01,

 ----------------------------------------------------------------------
 #t hf aug-cc-pvdz symm=none int=(grid=ultrafine) guess=(read,tcheck) s
 table=(opt,rrhf)
 ----------------------------------------------------------------------
 -----
 title
 -----
 Symbolic Z-matrix:
 Charge =  0 Multiplicity = 1

 SCF Done:  E(RHF) =  -743.554712944     A.U. after   13 cycles
 Normal termination of Gaussian 16 at Tue Apr  8 22:47:06 2025.
 Gaussian 16:  ES64L-G16RevC.01  3-Jul-2019

 ----------------------------------------------------------------------
 #t hf aug-cc-pvdz iop(5/13=1,5/36=2,99/5=2) pseudo=read geom=check gue
 ss=(read,tcheck) scf=(maxcycle=1)
 ----------------------------------------------------------------------
 -----
 title
 -----
 Structure from the checkpoint file:  "BDE49_expt_1602_mol1.chk"
 Charge =  0 Multiplicity = 1

                         Standard orientation:
 ---------------------------------------------------------------------
 Center     Atomic      Atomic             Coordinates (Angstroms)
 Number     Number       Type             X           Y           Z
 ---------------------------------------------------------------------
      1         16           0        0.821888   -0.231015    0.000000
      2          6           0        1.632761    1.379271    0.000002
      3          8           0        1.156465   -0.874387   -1.260273
      4          8           0        1.156465   -0.874391    1.260270
      5          1           0        1.371544    1.929068   -0.902091
      6          1           0        2.697983    1.146203    0.000002
      7          1           0        1.371544    1.929065    0.902097
      8          6           0       -1.009039    0.092633    0.000000
      9          6           0       -1.383690    0.861256    1.272518
     10          1           0       -0.975044    1.874757    1.276565
     11          1           0       -1.033516    0.338924    2.163652
     12          6           0       -1.641520   -1.309443   -0.000003
     13          1           0       -2.729977   -1.205616   -0.000003
     14          1           0       -1.345617   -1.873278    0.885809
     15          1           0       -1.345617   -1.873275   -0.885816
     16          6           0       -1.383690    0.861261   -1.272515
     17          1           0       -0.975043    1.874762   -1.276557
     18          1           0       -2.472657    0.948527   -1.329471
     19          1           0       -1.033516    0.338933   -2.163651
     20          1           0       -2.472658    0.948521    1.329475
 ---------------------------------------------------------------------

 SCF Done:  E(RHF) =  -743.735624687     A.U. after    2 cycles

 The electronic state is 1-A.
 Alpha  occ. eigenvalues --  -93.76478 -20.54669 -20.54668 -11.29966 -11.28293
 Alpha  occ. eigenvalues --  -11.25093 -11.25084 -11.24210  -9.03332  -6.37967
 Alpha  occ. eigenvalues --   -6.37742  -6.37665  -1.40577  -1.29220  -1.11769
 Alpha  occ. eigenvalues --   -1.02700  -0.95944  -0.95275  -0.86848  -0.75476
 Alpha  occ. eigenvalues --   -0.69691  -0.67007  -0.65941  -0.63240  -0.63194
 Alpha  occ. eigenvalues --   -0.60292  -0.60244  -0.57231  -0.56855  -0.55573
 Alpha  occ. eigenvalues --   -0.54230  -0.50673  -0.50329  -0.50195  -0.49199
 Alpha  occ. eigenvalues --   -0.48046  -0.42469
 Alpha virt. eigenvalues --    0.02808   0.03828   0.04478   0.04793   0.06039
 Alpha virt. eigenvalues --    0.06124   0.06565   0.07302   0.07691   0.09086
 Alpha virt. eigenvalues --    0.09215   0.09459   0.11622   0.12290   0.13235

 Mulliken charges:
               1
     1  S    2.429910
     2  C    0.054619
     3  O   -1.170053
     4  O   -1.170053
     5  H    0.017817
     6  H    0.039398
     7  H    0.017817
     8  C   -3.417866
     9  C    1.054642
    10  H   -0.121368
    11  H    0.031315
    12  C    1.230124
    13  H   -0.035544
    14  H    0.014696
    15  H    0.014693
    16  C    1.054644
    17  H   -0.121366
    18  H    0.022630
    19  H    0.031314
    20  H    0.022632
 Sum of Mulliken charges =  -0.00000

 Dipole moment (field-independent basis, Debye):
    X=             -2.9241    Y=              4.4899    Z=              0.0000  Tot=              5.3581

 Test job not archived.
 1\1\GINC-SE043\SP\RHF\Aug-CC-pVDZ\C5H12O2S1\OHZDE\08-Apr-2025\0\\#t hf
  aug-cc-pvdz iop(5/13=1,5/36=2,99/5=2) pseudo=read geom=check guess=(r
 ead,tcheck) scf=(maxcycle=1)\\title\\0,1\S,0,-0.821888,-0.231015,0.\C,
 0,-1.632762,1.379271,-0.000002\O,0,-1.156465,-0.874387,1.260273\O,0,-1
 .156465,-0.874391,-1.26027\H,0,-1.371545,1.929068,0.902091\H,0,-2.6979
 83,1.146202,-0.000002\H,0,-1.371545,1.929065,-0.902097\C,0,1.009039,0.
 092633,0.\C,0,1.38369,0.861256,-1.272518\H,0,0.975043,1.874757,-1.2765
 65\H,0,1.033516,0.338924,-2.163652\C,0,1.64152,-1.309443,0.000003\H,0,

 Normal termination of Gaussian 16 at Tue Apr  8 22:47:18 2025.
