 Gaussian 16, Revision C.01,

 ----------------------------------------------------------------------
 #t hf aug-cc-pvdz symm=none int=(grid=ultrafine) guess=(read,tcheck) s
 table=(opt,rrhf)
 ----------------------------------------------------------------------
 -----
 title
 -----
 Symbolic Z-matrix:
 Charge =  0 Multiplicity = 1

 SCF Done:  E(RHF) =  -764.853034511     A.U. after   12 cycles
 Normal termination of Gaussian 16 at Wed Apr  9 00:10:36 2025.
 Gaussian 16:  ES64L-G16RevC.01  3-Jul-2019

 ----------------------------------------------------------------------
 #t hf aug-cc-pvdz iop(5/13=1,5/36=2,99/5=2) pseudo=read geom=check gue
 ss=(read,tcheck) scf=(maxcycle=1)
 ----------------------------------------------------------------------
 -----
 title
 -----
 Structure from the checkpoint file:  "BDE49_nonexpt_2402_mol1.chk"
 Charge =  0 Multiplicity = 1

                         Standard orientation:
 ---------------------------------------------------------------------
 Center     Atomic      Atomic             Coordinates (Angstroms)
 Number     Number       Type             X           Y           Z
 ---------------------------------------------------------------------
      1         14           0       -0.808250    0.860893    0.000067
      2         14           0        0.808250   -0.860892    0.000061
      3          6           0        2.466927   -0.034307    0.000003
      4          1           0        0.722077   -1.688468   -1.218238
      5          1           0        0.722072   -1.688447    1.218374
      6          7           0        3.480994    0.520689   -0.000145
      7          6           0       -2.466927    0.034307   -0.000001
      8          1           0       -0.722076    1.688481   -1.218224
      9          1           0       -0.722075    1.688437    1.218388
     10          7           0       -3.480993   -0.520690   -0.000156
 ---------------------------------------------------------------------

 SCF Done:  E(RHF) =  -764.948981492     A.U. after    2 cycles

 The electronic state is 1-A.
 Alpha  occ. eigenvalues --  -69.13119 -69.13119 -15.67025 -15.67025 -11.28763
 Alpha  occ. eigenvalues --  -11.28763  -6.88377  -6.88366  -3.99237  -3.99230
 Alpha  occ. eigenvalues --   -3.99119  -3.99095  -3.99085  -3.99038  -1.20858
 Alpha  occ. eigenvalues --   -1.20776  -0.83579  -0.78677  -0.63736  -0.62943
 Alpha  occ. eigenvalues --   -0.56075  -0.56046  -0.55297  -0.53784  -0.51903
 Alpha  occ. eigenvalues --   -0.49696  -0.48465  -0.48447  -0.43708
 Alpha virt. eigenvalues --    0.02944   0.03161   0.05023   0.05143   0.05753
 Alpha virt. eigenvalues --    0.06034   0.06313   0.07229   0.07261   0.07508
 Alpha virt. eigenvalues --    0.09255   0.09435   0.09628   0.10933   0.11652

 Mulliken charges:
               1
     1  Si   0.279298
     2  Si   0.279298
     3  C   -0.251812
     4  H    0.061744
     5  H    0.061725
     6  N   -0.150954
     7  C   -0.251812
     8  H    0.061743
     9  H    0.061725
    10  N   -0.150954
 Sum of Mulliken charges =  -0.00000

 Dipole moment (field-independent basis, Debye):
    X=              0.0000    Y=              0.0000    Z=              0.0006  Tot=              0.0006

 Test job not archived.
 1\1\GINC-SE335\SP\RHF\Aug-CC-pVDZ\C2H4N2Si2\OHZDE\09-Apr-2025\0\\#t hf
  aug-cc-pvdz iop(5/13=1,5/36=2,99/5=2) pseudo=read geom=check guess=(r
 ead,tcheck) scf=(maxcycle=1)\\title\\0,1\Si,0,0.80825,0.860893,-0.0000
 67\Si,0,-0.80825,-0.860892,-0.000061\C,0,-2.466927,-0.034307,-0.000003
 \H,0,-0.722077,-1.688468,1.218238\H,0,-0.722072,-1.688447,-1.218374\N,
 0,-3.480994,0.520689,0.000145\C,0,2.466927,0.034307,0.000001\H,0,0.722
 076,1.688481,1.218224\H,0,0.722075,1.688437,-1.218388\N,0,3.480993,-0.
 52069,0.000156\\Version=ES64L-G16RevC.01\State=1-A\HF=-764.9489815\RMS

 Normal termination of Gaussian 16 at Wed Apr  9 00:10:45 2025.
