 Gaussian 16, Revision C.01,

 ----------------------------------------------------------------------
 #t hf aug-cc-pvdz symm=none int=(grid=ultrafine) guess=(read,tcheck) s
 table=(opt,rrhf)
 ----------------------------------------------------------------------
 -----
 title
 -----
 Symbolic Z-matrix:
 Charge =  0 Multiplicity = 1

 SCF Done:  E(RHF) =  -1143.22786467     A.U. after   14 cycles
 Normal termination of Gaussian 16 at Tue Apr  8 23:24:45 2025.
 Gaussian 16:  ES64L-G16RevC.01  3-Jul-2019

 ----------------------------------------------------------------------
 #t hf aug-cc-pvdz iop(5/13=1,5/36=2,99/5=2) pseudo=read geom=check gue
 ss=(read,tcheck) scf=(maxcycle=1)
 ----------------------------------------------------------------------
 -----
 title
 -----
 Structure from the checkpoint file:  "BDE49_nonexpt_1270_mol1.chk"
 Charge =  0 Multiplicity = 1

                         Standard orientation:
 ---------------------------------------------------------------------
 Center     Atomic      Atomic             Coordinates (Angstroms)
 Number     Number       Type             X           Y           Z
 ---------------------------------------------------------------------
      1          6           0       -0.721667    0.498696   -0.004316
      2         15           0        1.048599   -0.012705   -0.039956
      3          8           0        1.981587    1.102584   -0.217926
      4          6           0       -1.062723    1.236540   -1.297729
      5          1           0       -0.874483    0.615313   -2.173548
      6          1           0       -0.440262    2.131669   -1.370877
      7          6           0       -1.021981    1.324007    1.243491
      8         17           0       -1.744415   -1.051370    0.064077
      9          1           0       -0.393037    2.218493    1.238051
     10          1           0       -0.816981    0.757177    2.150903
     11          1           0       -2.069370    1.632622    1.245170
     12          1           0       -2.113814    1.531660   -1.292615
     13          8           0        1.213630   -0.825486    1.337837
     14          1           0        2.068680   -0.648182    1.749170
     15          8           0        1.159304   -1.110436   -1.197249
     16          1           0        0.567398   -1.863637   -1.066193
 ---------------------------------------------------------------------

 SCF Done:  E(RHF) =  -1143.41861957     A.U. after    2 cycles

 The electronic state is 1-A.
 Alpha  occ. eigenvalues -- -103.66799 -81.42505 -20.62422 -20.62122 -20.53199
 Alpha  occ. eigenvalues --  -11.34124 -11.25799 -11.25686 -10.70049  -8.35752
 Alpha  occ. eigenvalues --   -8.35496  -8.35477  -7.90905  -5.05577  -5.05484
 Alpha  occ. eigenvalues --   -5.05168  -1.38758  -1.35508  -1.26733  -1.18363
 Alpha  occ. eigenvalues --   -1.05653  -0.96740  -0.87237  -0.79817  -0.78074
 Alpha  occ. eigenvalues --   -0.68965  -0.67819  -0.65764  -0.64119  -0.61341
 Alpha  occ. eigenvalues --   -0.60090  -0.58818  -0.57710  -0.55926  -0.53273
 Alpha  occ. eigenvalues --   -0.52784  -0.52156  -0.49830  -0.49412  -0.46552
 Alpha  occ. eigenvalues --   -0.44542
 Alpha virt. eigenvalues --    0.03229   0.04154   0.04594   0.05840   0.06389
 Alpha virt. eigenvalues --    0.06786   0.07789   0.07892   0.09182   0.10168
 Alpha virt. eigenvalues --    0.11648   0.12658   0.12946   0.13835   0.14317

 Mulliken charges:
               1
     1  C   -1.547880
     2  P    2.518576
     3  O   -0.896925
     4  C    0.751284
     5  H   -0.058636
     6  H    0.032161
     7  C    0.755154
     8  Cl  -0.305641
     9  H    0.038752
    10  H   -0.051318
    11  H   -0.032555
    12  H   -0.024813
    13  O   -0.767269
    14  H    0.170261
    15  O   -0.737531
    16  H    0.156381
 Sum of Mulliken charges =  -0.00000

 Dipole moment (field-independent basis, Debye):
    X=             -1.8168    Y=             -0.5235    Z=              1.3008  Tot=              2.2950

 Test job not archived.
 1\1\GINC-SE041\SP\RHF\Aug-CC-pVDZ\C3H8Cl1O3P1\OHZDE\08-Apr-2025\0\\#t
 hf aug-cc-pvdz iop(5/13=1,5/36=2,99/5=2) pseudo=read geom=check guess=
 (read,tcheck) scf=(maxcycle=1)\\title\\0,1\C,0,-0.721667,0.498696,-0.0
 04316\P,0,1.048599,-0.012705,-0.039956\O,0,1.981587,1.102584,-0.217926
 \C,0,-1.062723,1.23654,-1.297729\H,0,-0.874483,0.615313,-2.173548\H,0,
 -0.440262,2.131669,-1.370877\C,0,-1.021981,1.324007,1.243491\Cl,0,-1.7
 44415,-1.05137,0.064077\H,0,-0.393037,2.218493,1.238051\H,0,-0.816981,
 0.757177,2.150903\H,0,-2.06937,1.632622,1.24517\H,0,-2.113814,1.53166,

 Normal termination of Gaussian 16 at Tue Apr  8 23:24:56 2025.
