 Gaussian 16, Revision C.01,

 ----------------------------------------------------------------------
 #t hf aug-cc-pvdz symm=none int=(grid=ultrafine) guess=(read,tcheck) s
 table=(opt,rrhf)
 ----------------------------------------------------------------------
 -----
 title
 -----
 Symbolic Z-matrix:
 Charge =  0 Multiplicity = 1

 SCF Done:  E(RHF) =  -152.917415234     A.U. after   13 cycles
 Normal termination of Gaussian 16 at Tue Apr  8 22:44:26 2025.
 Gaussian 16:  ES64L-G16RevC.01  3-Jul-2019

 ----------------------------------------------------------------------
 #t hf aug-cc-pvdz iop(5/13=1,5/36=2,99/5=2) pseudo=read geom=check gue
 ss=(read,tcheck) scf=(maxcycle=1)
 ----------------------------------------------------------------------
 -----
 title
 -----
 Structure from the checkpoint file:  "BDE49_expt_153_mol1.chk"
 Charge =  0 Multiplicity = 1

                         Standard orientation:
 ---------------------------------------------------------------------
 Center     Atomic      Atomic             Coordinates (Angstroms)
 Number     Number       Type             X           Y           Z
 ---------------------------------------------------------------------
      1          6           0       -0.035718    0.411122    0.000001
      2          8           0        1.134081   -0.295580   -0.000003
      3          1           0        1.873972    0.316125   -0.000016
      4          6           0       -1.225661   -0.178944    0.000003
      5          1           0        0.064240    1.494383    0.000005
      6          1           0       -1.316658   -1.258017    0.000000
      7          1           0       -2.125928    0.419079    0.000010
 ---------------------------------------------------------------------

 SCF Done:  E(RHF) =  -152.968600606     A.U. after    2 cycles

 The electronic state is 1-A.
 Alpha  occ. eigenvalues --  -20.60466 -11.30887 -11.22270  -1.36402  -1.02199
 Alpha  occ. eigenvalues --   -0.80350  -0.75295  -0.63312  -0.59490  -0.58064
 Alpha  occ. eigenvalues --   -0.52707  -0.35294
 Alpha virt. eigenvalues --    0.03114   0.04882   0.05372   0.06988   0.11018
 Alpha virt. eigenvalues --    0.11781   0.12564   0.12879   0.15543   0.17717
 Alpha virt. eigenvalues --    0.19728   0.20605   0.21034   0.22489   0.23572

 Mulliken charges:
               1
     1  C    0.823279
     2  O   -0.511359
     3  H    0.163766
     4  C    0.359928
     5  H   -0.328349
     6  H   -0.249129
     7  H   -0.258137
 Sum of Mulliken charges =  -0.00000

 Dipole moment (field-independent basis, Debye):
    X=              0.7128    Y=              1.8451    Z=             -0.0000  Tot=              1.9780

 Test job not archived.
 1\1\GINC-SE088\SP\RHF\Aug-CC-pVDZ\C2H4O1\OHZDE\08-Apr-2025\0\\#t hf au
 g-cc-pvdz iop(5/13=1,5/36=2,99/5=2) pseudo=read geom=check guess=(read
 ,tcheck) scf=(maxcycle=1)\\title\\0,1\C,0,0.035718,0.411122,-0.000001\
 O,0,-1.134081,-0.29558,0.000003\H,0,-1.873972,0.316125,0.000016\C,0,1.
 225661,-0.178944,-0.000003\H,0,-0.06424,1.494383,-0.000005\H,0,1.31665
 8,-1.258017,0.\H,0,2.125928,0.419079,-0.00001\\Version=ES64L-G16RevC.0
 1\State=1-A\HF=-152.9686006\RMSD=4.849e-03\Dipole=-0.2804349,0.7259156
 ,0.0000065\Quadrupole=2.1334544,0.4165315,-2.5499859,-2.1127791,-0.000

 Normal termination of Gaussian 16 at Tue Apr  8 22:44:28 2025.
