 Gaussian 16, Revision C.01,

 ----------------------------------------------------------------------
 #t hf aug-cc-pvdz symm=none int=(grid=ultrafine) guess=(read,tcheck) s
 table=(opt,rrhf)
 ----------------------------------------------------------------------
 -----
 title
 -----
 Symbolic Z-matrix:
 Charge =  0 Multiplicity = 1

 SCF Done:  E(RHF) =  -510.413565053     A.U. after   14 cycles
 Normal termination of Gaussian 16 at Tue Apr  8 22:39:25 2025.
 Gaussian 16:  ES64L-G16RevC.01  3-Jul-2019

 ----------------------------------------------------------------------
 #t hf aug-cc-pvdz iop(5/13=1,5/36=2,99/5=2) pseudo=read geom=check gue
 ss=(read,tcheck) scf=(maxcycle=1)
 ----------------------------------------------------------------------
 -----
 title
 -----
 Structure from the checkpoint file:  "BDE49_expt_1326_mol1.chk"
 Charge =  0 Multiplicity = 1

                         Standard orientation:
 ---------------------------------------------------------------------
 Center     Atomic      Atomic             Coordinates (Angstroms)
 Number     Number       Type             X           Y           Z
 ---------------------------------------------------------------------
      1          6           0       -0.326926    0.196200    0.000000
      2          8           0        1.058274    0.337246    0.000000
      3          9           0       -0.764467    1.449517    0.000000
      4          9           0       -0.764467   -0.442032    1.078624
      5          9           0       -0.764467   -0.442032   -1.078624
      6          9           0        1.570663   -0.996028    0.000000
 ---------------------------------------------------------------------

 SCF Done:  E(RHF) =  -510.599901535     A.U. after    2 cycles

 The electronic state is 1-A'.
 Alpha  occ. eigenvalues --  -26.22549 -26.21425 -26.20752 -26.20741 -20.76594
 Alpha  occ. eigenvalues --  -11.62335  -1.81767  -1.74431  -1.73736  -1.72774
 Alpha  occ. eigenvalues --   -1.40115  -1.05647  -0.94159  -0.94032  -0.92375
 Alpha  occ. eigenvalues --   -0.83670  -0.82698  -0.80339  -0.80034  -0.77387
 Alpha  occ. eigenvalues --   -0.76963  -0.75905  -0.75711  -0.68329  -0.63172
 Alpha virt. eigenvalues --    0.06089   0.08113   0.08874   0.08935   0.10276
 Alpha virt. eigenvalues --    0.19430   0.19565   0.21904   0.22136   0.22850
 Alpha virt. eigenvalues --    0.28970   0.29962   0.30298   0.31172   0.32393

 Mulliken charges:
               1
     1  C    1.134100
     2  O   -0.169209
     3  F   -0.218893
     4  F   -0.234092
     5  F   -0.234092
     6  F   -0.277813
 Sum of Mulliken charges =  -0.00000

 Dipole moment (field-independent basis, Debye):
    X=             -0.2559    Y=              0.4998    Z=             -0.0000  Tot=              0.5615

 Test job not archived.
 1\1\GINC-SE195\SP\RHF\Aug-CC-pVDZ\C1F4O1\OHZDE\08-Apr-2025\0\\#t hf au
 g-cc-pvdz iop(5/13=1,5/36=2,99/5=2) pseudo=read geom=check guess=(read
 ,tcheck) scf=(maxcycle=1)\\title\\0,1\C,0,-0.326926,0.1962,0.\O,0,1.05
 8274,0.337246,0.\F,0,-0.764467,1.449517,0.\F,0,-0.764467,-0.442032,1.0
 78624\F,0,-0.764467,-0.442032,-1.078624\F,0,1.570663,-0.996028,0.\\Ver
 sion=ES64L-G16RevC.01\State=1-A'\HF=-510.5999015\RMSD=6.378e-03\Dipole
 =-0.1006886,0.1966174,0.\Quadrupole=-0.1850873,0.0775686,0.1075187,0.3
 335564,0.,0.\PG=CS [SG(C1F2O1),X(F2)]\\@

 Normal termination of Gaussian 16 at Tue Apr  8 22:39:28 2025.
