 Gaussian 16, Revision C.01,

 ----------------------------------------------------------------------
 #t hf aug-cc-pvdz symm=none int=(grid=ultrafine) guess=(read,tcheck) s
 table=(opt,rrhf)
 ----------------------------------------------------------------------
 -----
 title
 -----
 Symbolic Z-matrix:
 Charge =  0 Multiplicity = 1

 SCF Done:  E(RHF) =  -664.268988110     A.U. after   13 cycles
 Normal termination of Gaussian 16 at Tue Apr  8 23:34:41 2025.
 Gaussian 16:  ES64L-G16RevC.01  3-Jul-2019

 ----------------------------------------------------------------------
 #t hf aug-cc-pvdz iop(5/13=1,5/36=2,99/5=2) pseudo=read geom=check gue
 ss=(read,tcheck) scf=(maxcycle=1)
 ----------------------------------------------------------------------
 -----
 title
 -----
 Structure from the checkpoint file:  "BDE49_nonexpt_1504_mol1.chk"
 Charge =  0 Multiplicity = 1

                         Standard orientation:
 ---------------------------------------------------------------------
 Center     Atomic      Atomic             Coordinates (Angstroms)
 Number     Number       Type             X           Y           Z
 ---------------------------------------------------------------------
      1         15           0        0.140388    0.604496   -0.636552
      2          7           0       -0.783277   -0.835324   -0.131104
      3          8           0       -2.079735   -0.670656   -0.719678
      4          8           0       -0.977770   -0.854090    1.288011
      5          6           0        1.679872    0.267796    0.344166
      6          6           0        2.519774   -0.884244   -0.219881
      7          1           0        1.408938    0.086054    1.387274
      8          1           0        2.251155    1.202700    0.312532
      9          1           0        2.807964   -0.696345   -1.257593
     10          1           0        1.963377   -1.824225   -0.198010
     11          6           0       -0.621873    1.936760    0.397737
     12          1           0       -0.052995    2.858128    0.246508
     13          1           0       -0.636810    1.680439    1.457658
     14          1           0       -1.643451    2.105621    0.052737
     15          1           0        3.434974   -1.021891    0.362781
     16          1           0       -2.267999   -1.544430   -1.081023
     17          1           0       -0.894645   -1.790116    1.504351
 ---------------------------------------------------------------------

 SCF Done:  E(RHF) =  -664.397058447     A.U. after    2 cycles

 The electronic state is 1-A.
 Alpha  occ. eigenvalues --  -81.27058 -20.61370 -20.61255 -15.73080 -11.23675
 Alpha  occ. eigenvalues --  -11.23032 -11.22696  -7.77102  -4.91222  -4.90999
 Alpha  occ. eigenvalues --   -4.90690  -1.40598  -1.30916  -1.03834  -0.99996
 Alpha  occ. eigenvalues --   -0.94775  -0.85069  -0.72892  -0.72155  -0.71530
 Alpha  occ. eigenvalues --   -0.63532  -0.62081  -0.59958  -0.57581  -0.56799
 Alpha  occ. eigenvalues --   -0.56012  -0.52360  -0.51450  -0.49735  -0.49413
 Alpha  occ. eigenvalues --   -0.44370  -0.40497  -0.33453
 Alpha virt. eigenvalues --    0.03266   0.04118   0.04599   0.04987   0.06448
 Alpha virt. eigenvalues --    0.06695   0.07267   0.07523   0.08217   0.08896
 Alpha virt. eigenvalues --    0.10327   0.11791   0.12911   0.14102   0.15323

 Mulliken charges:
               1
     1  P    1.010787
     2  N   -0.211108
     3  O   -0.433362
     4  O   -0.456385
     5  C    0.003742
     6  C    0.353236
     7  H   -0.122098
     8  H   -0.125987
     9  H   -0.078596
    10  H   -0.072471
    11  C    0.194588
    12  H   -0.137549
    13  H   -0.127904
    14  H   -0.118273
    15  H   -0.060713
    16  H    0.189087
    17  H    0.193008
 Sum of Mulliken charges =  -0.00000

 Dipole moment (field-independent basis, Debye):
    X=              0.9904    Y=             -1.5377    Z=              0.7346  Tot=              1.9711

 Test job not archived.
 1\1\GINC-SE457\SP\RHF\Aug-CC-pVDZ\C3H10N1O2P1\OHZDE\08-Apr-2025\0\\#t
 hf aug-cc-pvdz iop(5/13=1,5/36=2,99/5=2) pseudo=read geom=check guess=
 (read,tcheck) scf=(maxcycle=1)\\title\\0,1\P,0,0.140388,0.604496,-0.63
 6552\N,0,-0.783277,-0.835324,-0.131104\O,0,-2.079735,-0.670655,-0.7196
 78\O,0,-0.97777,-0.85409,1.288011\C,0,1.679872,0.267795,0.344166\C,0,2
 .519774,-0.884245,-0.219881\H,0,1.408938,0.086054,1.387274\H,0,2.25115
 5,1.202699,0.312532\H,0,2.807964,-0.696346,-1.257593\H,0,1.963376,-1.8
 24226,-0.19801\C,0,-0.621872,1.93676,0.397737\H,0,-0.052994,2.858128,0

 Normal termination of Gaussian 16 at Tue Apr  8 23:34:47 2025.
