 Gaussian 16, Revision C.01,

 ----------------------------------------------------------------------
 #t hf aug-cc-pvdz symm=none int=(grid=ultrafine) guess=(read,tcheck) s
 table=(opt,rrhf)
 ----------------------------------------------------------------------
 -----
 title
 -----
 Symbolic Z-matrix:
 Charge =  0 Multiplicity = 1

 SCF Done:  E(RHF) =  -1068.01068699     A.U. after   15 cycles
 Normal termination of Gaussian 16 at Wed Apr  9 00:15:41 2025.
 Gaussian 16:  ES64L-G16RevC.01  3-Jul-2019

 ----------------------------------------------------------------------
 #t hf aug-cc-pvdz iop(5/13=1,5/36=2,99/5=2) pseudo=read geom=check gue
 ss=(read,tcheck) scf=(maxcycle=1)
 ----------------------------------------------------------------------
 -----
 title
 -----
 Structure from the checkpoint file:  "BDE49_nonexpt_2510_mol1.chk"
 Charge =  0 Multiplicity = 1

                         Standard orientation:
 ---------------------------------------------------------------------
 Center     Atomic      Atomic             Coordinates (Angstroms)
 Number     Number       Type             X           Y           Z
 ---------------------------------------------------------------------
      1         16           0        1.187309    0.000000   -0.571152
      2         14           0        2.214706    0.000000    1.424868
      3          8           0        1.503084    1.271716   -1.214454
      4          8           0        1.503084   -1.271716   -1.214454
      5          6           0       -0.575240    0.000000   -0.212860
      6          6           0       -1.242259   -1.217104   -0.076793
      7          6           0       -1.242259    1.217104   -0.076792
      8          6           0       -2.604559   -1.210363    0.210466
      9          6           0       -2.604559    1.210363    0.210466
     10          6           0       -3.281727    0.000000    0.357011
     11          1           0       -0.701277   -2.144212   -0.218717
     12          1           0       -3.138340   -2.148165    0.311161
     13          1           0       -0.701277    2.144212   -0.218717
     14          1           0       -3.138340    2.148165    0.311161
     15          1           0       -4.342896    0.000000    0.578670
     16          1           0        3.650395    0.000000    1.089172
     17          1           0        1.811582   -1.220587    2.149916
     18          1           0        1.811582    1.220587    2.149916
 ---------------------------------------------------------------------

 SCF Done:  E(RHF) =  -1068.21413878     A.U. after    2 cycles

 The electronic state is 1-A.
 Alpha  occ. eigenvalues --  -93.76439 -69.11606 -20.55363 -20.55362 -11.28874
 Alpha  occ. eigenvalues --  -11.27778 -11.27767 -11.27532 -11.26927 -11.26918
 Alpha  occ. eigenvalues --   -9.03398  -6.86831  -6.38030  -6.37786  -6.37656
 Alpha  occ. eigenvalues --   -3.97636  -3.97537  -3.97536  -1.40473  -1.29614
 Alpha  occ. eigenvalues --   -1.17382  -1.05188  -1.03925  -0.91466  -0.85826
 Alpha  occ. eigenvalues --   -0.82757  -0.75944  -0.72924  -0.67683  -0.66879
 Alpha  occ. eigenvalues --   -0.64877  -0.64441  -0.63611  -0.62113  -0.55350
 Alpha  occ. eigenvalues --   -0.54002  -0.53616  -0.52628  -0.51933  -0.51294
 Alpha  occ. eigenvalues --   -0.49720  -0.48797  -0.41880  -0.37242  -0.36594
 Alpha virt. eigenvalues --    0.02559   0.03327   0.03805   0.04835   0.05729
 Alpha virt. eigenvalues --    0.05871   0.05903   0.07059   0.07519   0.07706
 Alpha virt. eigenvalues --    0.08630   0.08746   0.09476   0.11183   0.11689

 Mulliken charges:
               1
     1  S    2.618583
     2  Si   0.132302
     3  O   -1.187157
     4  O   -1.187157
     5  C    0.158399
     6  C   -0.010499
     7  C   -0.010500
     8  C    0.644551
     9  C    0.644550
    10  C    0.418618
    11  H   -0.522126
    12  H   -0.439972
    13  H   -0.522125
    14  H   -0.439972
    15  H   -0.429678
    16  H    0.007719
    17  H    0.062233
    18  H    0.062233
 Sum of Mulliken charges =  -0.00000

 Dipole moment (field-independent basis, Debye):
    X=             -3.0938    Y=             -0.0000    Z=              5.0674  Tot=              5.9372

 Test job not archived.
 1\1\GINC-SE103\SP\RHF\Aug-CC-pVDZ\C6H8O2S1Si1\OHZDE\09-Apr-2025\0\\#t
 hf aug-cc-pvdz iop(5/13=1,5/36=2,99/5=2) pseudo=read geom=check guess=
 (read,tcheck) scf=(maxcycle=1)\\title\\0,1\S,0,-1.187309,0.,-0.571152\
 Si,0,-2.214706,0.,1.424868\O,0,-1.503084,-1.271716,-1.214454\O,0,-1.50
 3084,1.271716,-1.214454\C,0,0.57524,0.,-0.21286\C,0,1.242259,1.217104,
 -0.076793\C,0,1.242259,-1.217104,-0.076792\C,0,2.604559,1.210363,0.210
 466\C,0,2.604559,-1.210363,0.210466\C,0,3.281727,0.,0.357011\H,0,0.701
 277,2.144212,-0.218717\H,0,3.13834,2.148165,0.311161\H,0,0.701277,-2.1

 Normal termination of Gaussian 16 at Wed Apr  9 00:15:53 2025.
