 Gaussian 16, Revision C.01,

 ----------------------------------------------------------------------
 #t hf aug-cc-pvdz symm=none int=(grid=ultrafine) guess=(read,tcheck) s
 table=(opt,rrhf)
 ----------------------------------------------------------------------
 -----
 title
 -----
 Symbolic Z-matrix:
 Charge =  0 Multiplicity = 1

 SCF Done:  E(RHF) =  -456.376253509     A.U. after   12 cycles
 Normal termination of Gaussian 16 at Tue Apr  8 23:38:06 2025.
 Gaussian 16:  ES64L-G16RevC.01  3-Jul-2019

 ----------------------------------------------------------------------
 #t hf aug-cc-pvdz iop(5/13=1,5/36=2,99/5=2) pseudo=read geom=check gue
 ss=(read,tcheck) scf=(maxcycle=1)
 ----------------------------------------------------------------------
 -----
 title
 -----
 Structure from the checkpoint file:  "BDE49_nonexpt_1599_mol1.chk"
 Charge =  0 Multiplicity = 1

                         Standard orientation:
 ---------------------------------------------------------------------
 Center     Atomic      Atomic             Coordinates (Angstroms)
 Number     Number       Type             X           Y           Z
 ---------------------------------------------------------------------
      1          6           0        1.606122   -0.209834   -0.019991
      2          8           0        0.425139    0.585685    0.078126
      3          1           0        1.798089   -0.754165    0.912122
      4          1           0        2.435442    0.474098   -0.204288
      5          1           0        1.543588   -0.929697   -0.844699
      6         15           0       -1.037346   -0.195475   -0.088316
      7          1           0       -1.796888    0.979413   -0.320262
      8          1           0       -1.457885   -0.264004    1.276807
 ---------------------------------------------------------------------

 SCF Done:  E(RHF) =  -456.444290537     A.U. after    2 cycles

 The electronic state is 1-A.
 Alpha  occ. eigenvalues --  -81.29783 -20.58118 -11.29482  -7.79544  -4.93688
 Alpha  occ. eigenvalues --   -4.93372  -4.93135  -1.32010  -0.94168  -0.78589
 Alpha  occ. eigenvalues --   -0.65553  -0.64881  -0.61939  -0.52922  -0.51250
 Alpha  occ. eigenvalues --   -0.45807  -0.35978
 Alpha virt. eigenvalues --    0.03539   0.04911   0.05953   0.06324   0.07589
 Alpha virt. eigenvalues --    0.08109   0.10681   0.11185   0.14046   0.15039
 Alpha virt. eigenvalues --    0.16627   0.17190   0.18266   0.20314   0.20991

 Mulliken charges:
               1
     1  C    0.784836
     2  O   -0.857027
     3  H   -0.095813
     4  H   -0.213996
     5  H   -0.111899
     6  P    0.451747
     7  H    0.018488
     8  H    0.023663
 Sum of Mulliken charges =  -0.00000

 Dipole moment (field-independent basis, Debye):
    X=              0.5264    Y=             -0.7392    Z=              0.1889  Tot=              0.9269

 Test job not archived.
 1\1\GINC-SE226\SP\RHF\Aug-CC-pVDZ\C1H5O1P1\OHZDE\08-Apr-2025\0\\#t hf
 aug-cc-pvdz iop(5/13=1,5/36=2,99/5=2) pseudo=read geom=check guess=(re
 ad,tcheck) scf=(maxcycle=1)\\title\\0,1\C,0,1.606122,-0.209834,-0.0199
 91\O,0,0.425139,0.585685,0.078126\H,0,1.798089,-0.754165,0.912122\H,0,
 2.435442,0.474098,-0.204288\H,0,1.543588,-0.929697,-0.844699\P,0,-1.03
 7346,-0.195475,-0.088316\H,0,-1.796888,0.979413,-0.320262\H,0,-1.45788
 5,-0.264004,1.276807\\Version=ES64L-G16RevC.01\State=1-A\HF=-456.44429
 05\RMSD=8.432e-03\Dipole=0.2071105,-0.290824,0.0743098\Quadrupole=2.45

 Normal termination of Gaussian 16 at Tue Apr  8 23:38:08 2025.
