 Gaussian 16, Revision C.01,

 ----------------------------------------------------------------------
 #t hf aug-cc-pvdz symm=none int=(grid=ultrafine) guess=(read,tcheck) s
 table=(opt,rrhf)
 ----------------------------------------------------------------------
 -----
 title
 -----
 Symbolic Z-matrix:
 Charge =  0 Multiplicity = 1

 SCF Done:  E(RHF) =  -2373.81459760     A.U. after   13 cycles

 1\1\GINC-SE045\Stability\RHF\Aug-CC-pVDZ\C2H1Cl5\OHZDE\08-Apr-2025\0\\
 #t hf aug-cc-pvdz symm=none int=(grid=ultrafine) guess=(read,tcheck) s
 table=(opt,rrhf)\\title\\0,1\C,0,-0.619654,-0.000012,0.001656\C,0,0.81
 9312,-0.000009,-0.590877\Cl,0,-1.484418,1.45337,-0.604303\Cl,0,-0.6117
 42,-0.000409,1.782014\Cl,0,-1.484725,-1.45294,-0.604954\H,0,0.732142,0
 .000008,-1.673104\Cl,0,1.733687,-1.46511,-0.133202\Cl,0,1.733663,1.465
 096,-0.133176\\Version=ES64L-G16RevC.01\HF=-2373.8145976\RMSD=2.986e-0
 9\Dipole=-0.0535337,0.0000003,-0.3878637\Quadrupole=-1.6235754,-0.0816

 Normal termination of Gaussian 16 at Tue Apr  8 22:38:50 2025.
 Gaussian 16:  ES64L-G16RevC.01  3-Jul-2019

 ----------------------------------------------------------------------
 #t hf aug-cc-pvdz iop(5/13=1,5/36=2,99/5=2) pseudo=read geom=check gue
 ss=(read,tcheck) scf=(maxcycle=1)
 ----------------------------------------------------------------------
 -----
 title
 -----
 Structure from the checkpoint file:  "BDE49_expt_131_mol1.chk"
 Charge =  0 Multiplicity = 1

                         Standard orientation:
 ---------------------------------------------------------------------
 Center     Atomic      Atomic             Coordinates (Angstroms)
 Number     Number       Type             X           Y           Z
 ---------------------------------------------------------------------
      1          6           0       -0.619654   -0.000012    0.001656
      2          6           0        0.819312   -0.000009   -0.590877
      3         17           0       -1.484419    1.453369   -0.604303
      4         17           0       -0.611742   -0.000409    1.782014
      5         17           0       -1.484724   -1.452941   -0.604954
      6          1           0        0.732142    0.000008   -1.673104
      7         17           0        1.733688   -1.465109   -0.133202
      8         17           0        1.733662    1.465097   -0.133176
 ---------------------------------------------------------------------

 SCF Done:  E(RHF) =  -2373.92826002     A.U. after    2 cycles

 The electronic state is 1-A.
 Alpha  occ. eigenvalues -- -103.70246-103.70246-103.70058-103.69229-103.69228
 Alpha  occ. eigenvalues --  -11.47569 -11.41887 -10.73544 -10.73530 -10.73360
 Alpha  occ. eigenvalues --  -10.72528 -10.72514  -8.39256  -8.39250  -8.39083
 Alpha  occ. eigenvalues --   -8.38916  -8.38915  -8.38909  -8.38905  -8.38735
 Alpha  occ. eigenvalues --   -8.38732  -8.38246  -8.38241  -8.37916  -8.37915
 Alpha  occ. eigenvalues --   -8.37904  -8.37904  -1.29337  -1.22621  -1.17538
 Alpha  occ. eigenvalues --   -1.17137  -1.15415  -0.98666  -0.83134  -0.70844
 Alpha  occ. eigenvalues --   -0.67675  -0.67173  -0.62323  -0.59918  -0.52983
 Alpha  occ. eigenvalues --   -0.52474  -0.51452  -0.50580  -0.49687  -0.49031
 Alpha  occ. eigenvalues --   -0.48867  -0.47553  -0.47538  -0.46221
 Alpha virt. eigenvalues --    0.04237   0.06247   0.06969   0.07105   0.08841
 Alpha virt. eigenvalues --    0.09372   0.09650   0.11471   0.11909   0.14137
 Alpha virt. eigenvalues --    0.14170   0.14215   0.15497   0.16298   0.16988

 Mulliken charges:
               1
     1  C   -0.337293
     2  C    0.018511
     3  Cl   0.057126
     4  Cl   0.029499
     5  Cl   0.057136
     6  H    0.159842
     7  Cl   0.007594
     8  Cl   0.007585
 Sum of Mulliken charges =  -0.00000

 Dipole moment (field-independent basis, Debye):
    X=             -0.1365    Y=             -0.0000    Z=             -1.0299  Tot=              1.0389

 Test job not archived.
 1\1\GINC-SE045\SP\RHF\Aug-CC-pVDZ\C2H1Cl5\OHZDE\08-Apr-2025\0\\#t hf a
 ug-cc-pvdz iop(5/13=1,5/36=2,99/5=2) pseudo=read geom=check guess=(rea
 d,tcheck) scf=(maxcycle=1)\\title\\0,1\C,0,-0.619654,-0.000012,0.00165
 6\C,0,0.819312,-0.000009,-0.590877\Cl,0,-1.484418,1.45337,-0.604303\Cl
 ,0,-0.611742,-0.000409,1.782014\Cl,0,-1.484725,-1.45294,-0.604954\H,0,
 0.732142,0.000008,-1.673104\Cl,0,1.733687,-1.46511,-0.133202\Cl,0,1.73
 3663,1.465096,-0.133176\\Version=ES64L-G16RevC.01\State=1-A\HF=-2373.9
 2826\RMSD=4.841e-03\Dipole=-0.0537049,0.,-0.4052002\Quadrupole=-1.6713

 Normal termination of Gaussian 16 at Tue Apr  8 22:38:55 2025.
