 Gaussian 16, Revision C.01,

 ----------------------------------------------------------------------
 #t hf aug-cc-pvdz symm=none int=(grid=ultrafine) guess=(read,tcheck) s
 table=opt
 ----------------------------------------------------------------------
 -----
 title
 -----
 Symbolic Z-matrix:
 Charge =  0 Multiplicity = 2

 SCF Done:  E(UHF) =  -1512.37595505     A.U. after   15 cycles
 Normal termination of Gaussian 16 at Tue Apr  8 23:30:01 2025.
 Gaussian 16:  ES64L-G16RevC.01  3-Jul-2019

 ----------------------------------------------------------------------
 #t hf aug-cc-pvdz iop(5/13=1,5/36=2,99/5=2) pseudo=read geom=check gue
 ss=(read,tcheck) scf=(maxcycle=1)
 ----------------------------------------------------------------------
 -----
 title
 -----
 Structure from the checkpoint file:  "BDE49_expt_804_mol2.chk"
 Charge =  0 Multiplicity = 2

                         Standard orientation:
 ---------------------------------------------------------------------
 Center     Atomic      Atomic             Coordinates (Angstroms)
 Number     Number       Type             X           Y           Z
 ---------------------------------------------------------------------
      1         14           0        1.963816   -1.276781   -0.020293
      2         14           0        0.000224   -0.000800   -0.351817
      3          6           0        2.640654   -1.057976    1.734882
      4          6           0        3.303107   -0.743088   -1.244110
      5          6           0        1.606182   -3.113561   -0.295435
      6         14           0        0.124419    2.338293   -0.020495
      7         14           0       -2.087618   -1.061847   -0.020364
      8          1           0        0.868358   -3.495682    0.415191
      9          1           0        2.523767   -3.697885   -0.165703
     10          1           0        1.230948   -3.302806   -1.304802
     11          1           0        2.893987   -0.014242    1.941277
     12          1           0        3.550300   -1.654346    1.869040
     13          1           0        1.914937   -1.379256    2.486840
     14          1           0        3.565179    0.311242   -1.122713
     15          1           0        2.977120   -0.889259   -2.277550
     16          1           0        4.213688   -1.333199   -1.091705
     17          6           0       -2.243135   -1.744101    1.739740
     18          1           0       -3.214629   -2.233529    1.873278
     19          1           0       -2.162640   -0.949038    2.486234
     20          1           0       -1.466336   -2.483092    1.955626
     21          6           0       -2.291488   -2.497428   -1.234650
     22          1           0       -2.248106   -2.150849   -2.270823
     23          1           0       -3.259999   -2.987208   -1.083944
     24          1           0       -1.512115   -3.252483   -1.102307
     25          6           0       -3.498321    0.164562   -0.309086
     26          1           0       -3.472600    0.575551   -1.321974
     27          1           0       -3.461113    1.000667    0.394549
     28          1           0       -4.463515   -0.336797   -0.177311
     29          6           0       -0.411126    2.814624    1.732829
     30          1           0       -1.441443    2.509596    1.935967
     31          1           0       -0.353083    3.900806    1.866733
     32          1           0        0.228815    2.349054    2.487388
     33          6           0        1.895451    2.946762   -0.287532
     34          1           0        2.592846    2.495905    0.423993
     35          1           0        1.942044    4.033190   -0.153788
     36          1           0        2.251036    2.720502   -1.296432
     37          6           0       -1.002383    3.231709   -1.249170
     38          1           0       -2.047437    2.933007   -1.131267
     39          1           0       -0.709648    3.021603   -2.281558
     40          1           0       -0.945760    4.315410   -1.097481
 ---------------------------------------------------------------------

 SCF Done:  E(UHF) =  -1512.57707356     A.U. after    2 cycles

 The electronic state is 2-A.
 Alpha  occ. eigenvalues --  -69.04761 -69.04755 -69.04747 -69.02237 -11.20894
 Alpha  occ. eigenvalues --  -11.20882 -11.20880 -11.20864 -11.20862 -11.20858
 Alpha  occ. eigenvalues --  -11.20667 -11.20666 -11.20661  -6.79878  -6.79872
 Alpha  occ. eigenvalues --   -6.79859  -6.77987  -3.90632  -3.90628  -3.90621
 Alpha  occ. eigenvalues --   -3.90619  -3.90614  -3.90608  -3.90573  -3.90568
 Alpha  occ. eigenvalues --   -3.90561  -3.89351  -3.88376  -3.88375  -0.96066
 Alpha  occ. eigenvalues --   -0.95410  -0.95409  -0.91665  -0.91661  -0.91605
 Alpha  occ. eigenvalues --   -0.91470  -0.91468  -0.91340  -0.69129  -0.61370
 Alpha  occ. eigenvalues --   -0.61370  -0.58603  -0.57106  -0.57106  -0.56464
 Alpha  occ. eigenvalues --   -0.56459  -0.56347  -0.55921  -0.55918  -0.55913
 Alpha  occ. eigenvalues --   -0.54377  -0.54264  -0.54259  -0.53881  -0.53876
 Alpha  occ. eigenvalues --   -0.53498  -0.53086  -0.52934  -0.52925  -0.52095
 Alpha  occ. eigenvalues --   -0.43399  -0.43266  -0.43261  -0.42779  -0.42776
 Alpha  occ. eigenvalues --   -0.42485  -0.34327  -0.34321  -0.27311
 Alpha virt. eigenvalues --    0.02796   0.03659   0.03660   0.04195   0.05237
 Alpha virt. eigenvalues --    0.05238   0.05557   0.05667   0.05667   0.06765
 Alpha virt. eigenvalues --    0.07096   0.07369   0.07374   0.07421   0.07426

  Beta  occ. eigenvalues --  -69.04801 -69.04795 -69.04787 -69.01728 -11.20899
  Beta  occ. eigenvalues --  -11.20887 -11.20885 -11.20802 -11.20800 -11.20796
  Beta  occ. eigenvalues --  -11.20658 -11.20657 -11.20652  -6.79938  -6.79932
  Beta  occ. eigenvalues --   -6.79919  -6.77294  -3.90705  -3.90701  -3.90694
  Beta  occ. eigenvalues --   -3.90661  -3.90657  -3.90653  -3.90650  -3.90648
  Beta  occ. eigenvalues --   -3.90642  -3.87991  -3.87991  -3.87189  -0.95970
  Beta  occ. eigenvalues --   -0.95364  -0.95362  -0.91636  -0.91633  -0.91495
  Beta  occ. eigenvalues --   -0.91383  -0.91380  -0.91326  -0.66165  -0.61417
  Beta  occ. eigenvalues --   -0.61417  -0.58350  -0.57064  -0.57063  -0.56433
  Beta  occ. eigenvalues --   -0.56428  -0.56254  -0.55893  -0.55889  -0.55839
  Beta  occ. eigenvalues --   -0.54233  -0.54228  -0.54176  -0.53805  -0.53799
  Beta  occ. eigenvalues --   -0.53485  -0.53068  -0.52912  -0.52904  -0.49302
  Beta  occ. eigenvalues --   -0.43218  -0.43213  -0.42768  -0.42537  -0.42535
  Beta  occ. eigenvalues --   -0.42489  -0.33747  -0.33740
  Beta virt. eigenvalues --    0.02809   0.03540   0.03661   0.03662   0.05242
  Beta virt. eigenvalues --    0.05243   0.05497   0.05684   0.05684   0.05953
  Beta virt. eigenvalues --    0.06765   0.07103   0.07374   0.07378   0.07425

 Mulliken charges and spin densities:
               1          2
     1  Si   1.106872  -0.178997
     2  Si   0.583385   1.576578
     3  C    0.638654   0.020108
     4  C    0.608507  -0.016270
     5  C    0.691342   0.005316
     6  Si   1.112797  -0.178283
     7  Si   1.107145  -0.179384
     8  H   -0.364373   0.007524
     9  H   -0.370182  -0.003266
    10  H   -0.320721  -0.001870
    11  H   -0.390838  -0.002327
    12  H   -0.343911   0.002639
    13  H   -0.369562  -0.013050
    14  H   -0.385312   0.005321
    15  H   -0.358756  -0.013065
    16  H   -0.335197  -0.004057
    17  C    0.636035   0.020089
    18  H   -0.344646   0.002643
    19  H   -0.369177  -0.012897
    20  H   -0.388750  -0.002517
    21  C    0.608572  -0.016316
    22  H   -0.358389  -0.012831
    23  H   -0.336017  -0.004095
    24  H   -0.385837   0.005294
    25  C    0.689955   0.005146
    26  H   -0.321512  -0.002109
    27  H   -0.366267   0.007518
    28  H   -0.367664  -0.003287
    29  C    0.637154   0.019907
    30  H   -0.391004  -0.002391
    31  H   -0.343696   0.002631
    32  H   -0.369436  -0.012959
    33  C    0.690265   0.005341
    34  H   -0.367682   0.007466
    35  H   -0.367299  -0.003244
    36  H   -0.321574  -0.001958
    37  C    0.606438  -0.016500
    38  H   -0.385066   0.005247
    39  H   -0.358185  -0.013028
    40  H   -0.336066  -0.004068
 Sum of Mulliken charges =  -0.00000   1.00000

 Dipole moment (field-independent basis, Debye):
    X=              0.0010    Y=              0.0003    Z=              0.2320  Tot=              0.2320
                          Isotropic Fermi Contact Couplings
        Atom                 a.u.       MegaHertz       Gauss      10(-4) cm-1
     1  Si(29)            -0.04090      36.34925      12.97032      12.12481
     2  Si(29)             0.24903    -221.32306     -78.97357     -73.82543
     3  C(13)              0.01561      17.54539       6.26063       5.85251
     4  C(13)              0.00306       3.44194       1.22817       1.14811
     5  C(13)             -0.00140      -1.57754      -0.56290      -0.52621
     6  Si(29)            -0.04088      36.33513      12.96528      12.12009
     7  Si(29)            -0.04088      36.33472      12.96513      12.11996
     8  H(1)               0.00006       0.27886       0.09950       0.09302

 Normal termination of Gaussian 16 at Tue Apr  8 23:31:12 2025.
