 Gaussian 16, Revision C.01,

 ----------------------------------------------------------------------
 #t hf aug-cc-pvdz symm=none int=(grid=ultrafine) guess=(read,tcheck) s
 table=(opt,rrhf)
 ----------------------------------------------------------------------
 -----
 title
 -----
 Symbolic Z-matrix:
 Charge =  0 Multiplicity = 1

 SCF Done:  E(RHF) =  -309.104423159     A.U. after   14 cycles

 1\1\GINC-SE072\Stability\RHF\Aug-CC-pVDZ\C6H12O1\OHZDE\08-Apr-2025\0\\
 #t hf aug-cc-pvdz symm=none int=(grid=ultrafine) guess=(read,tcheck) s
 table=(opt,rrhf)\\title\\0,1\C,0,1.125006,0.231028,-0.408964\C,0,2.102
 991,-0.947171,-0.473208\C,0,-0.262168,-0.228682,0.055923\O,0,-0.390104
 ,-1.056479,0.930812\C,0,-1.461832,0.422581,-0.617213\H,0,1.786143,-1.6
 8859,-1.211661\H,0,2.155897,-1.444911,0.496734\H,0,3.103786,-0.602645,
 -0.746905\C,0,1.623172,1.324887,0.557922\H,0,1.022315,0.677675,-1.4049
 15\H,0,2.598299,1.699991,0.236518\H,0,1.727309,0.918439,1.567173\H,0,0

 Normal termination of Gaussian 16 at Tue Apr  8 22:32:08 2025.
 Gaussian 16:  ES64L-G16RevC.01  3-Jul-2019

 ----------------------------------------------------------------------
 #t hf aug-cc-pvdz iop(5/13=1,5/36=2,99/5=2) pseudo=read geom=check gue
 ss=(read,tcheck) scf=(maxcycle=1)
 ----------------------------------------------------------------------
 -----
 title
 -----
 Structure from the checkpoint file:  "BDE49_expt_1091_mol1.chk"
 Charge =  0 Multiplicity = 1

                         Standard orientation:
 ---------------------------------------------------------------------
 Center     Atomic      Atomic             Coordinates (Angstroms)
 Number     Number       Type             X           Y           Z
 ---------------------------------------------------------------------
      1          6           0        1.125006    0.231028   -0.408964
      2          6           0        2.102991   -0.947171   -0.473208
      3          6           0       -0.262168   -0.228682    0.055923
      4          8           0       -0.390104   -1.056479    0.930812
      5          6           0       -1.461832    0.422581   -0.617213
      6          1           0        1.786143   -1.688590   -1.211661
      7          1           0        2.155897   -1.444911    0.496734
      8          1           0        3.103786   -0.602645   -0.746905
      9          6           0        1.623172    1.324887    0.557922
     10          1           0        1.022315    0.677675   -1.404915
     11          1           0        2.598299    1.699991    0.236518
     12          1           0        1.727309    0.918439    1.567173
     13          1           0        0.936605    2.175087    0.603074
     14          6           0       -2.802441    0.061455    0.014961
     15          1           0       -1.431302    0.123106   -1.674008
     16          1           0       -1.300913    1.508029   -0.628576
     17          1           0       -2.950958   -1.019647    0.017405
     18          1           0       -3.627265    0.524925   -0.531522
     19          1           0       -2.847454    0.395789    1.053653
 ---------------------------------------------------------------------

 SCF Done:  E(RHF) =  -309.202460723     A.U. after    2 cycles

 The electronic state is 1-A.
 Alpha  occ. eigenvalues --  -20.55680 -11.33445 -11.25081 -11.24812 -11.23733
 Alpha  occ. eigenvalues --  -11.22697 -11.22690  -1.34932  -1.07794  -1.03825
 Alpha  occ. eigenvalues --   -0.93439  -0.90466  -0.82274  -0.72681  -0.67929
 Alpha  occ. eigenvalues --   -0.63686  -0.62944  -0.61200  -0.57222  -0.55652
 Alpha  occ. eigenvalues --   -0.54790  -0.52985  -0.52128  -0.51113  -0.49568
 Alpha  occ. eigenvalues --   -0.48479  -0.48031  -0.40908
 Alpha virt. eigenvalues --    0.03097   0.04000   0.04445   0.04852   0.06000
 Alpha virt. eigenvalues --    0.06298   0.06549   0.07062   0.07808   0.08578
 Alpha virt. eigenvalues --    0.08964   0.09467   0.12207   0.13083   0.14119

 Mulliken charges:
               1
     1  C   -0.781535
     2  C    0.770631
     3  C   -0.177060
     4  O   -0.535635
     5  C    0.112510
     6  H   -0.055451
     7  H    0.013850
     8  H   -0.037896
     9  C    0.689859
    10  H   -0.158765
    11  H   -0.082347
    12  H    0.030240
    13  H   -0.115348
    14  C    0.474410
    15  H    0.047278
    16  H   -0.045387
    17  H   -0.055604
    18  H   -0.034102
    19  H   -0.059651
 Sum of Mulliken charges =  -0.00000

 Dipole moment (field-independent basis, Debye):
    X=              0.4146    Y=              2.2716    Z=             -2.2796  Tot=              3.2448

 Test job not archived.
 1\1\GINC-SE072\SP\RHF\Aug-CC-pVDZ\C6H12O1\OHZDE\08-Apr-2025\0\\#t hf a
 ug-cc-pvdz iop(5/13=1,5/36=2,99/5=2) pseudo=read geom=check guess=(rea
 d,tcheck) scf=(maxcycle=1)\\title\\0,1\C,0,1.125006,0.231028,-0.408964
 \C,0,2.102991,-0.947171,-0.473208\C,0,-0.262168,-0.228682,0.055923\O,0
 ,-0.390104,-1.056479,0.930812\C,0,-1.461832,0.422581,-0.617213\H,0,1.7
 86143,-1.68859,-1.211661\H,0,2.155897,-1.444911,0.496734\H,0,3.103786,
 -0.602645,-0.746905\C,0,1.623172,1.324887,0.557922\H,0,1.022315,0.6776
 75,-1.404915\H,0,2.598299,1.699991,0.236518\H,0,1.727309,0.918439,1.56

 Normal termination of Gaussian 16 at Tue Apr  8 22:32:15 2025.
