 Gaussian 16, Revision C.01,

 ----------------------------------------------------------------------
 #t hf aug-cc-pvdz symm=none int=(grid=ultrafine) guess=(read,tcheck) s
 table=(opt,rrhf)
 ----------------------------------------------------------------------
 -----
 title
 -----
 Symbolic Z-matrix:
 Charge =  0 Multiplicity = 1

 SCF Done:  E(RHF) =  -1601.90187666     A.U. after   16 cycles
 Normal termination of Gaussian 16 at Wed Apr  9 00:12:18 2025.
 Gaussian 16:  ES64L-G16RevC.01  3-Jul-2019

 ----------------------------------------------------------------------
 #t hf aug-cc-pvdz iop(5/13=1,5/36=2,99/5=2) pseudo=read geom=check gue
 ss=(read,tcheck) scf=(maxcycle=1)
 ----------------------------------------------------------------------
 -----
 title
 -----
 Structure from the checkpoint file:  "BDE49_nonexpt_2433_mol1.chk"
 Charge =  0 Multiplicity = 1

                         Standard orientation:
 ---------------------------------------------------------------------
 Center     Atomic      Atomic             Coordinates (Angstroms)
 Number     Number       Type             X           Y           Z
 ---------------------------------------------------------------------
      1         14           0       -1.093741   -1.294599   -0.652677
      2         14           0        0.856451   -1.148831    0.676087
      3          6           0        1.844446    0.390228    0.033364
      4          1           0        1.714340   -2.351637    0.570304
      5          1           0        0.550164   -0.877671    2.098459
      6          8           0        1.288513    1.427747   -0.244784
      7         16           0        3.633030    0.182895   -0.121622
      8          1           0        3.860034    1.441116   -0.547334
      9          6           0       -2.502675   -0.120174   -0.023523
     10          1           0       -1.642723   -2.666243   -0.627976
     11          1           0       -0.730850   -0.908284   -2.036027
     12          8           0       -3.589356   -0.570672    0.234656
     13         16           0       -2.206763    1.657716    0.146612
     14          1           0       -0.893062    1.644047   -0.163025
 ---------------------------------------------------------------------

 SCF Done:  E(RHF) =  -1602.05024660     A.U. after    2 cycles

 The electronic state is 1-A.
 Alpha  occ. eigenvalues --  -93.57783 -93.55529 -69.10536 -69.10016 -20.61138
 Alpha  occ. eigenvalues --  -20.59208 -11.39596 -11.37758  -8.87664  -8.85391
 Alpha  occ. eigenvalues --   -6.85945  -6.85390  -6.21805  -6.21575  -6.21256
 Alpha  occ. eigenvalues --   -6.19505  -6.19327  -6.18996  -3.96729  -3.96670
 Alpha  occ. eigenvalues --   -3.96645  -3.96151  -3.96115  -3.96101  -1.39957
 Alpha  occ. eigenvalues --   -1.38179  -1.02647  -1.00593  -0.83706  -0.80286
 Alpha  occ. eigenvalues --   -0.74664  -0.70618  -0.66376  -0.65636  -0.63134
 Alpha  occ. eigenvalues --   -0.61104  -0.59822  -0.58121  -0.53779  -0.52371
 Alpha  occ. eigenvalues --   -0.51637  -0.50366  -0.44538  -0.41545  -0.41009
 Alpha  occ. eigenvalues --   -0.39375  -0.38660
 Alpha virt. eigenvalues --    0.03004   0.03992   0.04379   0.05134   0.05358
 Alpha virt. eigenvalues --    0.06053   0.06673   0.07141   0.07415   0.07730
 Alpha virt. eigenvalues --    0.07903   0.08482   0.08765   0.09439   0.10225

 Mulliken charges:
               1
     1  Si  -0.021818
     2  Si   0.212732
     3  C   -0.196310
     4  H    0.036635
     5  H    0.118308
     6  O   -0.509142
     7  S    0.220726
     8  H    0.103955
     9  C   -0.086799
    10  H    0.086106
    11  H    0.187554
    12  O   -0.516272
    13  S    0.288293
    14  H    0.076031
 Sum of Mulliken charges =   0.00000

 Dipole moment (field-independent basis, Debye):
    X=              4.5239    Y=             -1.6513    Z=             -0.4366  Tot=              4.8356

 Test job not archived.
 1\1\GINC-SE343\SP\RHF\Aug-CC-pVDZ\C2H6O2S2Si2\OHZDE\09-Apr-2025\0\\#t
 hf aug-cc-pvdz iop(5/13=1,5/36=2,99/5=2) pseudo=read geom=check guess=
 (read,tcheck) scf=(maxcycle=1)\\title\\0,1\Si,0,1.093741,-1.294599,0.6
 52677\Si,0,-0.856451,-1.148831,-0.676087\C,0,-1.844446,0.390228,-0.033
 364\H,0,-1.71434,-2.351637,-0.570304\H,0,-0.550164,-0.877671,-2.098459
 \O,0,-1.288513,1.427747,0.244784\S,0,-3.63303,0.182895,0.121622\H,0,-3
 .860034,1.441116,0.547334\C,0,2.502675,-0.120174,0.023523\H,0,1.642723
 ,-2.666243,0.627976\H,0,0.73085,-0.908284,2.036027\O,0,3.589356,-0.570

 Normal termination of Gaussian 16 at Wed Apr  9 00:12:23 2025.
