 Gaussian 16, Revision C.01,

 ----------------------------------------------------------------------
 #t hf aug-cc-pvdz symm=none int=(grid=ultrafine) guess=(read,tcheck) s
 table=(opt,rrhf)
 ----------------------------------------------------------------------
 -----
 title
 -----
 Symbolic Z-matrix:
 Charge =  0 Multiplicity = 1

 SCF Done:  E(RHF) =  -803.398874385     A.U. after   15 cycles
 Normal termination of Gaussian 16 at Wed Apr  9 00:22:34 2025.
 Gaussian 16:  ES64L-G16RevC.01  3-Jul-2019

 ----------------------------------------------------------------------
 #t hf aug-cc-pvdz iop(5/13=1,5/36=2,99/5=2) pseudo=read geom=check gue
 ss=(read,tcheck) scf=(maxcycle=1)
 ----------------------------------------------------------------------
 -----
 title
 -----
 Structure from the checkpoint file:  "BDE49_nonexpt_2679_mol1.chk"
 Charge =  0 Multiplicity = 1

                         Standard orientation:
 ---------------------------------------------------------------------
 Center     Atomic      Atomic             Coordinates (Angstroms)
 Number     Number       Type             X           Y           Z
 ---------------------------------------------------------------------
      1          9           0        2.405173   -0.191014    0.299181
      2         16           0        1.227329   -0.517672   -0.851254
      3          6           0       -0.259311   -0.194887    0.226151
      4          8           0       -1.223295   -0.312930   -0.797698
      5          8           0       -0.261625    1.048993    0.839317
      6          6           0       -2.589493   -0.399649   -0.383702
      7          1           0       -3.183238   -0.303806   -1.291494
      8          1           0       -2.841541    0.412063    0.304368
      9          1           0       -2.806618   -1.362953    0.087565
     10          6           0       -0.048984    2.199488    0.012803
     11          1           0       -0.377475    3.052418    0.605455
     12          1           0       -0.632287    2.139719   -0.908086
     13          1           0        1.011290    2.304678   -0.226787
     14          6           0       -0.350791   -1.225137    1.340561
     15          1           0       -0.502809   -2.220542    0.923421
     16          1           0       -1.164430   -0.973848    2.024226
     17          1           0        0.584125   -1.213249    1.900929
 ---------------------------------------------------------------------

 SCF Done:  E(RHF) =  -803.554964282     A.U. after    2 cycles

 The electronic state is 1-A.
 Alpha  occ. eigenvalues --  -93.60886 -26.11687 -20.60255 -20.59589 -11.40088
 Alpha  occ. eigenvalues --  -11.30280 -11.28888 -11.24247  -8.89795  -6.24005
 Alpha  occ. eigenvalues --   -6.23605  -6.23212  -1.62668  -1.40040  -1.32881
 Alpha  occ. eigenvalues --   -1.05938  -0.98097  -0.94138  -0.92851  -0.80213
 Alpha  occ. eigenvalues --   -0.73801  -0.72882  -0.72059  -0.69896  -0.69186
 Alpha  occ. eigenvalues --   -0.64375  -0.62519  -0.62011  -0.60650  -0.56689
 Alpha  occ. eigenvalues --   -0.55310  -0.54314  -0.52655  -0.48492  -0.47918
 Alpha  occ. eigenvalues --   -0.43920  -0.37755
 Alpha virt. eigenvalues --    0.03189   0.04428   0.04625   0.05411   0.06298
 Alpha virt. eigenvalues --    0.06652   0.06936   0.07348   0.08154   0.09414
 Alpha virt. eigenvalues --    0.09817   0.11160   0.12909   0.13795   0.14457

 Mulliken charges:
               1
     1  F   -0.669586
     2  S    0.726919
     3  C   -0.022546
     4  O   -0.650644
     5  O   -0.681947
     6  C    0.838463
     7  H   -0.248315
     8  H   -0.054269
     9  H   -0.111280
    10  C    0.782074
    11  H   -0.229292
    12  H   -0.059015
    13  H   -0.094159
    14  C    0.535926
    15  H    0.005025
    16  H   -0.014507
    17  H   -0.052845
 Sum of Mulliken charges =  -0.00000

 Dipole moment (field-independent basis, Debye):
    X=             -3.5174    Y=              0.1492    Z=             -0.1791  Tot=              3.5251

 Test job not archived.
 1\1\GINC-SE059\SP\RHF\Aug-CC-pVDZ\C4H9F1O2S1\OHZDE\09-Apr-2025\0\\#t h
 f aug-cc-pvdz iop(5/13=1,5/36=2,99/5=2) pseudo=read geom=check guess=(
 read,tcheck) scf=(maxcycle=1)\\title\\0,1\F,0,2.405173,-0.191014,0.299
 181\S,0,1.227329,-0.517672,-0.851254\C,0,-0.259311,-0.194887,0.226151\
 O,0,-1.223295,-0.31293,-0.797698\O,0,-0.261625,1.048993,0.839317\C,0,-
 2.589493,-0.399649,-0.383702\H,0,-3.183238,-0.303806,-1.291494\H,0,-2.
 841541,0.412063,0.304368\H,0,-2.806618,-1.362953,0.087565\C,0,-0.04898
 4,2.199488,0.012803\H,0,-0.377475,3.052418,0.605455\H,0,-0.632287,2.13

 Normal termination of Gaussian 16 at Wed Apr  9 00:22:42 2025.
