 Gaussian 16, Revision C.01,

 ----------------------------------------------------------------------
 #t hf aug-cc-pvdz symm=none int=(grid=ultrafine) guess=(read,tcheck) s
 table=(opt,rrhf)
 ----------------------------------------------------------------------
 -----
 title
 -----
 Symbolic Z-matrix:
 Charge =  0 Multiplicity = 1

 SCF Done:  E(RHF) =  -613.230808931     A.U. after   14 cycles
 Normal termination of Gaussian 16 at Tue Apr  8 23:02:24 2025.
 Gaussian 16:  ES64L-G16RevC.01  3-Jul-2019

 ----------------------------------------------------------------------
 #t hf aug-cc-pvdz iop(5/13=1,5/36=2,99/5=2) pseudo=read geom=check gue
 ss=(read,tcheck) scf=(maxcycle=1)
 ----------------------------------------------------------------------
 -----
 title
 -----
 Structure from the checkpoint file:  "BDE49_expt_187_mol1.chk"
 Charge =  0 Multiplicity = 1

                         Standard orientation:
 ---------------------------------------------------------------------
 Center     Atomic      Atomic             Coordinates (Angstroms)
 Number     Number       Type             X           Y           Z
 ---------------------------------------------------------------------
      1          6           0        2.823755    0.971082    0.279931
      2          6           0        4.008708    0.366956    0.688730
      3          6           0        4.306743   -0.935712    0.288336
      4          6           0        3.408860   -1.631291   -0.516789
      5          6           0        2.218490   -1.026156   -0.918570
      6          6           0        1.916546    0.280752   -0.531038
      7          6           0        0.646106    0.959285   -1.007459
      8          8           0        0.000000    1.733699    0.000000
      9          1           0        3.629478   -2.647005   -0.826130
     10          1           0        1.516400   -1.576307   -1.537511
     11          1           0        2.585640    1.981070    0.594233
     12          1           0       -0.041312    0.214885   -1.428262
     13          1           0        0.880558    1.675721   -1.799915
     14          6           0       -0.646106    0.959285    1.007459
     15          1           0        4.703137    0.912680    1.318185
     16          1           0        5.230961   -1.405340    0.605988
     17          6           0       -1.916546    0.280752    0.531038
     18          1           0       -0.880558    1.675722    1.799915
     19          1           0        0.041312    0.214886    1.428262
     20          6           0       -2.823755    0.971082   -0.279931
     21          6           0       -4.008708    0.366956   -0.688730
     22          6           0       -4.306743   -0.935712   -0.288336
     23          6           0       -3.408860   -1.631291    0.516789
     24          6           0       -2.218490   -1.026156    0.918570
     25          1           0       -1.516399   -1.576307    1.537511
     26          1           0       -5.230961   -1.405340   -0.605988
     27          1           0       -3.629478   -2.647005    0.826131
     28          1           0       -2.585641    1.981070   -0.594233
     29          1           0       -4.703138    0.912680   -1.318185
 ---------------------------------------------------------------------

 SCF Done:  E(RHF) =  -613.411480955     A.U. after    2 cycles

 The electronic state is 1-A.
 Alpha  occ. eigenvalues --  -20.57455 -11.29122 -11.29093 -11.24925 -11.24924
 Alpha  occ. eigenvalues --  -11.24684 -11.24684 -11.24614 -11.24614 -11.24471
 Alpha  occ. eigenvalues --  -11.24471 -11.24427 -11.24427 -11.24123 -11.24123
 Alpha  occ. eigenvalues --   -1.33435  -1.14697  -1.14357  -1.04511  -1.02468
 Alpha  occ. eigenvalues --   -1.01003  -1.00982  -0.94999  -0.88860  -0.83245
 Alpha  occ. eigenvalues --   -0.82871  -0.81338  -0.78789  -0.71410  -0.69741
 Alpha  occ. eigenvalues --   -0.67821  -0.67221  -0.65134  -0.63893  -0.62746
 Alpha  occ. eigenvalues --   -0.61194  -0.60923  -0.59089  -0.59003  -0.57197
 Alpha  occ. eigenvalues --   -0.55141  -0.52203  -0.52019  -0.50111  -0.49694
 Alpha  occ. eigenvalues --   -0.49444  -0.49332  -0.47236  -0.44193  -0.34227
 Alpha  occ. eigenvalues --   -0.34074  -0.33509  -0.33465
 Alpha virt. eigenvalues --    0.03076   0.03588   0.04014   0.04385   0.04653
 Alpha virt. eigenvalues --    0.05082   0.05694   0.06034   0.06479   0.06741
 Alpha virt. eigenvalues --    0.07888   0.08148   0.08972   0.09461   0.10071

 Mulliken charges:
               1
     1  C    0.335117
     2  C    0.156223
     3  C    0.764737
     4  C    0.275839
     5  C    0.695754
     6  C    0.444203
     7  C    0.669309
     8  O   -0.728954
     9  H   -0.470876
    10  H   -0.595393
    11  H   -0.632539
    12  H   -0.239143
    13  H   -0.129238
    14  C    0.669309
    15  H   -0.462575
    16  H   -0.446941
    17  C    0.444205
    18  H   -0.129236
    19  H   -0.239146
    20  C    0.335122
    21  C    0.156218
    22  C    0.764739
    23  C    0.275838
    24  C    0.695750
    25  H   -0.595392
    26  H   -0.446941
    27  H   -0.470875
    28  H   -0.632540
    29  H   -0.462574
 Sum of Mulliken charges =  -0.00000

 Dipole moment (field-independent basis, Debye):
    X=             -0.0000    Y=             -1.2691    Z=              0.0000  Tot=              1.2691

 Test job not archived.
 1\1\GINC-SE179\SP\RHF\Aug-CC-pVDZ\C14H14O1\OHZDE\08-Apr-2025\0\\#t hf
 aug-cc-pvdz iop(5/13=1,5/36=2,99/5=2) pseudo=read geom=check guess=(re
 ad,tcheck) scf=(maxcycle=1)\\title\\0,1\C,0,2.823755,0.971082,0.279931
 \C,0,4.008708,0.366956,0.68873\C,0,4.306743,-0.935712,0.288336\C,0,3.4
 0886,-1.631291,-0.516789\C,0,2.21849,-1.026156,-0.91857\C,0,1.916546,0
 .280752,-0.531038\C,0,0.646106,0.959285,-1.007459\O,0,0.,1.733699,0.\H
 ,0,3.629478,-2.647005,-0.82613\H,0,1.5164,-1.576307,-1.537511\H,0,2.58
 564,1.98107,0.594233\H,0,-0.041312,0.214885,-1.428262\H,0,0.880558,1.6

 Normal termination of Gaussian 16 at Tue Apr  8 23:02:58 2025.
