 Gaussian 16, Revision C.01,

 ----------------------------------------------------------------------
 #t hf aug-cc-pvdz symm=none int=(grid=ultrafine) guess=(read,tcheck) s
 table=(opt,rrhf)
 ----------------------------------------------------------------------
 -----
 title
 -----
 Symbolic Z-matrix:
 Charge =  0 Multiplicity = 1

 SCF Done:  E(RHF) =  -489.771599352     A.U. after   12 cycles
 Normal termination of Gaussian 16 at Tue Apr  8 22:30:27 2025.
 Gaussian 16:  ES64L-G16RevC.01  3-Jul-2019

 ----------------------------------------------------------------------
 #t hf aug-cc-pvdz iop(5/13=1,5/36=2,99/5=2) pseudo=read geom=check gue
 ss=(read,tcheck) scf=(maxcycle=1)
 ----------------------------------------------------------------------
 -----
 title
 -----
 Structure from the checkpoint file:  "BDE49_expt_1051_mol1.chk"
 Charge =  0 Multiplicity = 1

                         Standard orientation:
 ---------------------------------------------------------------------
 Center     Atomic      Atomic             Coordinates (Angstroms)
 Number     Number       Type             X           Y           Z
 ---------------------------------------------------------------------
      1          6           0        0.908531    0.043087    0.000001
      2          6           0       -1.582031   -0.409195    0.000003
      3          9           0        1.859504    1.000579   -0.000017
      4          9           0        1.126685   -0.735586   -1.086964
      5          9           0        1.126681   -0.735541    1.086999
      6          8           0       -2.809981    0.308956   -0.000009
      7          1           0       -3.529774   -0.328341   -0.000011
      8          6           0       -0.475379    0.638692   -0.000014
      9          1           0       -1.487440   -1.045712   -0.888729
     10          1           0       -1.487440   -1.045682    0.888757
     11          1           0       -0.569031    1.273770    0.883340
     12          1           0       -0.569027    1.273736   -0.883393
 ---------------------------------------------------------------------

 SCF Done:  E(RHF) =  -489.941707961     A.U. after    2 cycles

 The electronic state is 1-A.
 Alpha  occ. eigenvalues --  -26.16214 -26.16211 -26.16197 -20.59298 -11.52373
 Alpha  occ. eigenvalues --  -11.31294 -11.27158  -1.75553  -1.68593  -1.68508
 Alpha  occ. eigenvalues --   -1.34259  -1.10293  -0.99387  -0.90178  -0.87515
 Alpha  occ. eigenvalues --   -0.87090  -0.80758  -0.77159  -0.76933  -0.72883
 Alpha  occ. eigenvalues --   -0.72565  -0.72203  -0.71373  -0.67649  -0.61042
 Alpha  occ. eigenvalues --   -0.58384  -0.57042  -0.52687  -0.48013
 Alpha virt. eigenvalues --    0.03063   0.04891   0.05085   0.05687   0.07150
 Alpha virt. eigenvalues --    0.09005   0.11344   0.11712   0.11889   0.13126
 Alpha virt. eigenvalues --    0.14995   0.15960   0.17046   0.17226   0.18007

 Mulliken charges:
               1
     1  C    1.027193
     2  C    0.738195
     3  F   -0.316050
     4  F   -0.343522
     5  F   -0.343522
     6  O   -0.554997
     7  H    0.149198
     8  C   -0.168801
     9  H   -0.115456
    10  H   -0.115454
    11  H    0.021609
    12  H    0.021608
 Sum of Mulliken charges =  -0.00000

 Dipole moment (field-independent basis, Debye):
    X=             -2.5459    Y=             -0.7769    Z=             -0.0000  Tot=              2.6618

 Test job not archived.
 1\1\GINC-SE250\SP\RHF\Aug-CC-pVDZ\C3H5F3O1\OHZDE\08-Apr-2025\0\\#t hf
 aug-cc-pvdz iop(5/13=1,5/36=2,99/5=2) pseudo=read geom=check guess=(re
 ad,tcheck) scf=(maxcycle=1)\\title\\0,1\C,0,0.908531,0.043087,0.000001
 \C,0,-1.582031,-0.409195,0.000003\F,0,1.859504,1.000579,-0.000017\F,0,
 1.126685,-0.735586,-1.086964\F,0,1.126681,-0.735541,1.086999\O,0,-2.80
 9981,0.308956,-0.000009\H,0,-3.529774,-0.328341,-0.000011\C,0,-0.47537
 9,0.638692,-0.000014\H,0,-1.48744,-1.045712,-0.888729\H,0,-1.48744,-1.
 045682,0.888757\H,0,-0.569031,1.27377,0.88334\H,0,-0.569027,1.273736,-

 Normal termination of Gaussian 16 at Tue Apr  8 22:30:31 2025.
