 Gaussian 16, Revision C.01,

 ----------------------------------------------------------------------
 #t hf aug-cc-pvdz symm=none int=(grid=ultrafine) guess=(read,tcheck) s
 table=(opt,rrhf)
 ----------------------------------------------------------------------
 -----
 title
 -----
 Symbolic Z-matrix:
 Charge =  0 Multiplicity = 1

 SCF Done:  E(RHF) =  -614.646376089     A.U. after   14 cycles
 Normal termination of Gaussian 16 at Wed Apr  9 00:19:42 2025.
 Gaussian 16:  ES64L-G16RevC.01  3-Jul-2019

 ----------------------------------------------------------------------
 #t hf aug-cc-pvdz iop(5/13=1,5/36=2,99/5=2) pseudo=read geom=check gue
 ss=(read,tcheck) scf=(maxcycle=1)
 ----------------------------------------------------------------------
 -----
 title
 -----
 Structure from the checkpoint file:  "BDE49_nonexpt_2635_mol1.chk"
 Charge =  0 Multiplicity = 1

                         Standard orientation:
 ---------------------------------------------------------------------
 Center     Atomic      Atomic             Coordinates (Angstroms)
 Number     Number       Type             X           Y           Z
 ---------------------------------------------------------------------
      1          9           0       -1.941850    0.420893    0.232073
      2         16           0       -0.798002   -0.718388   -0.228097
      3          6           0        0.695488    0.129887    0.383812
      4          6           0        1.862216   -0.812927    0.061037
      5          1           0        1.738099   -1.792698    0.528703
      6          1           0        2.791180   -0.377339    0.437536
      7          1           0        1.972535   -0.952720   -1.017918
      8          6           0        0.853937    1.518776   -0.230256
      9          1           0        0.584844    0.209280    1.468766
     10          1           0        1.017881    1.450805   -1.308717
     11          1           0        1.708623    2.032863    0.221404
     12          1           0       -0.038334    2.121563   -0.056428
 ---------------------------------------------------------------------

 SCF Done:  E(RHF) =  -614.742335784     A.U. after    2 cycles

 The electronic state is 1-A.
 Alpha  occ. eigenvalues --  -93.60788 -26.11692 -11.29137 -11.25395 -11.24065
 Alpha  occ. eigenvalues --   -8.89691  -6.23909  -6.23487  -6.23093  -1.62667
 Alpha  occ. eigenvalues --   -1.10114  -0.95252  -0.94551  -0.80461  -0.72318
 Alpha  occ. eigenvalues --   -0.71841  -0.69101  -0.63837  -0.59005  -0.57807
 Alpha  occ. eigenvalues --   -0.56095  -0.51686  -0.51024  -0.45670  -0.36941
 Alpha virt. eigenvalues --    0.03249   0.04548   0.04790   0.05677   0.07106
 Alpha virt. eigenvalues --    0.07276   0.07624   0.08342   0.09635   0.12745
 Alpha virt. eigenvalues --    0.13346   0.14722   0.15136   0.15841   0.16230

 Mulliken charges:
               1
     1  F   -0.646936
     2  S    0.782489
     3  C   -0.854664
     4  C    0.617030
     5  H   -0.092954
     6  H   -0.036074
     7  H   -0.039837
     8  C    0.478943
     9  H   -0.095977
    10  H   -0.027095
    11  H   -0.030096
    12  H   -0.054827
 Sum of Mulliken charges =  -0.00000

 Dipole moment (field-independent basis, Debye):
    X=              3.2788    Y=             -0.2810    Z=              0.1461  Tot=              3.2941

 Test job not archived.
 1\1\GINC-SE070\SP\RHF\Aug-CC-pVDZ\C3H7F1S1\OHZDE\09-Apr-2025\0\\#t hf
 aug-cc-pvdz iop(5/13=1,5/36=2,99/5=2) pseudo=read geom=check guess=(re
 ad,tcheck) scf=(maxcycle=1)\\title\\0,1\F,0,-1.94185,0.420894,0.232073
 \S,0,-0.798002,-0.718388,-0.228097\C,0,0.695488,0.129887,0.383812\C,0,
 1.862216,-0.812927,0.061037\H,0,1.738098,-1.792698,0.528703\H,0,2.7911
 8,-0.37734,0.437536\H,0,1.972535,-0.952721,-1.017918\C,0,0.853937,1.51
 8776,-0.230256\H,0,0.584844,0.20928,1.468766\H,0,1.017881,1.450805,-1.
 308717\H,0,1.708624,2.032863,0.221404\H,0,-0.038333,2.121563,-0.056428

 Normal termination of Gaussian 16 at Wed Apr  9 00:19:46 2025.
