 Gaussian 16, Revision C.01,

 ----------------------------------------------------------------------
 #t hf aug-cc-pvdz symm=none int=(grid=ultrafine) guess=(read,tcheck) s
 table=(opt,rrhf)
 ----------------------------------------------------------------------
 -----
 title
 -----
 Symbolic Z-matrix:
 Charge =  0 Multiplicity = 1

 SCF Done:  E(RHF) =  -966.447031138     A.U. after   15 cycles
 Normal termination of Gaussian 16 at Wed Apr  9 00:18:04 2025.
 Gaussian 16:  ES64L-G16RevC.01  3-Jul-2019

 ----------------------------------------------------------------------
 #t hf aug-cc-pvdz iop(5/13=1,5/36=2,99/5=2) pseudo=read geom=check gue
 ss=(read,tcheck) scf=(maxcycle=1)
 ----------------------------------------------------------------------
 -----
 title
 -----
 Structure from the checkpoint file:  "BDE49_nonexpt_2593_mol1.chk"
 Charge =  0 Multiplicity = 1

                         Standard orientation:
 ---------------------------------------------------------------------
 Center     Atomic      Atomic             Coordinates (Angstroms)
 Number     Number       Type             X           Y           Z
 ---------------------------------------------------------------------
      1         17           0       -1.547157   -0.477847    0.000032
      2         16           0        0.045144    0.923288   -0.000009
      3          7           0        1.489379    0.205241    0.000017
      4          7           0        1.765740   -1.002614   -0.000083
      5          1           0        2.793526   -1.067594    0.000071
 ---------------------------------------------------------------------

 SCF Done:  E(RHF) =  -966.522265074     A.U. after    2 cycles

 The electronic state is 1-A.
 Alpha  occ. eigenvalues -- -103.68386 -93.65018 -15.76487 -15.72163 -10.71527
 Alpha  occ. eigenvalues --   -8.94196  -8.37244  -8.36905  -8.36881  -6.28354
 Alpha  occ. eigenvalues --   -6.27914  -6.27506  -1.36237  -1.17026  -1.06656
 Alpha  occ. eigenvalues --   -0.82205  -0.71907  -0.64844  -0.60286  -0.52304
 Alpha  occ. eigenvalues --   -0.50731  -0.48246  -0.41842  -0.38555
 Alpha virt. eigenvalues --    0.03471   0.03778   0.07369   0.09015   0.09539
 Alpha virt. eigenvalues --    0.11565   0.12278   0.13966   0.15975   0.16631
 Alpha virt. eigenvalues --    0.17177   0.17505   0.18726   0.20884   0.21887

 Mulliken charges:
               1
     1  Cl  -0.282117
     2  S    0.764712
     3  N   -0.422936
     4  N   -0.153174
     5  H    0.093515
 Sum of Mulliken charges =  -0.00000

 Dipole moment (field-independent basis, Debye):
    X=              2.1596    Y=              0.6078    Z=              0.0001  Tot=              2.2435

 Test job not archived.
 1\1\GINC-SE044\SP\RHF\Aug-CC-pVDZ\Cl1H1N2S1\OHZDE\09-Apr-2025\0\\#t hf
  aug-cc-pvdz iop(5/13=1,5/36=2,99/5=2) pseudo=read geom=check guess=(r
 ead,tcheck) scf=(maxcycle=1)\\title\\0,1\Cl,0,1.547157,-0.477847,-0.00
 0032\S,0,-0.045144,0.923288,0.000009\N,0,-1.489379,0.205241,-0.000017\
 N,0,-1.76574,-1.002615,0.000083\H,0,-2.793526,-1.067595,-0.000071\\Ver
 sion=ES64L-G16RevC.01\State=1-A\HF=-966.5222651\RMSD=5.218e-03\Dipole=
 -0.8496459,0.2391289,-0.0000521\Quadrupole=3.127373,-1.3171413,-1.8102
 317,1.5144067,0.0002683,0.0003464\PG=C01 [X(Cl1H1N2S1)]\\@

 Normal termination of Gaussian 16 at Wed Apr  9 00:18:07 2025.
