 Gaussian 16, Revision C.01,

 ----------------------------------------------------------------------
 #t hf aug-cc-pvdz symm=none int=(grid=ultrafine) guess=(read,tcheck) s
 table=(opt,rrhf)
 ----------------------------------------------------------------------
 -----
 title
 -----
 Symbolic Z-matrix:
 Charge =  0 Multiplicity = 1

 SCF Done:  E(RHF) =  -329.592504975     A.U. after   14 cycles
 Normal termination of Gaussian 16 at Tue Apr  8 22:43:36 2025.
 Gaussian 16:  ES64L-G16RevC.01  3-Jul-2019

 ----------------------------------------------------------------------
 #t hf aug-cc-pvdz iop(5/13=1,5/36=2,99/5=2) pseudo=read geom=check gue
 ss=(read,tcheck) scf=(maxcycle=1)
 ----------------------------------------------------------------------
 -----
 title
 -----
 Structure from the checkpoint file:  "BDE49_expt_1525_mol1.chk"
 Charge =  0 Multiplicity = 1

                         Standard orientation:
 ---------------------------------------------------------------------
 Center     Atomic      Atomic             Coordinates (Angstroms)
 Number     Number       Type             X           Y           Z
 ---------------------------------------------------------------------
      1          6           0        0.000000    0.000000    0.929096
      2          6           0        0.000000    1.214507    0.259217
      3          9           0        0.000000    0.000000    2.281226
      4          6           0       -0.000000   -1.214507    0.259217
      5          6           0        0.000000    1.206236   -1.134147
      6          6           0        0.000000   -0.000000   -1.832989
      7          6           0       -0.000000   -1.206236   -1.134147
      8          1           0        0.000000   -2.136989    0.826431
      9          1           0        0.000000   -0.000000   -2.916464
     10          1           0        0.000000   -2.147007   -1.672458
     11          1           0        0.000000    2.136989    0.826431
     12          1           0        0.000000    2.147007   -1.672458
 ---------------------------------------------------------------------

 SCF Done:  E(RHF) =  -329.697041508     A.U. after    2 cycles

 The electronic state is 1-A1.
 Alpha  occ. eigenvalues --  -26.13480 -11.34234 -11.26186 -11.26181 -11.25608
 Alpha  occ. eigenvalues --  -11.25607 -11.25207  -1.67299  -1.15935  -1.02942
 Alpha  occ. eigenvalues --   -1.02640  -0.86481  -0.86405  -0.76936  -0.74938
 Alpha  occ. eigenvalues --   -0.74099  -0.69715  -0.63165  -0.62259  -0.60770
 Alpha  occ. eigenvalues --   -0.53833  -0.51717  -0.51437  -0.35627  -0.34802
 Alpha virt. eigenvalues --    0.03338   0.03955   0.04477   0.05809   0.06189
 Alpha virt. eigenvalues --    0.09516   0.10467   0.10484   0.12004   0.13871
 Alpha virt. eigenvalues --    0.14160   0.14250   0.14255   0.14476   0.14522

 Mulliken charges:
               1
     1  C    0.267133
     2  C    0.306154
     3  F   -0.359694
     4  C    0.306154
     5  C    0.582439
     6  C    0.371773
     7  C    0.582439
     8  H   -0.393765
     9  H   -0.423584
    10  H   -0.422642
    11  H   -0.393765
    12  H   -0.422642
 Sum of Mulliken charges =  -0.00000

 Dipole moment (field-independent basis, Debye):
    X=             -0.0000    Y=             -0.0000    Z=             -2.0833  Tot=              2.0833

 Test job not archived.
 1\1\GINC-SE343\SP\RHF\Aug-CC-pVDZ\C6H5F1\OHZDE\08-Apr-2025\0\\#t hf au
 g-cc-pvdz iop(5/13=1,5/36=2,99/5=2) pseudo=read geom=check guess=(read
 ,tcheck) scf=(maxcycle=1)\\title\\0,1\C,0,0.,0.,0.929096\C,0,0.,1.2145
 07,0.259217\F,0,0.,0.,2.281226\C,0,0.,-1.214507,0.259217\C,0,0.,1.2062
 36,-1.134147\C,0,0.,0.,-1.832989\C,0,0.,-1.206236,-1.134147\H,0,0.,-2.
 136989,0.826431\H,0,0.,0.,-2.916464\H,0,0.,-2.147007,-1.672458\H,0,0.,
 2.136989,0.826431\H,0,0.,2.147007,-1.672458\\Version=ES64L-G16RevC.01\
 State=1-A1\HF=-329.6970415\RMSD=1.513e-02\Dipole=0.,0.,-0.8196315\Quad

 Normal termination of Gaussian 16 at Tue Apr  8 22:43:39 2025.
