 Gaussian 16, Revision C.01,

 ----------------------------------------------------------------------
 #t hf aug-cc-pvdz symm=none int=(grid=ultrafine) guess=(read,tcheck) s
 table=(opt,rrhf)
 ----------------------------------------------------------------------
 -----
 title
 -----
 Symbolic Z-matrix:
 Charge =  0 Multiplicity = 1

 SCF Done:  E(RHF) =  -833.534461992     A.U. after   12 cycles

 1\1\GINC-SE177\Stability\RHF\Aug-CC-pVDZ\C2Cl1F3\OHZDE\08-Apr-2025\0\\
 #t hf aug-cc-pvdz symm=none int=(grid=ultrafine) guess=(read,tcheck) s
 table=(opt,rrhf)\\title\\0,1\C,0,0.251973,0.400381,0.000008\C,0,-0.934
 846,-0.192889,0.000008\Cl,0,1.743398,-0.445415,-0.000002\F,0,0.34352,1
 .732376,-0.000003\F,0,-1.106436,-1.49888,-0.000003\F,0,-2.07492,0.4695
 14,-0.000002\\Version=ES64L-G16RevC.01\HF=-833.534462\RMSD=7.765e-09\D
 ipole=0.1126614,-0.1773363,0.0000056\Quadrupole=0.3095464,-1.4113599,1
 .1018135,-0.5394935,-0.0000206,0.0000048\PG=Unknown\\@

 Normal termination of Gaussian 16 at Tue Apr  8 22:43:29 2025.
 Gaussian 16:  ES64L-G16RevC.01  3-Jul-2019

 ----------------------------------------------------------------------
 #t hf aug-cc-pvdz iop(5/13=1,5/36=2,99/5=2) pseudo=read geom=check gue
 ss=(read,tcheck) scf=(maxcycle=1)
 ----------------------------------------------------------------------
 -----
 title
 -----
 Structure from the checkpoint file:  "BDE49_expt_1509_mol1.chk"
 Charge =  0 Multiplicity = 1

                         Standard orientation:
 ---------------------------------------------------------------------
 Center     Atomic      Atomic             Coordinates (Angstroms)
 Number     Number       Type             X           Y           Z
 ---------------------------------------------------------------------
      1          6           0        0.251973    0.400381    0.000008
      2          6           0       -0.934846   -0.192889    0.000008
      3         17           0        1.743398   -0.445414   -0.000002
      4          9           0        0.343519    1.732376   -0.000003
      5          9           0       -1.106436   -1.498880   -0.000003
      6          9           0       -2.074920    0.469514   -0.000002
 ---------------------------------------------------------------------

 SCF Done:  E(RHF) =  -833.689987804     A.U. after    2 cycles

 The electronic state is 1-A.
 Alpha  occ. eigenvalues -- -103.71308 -26.20019 -26.19869 -26.18397 -11.47106
 Alpha  occ. eigenvalues --  -11.42513 -10.74568  -8.40315  -8.39967  -8.39945
 Alpha  occ. eigenvalues --   -1.76873  -1.72741  -1.72119  -1.23451  -1.09791
 Alpha  occ. eigenvalues --   -0.95684  -0.89081  -0.87531  -0.84718  -0.79685
 Alpha  occ. eigenvalues --   -0.79464  -0.78038  -0.76555  -0.75602  -0.64255
 Alpha  occ. eigenvalues --   -0.55516  -0.52093  -0.40896
 Alpha virt. eigenvalues --    0.06321   0.07224   0.08369   0.09754   0.11207
 Alpha virt. eigenvalues --    0.12646   0.13214   0.13455   0.14518   0.16436
 Alpha virt. eigenvalues --    0.16925   0.20211   0.20579   0.24601   0.26193

 Mulliken charges:
               1
     1  C   -0.064360
     2  C    0.891291
     3  Cl  -0.092463
     4  F   -0.291378
     5  F   -0.205456
     6  F   -0.237633
 Sum of Mulliken charges =  -0.00000

 Dipole moment (field-independent basis, Debye):
    X=              0.5077    Y=             -0.5625    Z=              0.0000  Tot=              0.7578

 Test job not archived.
 1\1\GINC-SE177\SP\RHF\Aug-CC-pVDZ\C2Cl1F3\OHZDE\08-Apr-2025\0\\#t hf a
 ug-cc-pvdz iop(5/13=1,5/36=2,99/5=2) pseudo=read geom=check guess=(rea
 d,tcheck) scf=(maxcycle=1)\\title\\0,1\C,0,0.251973,0.400381,0.000008\
 C,0,-0.934846,-0.192889,0.000008\Cl,0,1.743398,-0.445415,-0.000002\F,0
 ,0.34352,1.732376,-0.000003\F,0,-1.106436,-1.49888,-0.000003\F,0,-2.07
 492,0.469514,-0.000002\\Version=ES64L-G16RevC.01\State=1-A\HF=-833.689
 9878\RMSD=9.014e-03\Dipole=0.1997498,-0.2213218,0.0000078\Quadrupole=0
 .2892109,-1.6443827,1.3551718,-0.6433022,-0.0000229,0.0000053\PG=C01 [

 Normal termination of Gaussian 16 at Tue Apr  8 22:43:32 2025.
