 Gaussian 16, Revision C.01,

 ----------------------------------------------------------------------
 #t hf aug-cc-pvdz symm=none int=(grid=ultrafine) guess=(read,tcheck) s
 table=(opt,rrhf)
 ----------------------------------------------------------------------
 -----
 title
 -----
 Symbolic Z-matrix:
 Charge =  0 Multiplicity = 1

 SCF Done:  E(RHF) =  -766.133342201     A.U. after   17 cycles
 Normal termination of Gaussian 16 at Wed Apr  9 00:23:05 2025.
 Gaussian 16:  ES64L-G16RevC.01  3-Jul-2019

 ----------------------------------------------------------------------
 #t hf aug-cc-pvdz iop(5/13=1,5/36=2,99/5=2) pseudo=read geom=check gue
 ss=(read,tcheck) scf=(maxcycle=1)
 ----------------------------------------------------------------------
 -----
 title
 -----
 Structure from the checkpoint file:  "BDE49_nonexpt_2697_mol1.chk"
 Charge =  0 Multiplicity = 1

                         Standard orientation:
 ---------------------------------------------------------------------
 Center     Atomic      Atomic             Coordinates (Angstroms)
 Number     Number       Type             X           Y           Z
 ---------------------------------------------------------------------
      1          9           0        2.489966   -0.016717    0.906531
      2         16           0        1.766550   -0.727285   -0.450021
      3          6           0        0.068777   -0.377772   -0.141829
      4          6           0       -0.422724    0.948383   -0.101771
      5          6           0       -1.796396    1.120860    0.069856
      6          6           0       -2.664693    0.033193    0.164288
      7          6           0       -0.801104   -1.469517   -0.015492
      8          1           0       -0.390260   -2.471771   -0.017179
      9          6           0       -2.171101   -1.266726    0.113490
     10          1           0       -2.840602   -2.114490    0.198373
     11          1           0       -2.196211    2.128196    0.116552
     12          6           0        0.496232    2.134369   -0.219051
     13          1           0        1.213232    2.157138    0.604260
     14          1           0       -0.068890    3.067360   -0.220309
     15          1           0        1.082704    2.077918   -1.141168
     16          1           0       -3.728415    0.205935    0.284079
 ---------------------------------------------------------------------

 SCF Done:  E(RHF) =  -766.269712996     A.U. after    2 cycles

 The electronic state is 1-A.
 Alpha  occ. eigenvalues --  -93.61731 -26.11443 -11.28523 -11.27821 -11.27152
 Alpha  occ. eigenvalues --  -11.26809 -11.25732 -11.25613 -11.24002  -8.90580
 Alpha  occ. eigenvalues --   -6.24787  -6.24468  -6.24039  -1.62152  -1.17016
 Alpha  occ. eigenvalues --   -1.06421  -1.05035  -0.96353  -0.93036  -0.83749
 Alpha  occ. eigenvalues --   -0.81398  -0.72611  -0.71888  -0.70704  -0.67748
 Alpha  occ. eigenvalues --   -0.66134  -0.63125  -0.59447  -0.58555  -0.56423
 Alpha  occ. eigenvalues --   -0.54587  -0.51394  -0.51201  -0.48108  -0.39946
 Alpha  occ. eigenvalues --   -0.35310  -0.34354
 Alpha virt. eigenvalues --    0.03054   0.03813   0.04411   0.04688   0.05741
 Alpha virt. eigenvalues --    0.06102   0.06857   0.07992   0.09114   0.09527
 Alpha virt. eigenvalues --    0.10070   0.10773   0.12090   0.13034   0.13804

 Mulliken charges:
               1
     1  F   -0.643771
     2  S    0.498696
     3  C    0.121834
     4  C   -0.208804
     5  C    0.891681
     6  C    0.150185
     7  C    0.109082
     8  H   -0.472783
     9  C    0.459526
    10  H   -0.425366
    11  H   -0.561931
    12  C    0.523996
    13  H    0.129661
    14  H   -0.209627
    15  H    0.081471
    16  H   -0.443850
 Sum of Mulliken charges =  -0.00000

 Dipole moment (field-independent basis, Debye):
    X=             -3.1807    Y=              0.1376    Z=             -1.1255  Tot=              3.3768

 Test job not archived.
 1\1\GINC-SE103\SP\RHF\Aug-CC-pVDZ\C7H7F1S1\OHZDE\09-Apr-2025\0\\#t hf
 aug-cc-pvdz iop(5/13=1,5/36=2,99/5=2) pseudo=read geom=check guess=(re
 ad,tcheck) scf=(maxcycle=1)\\title\\0,1\F,0,2.489966,-0.016718,0.90653
 1\S,0,1.76655,-0.727286,-0.450021\C,0,0.068777,-0.377772,-0.141829\C,0
 ,-0.422724,0.948383,-0.101771\C,0,-1.796396,1.12086,0.069856\C,0,-2.66
 4693,0.033193,0.164288\C,0,-0.801104,-1.469517,-0.015492\H,0,-0.39026,
 -2.471771,-0.017179\C,0,-2.171101,-1.266726,0.11349\H,0,-2.840602,-2.1
 1449,0.198373\H,0,-2.19621,2.128196,0.116552\C,0,0.496233,2.134369,-0.

 Normal termination of Gaussian 16 at Wed Apr  9 00:23:12 2025.
