 Gaussian 16, Revision C.01,

 ----------------------------------------------------------------------
 #t hf aug-cc-pvdz symm=none int=(grid=ultrafine) guess=(read,tcheck) s
 table=(opt,rrhf)
 ----------------------------------------------------------------------
 -----
 title
 -----
 Symbolic Z-matrix:
 Charge =  0 Multiplicity = 1

 SCF Done:  E(RHF) =  -1542.37257775     A.U. after   14 cycles
 Normal termination of Gaussian 16 at Wed Apr  9 00:24:29 2025.
 Gaussian 16:  ES64L-G16RevC.01  3-Jul-2019

 ----------------------------------------------------------------------
 #t hf aug-cc-pvdz iop(5/13=1,5/36=2,99/5=2) pseudo=read geom=check gue
 ss=(read,tcheck) scf=(maxcycle=1)
 ----------------------------------------------------------------------
 -----
 title
 -----
 Structure from the checkpoint file:  "BDE49_nonexpt_2754_mol1.chk"
 Charge =  0 Multiplicity = 1

                         Standard orientation:
 ---------------------------------------------------------------------
 Center     Atomic      Atomic             Coordinates (Angstroms)
 Number     Number       Type             X           Y           Z
 ---------------------------------------------------------------------
      1         16           0        1.066422   -0.449678    0.977519
      2         16           0       -0.250361   -1.164417   -0.391367
      3          8           0       -1.294956    0.162068   -0.758230
      4          6           0        2.392739    0.271210   -0.091923
      5          9           0        3.348935    0.704752    0.743658
      6          9           0        1.956958    1.300534   -0.819136
      7          9           0        2.925447   -0.628881   -0.921828
      8          6           0       -2.436221    0.275207   -0.013320
      9          9           0       -3.106680    1.323149   -0.482676
     10          9           0       -2.179691    0.475021    1.289366
     11          9           0       -3.215684   -0.813410   -0.107287
 ---------------------------------------------------------------------

 SCF Done:  E(RHF) =  -1542.68966025     A.U. after    2 cycles

 The electronic state is 1-A.
 Alpha  occ. eigenvalues --  -93.67207 -93.62845 -26.19961 -26.19682 -26.19605
 Alpha  occ. eigenvalues --  -26.18833 -26.18780 -26.18740 -20.67672 -11.60063
 Alpha  occ. eigenvalues --  -11.57809  -8.96083  -8.92547  -6.30210  -6.29870
 Alpha  occ. eigenvalues --   -6.29466  -6.26620  -6.26368  -6.26018  -1.79541
 Alpha  occ. eigenvalues --   -1.79142  -1.72535  -1.72351  -1.71805  -1.71483
 Alpha  occ. eigenvalues --   -1.42681  -1.12914  -1.06096  -1.02279  -0.95260
 Alpha  occ. eigenvalues --   -0.91534  -0.91447  -0.91277  -0.90948  -0.87816
 Alpha  occ. eigenvalues --   -0.81753  -0.80331  -0.80118  -0.79810  -0.79465
 Alpha  occ. eigenvalues --   -0.76103  -0.76000  -0.75215  -0.75034  -0.74726
 Alpha  occ. eigenvalues --   -0.73891  -0.70759  -0.64987  -0.63731  -0.58197
 Alpha  occ. eigenvalues --   -0.50888  -0.44894  -0.43134
 Alpha virt. eigenvalues --    0.04699   0.05728   0.06566   0.07801   0.08678
 Alpha virt. eigenvalues --    0.09041   0.09708   0.10542   0.10761   0.11388
 Alpha virt. eigenvalues --    0.12308   0.13306   0.14353   0.14661   0.16352

 Mulliken charges:
               1
     1  S    0.187852
     2  S    0.471429
     3  O   -0.756133
     4  C    0.658842
     5  F   -0.266097
     6  F   -0.287743
     7  F   -0.269241
     8  C    1.061754
     9  F   -0.237711
    10  F   -0.280995
    11  F   -0.281957
 Sum of Mulliken charges =  -0.00000

 Dipole moment (field-independent basis, Debye):
    X=              0.6888    Y=             -1.5277    Z=              0.6739  Tot=              1.8062

 Test job not archived.
 1\1\GINC-SE038\SP\RHF\Aug-CC-pVDZ\C2F6O1S2\OHZDE\09-Apr-2025\0\\#t hf
 aug-cc-pvdz iop(5/13=1,5/36=2,99/5=2) pseudo=read geom=check guess=(re
 ad,tcheck) scf=(maxcycle=1)\\title\\0,1\S,0,1.066422,-0.449678,0.97751
 9\S,0,-0.250361,-1.164417,-0.391367\O,0,-1.294956,0.162068,-0.75823\C,
 0,2.392739,0.27121,-0.091923\F,0,3.348935,0.704752,0.743658\F,0,1.9569
 58,1.300534,-0.819136\F,0,2.925447,-0.628881,-0.921828\C,0,-2.436221,0
 .275207,-0.01332\F,0,-3.10668,1.323149,-0.482676\F,0,-2.179691,0.47502
 1,1.289366\F,0,-3.215684,-0.81341,-0.107287\\Version=ES64L-G16RevC.01\

 Normal termination of Gaussian 16 at Wed Apr  9 00:24:38 2025.
