 Gaussian 16, Revision C.01,

 ----------------------------------------------------------------------
 #t hf aug-cc-pvdz symm=none int=(grid=ultrafine) guess=(read,tcheck) s
 table=(opt,rrhf)
 ----------------------------------------------------------------------
 -----
 title
 -----
 Symbolic Z-matrix:
 Charge =  0 Multiplicity = 1

 SCF Done:  E(RHF) =  -699.942991506     A.U. after   16 cycles
 Normal termination of Gaussian 16 at Tue Apr  8 23:34:43 2025.
 Gaussian 16:  ES64L-G16RevC.01  3-Jul-2019

 ----------------------------------------------------------------------
 #t hf aug-cc-pvdz iop(5/13=1,5/36=2,99/5=2) pseudo=read geom=check gue
 ss=(read,tcheck) scf=(maxcycle=1)
 ----------------------------------------------------------------------
 -----
 title
 -----
 Structure from the checkpoint file:  "BDE49_nonexpt_1492_mol1.chk"
 Charge =  0 Multiplicity = 1

                         Standard orientation:
 ---------------------------------------------------------------------
 Center     Atomic      Atomic             Coordinates (Angstroms)
 Number     Number       Type             X           Y           Z
 ---------------------------------------------------------------------
      1          6           0       -1.054237   -0.783725   -0.086393
      2          6           0       -0.681458    0.671664   -0.383279
      3          6           0        0.814684    0.853504   -0.156951
      4         15           0        1.659364   -0.841671    0.028853
      5          7           0        0.076156   -1.566612    0.064318
      6          1           0       -0.077695   -2.563437    0.142119
      7          6           0       -1.545452    1.695022    0.356678
      8          1           0       -1.405027    1.614802    1.437134
      9          1           0       -2.597227    1.513160    0.134433
     10          1           0       -1.275080    2.705846    0.050222
     11          8           0        1.397217    1.900099   -0.082985
     12          8           0       -2.185665   -1.209151   -0.039815
     13          1           0       -0.833822    0.790655   -1.466401
     14          1           0        1.871658   -0.616040    1.421539
 ---------------------------------------------------------------------

 SCF Done:  E(RHF) =  -700.076427680     A.U. after    2 cycles

 The electronic state is 1-A.
 Alpha  occ. eigenvalues --  -81.31969 -20.60047 -20.56165 -15.66980 -11.38977
 Alpha  occ. eigenvalues --  -11.37683 -11.28627 -11.25067  -7.82010  -4.96082
 Alpha  occ. eigenvalues --   -4.95850  -4.95597  -1.39189  -1.37246  -1.20525
 Alpha  occ. eigenvalues --   -1.08461  -0.93762  -0.87888  -0.80060  -0.76973
 Alpha  occ. eigenvalues --   -0.70731  -0.67618  -0.66615  -0.64118  -0.62714
 Alpha  occ. eigenvalues --   -0.58987  -0.57221  -0.56018  -0.55275  -0.52358
 Alpha  occ. eigenvalues --   -0.48008  -0.45909  -0.41686  -0.37342
 Alpha virt. eigenvalues --    0.03007   0.03857   0.04530   0.05161   0.06248
 Alpha virt. eigenvalues --    0.07069   0.07755   0.07992   0.09096   0.09969
 Alpha virt. eigenvalues --    0.11215   0.11600   0.12332   0.13091   0.14217

 Mulliken charges:
               1
     1  C    0.648392
     2  C   -0.982772
     3  C    0.266086
     4  P    0.722652
     5  N   -0.498283
     6  H   -0.113018
     7  C    0.677525
     8  H   -0.012781
     9  H   -0.015357
    10  H   -0.017922
    11  O   -0.468340
    12  O   -0.492635
    13  H    0.160842
    14  H    0.125609
 Sum of Mulliken charges =  -0.00000

 Dipole moment (field-independent basis, Debye):
    X=              1.3148    Y=             -1.3404    Z=              0.1112  Tot=              1.8809

 Test job not archived.
 1\1\GINC-SE173\SP\RHF\Aug-CC-pVDZ\C4H6N1O2P1\OHZDE\08-Apr-2025\0\\#t h
 f aug-cc-pvdz iop(5/13=1,5/36=2,99/5=2) pseudo=read geom=check guess=(
 read,tcheck) scf=(maxcycle=1)\\title\\0,1\C,0,-1.054237,-0.783725,-0.0
 86393\C,0,-0.681458,0.671664,-0.383279\C,0,0.814684,0.853504,-0.156951
 \P,0,1.659364,-0.841672,0.028853\N,0,0.076155,-1.566612,0.064318\H,0,-
 0.077696,-2.563437,0.142119\C,0,-1.545451,1.695023,0.356678\H,0,-1.405
 026,1.614803,1.437134\H,0,-2.597226,1.513161,0.134433\H,0,-1.275079,2.
 705847,0.050222\O,0,1.397218,1.900098,-0.082985\O,0,-2.185665,-1.20915

 Normal termination of Gaussian 16 at Tue Apr  8 23:34:49 2025.
