 Gaussian 16, Revision C.01,

 ----------------------------------------------------------------------
 #t hf aug-cc-pvdz symm=none int=(grid=ultrafine) guess=(read,tcheck) s
 table=(opt,rrhf)
 ----------------------------------------------------------------------
 -----
 title
 -----
 Symbolic Z-matrix:
 Charge =  0 Multiplicity = 1

 SCF Done:  E(RHF) =  -750.651548117     A.U. after   17 cycles
 Normal termination of Gaussian 16 at Tue Apr  8 23:36:00 2025.
 Gaussian 16:  ES64L-G16RevC.01  3-Jul-2019

 ----------------------------------------------------------------------
 #t hf aug-cc-pvdz iop(5/13=1,5/36=2,99/5=2) pseudo=read geom=check gue
 ss=(read,tcheck) scf=(maxcycle=1)
 ----------------------------------------------------------------------
 -----
 title
 -----
 Structure from the checkpoint file:  "BDE49_nonexpt_1537_mol1.chk"
 Charge =  0 Multiplicity = 1

                         Standard orientation:
 ---------------------------------------------------------------------
 Center     Atomic      Atomic             Coordinates (Angstroms)
 Number     Number       Type             X           Y           Z
 ---------------------------------------------------------------------
      1         15           0        0.072568   -1.134500    0.130713
      2          7           0        1.401128    0.212884   -0.136612
      3          7           0       -1.371701   -0.234167    0.248236
      4          8           0        2.555153   -0.150167   -0.035691
      5          8           0        1.024816    1.350669   -0.402802
      6          8           0       -1.403444    0.946077    0.993993
      7          8           0       -1.926996   -0.027301   -1.040821
      8          1           0       -2.862633   -0.234815   -0.916197
      9          1           0       -0.775515    1.542067    0.542608
     10          1           0        0.347401   -1.094998    1.514093
 ---------------------------------------------------------------------

 SCF Done:  E(RHF) =  -750.805149843     A.U. after    2 cycles

 The electronic state is 1-A.
 Alpha  occ. eigenvalues --  -81.37542 -20.65386 -20.64586 -20.64014 -20.63374
 Alpha  occ. eigenvalues --  -15.91179 -15.77624  -7.87245  -5.01283  -5.01032
 Alpha  occ. eigenvalues --   -5.00750  -1.55709  -1.45473  -1.38123  -1.34720
 Alpha  occ. eigenvalues --   -1.06934  -0.95725  -0.84560  -0.79711  -0.77110
 Alpha  occ. eigenvalues --   -0.75106  -0.73085  -0.69478  -0.67982  -0.65688
 Alpha  occ. eigenvalues --   -0.55507  -0.55085  -0.53734  -0.51713  -0.49313
 Alpha  occ. eigenvalues --   -0.44190  -0.43491
 Alpha virt. eigenvalues --    0.02940   0.04250   0.04857   0.06556   0.06805
 Alpha virt. eigenvalues --    0.08349   0.09171   0.11548   0.13395   0.14594
 Alpha virt. eigenvalues --    0.15528   0.15908   0.16417   0.17823   0.18202

 Mulliken charges:
               1
     1  P    1.118138
     2  N    0.381774
     3  N    0.001469
     4  O   -0.559631
     5  O   -0.569090
     6  O   -0.472106
     7  O   -0.469501
     8  H    0.225064
     9  H    0.243434
    10  H    0.100447
 Sum of Mulliken charges =   0.00000

 Dipole moment (field-independent basis, Debye):
    X=             -2.9643    Y=             -2.5429    Z=              0.6200  Tot=              3.9545

 Test job not archived.
 1\1\GINC-SE106\SP\RHF\Aug-CC-pVDZ\H3N2O4P1\OHZDE\08-Apr-2025\0\\#t hf
 aug-cc-pvdz iop(5/13=1,5/36=2,99/5=2) pseudo=read geom=check guess=(re
 ad,tcheck) scf=(maxcycle=1)\\title\\0,1\P,0,0.072568,-1.1345,0.130713\
 N,0,1.401128,0.212884,-0.136612\N,0,-1.371701,-0.234167,0.248236\O,0,2
 .555153,-0.150168,-0.035691\O,0,1.024816,1.350669,-0.402802\O,0,-1.403
 444,0.946077,0.993993\O,0,-1.926996,-0.027301,-1.040821\H,0,-2.862633,
 -0.234815,-0.916197\H,0,-0.775515,1.542067,0.542608\H,0,0.347401,-1.09
 4998,1.514093\\Version=ES64L-G16RevC.01\State=1-A\HF=-750.8051498\RMSD

 Normal termination of Gaussian 16 at Tue Apr  8 23:36:05 2025.
