 Gaussian 16, Revision C.01,

 ----------------------------------------------------------------------
 #t hf aug-cc-pvdz symm=none int=(grid=ultrafine) guess=(read,tcheck) s
 table=opt
 ----------------------------------------------------------------------
 -----
 title
 -----
 Symbolic Z-matrix:
 Charge =  0 Multiplicity = 2

 SCF Done:  E(UHF) =  -537.533598713     A.U. after   17 cycles

 1\1\GINC-SE097\Stability\UHF\Aug-CC-pVDZ\C2H4Cl1\OHZDE\08-Apr-2025\0\\
 #t hf aug-cc-pvdz symm=none int=(grid=ultrafine) guess=(read,tcheck) s
 table=opt\\title\\0,2\C,0,-0.612312,0.655695,0.000005\Cl,0,1.100852,-0
 .155974,-0.000004\H,0,-0.594797,1.270373,0.895963\H,0,-0.594802,1.2703
 82,-0.895948\C,0,-1.650277,-0.365159,0.000003\H,0,-1.974673,-0.8162,-0
 .928958\H,0,-1.974667,-0.81621,0.928961\\Version=ES64L-G16RevC.01\HF=-
 537.5335987\S2=0.771546\S2-1=0.\S2A=0.75032\RMSD=6.695e-09\Dipole=-0.9
 487205,0.3362591,0.0000044\Quadrupole=-0.9145125,0.3910539,0.5234586,0

 Normal termination of Gaussian 16 at Tue Apr  8 22:29:18 2025.
 Gaussian 16:  ES64L-G16RevC.01  3-Jul-2019

 ----------------------------------------------------------------------
 #t hf aug-cc-pvdz iop(5/13=1,5/36=2,99/5=2) pseudo=read geom=check gue
 ss=(read,tcheck) scf=(maxcycle=1)
 ----------------------------------------------------------------------
 -----
 title
 -----
 Structure from the checkpoint file:  "BDE49_expt_1026_mol2.chk"
 Charge =  0 Multiplicity = 2

                         Standard orientation:
 ---------------------------------------------------------------------
 Center     Atomic      Atomic             Coordinates (Angstroms)
 Number     Number       Type             X           Y           Z
 ---------------------------------------------------------------------
      1          6           0       -0.612312    0.655695    0.000005
      2         17           0        1.100852   -0.155974   -0.000004
      3          1           0       -0.594797    1.270373    0.895963
      4          1           0       -0.594802    1.270382   -0.895948
      5          6           0       -1.650277   -0.365159    0.000003
      6          1           0       -1.974673   -0.816200   -0.928958
      7          1           0       -1.974667   -0.816210    0.928961
 ---------------------------------------------------------------------

 SCF Done:  E(UHF) =  -537.576730546     A.U. after    2 cycles

 The electronic state is 2-A.
 Alpha  occ. eigenvalues -- -103.64259 -11.31582 -11.27167 -10.67488  -8.33514
 Alpha  occ. eigenvalues --   -8.32861  -8.32844  -1.15219  -1.03287  -0.84996
 Alpha  occ. eigenvalues --   -0.67546  -0.61219  -0.56633  -0.55759  -0.45223
 Alpha  occ. eigenvalues --   -0.44552  -0.38558
 Alpha virt. eigenvalues --    0.03494   0.04780   0.04853   0.07149   0.08632
 Alpha virt. eigenvalues --    0.11517   0.12435   0.14569   0.15191   0.16103
 Alpha virt. eigenvalues --    0.16271   0.17771   0.18976   0.19460   0.20155

  Beta  occ. eigenvalues -- -103.64020 -11.32023 -11.24789 -10.67230  -8.32746
  Beta  occ. eigenvalues --   -8.32699  -8.32545  -1.13479  -0.98707  -0.81307
  Beta  occ. eigenvalues --   -0.66787  -0.59973  -0.54998  -0.52705  -0.44413
  Beta  occ. eigenvalues --   -0.44117
  Beta virt. eigenvalues --    0.03451   0.04766   0.04878   0.04914   0.07162
  Beta virt. eigenvalues --    0.10522   0.12362   0.13025   0.14692   0.15619
  Beta virt. eigenvalues --    0.16214   0.17431   0.17860   0.19064   0.19502

 Mulliken charges and spin densities:
               1          2
     1  C   -0.042935  -0.248046
     2  Cl  -0.195861   0.145357
     3  H    0.015481   0.009957
     4  H    0.015484   0.009957
     5  C    0.573016   1.281840
     6  H   -0.182592  -0.099532
     7  H   -0.182593  -0.099532
 Sum of Mulliken charges =  -0.00000   1.00000

 Dipole moment (field-independent basis, Debye):
    X=             -2.4830    Y=              0.8741    Z=              0.0000  Tot=              2.6323
                          Isotropic Fermi Contact Couplings
        Atom                 a.u.       MegaHertz       Gauss      10(-4) cm-1
     1  C(13)             -0.05563     -62.54291     -22.31686     -20.86207
     2  Cl(35)             0.11014      48.29257      17.23199      16.10867
     3  H(1)               0.00567      25.33630       9.04062       8.45128
     4  H(1)               0.00567      25.33626       9.04061       8.45127
     5  C(13)              0.20596     231.54063      82.61946      77.23364
     6  H(1)              -0.02370    -105.95539     -37.80752     -35.34291
     7  H(1)              -0.02370    -105.95537     -37.80751     -35.34291
 --------------------------------------------------------

 Normal termination of Gaussian 16 at Tue Apr  8 22:29:20 2025.
