 Gaussian 16, Revision C.01,

 ----------------------------------------------------------------------
 #t hf aug-cc-pvdz symm=none int=(grid=ultrafine) guess=(read,tcheck) s
 table=(opt,rrhf)
 ----------------------------------------------------------------------
 -----
 title
 -----
 Symbolic Z-matrix:
 Charge =  0 Multiplicity = 1

 SCF Done:  E(RHF) =  -626.101669813     A.U. after   14 cycles
 Normal termination of Gaussian 16 at Tue Apr  8 23:51:08 2025.
 Gaussian 16:  ES64L-G16RevC.01  3-Jul-2019

 ----------------------------------------------------------------------
 #t hf aug-cc-pvdz iop(5/13=1,5/36=2,99/5=2) pseudo=read geom=check gue
 ss=(read,tcheck) scf=(maxcycle=1)
 ----------------------------------------------------------------------
 -----
 title
 -----
 Structure from the checkpoint file:  "BDE49_nonexpt_1911_mol1.chk"
 Charge =  0 Multiplicity = 1

                         Standard orientation:
 ---------------------------------------------------------------------
 Center     Atomic      Atomic             Coordinates (Angstroms)
 Number     Number       Type             X           Y           Z
 ---------------------------------------------------------------------
      1         14           0       -0.195885   -0.803577    0.000011
      2          6           0        0.511086    0.963940   -0.000019
      3          7           0        1.981940    1.003974   -0.000057
      4          7           0        2.465786   -0.135199   -0.000110
      5          7           0       -1.999625   -0.743347    0.000032
      6          1           0        0.127580   -1.573379    1.217923
      7          1           0        0.127551   -1.573402   -1.217895
      8          7           0       -2.510385    0.389930    0.000019
      9          6           0        3.928485   -0.160116    0.000038
     10          1           0        4.257319   -0.717579   -0.881127
     11          1           0        4.257153   -0.717762    0.881150
     12          1           0        4.347733    0.849338    0.000182
     13          6           0       -3.981780    0.376718    0.000037
     14          1           0       -4.320253    0.930317   -0.880932
     15          1           0       -4.320231    0.930348    0.880995
     16          1           0       -4.374956   -0.643978    0.000060
     17          1           0        0.164883    1.537718    0.866508
     18          1           0        0.164853    1.537705   -0.866542
 ---------------------------------------------------------------------

 SCF Done:  E(RHF) =  -626.225917882     A.U. after    2 cycles

 The electronic state is 1-A.
 Alpha  occ. eigenvalues --  -69.07611 -15.69762 -15.69524 -15.69513 -15.65481
 Alpha  occ. eigenvalues --  -11.26894 -11.25890 -11.25450  -6.82692  -3.93540
 Alpha  occ. eigenvalues --   -3.93422  -3.93420  -1.32778  -1.29348  -1.05469
 Alpha  occ. eigenvalues --   -1.00160  -0.93146  -0.80683  -0.77204  -0.68858
 Alpha  occ. eigenvalues --   -0.67015  -0.63293  -0.63157  -0.62044  -0.60470
 Alpha  occ. eigenvalues --   -0.58371  -0.57518  -0.54308  -0.51257  -0.49928
 Alpha  occ. eigenvalues --   -0.46426  -0.45358  -0.44473  -0.37994  -0.34406
 Alpha virt. eigenvalues --    0.03419   0.03623   0.04104   0.04457   0.05344
 Alpha virt. eigenvalues --    0.06160   0.06392   0.08095   0.08151   0.08601
 Alpha virt. eigenvalues --    0.09042   0.09679   0.11116   0.12223   0.12366

 Mulliken charges:
               1
     1  Si   0.623216
     2  C    0.624254
     3  N   -0.508156
     4  N   -0.352258
     5  N   -0.632891
     6  H    0.125130
     7  H    0.125135
     8  N   -0.466853
     9  C    0.755168
    10  H   -0.107407
    11  H   -0.107388
    12  H   -0.123309
    13  C    0.744168
    14  H   -0.101374
    15  H   -0.101375
    16  H   -0.129001
    17  H   -0.183517
    18  H   -0.183542
 Sum of Mulliken charges =  -0.00000

 Dipole moment (field-independent basis, Debye):
    X=              0.5948    Y=              0.5507    Z=              0.0001  Tot=              0.8106

 Test job not archived.
 1\1\GINC-SE070\SP\RHF\Aug-CC-pVDZ\C3H10N4Si1\OHZDE\08-Apr-2025\0\\#t h
 f aug-cc-pvdz iop(5/13=1,5/36=2,99/5=2) pseudo=read geom=check guess=(
 read,tcheck) scf=(maxcycle=1)\\title\\0,1\Si,0,0.195885,-0.803577,-0.0
 00011\C,0,-0.511086,0.96394,0.000019\N,0,-1.98194,1.003974,0.000057\N,
 0,-2.465786,-0.135199,0.00011\N,0,1.999625,-0.743347,-0.000032\H,0,-0.
 12758,-1.573379,-1.217923\H,0,-0.127551,-1.573402,1.217895\N,0,2.51038
 5,0.38993,-0.000019\C,0,-3.928485,-0.160116,-0.000038\H,0,-4.257319,-0
 .717579,0.881127\H,0,-4.257153,-0.717762,-0.88115\H,0,-4.347733,0.8493

 Normal termination of Gaussian 16 at Tue Apr  8 23:51:16 2025.
