 Gaussian 16, Revision C.01,

 ----------------------------------------------------------------------
 #t hf aug-cc-pvdz symm=none int=(grid=ultrafine) guess=(read,tcheck) s
 table=(opt,rrhf)
 ----------------------------------------------------------------------
 -----
 title
 -----
 Symbolic Z-matrix:
 Charge =  0 Multiplicity = 1

 SCF Done:  E(RHF) =  -198.600455642     A.U. after   12 cycles
 Normal termination of Gaussian 16 at Wed Apr  9 00:36:01 2025.
 Gaussian 16:  ES64L-G16RevC.01  3-Jul-2019

 ----------------------------------------------------------------------
 #t hf aug-cc-pvdz iop(5/13=1,5/36=2,99/5=2) pseudo=read geom=check gue
 ss=(read,tcheck) scf=(maxcycle=1)
 ----------------------------------------------------------------------
 -----
 title
 -----
 Structure from the checkpoint file:  "BDE49_nonexpt_554_mol1.chk"
 Charge =  0 Multiplicity = 1

                         Standard orientation:
 ---------------------------------------------------------------------
 Center     Atomic      Atomic             Coordinates (Angstroms)
 Number     Number       Type             X           Y           Z
 ---------------------------------------------------------------------
      1          5           0       -1.424640   -1.190666   -0.244963
      2          7           0       -0.588359   -0.132810    0.092047
      3          6           0        0.778173   -0.330758    0.592264
      4          6           0        1.870726    0.055444   -0.409457
      5          1           0        0.880144   -1.383988    0.855839
      6          1           0        0.902391    0.249585    1.515775
      7          1           0        1.773285   -0.528906   -1.327819
      8          1           0        2.857455   -0.142059    0.018589
      9          6           0       -1.001433    1.265909   -0.007297
     10          1           0       -2.037898    1.314523   -0.336423
     11          1           0       -0.385663    1.820619   -0.722518
     12          1           0       -0.916901    1.763689    0.966173
     13          1           0        1.833200    1.115178   -0.673106
     14          1           0       -2.524759   -0.960890   -0.645880
     15          1           0       -1.024338   -2.308322   -0.123204
 ---------------------------------------------------------------------

 SCF Done:  E(RHF) =  -198.667486427     A.U. after    2 cycles

 The electronic state is 1-A.
 Alpha  occ. eigenvalues --  -15.62107 -11.26732 -11.26224 -11.22882  -7.58646
 Alpha  occ. eigenvalues --   -1.18008  -1.00656  -0.91616  -0.82851  -0.70131
 Alpha  occ. eigenvalues --   -0.64071  -0.60564  -0.60092  -0.55828  -0.55268
 Alpha  occ. eigenvalues --   -0.52480  -0.50637  -0.48979  -0.45339  -0.37563
 Alpha virt. eigenvalues --    0.03365   0.04122   0.04351   0.04685   0.06266
 Alpha virt. eigenvalues --    0.06967   0.07152   0.07405   0.07702   0.09278
 Alpha virt. eigenvalues --    0.09599   0.11774   0.12017   0.13674   0.13880

 Mulliken charges:
               1
     1  B   -0.841451
     2  N   -0.315633
     3  C    0.652874
     4  C    0.309330
     5  H   -0.263533
     6  H   -0.169249
     7  H   -0.084493
     8  H   -0.036793
     9  C    0.746660
    10  H   -0.313377
    11  H   -0.103836
    12  H   -0.095763
    13  H   -0.124511
    14  H    0.350133
    15  H    0.289641
 Sum of Mulliken charges =  -0.00000

 Dipole moment (field-independent basis, Debye):
    X=              1.0988    Y=              1.2710    Z=              0.4020  Tot=              1.7275

 Test job not archived.
 1\1\GINC-SE343\SP\RHF\Aug-CC-pVDZ\C3H10B1N1\OHZDE\09-Apr-2025\0\\#t hf
  aug-cc-pvdz iop(5/13=1,5/36=2,99/5=2) pseudo=read geom=check guess=(r
 ead,tcheck) scf=(maxcycle=1)\\title\\0,1\B,0,-1.42464,-1.190666,-0.244
 963\N,0,-0.588359,-0.13281,0.092047\C,0,0.778173,-0.330758,0.592264\C,
 0,1.870726,0.055444,-0.409457\H,0,0.880144,-1.383988,0.855839\H,0,0.90
 2391,0.249585,1.515775\H,0,1.773285,-0.528906,-1.327819\H,0,2.857455,-
 0.142059,0.018589\C,0,-1.001433,1.265909,-0.007297\H,0,-2.037898,1.314
 523,-0.336423\H,0,-0.385663,1.820619,-0.722518\H,0,-0.916901,1.763689,

 Normal termination of Gaussian 16 at Wed Apr  9 00:36:05 2025.
