 Gaussian 16, Revision C.01,

 ----------------------------------------------------------------------
 #t hf aug-cc-pvdz symm=none int=(grid=ultrafine) guess=(read,tcheck) s
 table=(opt,rrhf)
 ----------------------------------------------------------------------
 -----
 title
 -----
 Symbolic Z-matrix:
 Charge =  0 Multiplicity = 1

 SCF Done:  E(RHF) =  -627.357906552     A.U. after   15 cycles
 Normal termination of Gaussian 16 at Tue Apr  8 23:34:45 2025.
 Gaussian 16:  ES64L-G16RevC.01  3-Jul-2019

 ----------------------------------------------------------------------
 #t hf aug-cc-pvdz iop(5/13=1,5/36=2,99/5=2) pseudo=read geom=check gue
 ss=(read,tcheck) scf=(maxcycle=1)
 ----------------------------------------------------------------------
 -----
 title
 -----
 Structure from the checkpoint file:  "BDE49_nonexpt_1499_mol1.chk"
 Charge =  0 Multiplicity = 1

                         Standard orientation:
 ---------------------------------------------------------------------
 Center     Atomic      Atomic             Coordinates (Angstroms)
 Number     Number       Type             X           Y           Z
 ---------------------------------------------------------------------
      1          6           0        1.386178    0.240162   -0.227529
      2          7           0       -1.391043   -0.200295    0.233505
      3          6           0       -1.515076    0.977971    1.089847
      4          1           0       -2.571958    1.146683    1.321349
      5          1           0       -1.109428    1.881920    0.619664
      6          1           0       -0.988607    0.808985    2.031530
      7          8           0        1.089230    1.263943   -0.802746
      8          6           0        2.814183   -0.086920    0.172921
      9          6           0       -2.272561   -0.181869   -0.933541
     10          1           0       -2.154869   -1.106739   -1.500885
     11          1           0       -2.064516    0.663260   -1.603265
     12          1           0       -3.315763   -0.113014   -0.605590
     13          1           0        3.040331   -1.146237    0.021488
     14          1           0        2.945735    0.128837    1.238437
     15          1           0        3.506587    0.531647   -0.399926
     16         15           0        0.058873   -1.066298    0.104859
     17          1           0        0.376504   -1.206423    1.481562
 ---------------------------------------------------------------------

 SCF Done:  E(RHF) =  -627.476269233     A.U. after    2 cycles

 The electronic state is 1-A.
 Alpha  occ. eigenvalues --  -81.28338 -20.56912 -15.62357 -11.34279 -11.26295
 Alpha  occ. eigenvalues --  -11.26188 -11.25028  -7.78406  -4.92572  -4.92325
 Alpha  occ. eigenvalues --   -4.92124  -1.35621  -1.17805  -1.00949  -0.95598
 Alpha  occ. eigenvalues --   -0.88815  -0.80167  -0.72187  -0.65967  -0.64435
 Alpha  occ. eigenvalues --   -0.62365  -0.61929  -0.60572  -0.58815  -0.55245
 Alpha  occ. eigenvalues --   -0.54955  -0.52180  -0.51778  -0.50919  -0.43282
 Alpha  occ. eigenvalues --   -0.37071  -0.33826
 Alpha virt. eigenvalues --    0.03245   0.04112   0.04644   0.05389   0.06127
 Alpha virt. eigenvalues --    0.06736   0.06920   0.07786   0.08266   0.08810
 Alpha virt. eigenvalues --    0.09787   0.10730   0.11363   0.12281   0.13169

 Mulliken charges:
               1
     1  C   -0.042777
     2  N   -0.756994
     3  C    0.724307
     4  H   -0.189790
     5  H   -0.022621
     6  H   -0.231598
     7  O   -0.541814
     8  C    0.238343
     9  C    0.716326
    10  H   -0.237136
    11  H   -0.021568
    12  H   -0.183925
    13  H   -0.009256
    14  H    0.032646
    15  H   -0.043899
    16  P    0.475678
    17  H    0.094080
 Sum of Mulliken charges =  -0.00000

 Dipole moment (field-independent basis, Debye):
    X=              0.1957    Y=             -1.1895    Z=              1.6868  Tot=              2.0733

 Test job not archived.
 1\1\GINC-SE423\SP\RHF\Aug-CC-pVDZ\C4H10N1O1P1\OHZDE\08-Apr-2025\0\\#t
 hf aug-cc-pvdz iop(5/13=1,5/36=2,99/5=2) pseudo=read geom=check guess=
 (read,tcheck) scf=(maxcycle=1)\\title\\0,1\C,0,1.386178,0.240162,-0.22
 7529\N,0,-1.391043,-0.200295,0.233505\C,0,-1.515076,0.977971,1.089847\
 H,0,-2.571958,1.146683,1.321349\H,0,-1.109428,1.88192,0.619664\H,0,-0.
 988607,0.808985,2.03153\O,0,1.08923,1.263943,-0.802746\C,0,2.814183,-0
 .08692,0.172921\C,0,-2.272561,-0.181869,-0.933541\H,0,-2.154869,-1.106
 739,-1.500885\H,0,-2.064516,0.66326,-1.603265\H,0,-3.315763,-0.113014,

 Normal termination of Gaussian 16 at Tue Apr  8 23:34:52 2025.
