 Gaussian 16, Revision C.01,

 ----------------------------------------------------------------------
 #t hf aug-cc-pvdz symm=none int=(grid=ultrafine) guess=(read,tcheck) s
 table=(opt,rrhf)
 ----------------------------------------------------------------------
 -----
 title
 -----
 Symbolic Z-matrix:
 Charge =  0 Multiplicity = 1

 SCF Done:  E(RHF) =  -885.818075455     A.U. after   15 cycles
 Normal termination of Gaussian 16 at Wed Apr  9 00:10:54 2025.
 Gaussian 16:  ES64L-G16RevC.01  3-Jul-2019

 ----------------------------------------------------------------------
 #t hf aug-cc-pvdz iop(5/13=1,5/36=2,99/5=2) pseudo=read geom=check gue
 ss=(read,tcheck) scf=(maxcycle=1)
 ----------------------------------------------------------------------
 -----
 title
 -----
 Structure from the checkpoint file:  "BDE49_nonexpt_2367_mol1.chk"
 Charge =  0 Multiplicity = 1

                         Standard orientation:
 ---------------------------------------------------------------------
 Center     Atomic      Atomic             Coordinates (Angstroms)
 Number     Number       Type             X           Y           Z
 ---------------------------------------------------------------------
      1         14           0       -1.921820   -0.791695   -0.624506
      2         14           0       -2.912465    0.928714    0.660822
      3          8           0       -0.396509   -1.214601   -0.098941
      4          1           0       -1.888800   -0.391806   -2.054821
      5          1           0       -2.700577   -2.040445   -0.493291
      6          1           0       -4.324917    1.069869    0.225144
      7          1           0       -2.228719    2.229011    0.464008
      8          6           0        0.783987   -0.522971   -0.065783
      9          1           0       -2.890301    0.587878    2.103114
     10          6           0        1.848829   -1.110016    0.621886
     11          6           0        0.955092    0.714080   -0.690986
     12          6           0        3.075115   -0.458323    0.683536
     13          6           0        3.253234    0.779218    0.064398
     14          6           0        2.189464    1.358468   -0.620931
     15          1           0        1.693126   -2.070964    1.096633
     16          1           0        3.896659   -0.920406    1.219476
     17          1           0        4.210479    1.284173    0.115611
     18          1           0        2.314262    2.318616   -1.108882
     19          1           0        0.136520    1.169881   -1.236608
 ---------------------------------------------------------------------

 SCF Done:  E(RHF) =  -885.960215824     A.U. after    2 cycles

 The electronic state is 1-A.
 Alpha  occ. eigenvalues --  -69.10281 -69.06421 -20.58822 -11.31986 -11.25357
 Alpha  occ. eigenvalues --  -11.25208 -11.24621 -11.24128 -11.24072  -6.85085
 Alpha  occ. eigenvalues --   -6.81869  -3.95977  -3.95836  -3.95787  -3.92627
 Alpha  occ. eigenvalues --   -3.92622  -3.92593  -1.34495  -1.14064  -1.01747
 Alpha  occ. eigenvalues --   -1.00435  -0.85231  -0.83534  -0.75859  -0.72020
 Alpha  occ. eigenvalues --   -0.68764  -0.66534  -0.62928  -0.62001  -0.60976
 Alpha  occ. eigenvalues --   -0.59660  -0.55899  -0.52473  -0.50741  -0.49708
 Alpha  occ. eigenvalues --   -0.48775  -0.48529  -0.46847  -0.40076  -0.34760
 Alpha  occ. eigenvalues --   -0.32373
 Alpha virt. eigenvalues --    0.03315   0.04051   0.04201   0.04494   0.05513
 Alpha virt. eigenvalues --    0.05883   0.06969   0.07166   0.07238   0.07622
 Alpha virt. eigenvalues --    0.08181   0.09162   0.09533   0.10027   0.10053

 Mulliken charges:
               1
     1  Si   0.368579
     2  Si  -0.296378
     3  O   -0.802621
     4  H    0.155470
     5  H    0.037624
     6  H    0.029124
     7  H    0.066058
     8  C    0.341342
     9  H    0.034419
    10  C    0.290111
    11  C    0.525295
    12  C    0.744840
    13  C    0.439335
    14  C    0.567301
    15  H   -0.541829
    16  H   -0.430392
    17  H   -0.447939
    18  H   -0.438933
    19  H   -0.641409
 Sum of Mulliken charges =   0.00000

 Dipole moment (field-independent basis, Debye):
    X=              0.0383    Y=              0.7285    Z=             -0.1731  Tot=              0.7498

 Test job not archived.
 1\1\GINC-SE249\SP\RHF\Aug-CC-pVDZ\C6H10O1Si2\OHZDE\09-Apr-2025\0\\#t h
 f aug-cc-pvdz iop(5/13=1,5/36=2,99/5=2) pseudo=read geom=check guess=(
 read,tcheck) scf=(maxcycle=1)\\title\\0,1\Si,0,-1.92182,-0.791695,-0.6
 24506\Si,0,-2.912465,0.928714,0.660822\O,0,-0.396509,-1.214601,-0.0989
 41\H,0,-1.8888,-0.391806,-2.054821\H,0,-2.700577,-2.040445,-0.493291\H
 ,0,-4.324917,1.06987,0.225144\H,0,-2.228719,2.229011,0.464008\C,0,0.78
 3987,-0.522971,-0.065783\H,0,-2.890301,0.587878,2.103114\C,0,1.848829,
 -1.110016,0.621886\C,0,0.955092,0.71408,-0.690986\C,0,3.075115,-0.4583

 Normal termination of Gaussian 16 at Wed Apr  9 00:11:05 2025.
