 Gaussian 16, Revision C.01,

 ----------------------------------------------------------------------
 #t hf aug-cc-pvdz symm=none int=(grid=ultrafine) guess=(read,tcheck) s
 table=(opt,rrhf)
 ----------------------------------------------------------------------
 -----
 title
 -----
 Symbolic Z-matrix:
 Charge =  0 Multiplicity = 1

 SCF Done:  E(RHF) =  -360.949603467     A.U. after   13 cycles
 Normal termination of Gaussian 16 at Tue Apr  8 23:02:09 2025.
 Gaussian 16:  ES64L-G16RevC.01  3-Jul-2019

 ----------------------------------------------------------------------
 #t hf aug-cc-pvdz iop(5/13=1,5/36=2,99/5=2) pseudo=read geom=check gue
 ss=(read,tcheck) scf=(maxcycle=1)
 ----------------------------------------------------------------------
 -----
 title
 -----
 Structure from the checkpoint file:  "BDE49_expt_366_mol1.chk"
 Charge =  0 Multiplicity = 1

                         Standard orientation:
 ---------------------------------------------------------------------
 Center     Atomic      Atomic             Coordinates (Angstroms)
 Number     Number       Type             X           Y           Z
 ---------------------------------------------------------------------
      1          6           0       -1.659139   -0.804351    0.150530
      2          6           0       -0.523319    0.195408    0.056481
      3          8           0       -0.665747    1.393056    0.061781
      4          8           0        0.669670   -0.423807    0.010531
      5          7           0       -2.904054   -0.186638   -0.285953
      6          1           0       -1.654156   -1.158547    1.196511
      7          1           0       -1.411796   -1.669741   -0.470354
      8          1           0       -2.927574    0.774608    0.040513
      9          1           0       -3.701872   -0.672558    0.106107
     10          6           0        1.838482    0.434246   -0.009173
     11          6           0        3.057949   -0.462129   -0.066995
     12          1           0        1.828678    1.059330    0.886943
     13          1           0        1.770972    1.094990   -0.876184
     14          1           0        3.099828   -1.120031    0.803781
     15          1           0        3.965712    0.146625   -0.082670
     16          1           0        3.043364   -1.081240   -0.966529
 ---------------------------------------------------------------------

 SCF Done:  E(RHF) =  -361.065091347     A.U. after    2 cycles

 The electronic state is 1-A.
 Alpha  occ. eigenvalues --  -20.61730 -20.56253 -15.61172 -11.39418 -11.30308
 Alpha  occ. eigenvalues --  -11.28280 -11.23878  -1.42094  -1.32742  -1.15748
 Alpha  occ. eigenvalues --   -1.04591  -0.95410  -0.86079  -0.78721  -0.72506
 Alpha  occ. eigenvalues --   -0.69914  -0.68868  -0.63844  -0.62790  -0.58339
 Alpha  occ. eigenvalues --   -0.56985  -0.56151  -0.55090  -0.52194  -0.51686
 Alpha  occ. eigenvalues --   -0.47672  -0.46662  -0.39483
 Alpha virt. eigenvalues --    0.03251   0.03924   0.04797   0.04936   0.05859
 Alpha virt. eigenvalues --    0.06297   0.06488   0.07889   0.08626   0.10987
 Alpha virt. eigenvalues --    0.12221   0.13532   0.13803   0.14631   0.15405

 Mulliken charges:
               1
     1  C    0.752835
     2  C    0.163816
     3  O   -0.483558
     4  O   -0.537179
     5  N   -0.370709
     6  H    0.035519
     7  H   -0.109161
     8  H    0.045566
     9  H    0.004161
    10  C    0.662747
    11  C    0.251325
    12  H   -0.152643
    13  H   -0.157771
    14  H   -0.043406
    15  H   -0.021100
    16  H   -0.040442
 Sum of Mulliken charges =   0.00000

 Dipole moment (field-independent basis, Debye):
    X=              1.0974    Y=             -1.8332    Z=              1.3905  Tot=              2.5492

 Test job not archived.
 1\1\GINC-SE073\SP\RHF\Aug-CC-pVDZ\C4H9N1O2\OHZDE\08-Apr-2025\0\\#t hf
 aug-cc-pvdz iop(5/13=1,5/36=2,99/5=2) pseudo=read geom=check guess=(re
 ad,tcheck) scf=(maxcycle=1)\\title\\0,1\C,0,-1.659139,-0.804351,0.1505
 3\C,0,-0.523319,0.195408,0.056481\O,0,-0.665747,1.393056,0.061781\O,0,
 0.66967,-0.423807,0.010531\N,0,-2.904054,-0.186638,-0.285953\H,0,-1.65
 4156,-1.158547,1.196511\H,0,-1.411796,-1.669741,-0.470354\H,0,-2.92757
 4,0.774608,0.040513\H,0,-3.701872,-0.672558,0.106107\C,0,1.838482,0.43
 4246,-0.009173\C,0,3.057949,-0.462129,-0.066995\H,0,1.828678,1.05933,0

 Normal termination of Gaussian 16 at Tue Apr  8 23:02:14 2025.
