 Gaussian 16, Revision C.01,

 ----------------------------------------------------------------------
 #t hf aug-cc-pvdz symm=none int=(grid=ultrafine) guess=(read,tcheck) s
 table=(opt,rrhf)
 ----------------------------------------------------------------------
 -----
 title
 -----
 Symbolic Z-matrix:
 Charge =  0 Multiplicity = 1

 SCF Done:  E(RHF) =  -794.916963970     A.U. after   15 cycles
 Normal termination of Gaussian 16 at Tue Apr  8 23:38:50 2025.
 Gaussian 16:  ES64L-G16RevC.01  3-Jul-2019

 ----------------------------------------------------------------------
 #t hf aug-cc-pvdz iop(5/13=1,5/36=2,99/5=2) pseudo=read geom=check gue
 ss=(read,tcheck) scf=(maxcycle=1)
 ----------------------------------------------------------------------
 -----
 title
 -----
 Structure from the checkpoint file:  "BDE49_nonexpt_1593_mol1.chk"
 Charge =  0 Multiplicity = 1

                         Standard orientation:
 ---------------------------------------------------------------------
 Center     Atomic      Atomic             Coordinates (Angstroms)
 Number     Number       Type             X           Y           Z
 ---------------------------------------------------------------------
      1          8           0       -0.261908   -0.311466   -0.735252
      2         15           0        1.104826   -0.067631    0.131828
      3          8           0        0.953284   -0.220610    1.577892
      4          8           0        2.057044   -1.100668   -0.602159
      5          8           0       -1.132170    0.821175   -0.367817
      6          6           0       -2.169685    0.318865    0.495669
      7          6           0       -3.132564   -0.610669   -0.219485
      8          1           0       -2.659186    1.247619    0.806735
      9          1           0       -1.705452   -0.141524    1.370860
     10          1           0       -3.580754   -0.116326   -1.084058
     11          1           0       -3.932416   -0.908905    0.464146
     12          1           0       -2.619484   -1.511524   -0.558807
     13          8           0        1.679297    1.308791   -0.413640
     14          1           0        1.049731    2.031431   -0.295595
     15          1           0        2.324289   -1.813265   -0.010002
 ---------------------------------------------------------------------

 SCF Done:  E(RHF) =  -795.138327336     A.U. after    2 cycles

 The electronic state is 1-A.
 Alpha  occ. eigenvalues --  -81.45709 -20.67548 -20.66215 -20.63055 -20.62482
 Alpha  occ. eigenvalues --  -20.53804 -11.31059 -11.24035  -7.93643  -5.08315
 Alpha  occ. eigenvalues --   -5.08258  -5.08183  -1.45267  -1.39380  -1.36326
 Alpha  occ. eigenvalues --   -1.27575  -1.23536  -1.01979  -0.87823  -0.85519
 Alpha  occ. eigenvalues --   -0.76934  -0.75461  -0.70892  -0.70438  -0.67921
 Alpha  occ. eigenvalues --   -0.65455  -0.62710  -0.61187  -0.60211  -0.58210
 Alpha  occ. eigenvalues --   -0.56984  -0.55806  -0.54321  -0.51331  -0.50737
 Alpha  occ. eigenvalues --   -0.50194  -0.48172
 Alpha virt. eigenvalues --    0.03175   0.04141   0.04505   0.05257   0.05807
 Alpha virt. eigenvalues --    0.07368   0.08017   0.09639   0.10402   0.11803
 Alpha virt. eigenvalues --    0.12161   0.13492   0.14134   0.15473   0.16274

 Mulliken charges:
               1
     1  O   -0.768013
     2  P    2.555526
     3  O   -0.867189
     4  O   -0.635436
     5  O   -0.491710
     6  C    0.809657
     7  C    0.162132
     8  H   -0.168579
     9  H   -0.155284
    10  H   -0.041296
    11  H   -0.002332
    12  H   -0.051557
    13  O   -0.663879
    14  H    0.164623
    15  H    0.153338
 Sum of Mulliken charges =  -0.00000

 Dipole moment (field-independent basis, Debye):
    X=             -2.0452    Y=             -0.0687    Z=             -0.1429  Tot=              2.0514

 Test job not archived.
 1\1\GINC-SE186\SP\RHF\Aug-CC-pVDZ\C2H7O5P1\OHZDE\08-Apr-2025\0\\#t hf
 aug-cc-pvdz iop(5/13=1,5/36=2,99/5=2) pseudo=read geom=check guess=(re
 ad,tcheck) scf=(maxcycle=1)\\title\\0,1\O,0,0.261908,0.311466,-0.73525
 2\P,0,-1.104826,0.067631,0.131828\O,0,-0.953284,0.22061,1.577892\O,0,-
 2.057044,1.100668,-0.602159\O,0,1.13217,-0.821175,-0.367817\C,0,2.1696
 85,-0.318865,0.495669\C,0,3.132564,0.610669,-0.219485\H,0,2.659186,-1.
 247619,0.806735\H,0,1.705452,0.141524,1.37086\H,0,3.580754,0.116326,-1
 .084058\H,0,3.932416,0.908905,0.464146\H,0,2.619484,1.511524,-0.558807

 Normal termination of Gaussian 16 at Tue Apr  8 23:38:56 2025.
