 Gaussian 16, Revision C.01,

 ----------------------------------------------------------------------
 #t hf aug-cc-pvdz symm=none int=(grid=ultrafine) guess=(read,tcheck) s
 table=(opt,rrhf)
 ----------------------------------------------------------------------
 -----
 title
 -----
 Symbolic Z-matrix:
 Charge =  0 Multiplicity = 1

 SCF Done:  E(RHF) =  -533.297333470     A.U. after   15 cycles
 Normal termination of Gaussian 16 at Tue Apr  8 23:27:04 2025.
 Gaussian 16:  ES64L-G16RevC.01  3-Jul-2019

 ----------------------------------------------------------------------
 #t hf aug-cc-pvdz iop(5/13=1,5/36=2,99/5=2) pseudo=read geom=check gue
 ss=(read,tcheck) scf=(maxcycle=1)
 ----------------------------------------------------------------------
 -----
 title
 -----
 Structure from the checkpoint file:  "BDE49_nonexpt_1339_mol1.chk"
 Charge =  0 Multiplicity = 1

                         Standard orientation:
 ---------------------------------------------------------------------
 Center     Atomic      Atomic             Coordinates (Angstroms)
 Number     Number       Type             X           Y           Z
 ---------------------------------------------------------------------
      1         15           0        0.747151   -0.784447   -0.263935
      2          6           0        2.019976    0.453734    0.264609
      3          1           0        1.790322    0.911340    1.226715
      4          1           0        2.056889    1.237837   -0.492671
      5          1           0        2.995703   -0.033719    0.308318
      6          6           0       -0.804765    0.262806   -0.042321
      7          6           0       -2.108723   -0.476885    0.191532
      8          1           0       -2.200686   -1.331338   -0.484498
      9          1           0       -2.945666    0.207669    0.049323
     10          1           0       -2.129894   -0.865216    1.214782
     11          8           0       -0.751309    1.464784   -0.160924
     12          1           0        0.597599   -1.516071    0.941536
 ---------------------------------------------------------------------

 SCF Done:  E(RHF) =  -533.381014357     A.U. after    2 cycles

 The electronic state is 1-A.
 Alpha  occ. eigenvalues --  -81.26553 -20.57328 -11.35085 -11.25186 -11.24340
 Alpha  occ. eigenvalues --   -7.76980  -4.90955  -4.90940  -4.90606  -1.36202
 Alpha  occ. eigenvalues --   -1.01292  -0.96947  -0.82054  -0.71932  -0.64763
 Alpha  occ. eigenvalues --   -0.62847  -0.61443  -0.58147  -0.57764  -0.54129
 Alpha  occ. eigenvalues --   -0.52087  -0.49052  -0.41501  -0.35033
 Alpha virt. eigenvalues --    0.03304   0.04176   0.05412   0.05456   0.06786
 Alpha virt. eigenvalues --    0.07083   0.07586   0.09344   0.10174   0.10889
 Alpha virt. eigenvalues --    0.12238   0.12734   0.14078   0.15103   0.15744

 Mulliken charges:
               1
     1  P    0.376057
     2  C    0.189235
     3  H   -0.145132
     4  H   -0.073574
     5  H   -0.180986
     6  C   -0.084235
     7  C    0.264727
     8  H    0.024739
     9  H   -0.058054
    10  H    0.023435
    11  O   -0.501514
    12  H    0.165303
 Sum of Mulliken charges =   0.00000

 Dipole moment (field-independent basis, Debye):
    X=              0.1324    Y=             -2.3397    Z=              1.1427  Tot=              2.6072

 Test job not archived.
 1\1\GINC-SE368\SP\RHF\Aug-CC-pVDZ\C3H7O1P1\OHZDE\08-Apr-2025\0\\#t hf
 aug-cc-pvdz iop(5/13=1,5/36=2,99/5=2) pseudo=read geom=check guess=(re
 ad,tcheck) scf=(maxcycle=1)\\title\\0,1\P,0,0.747151,-0.784447,-0.2639
 35\C,0,2.019976,0.453734,0.264609\H,0,1.790322,0.91134,1.226715\H,0,2.
 056889,1.237837,-0.492671\H,0,2.995703,-0.033719,0.308318\C,0,-0.80476
 5,0.262806,-0.042321\C,0,-2.108723,-0.476885,0.191532\H,0,-2.200686,-1
 .331338,-0.484498\H,0,-2.945666,0.207669,0.049323\H,0,-2.129894,-0.865
 216,1.214782\O,0,-0.751309,1.464784,-0.160924\H,0,0.597599,-1.516071,0

 Normal termination of Gaussian 16 at Tue Apr  8 23:27:07 2025.
