 Gaussian 16, Revision C.01,

 ----------------------------------------------------------------------
 #t hf aug-cc-pvdz symm=none int=(grid=ultrafine) guess=(read,tcheck) s
 table=(opt,rrhf)
 ----------------------------------------------------------------------
 -----
 title
 -----
 Symbolic Z-matrix:
 Charge =  0 Multiplicity = 1

 SCF Done:  E(RHF) =  -460.595117043     A.U. after   16 cycles
 Normal termination of Gaussian 16 at Tue Apr  8 23:02:36 2025.
 Gaussian 16:  ES64L-G16RevC.01  3-Jul-2019

 ----------------------------------------------------------------------
 #t hf aug-cc-pvdz iop(5/13=1,5/36=2,99/5=2) pseudo=read geom=check gue
 ss=(read,tcheck) scf=(maxcycle=1)
 ----------------------------------------------------------------------
 -----
 title
 -----
 Structure from the checkpoint file:  "BDE49_expt_236_mol1.chk"
 Charge =  0 Multiplicity = 1

                         Standard orientation:
 ---------------------------------------------------------------------
 Center     Atomic      Atomic             Coordinates (Angstroms)
 Number     Number       Type             X           Y           Z
 ---------------------------------------------------------------------
      1          6           0        2.826425    0.926722    0.193875
      2          6           0        1.467896    1.212645    0.194952
      3          6           0        3.266082   -0.373192   -0.060318
      4          6           0        2.339628   -1.381820   -0.312903
      5          6           0        0.976793   -1.094577   -0.312382
      6          6           0        0.524167    0.206646   -0.057778
      7          1           0        1.104203    2.214130    0.388161
      8          1           0        3.545316    1.714156    0.390260
      9          6           0       -2.007386   -0.479848   -0.223490
     10          6           0       -3.302914    0.127944   -0.769151
     11          1           0        4.326838   -0.598042   -0.062111
     12          6           0       -0.930219    0.595888   -0.045116
     13          1           0        0.273406   -1.892683   -0.513028
     14          1           0        2.677225   -2.392571   -0.511991
     15          8           0       -1.245648    1.756060    0.138367
     16          6           0       -2.242996   -1.181339    1.131998
     17          1           0       -1.643470   -1.226892   -0.935902
     18          1           0       -2.611342   -0.463613    1.870089
     19          1           0       -1.330459   -1.633493    1.527191
     20          1           0       -2.992443   -1.969577    1.022606
     21          1           0       -3.673672    0.906205   -0.100460
     22          1           0       -4.070193   -0.644293   -0.870337
     23          1           0       -3.145089    0.583770   -1.749541
 ---------------------------------------------------------------------

 SCF Done:  E(RHF) =  -460.733090214     A.U. after    2 cycles

 The electronic state is 1-A.
 Alpha  occ. eigenvalues --  -20.55732 -11.34180 -11.26366 -11.26160 -11.25767
 Alpha  occ. eigenvalues --  -11.25522 -11.25470 -11.25271 -11.25268 -11.23748
 Alpha  occ. eigenvalues --  -11.22429  -1.35001  -1.15615  -1.07666  -1.03107
 Alpha  occ. eigenvalues --   -1.02179  -0.93345  -0.89211  -0.84598  -0.82195
 Alpha  occ. eigenvalues --   -0.75002  -0.71920  -0.67212  -0.65495  -0.63576
 Alpha  occ. eigenvalues --   -0.62254  -0.61141  -0.60150  -0.58058  -0.55010
 Alpha  occ. eigenvalues --   -0.53644  -0.53493  -0.52566  -0.50657  -0.50556
 Alpha  occ. eigenvalues --   -0.48753  -0.48190  -0.42060  -0.35348  -0.34940
 Alpha virt. eigenvalues --    0.02911   0.03545   0.04187   0.04803   0.05248
 Alpha virt. eigenvalues --    0.05578   0.06427   0.06661   0.07300   0.07633
 Alpha virt. eigenvalues --    0.07720   0.08174   0.10078   0.10405   0.10595

 Mulliken charges:
               1
     1  C    0.542578
     2  C   -0.042361
     3  C    0.633231
     4  C    0.326757
     5  C    0.603486
     6  C    1.508164
     7  H   -0.618424
     8  H   -0.427874
     9  C   -0.823610
    10  C    0.885896
    11  H   -0.438182
    12  C   -0.676301
    13  H   -0.790791
    14  H   -0.478907
    15  O   -0.514461
    16  C    0.636353
    17  H   -0.044062
    18  H    0.004661
    19  H   -0.130810
    20  H   -0.096819
    21  H    0.014037
    22  H   -0.018807
    23  H   -0.053752
 Sum of Mulliken charges =  -0.00000

 Dipole moment (field-independent basis, Debye):
    X=              1.3855    Y=             -3.1094    Z=             -0.3257  Tot=              3.4197

 Test job not archived.
 1\1\GINC-SE339\SP\RHF\Aug-CC-pVDZ\C10H12O1\OHZDE\08-Apr-2025\0\\#t hf
 aug-cc-pvdz iop(5/13=1,5/36=2,99/5=2) pseudo=read geom=check guess=(re
 ad,tcheck) scf=(maxcycle=1)\\title\\0,1\C,0,2.826425,0.926722,0.193875
 \C,0,1.467896,1.212645,0.194952\C,0,3.266082,-0.373192,-0.060318\C,0,2
 .339628,-1.38182,-0.312903\C,0,0.976793,-1.094577,-0.312382\C,0,0.5241
 67,0.206646,-0.057778\H,0,1.104203,2.21413,0.388161\H,0,3.545316,1.714
 156,0.39026\C,0,-2.007386,-0.479848,-0.22349\C,0,-3.302914,0.127944,-0
 .769151\H,0,4.326838,-0.598042,-0.062111\C,0,-0.930219,0.595888,-0.045

 Normal termination of Gaussian 16 at Tue Apr  8 23:02:51 2025.
