 Gaussian 16, Revision C.01,

 ----------------------------------------------------------------------
 #t hf aug-cc-pvdz symm=none int=(grid=ultrafine) guess=(read,tcheck) s
 table=(opt,rrhf)
 ----------------------------------------------------------------------
 -----
 title
 -----
 Symbolic Z-matrix:
 Charge =  0 Multiplicity = 1

 SCF Done:  E(RHF) =  -635.200568814     A.U. after   16 cycles
 Normal termination of Gaussian 16 at Wed Apr  9 00:52:59 2025.
 Gaussian 16:  ES64L-G16RevC.01  3-Jul-2019

 ----------------------------------------------------------------------
 #t hf aug-cc-pvdz iop(5/13=1,5/36=2,99/5=2) pseudo=read geom=check gue
 ss=(read,tcheck) scf=(maxcycle=1)
 ----------------------------------------------------------------------
 -----
 title
 -----
 Structure from the checkpoint file:  "BDE49_nonexpt_977_mol1.chk"
 Charge =  0 Multiplicity = 1

                         Standard orientation:
 ---------------------------------------------------------------------
 Center     Atomic      Atomic             Coordinates (Angstroms)
 Number     Number       Type             X           Y           Z
 ---------------------------------------------------------------------
      1          6           0        0.857337    0.150538   -0.084577
      2          6           0        1.309683   -1.175444   -0.132125
      3          1           0        0.603293   -1.982945   -0.239162
      4          6           0        2.674591   -1.424111   -0.029342
      5          1           0        3.019642   -2.451116   -0.062712
      6          6           0        3.589323   -0.383523    0.110473
      7          1           0        4.649673   -0.592226    0.186877
      8          6           0        3.125459    0.928065    0.148155
      9          1           0        3.822773    1.751044    0.254417
     10          6           0        1.765783    1.205381    0.050699
     11          1           0        1.412999    2.225393    0.080067
     12          7           0       -0.526514    0.435386   -0.203435
     13          9           0       -0.816023    1.803698   -0.122502
     14          6           0       -1.650850   -0.356711   -0.024421
     15          8           0       -1.586337   -1.560933    0.022113
     16          6           0       -2.959663    0.431529    0.060613
     17          9           0       -4.001826   -0.458496    0.158174
     18          1           0       -3.089891    1.049065   -0.831631
     19          1           0       -2.951525    1.079402    0.941380
 ---------------------------------------------------------------------

 SCF Done:  E(RHF) =  -635.400928553     A.U. after    2 cycles

 The electronic state is 1-A.
 Alpha  occ. eigenvalues --  -26.19321 -26.12726 -20.58087 -15.77609 -11.41217
 Alpha  occ. eigenvalues --  -11.36008 -11.32399 -11.26226 -11.26102 -11.26031
 Alpha  occ. eigenvalues --  -11.25681 -11.25344  -1.71335  -1.66257  -1.39406
 Alpha  occ. eigenvalues --   -1.23492  -1.15070  -1.06078  -1.02866  -1.00325
 Alpha  occ. eigenvalues --   -0.90137  -0.85867  -0.82504  -0.80689  -0.79481
 Alpha  occ. eigenvalues --   -0.79300  -0.76990  -0.74288  -0.73356  -0.69460
 Alpha  occ. eigenvalues --   -0.68987  -0.64467  -0.63521  -0.62999  -0.61725
 Alpha  occ. eigenvalues --   -0.60673  -0.57194  -0.54129  -0.53444  -0.51932
 Alpha  occ. eigenvalues --   -0.47577  -0.46971  -0.35705  -0.33343
 Alpha virt. eigenvalues --    0.03039   0.03437   0.04147   0.05024   0.05344
 Alpha virt. eigenvalues --    0.06052   0.07181   0.08843   0.09627   0.09925
 Alpha virt. eigenvalues --    0.10606   0.11132   0.11777   0.12641   0.13100

 Mulliken charges:
               1
     1  C    0.693424
     2  C    0.106375
     3  H   -0.593786
     4  C    0.714416
     5  H   -0.444937
     6  C    0.549139
     7  H   -0.450043
     8  C    0.595329
     9  H   -0.436094
    10  C    0.543754
    11  H   -0.551129
    12  N   -0.386931
    13  F   -0.457768
    14  C    0.203254
    15  O   -0.464544
    16  C    0.726832
    17  F   -0.348997
    18  H   -0.011387
    19  H    0.013093
 Sum of Mulliken charges =  -0.00000

 Dipole moment (field-independent basis, Debye):
    X=              2.4259    Y=              2.9158    Z=             -0.0454  Tot=              3.7933

 Test job not archived.
 1\1\GINC-SE072\SP\RHF\Aug-CC-pVDZ\C8H7F2N1O1\OHZDE\09-Apr-2025\0\\#t h
 f aug-cc-pvdz iop(5/13=1,5/36=2,99/5=2) pseudo=read geom=check guess=(
 read,tcheck) scf=(maxcycle=1)\\title\\0,1\C,0,-0.857337,0.150538,0.084
 577\C,0,-1.309683,-1.175444,0.132125\H,0,-0.603293,-1.982945,0.239162\
 C,0,-2.674591,-1.424111,0.029342\H,0,-3.019642,-2.451116,0.062712\C,0,
 -3.589323,-0.383523,-0.110473\H,0,-4.649673,-0.592226,-0.186877\C,0,-3
 .125459,0.928065,-0.148155\H,0,-3.822773,1.751044,-0.254417\C,0,-1.765
 783,1.205381,-0.050699\H,0,-1.412999,2.225393,-0.080067\N,0,0.526514,0

 Normal termination of Gaussian 16 at Wed Apr  9 00:53:12 2025.
