 Gaussian 16, Revision C.01,

 ----------------------------------------------------------------------
 #t hf aug-cc-pvdz symm=none int=(grid=ultrafine) guess=(read,tcheck) s
 table=opt
 ----------------------------------------------------------------------
 -----
 title
 -----
 Symbolic Z-matrix:
 Charge =  0 Multiplicity = 2

 SCF Done:  E(UHF) =  -39.5658099566     A.U. after   11 cycles
 Normal termination of Gaussian 16 at Tue Apr  8 22:26:14 2025.
 Gaussian 16:  ES64L-G16RevC.01  3-Jul-2019

 ----------------------------------------------------------------------
 #t hf aug-cc-pvdz iop(5/13=1,5/36=2,99/5=2) pseudo=read geom=check gue
 ss=(read,tcheck) scf=(maxcycle=1)
 ----------------------------------------------------------------------
 -----
 title
 -----
 Structure from the checkpoint file:  "BDE49_expt_1001_mol3.chk"
 Charge =  0 Multiplicity = 2

                         Standard orientation:
 ---------------------------------------------------------------------
 Center     Atomic      Atomic             Coordinates (Angstroms)
 Number     Number       Type             X           Y           Z
 ---------------------------------------------------------------------
      1          6           0        0.000000    0.000000    0.000000
      2          1           0       -0.000000    0.000000    1.080500
      3          1           0        0.000000    0.935740   -0.540250
      4          1           0       -0.000000   -0.935740   -0.540250
 ---------------------------------------------------------------------

 SCF Done:  E(UHF) =  -39.5806306291     A.U. after    2 cycles

 The electronic state is 2-B1.
 Alpha  occ. eigenvalues --  -11.24643  -0.94446  -0.58373  -0.58373  -0.38661
 Alpha virt. eigenvalues --    0.03689   0.06006   0.06006   0.11628   0.15102
 Alpha virt. eigenvalues --    0.15102   0.17343   0.28453   0.28453   0.28804
 Alpha virt. eigenvalues --    0.36206   0.36206   0.44445   0.44445   0.48415

  Beta  occ. eigenvalues --  -11.22246  -0.85330  -0.56858  -0.56858
  Beta virt. eigenvalues --    0.03868   0.06049   0.06049   0.06687   0.15170
  Beta virt. eigenvalues --    0.15170   0.18085   0.19755   0.28861   0.28861
  Beta virt. eigenvalues --    0.31334   0.37903   0.37903   0.44672   0.44672

 Mulliken charges and spin densities:
               1          2
     1  C    0.348963   1.277804
     2  H   -0.116320  -0.092601
     3  H   -0.116321  -0.092601
     4  H   -0.116321  -0.092601
 Sum of Mulliken charges =   0.00000   1.00000

 Dipole moment (field-independent basis, Debye):
    X=              0.0000    Y=              0.0000    Z=             -0.0000  Tot=              0.0000
                          Isotropic Fermi Contact Couplings
        Atom                 a.u.       MegaHertz       Gauss      10(-4) cm-1
     1  C(13)              0.19904     223.76389      79.84452      74.63960
     2  H(1)              -0.02518    -112.56691     -40.16667     -37.54828
     3  H(1)              -0.02518    -112.56685     -40.16665     -37.54826
     4  H(1)              -0.02518    -112.56685     -40.16665     -37.54826
 --------------------------------------------------------
       Center         ----  Spin Dipole Couplings  ----
                      3XX-RR        3YY-RR        3ZZ-RR
 --------------------------------------------------------

 Normal termination of Gaussian 16 at Tue Apr  8 22:26:15 2025.
