 Gaussian 16, Revision C.01,

 ----------------------------------------------------------------------
 #t hf aug-cc-pvdz symm=none int=(grid=ultrafine) guess=(read,tcheck) s
 table=opt
 ----------------------------------------------------------------------
 -----
 title
 -----
 Symbolic Z-matrix:
 Charge =  0 Multiplicity = 2

 SCF Done:  E(UHF) =  -488.492668443     A.U. after   13 cycles

 1\1\GINC-SE072\Stability\UHF\Aug-CC-pVDZ\F2H1Si1\OHZDE\08-Apr-2025\0\\
 #t hf aug-cc-pvdz symm=none int=(grid=ultrafine) guess=(read,tcheck) s
 table=opt\\title\\0,2\Si,0,0.039091,0.496206,0.\F,0,0.039091,-0.455022
 ,1.291329\F,0,0.039091,-0.455022,-1.291329\H,0,-1.250912,1.243513,0.\\
 Version=ES64L-G16RevC.01\HF=-488.4926684\S2=0.754339\S2-1=0.\S2A=0.750
 006\RMSD=9.313e-09\Dipole=-0.0068173,0.7124495,0.\Quadrupole=1.0843761
 ,0.8044572,-1.8888332,-0.0581643,0.,0.\PG=Unknown\\@
 The archive entry for this job was punched.

 Normal termination of Gaussian 16 at Tue Apr  8 23:45:12 2025.
 Gaussian 16:  ES64L-G16RevC.01  3-Jul-2019

 ----------------------------------------------------------------------
 #t hf aug-cc-pvdz iop(5/13=1,5/36=2,99/5=2) pseudo=read geom=check gue
 ss=(read,tcheck) scf=(maxcycle=1)
 ----------------------------------------------------------------------
 -----
 title
 -----
 Structure from the checkpoint file:  "BDE49_nonexpt_1787_mol2.chk"
 Charge =  0 Multiplicity = 2

                         Standard orientation:
 ---------------------------------------------------------------------
 Center     Atomic      Atomic             Coordinates (Angstroms)
 Number     Number       Type             X           Y           Z
 ---------------------------------------------------------------------
      1         14           0        0.039091    0.496206    0.000000
      2          9           0        0.039091   -0.455022    1.291329
      3          9           0        0.039091   -0.455022   -1.291329
      4          1           0       -1.250912    1.243513   -0.000000
 ---------------------------------------------------------------------

 SCF Done:  E(UHF) =  -488.603454013     A.U. after    2 cycles

 The electronic state is 2-A'.
 Alpha  occ. eigenvalues --  -69.18555 -26.13199 -26.13197  -6.92720  -4.03839
 Alpha  occ. eigenvalues --   -4.03311  -4.03086  -1.66743  -1.65575  -0.85217
 Alpha  occ. eigenvalues --   -0.78930  -0.75995  -0.75746  -0.73587  -0.71630
 Alpha  occ. eigenvalues --   -0.59783  -0.39071
 Alpha virt. eigenvalues --    0.04716   0.05141   0.05369   0.06492   0.12138
 Alpha virt. eigenvalues --    0.14819   0.15285   0.20611   0.22623   0.23211
 Alpha virt. eigenvalues --    0.24373   0.26247   0.30848   0.31690   0.31864

  Beta  occ. eigenvalues --  -69.17972 -26.12868 -26.12866  -6.91746  -4.02927
  Beta  occ. eigenvalues --   -4.02770  -4.01883  -1.65760  -1.64593  -0.83564
  Beta  occ. eigenvalues --   -0.77723  -0.75400  -0.73770  -0.71979  -0.71339
  Beta  occ. eigenvalues --   -0.55570
  Beta virt. eigenvalues --    0.01472   0.05282   0.05540   0.05703   0.07940
  Beta virt. eigenvalues --    0.13682   0.17237   0.18267   0.21003   0.23561
  Beta virt. eigenvalues --    0.24783   0.25901   0.26502   0.31862   0.32387

 Mulliken charges and spin densities:
               1          2
     1  Si   1.485969   0.896032
     2  F   -0.714370  -0.021937
     3  F   -0.714370  -0.021937
     4  H   -0.057228   0.147842
 Sum of Mulliken charges =  -0.00000   1.00000

 Dipole moment (field-independent basis, Debye):
    X=              0.0232    Y=              2.0342    Z=              0.0000  Tot=              2.0343
                          Isotropic Fermi Contact Couplings
        Atom                 a.u.       MegaHertz       Gauss      10(-4) cm-1
     1  Si(29)             0.88733    -788.59259    -281.38945    -263.04617
     2  F(19)              0.05836     245.56290      87.62295      81.91097
     3  F(19)              0.05836     245.56290      87.62295      81.91097
     4  H(1)               0.04391     196.26166      70.03104      65.46584
 --------------------------------------------------------
       Center         ----  Spin Dipole Couplings  ----
                      3XX-RR        3YY-RR        3ZZ-RR
 --------------------------------------------------------

 Normal termination of Gaussian 16 at Tue Apr  8 23:45:13 2025.
