 Gaussian 16, Revision C.01,

 ----------------------------------------------------------------------
 #t hf aug-cc-pvdz symm=none int=(grid=ultrafine) guess=(read,tcheck) s
 table=(opt,rrhf)
 ----------------------------------------------------------------------
 -----
 title
 -----
 Symbolic Z-matrix:
 Charge =  0 Multiplicity = 1

 SCF Done:  E(RHF) =  -373.127162168     A.U. after   14 cycles

 1\1\GINC-SE132\Stability\RHF\Aug-CC-pVDZ\C9H13B1\OHZDE\09-Apr-2025\0\\
 #t hf aug-cc-pvdz symm=none int=(grid=ultrafine) guess=(read,tcheck) s
 table=(opt,rrhf)\\title\\0,1\B,0,2.235568,0.000126,0.11785\C,0,1.88609
 5,-0.000358,1.64862\C,0,-0.346463,0.000154,-0.553994\C,0,3.737457,0.00
 0017,-0.356167\H,0,4.260601,-0.870059,0.062988\H,0,4.260833,0.869775,0
 .063352\H,0,3.889168,0.000221,-1.4391\H,0,1.257436,0.865784,1.89353\H,
 0,2.751088,-0.000613,2.316543\H,0,1.257353,-0.866597,1.892979\C,0,-1.0
 33906,-1.199181,-0.330972\C,0,-1.034005,1.199344,-0.330499\C,0,-2.3572

 Normal termination of Gaussian 16 at Wed Apr  9 00:27:26 2025.
 Gaussian 16:  ES64L-G16RevC.01  3-Jul-2019

 ----------------------------------------------------------------------
 #t hf aug-cc-pvdz iop(5/13=1,5/36=2,99/5=2) pseudo=read geom=check gue
 ss=(read,tcheck) scf=(maxcycle=1)
 ----------------------------------------------------------------------
 -----
 title
 -----
 Structure from the checkpoint file:  "BDE49_nonexpt_298_mol1.chk"
 Charge =  0 Multiplicity = 1

                         Standard orientation:
 ---------------------------------------------------------------------
 Center     Atomic      Atomic             Coordinates (Angstroms)
 Number     Number       Type             X           Y           Z
 ---------------------------------------------------------------------
      1          5           0        2.235568    0.000126    0.117850
      2          6           0        1.886095   -0.000358    1.648620
      3          6           0       -0.346463    0.000154   -0.553994
      4          6           0        3.737457    0.000017   -0.356167
      5          1           0        4.260601   -0.870059    0.062988
      6          1           0        4.260833    0.869775    0.063352
      7          1           0        3.889168    0.000221   -1.439100
      8          1           0        1.257436    0.865784    1.893530
      9          1           0        2.751088   -0.000613    2.316543
     10          1           0        1.257353   -0.866597    1.892979
     11          6           0       -1.033906   -1.199181   -0.330972
     12          6           0       -1.034005    1.199344   -0.330499
     13          6           0       -2.357298    1.202097    0.104582
     14          6           0       -3.025603   -0.000130    0.325417
     15          6           0       -2.357199   -1.202215    0.104108
     16          1           0       -2.868029   -2.145346    0.265860
     17          1           0       -0.527300   -2.143534   -0.506693
     18          1           0       -2.868206    2.145122    0.266706
     19          1           0       -4.056332   -0.000239    0.661375
     20          1           0       -0.527476    2.143808   -0.505848
     21          6           0        1.097158    0.000301   -0.990950
     22          1           0        1.297774    0.865364   -1.640728
     23          1           0        1.297840   -0.864482   -1.641082
 ---------------------------------------------------------------------

 SCF Done:  E(RHF) =  -373.239244559     A.U. after    2 cycles

 The electronic state is 1-A.
 Alpha  occ. eigenvalues --  -11.24780 -11.24156 -11.24145 -11.23580 -11.23520
 Alpha  occ. eigenvalues --  -11.23514 -11.21370 -11.20151 -11.19645  -7.59914
 Alpha  occ. eigenvalues --   -1.13960  -1.03561  -1.00353  -0.96365  -0.91617
 Alpha  occ. eigenvalues --   -0.91346  -0.82386  -0.79753  -0.69581  -0.63568
 Alpha  occ. eigenvalues --   -0.63454  -0.61385  -0.58502  -0.57876  -0.57776
 Alpha  occ. eigenvalues --   -0.55879  -0.53225  -0.52799  -0.52686  -0.50509
 Alpha  occ. eigenvalues --   -0.49120  -0.48536  -0.44601  -0.44315  -0.33606
 Alpha  occ. eigenvalues --   -0.31947
 Alpha virt. eigenvalues --    0.02797   0.03882   0.04084   0.04787   0.05417
 Alpha virt. eigenvalues --    0.05419   0.06491   0.06828   0.07099   0.07311
 Alpha virt. eigenvalues --    0.07937   0.08640   0.09512   0.09696   0.10083

 Mulliken charges:
               1
     1  B    0.419867
     2  C    0.520936
     3  C    0.535962
     4  C    0.525402
     5  H   -0.153224
     6  H   -0.153167
     7  H   -0.409871
     8  H   -0.121784
     9  H   -0.417631
    10  H   -0.121829
    11  C    0.620848
    12  C    0.620805
    13  C    0.158469
    14  C    0.735243
    15  C    0.158460
    16  H   -0.464921
    17  H   -0.660641
    18  H   -0.464919
    19  H   -0.439336
    20  H   -0.660632
    21  C    0.139438
    22  H   -0.183714
    23  H   -0.183762
 Sum of Mulliken charges =  -0.00000

 Dipole moment (field-independent basis, Debye):
    X=              0.5616    Y=              0.0002    Z=             -0.0293  Tot=              0.5623

 Test job not archived.
 1\1\GINC-SE132\SP\RHF\Aug-CC-pVDZ\C9H13B1\OHZDE\09-Apr-2025\0\\#t hf a
 ug-cc-pvdz iop(5/13=1,5/36=2,99/5=2) pseudo=read geom=check guess=(rea
 d,tcheck) scf=(maxcycle=1)\\title\\0,1\B,0,2.235568,0.000126,0.11785\C
 ,0,1.886095,-0.000358,1.64862\C,0,-0.346463,0.000154,-0.553994\C,0,3.7
 37457,0.000017,-0.356167\H,0,4.260601,-0.870059,0.062988\H,0,4.260833,
 0.869775,0.063352\H,0,3.889168,0.000221,-1.4391\H,0,1.257436,0.865784,
 1.89353\H,0,2.751088,-0.000613,2.316543\H,0,1.257353,-0.866597,1.89297
 9\C,0,-1.033906,-1.199181,-0.330972\C,0,-1.034005,1.199344,-0.330499\C

 Normal termination of Gaussian 16 at Wed Apr  9 00:27:41 2025.
