 Gaussian 16, Revision C.01,

 ----------------------------------------------------------------------
 #t hf aug-cc-pvdz symm=none int=(grid=ultrafine) guess=(read,tcheck) s
 table=(opt,rrhf)
 ----------------------------------------------------------------------
 -----
 title
 -----
 Symbolic Z-matrix:
 Charge =  0 Multiplicity = 1

 SCF Done:  E(RHF) =  -218.286665669     A.U. after   13 cycles
 Normal termination of Gaussian 16 at Wed Apr  9 00:45:25 2025.
 Gaussian 16:  ES64L-G16RevC.01  3-Jul-2019

 ----------------------------------------------------------------------
 #t hf aug-cc-pvdz iop(5/13=1,5/36=2,99/5=2) pseudo=read geom=check gue
 ss=(read,tcheck) scf=(maxcycle=1)
 ----------------------------------------------------------------------
 -----
 title
 -----
 Structure from the checkpoint file:  "BDE49_nonexpt_83_mol1.chk"
 Charge =  0 Multiplicity = 1

                         Standard orientation:
 ---------------------------------------------------------------------
 Center     Atomic      Atomic             Coordinates (Angstroms)
 Number     Number       Type             X           Y           Z
 ---------------------------------------------------------------------
      1          5           0       -1.822194    0.938536    0.000008
      2          5           0       -1.210373   -0.611951   -0.000043
      3          8           0        0.146762   -0.956985    0.000072
      4          6           0        1.080733   -0.060610    0.000197
      5          7           0        1.943532    0.708200   -0.000222
      6          1           0       -2.092726    1.501864    1.016107
      7          1           0       -2.092661    1.501959   -1.016057
      8          1           0       -1.914995   -1.574609   -0.000077
 ---------------------------------------------------------------------

 SCF Done:  E(RHF) =  -218.359568551     A.U. after    2 cycles

 The electronic state is 1-A.
 Alpha  occ. eigenvalues --  -20.68702 -15.65040 -11.36619  -7.68512  -7.63699
 Alpha  occ. eigenvalues --   -1.45512  -1.20252  -0.91093  -0.76466  -0.70759
 Alpha  occ. eigenvalues --   -0.69590  -0.60664  -0.56346  -0.51985  -0.48113
 Alpha  occ. eigenvalues --   -0.46394  -0.46391
 Alpha virt. eigenvalues --    0.02423   0.03359   0.04000   0.04039   0.05869
 Alpha virt. eigenvalues --    0.05912   0.06895   0.08602   0.09455   0.09894
 Alpha virt. eigenvalues --    0.11201   0.12599   0.13269   0.13401   0.13722

 Mulliken charges:
               1
     1  B   -0.445536
     2  B    0.264810
     3  O   -0.340834
     4  C   -0.003397
     5  N   -0.093239
     6  H    0.214900
     7  H    0.214866
     8  H    0.188431
 Sum of Mulliken charges =   0.00000

 Dipole moment (field-independent basis, Debye):
    X=             -3.4975    Y=             -1.2055    Z=              0.0005  Tot=              3.6994

 Test job not archived.
 1\1\GINC-SE219\SP\RHF\Aug-CC-pVDZ\C1H3B2N1O1\OHZDE\09-Apr-2025\0\\#t h
 f aug-cc-pvdz iop(5/13=1,5/36=2,99/5=2) pseudo=read geom=check guess=(
 read,tcheck) scf=(maxcycle=1)\\title\\0,1\B,0,-1.822194,0.938537,0.000
 008\B,0,-1.210373,-0.611951,-0.000043\O,0,0.146762,-0.956985,0.000072\
 C,0,1.080733,-0.060611,0.000197\N,0,1.943532,0.708199,-0.000222\H,0,-2
 .092725,1.501865,1.016107\H,0,-2.09266,1.50196,-1.016057\H,0,-1.914996
 ,-1.574608,-0.000077\\Version=ES64L-G16RevC.01\State=1-A\HF=-218.35956
 86\RMSD=3.485e-03\Dipole=-1.3760323,-0.4742784,0.0001983\Quadrupole=-1

 Normal termination of Gaussian 16 at Wed Apr  9 00:45:27 2025.
