 Gaussian 16, Revision C.01,

 ----------------------------------------------------------------------
 #t hf aug-cc-pvdz symm=none int=(grid=ultrafine) guess=(read,tcheck) s
 table=(opt,rrhf)
 ----------------------------------------------------------------------
 -----
 title
 -----
 Symbolic Z-matrix:
 Charge =  0 Multiplicity = 1

 SCF Done:  E(RHF) =  -932.371421127     A.U. after   16 cycles
 Normal termination of Gaussian 16 at Tue Apr  8 23:14:46 2025.
 Gaussian 16:  ES64L-G16RevC.01  3-Jul-2019

 ----------------------------------------------------------------------
 #t hf aug-cc-pvdz iop(5/13=1,5/36=2,99/5=2) pseudo=read geom=check gue
 ss=(read,tcheck) scf=(maxcycle=1)
 ----------------------------------------------------------------------
 -----
 title
 -----
 Structure from the checkpoint file:  "BDE49_nonexpt_1016_mol1.chk"
 Charge =  0 Multiplicity = 1

                         Standard orientation:
 ---------------------------------------------------------------------
 Center     Atomic      Atomic             Coordinates (Angstroms)
 Number     Number       Type             X           Y           Z
 ---------------------------------------------------------------------
      1         17           0       -1.517383   -0.158309   -0.008634
      2         16           0        1.449756   -0.169647   -0.095977
      3          8           0        0.121951    0.742930    0.060618
      4          1           0        1.623802   -0.537832    1.197463
 ---------------------------------------------------------------------

 SCF Done:  E(RHF) =  -932.439750570     A.U. after    2 cycles

 The electronic state is 1-A.
 Alpha  occ. eigenvalues -- -103.71945 -93.62333 -20.69807 -10.74595  -8.91494
 Alpha  occ. eigenvalues --   -8.40309  -8.39913  -8.39899  -6.25764  -6.25332
 Alpha  occ. eigenvalues --   -6.24988  -1.37947  -1.12981  -0.94028  -0.69466
 Alpha  occ. eigenvalues --   -0.64944  -0.62817  -0.51763  -0.49067  -0.47389
 Alpha  occ. eigenvalues --   -0.39031
 Alpha virt. eigenvalues --   -0.00678   0.03777   0.07025   0.10301   0.10888
 Alpha virt. eigenvalues --    0.14079   0.14602   0.15168   0.17132   0.17793
 Alpha virt. eigenvalues --    0.19504   0.24246   0.25783   0.26498   0.29558

 Mulliken charges:
               1
     1  Cl   0.195079
     2  S    0.486005
     3  O   -0.755358
     4  H    0.074275
 Sum of Mulliken charges =   0.00000

 Dipole moment (field-independent basis, Debye):
    X=              1.0961    Y=             -1.1515    Z=              0.7593  Tot=              1.7618

 Test job not archived.
 1\1\GINC-SE060\SP\RHF\Aug-CC-pVDZ\Cl1H1O1S1\OHZDE\08-Apr-2025\0\\#t hf
  aug-cc-pvdz iop(5/13=1,5/36=2,99/5=2) pseudo=read geom=check guess=(r
 ead,tcheck) scf=(maxcycle=1)\\title\\0,1\Cl,0,-1.517383,-0.158309,-0.0
 08634\S,0,1.449756,-0.169647,-0.095977\O,0,0.121951,0.74293,0.060618\H
 ,0,1.623802,-0.537832,1.197463\\Version=ES64L-G16RevC.01\State=1-A\HF=
 -932.4397506\RMSD=4.859e-03\Dipole=0.4312538,-0.4530353,0.2987299\Quad
 rupole=1.7543661,-1.7644818,0.0101157,-0.6390793,1.2334757,-0.7597624\
 PG=C01 [X(Cl1H1O1S1)]\\@

 Normal termination of Gaussian 16 at Tue Apr  8 23:14:47 2025.
