 Gaussian 16, Revision C.01,

 ----------------------------------------------------------------------
 #t hf aug-cc-pvdz symm=none int=(grid=ultrafine) guess=(read,tcheck) s
 table=(opt,rrhf)
 ----------------------------------------------------------------------
 -----
 title
 -----
 Symbolic Z-matrix:
 Charge =  0 Multiplicity = 1

 SCF Done:  E(RHF) =  -288.706796479     A.U. after   13 cycles
 Normal termination of Gaussian 16 at Tue Apr  8 23:06:42 2025.
 Gaussian 16:  ES64L-G16RevC.01  3-Jul-2019

 ----------------------------------------------------------------------
 #t hf aug-cc-pvdz iop(5/13=1,5/36=2,99/5=2) pseudo=read geom=check gue
 ss=(read,tcheck) scf=(maxcycle=1)
 ----------------------------------------------------------------------
 -----
 title
 -----
 Structure from the checkpoint file:  "BDE49_expt_618_mol1.chk"
 Charge =  0 Multiplicity = 1

                         Standard orientation:
 ---------------------------------------------------------------------
 Center     Atomic      Atomic             Coordinates (Angstroms)
 Number     Number       Type             X           Y           Z
 ---------------------------------------------------------------------
      1          6           0        0.633827    0.523396    0.267894
      2          8           0       -0.578265    0.590841   -0.386752
      3          8           0       -1.459039   -0.397678    0.209911
      4          1           0       -1.319592   -1.147064   -0.387702
      5          9           0        1.348478   -0.602455   -0.121658
      6          1           0        1.176730    1.413043   -0.060063
      7          1           0        0.502021    0.470435    1.350047
 ---------------------------------------------------------------------

 SCF Done:  E(RHF) =  -288.805754694     A.U. after    2 cycles

 The electronic state is 1-A.
 Alpha  occ. eigenvalues --  -26.12434 -20.66890 -20.66027 -11.39385  -1.66055
 Alpha  occ. eigenvalues --   -1.45576  -1.23996  -0.95385  -0.79411  -0.77833
 Alpha  occ. eigenvalues --   -0.76502  -0.72803  -0.66354  -0.64029  -0.56964
 Alpha  occ. eigenvalues --   -0.53823  -0.52558
 Alpha virt. eigenvalues --    0.03684   0.04806   0.05590   0.09044   0.10810
 Alpha virt. eigenvalues --    0.14883   0.15799   0.17042   0.18685   0.20913
 Alpha virt. eigenvalues --    0.21803   0.23529   0.25031   0.27625   0.28360

 Mulliken charges:
               1
     1  C    1.083332
     2  O   -0.386711
     3  O   -0.275996
     4  H    0.227022
     5  F   -0.403798
     6  H   -0.145777
     7  H   -0.098073
 Sum of Mulliken charges =  -0.00000

 Dipole moment (field-independent basis, Debye):
    X=              0.4616    Y=              0.3140    Z=              0.4116  Tot=              0.6936

 Test job not archived.
 1\1\GINC-SE457\SP\RHF\Aug-CC-pVDZ\C1H3F1O2\OHZDE\08-Apr-2025\0\\#t hf
 aug-cc-pvdz iop(5/13=1,5/36=2,99/5=2) pseudo=read geom=check guess=(re
 ad,tcheck) scf=(maxcycle=1)\\title\\0,1\C,0,0.633827,0.523396,0.267894
 \O,0,-0.578265,0.590841,-0.386752\O,0,-1.459039,-0.397678,0.209911\H,0
 ,-1.319592,-1.147064,-0.387702\F,0,1.348478,-0.602455,-0.121658\H,0,1.
 17673,1.413043,-0.060063\H,0,0.502021,0.470435,1.350047\\Version=ES64L
 -G16RevC.01\State=1-A\HF=-288.8057547\RMSD=3.679e-03\Dipole=0.1816073,
 0.1235335,0.1619499\Quadrupole=-2.2670496,1.86887,0.3981797,3.8275094,

 Normal termination of Gaussian 16 at Tue Apr  8 23:06:44 2025.
