 Gaussian 16, Revision C.01,

 ----------------------------------------------------------------------
 #t hf aug-cc-pvdz symm=none int=(grid=ultrafine) guess=(read,tcheck) s
 table=(opt,rrhf)
 ----------------------------------------------------------------------
 -----
 title
 -----
 Symbolic Z-matrix:
 Charge =  0 Multiplicity = 1

 SCF Done:  E(RHF) =  -605.433779090     A.U. after   14 cycles
 Normal termination of Gaussian 16 at Tue Apr  8 22:31:58 2025.
 Gaussian 16:  ES64L-G16RevC.01  3-Jul-2019

 ----------------------------------------------------------------------
 #t hf aug-cc-pvdz iop(5/13=1,5/36=2,99/5=2) pseudo=read geom=check gue
 ss=(read,tcheck) scf=(maxcycle=1)
 ----------------------------------------------------------------------
 -----
 title
 -----
 Structure from the checkpoint file:  "BDE49_expt_1044_mol1.chk"
 Charge =  0 Multiplicity = 1

                         Standard orientation:
 ---------------------------------------------------------------------
 Center     Atomic      Atomic             Coordinates (Angstroms)
 Number     Number       Type             X           Y           Z
 ---------------------------------------------------------------------
      1          6           0        0.552469   -0.000003    0.556176
      2          6           0        1.223184   -1.203347    0.321936
      3          6           0        2.539468   -1.204590   -0.131702
      4          6           0        3.201074    0.000003   -0.359407
      5          6           0        2.539463    1.204593   -0.131699
      6          6           0        1.223180    1.203344    0.321939
      7          1           0        0.712289    2.144222    0.495915
      8          1           0        4.226780    0.000005   -0.710257
      9          1           0        3.048120    2.145997   -0.305824
     10          1           0        0.712297   -2.144227    0.495910
     11          1           0        3.048128   -2.145992   -0.305828
     12          6           0       -1.899231    0.000000   -0.086470
     13          9           0       -3.158459   -0.000005    0.409770
     14          9           0       -1.785241   -1.087027   -0.878902
     15          9           0       -1.785243    1.087037   -0.878888
     16          6           0       -0.880713   -0.000006    1.037123
     17          1           0       -1.090239   -0.881262    1.647431
     18          1           0       -1.090240    0.881242    1.647442
 ---------------------------------------------------------------------

 SCF Done:  E(RHF) =  -605.633376056     A.U. after    2 cycles

 The electronic state is 1-A.
 Alpha  occ. eigenvalues --  -26.15869 -26.15853 -26.15840 -11.52039 -11.27863
 Alpha  occ. eigenvalues --  -11.26729 -11.25563 -11.25562 -11.25479 -11.25406
 Alpha  occ. eigenvalues --  -11.25338  -1.75242  -1.68255  -1.68209  -1.16246
 Alpha  occ. eigenvalues --   -1.09718  -1.02093  -1.02089  -0.95251  -0.87297
 Alpha  occ. eigenvalues --   -0.87280  -0.84213  -0.84154  -0.79602  -0.76611
 Alpha  occ. eigenvalues --   -0.76604  -0.72289  -0.72203  -0.70996  -0.70920
 Alpha  occ. eigenvalues --   -0.65664  -0.64913  -0.60241  -0.60210  -0.59151
 Alpha  occ. eigenvalues --   -0.57567  -0.51122  -0.50963  -0.50539  -0.35032
 Alpha  occ. eigenvalues --   -0.34812
 Alpha virt. eigenvalues --    0.03170   0.03865   0.03889   0.05381   0.05592
 Alpha virt. eigenvalues --    0.07125   0.08162   0.08292   0.09539   0.09880
 Alpha virt. eigenvalues --    0.10536   0.10958   0.11885   0.12986   0.13869

 Mulliken charges:
               1
     1  C    0.636884
     2  C    0.402497
     3  C    0.260546
     4  C    0.611070
     5  C    0.260545
     6  C    0.402494
     7  H   -0.578419
     8  H   -0.436561
     9  H   -0.442485
    10  H   -0.578418
    11  H   -0.442485
    12  C    0.965940
    13  F   -0.319352
    14  F   -0.346919
    15  F   -0.346919
    16  C    0.073561
    17  H   -0.060990
    18  H   -0.060988
 Sum of Mulliken charges =  -0.00000

 Dipole moment (field-independent basis, Debye):
    X=              2.2538    Y=             -0.0000    Z=              1.7702  Tot=              2.8658

 Test job not archived.
 1\1\GINC-SE163\SP\RHF\Aug-CC-pVDZ\C8H7F3\OHZDE\08-Apr-2025\0\\#t hf au
 g-cc-pvdz iop(5/13=1,5/36=2,99/5=2) pseudo=read geom=check guess=(read
 ,tcheck) scf=(maxcycle=1)\\title\\0,1\C,0,0.552469,-0.000003,0.556176\
 C,0,1.223184,-1.203347,0.321936\C,0,2.539468,-1.20459,-0.131702\C,0,3.
 201074,0.000003,-0.359407\C,0,2.539463,1.204593,-0.131699\C,0,1.22318,
 1.203344,0.321939\H,0,0.712289,2.144222,0.495915\H,0,4.22678,0.000005,
 -0.710257\H,0,3.04812,2.145997,-0.305824\H,0,0.712297,-2.144227,0.4959
 1\H,0,3.048128,-2.145992,-0.305828\C,0,-1.899231,0.,-0.08647\F,0,-3.15

 Normal termination of Gaussian 16 at Tue Apr  8 22:32:09 2025.
