 Gaussian 16, Revision C.01,

 ----------------------------------------------------------------------
 #t hf aug-cc-pvdz symm=none int=(grid=ultrafine) guess=(read,tcheck) s
 table=(opt,rrhf)
 ----------------------------------------------------------------------
 -----
 title
 -----
 Symbolic Z-matrix:
 Charge =  0 Multiplicity = 1

 SCF Done:  E(RHF) =  -518.194570208     A.U. after   19 cycles
 Normal termination of Gaussian 16 at Tue Apr  8 23:22:19 2025.
 Gaussian 16:  ES64L-G16RevC.01  3-Jul-2019

 ----------------------------------------------------------------------
 #t hf aug-cc-pvdz iop(5/13=1,5/36=2,99/5=2) pseudo=read geom=check gue
 ss=(read,tcheck) scf=(maxcycle=1)
 ----------------------------------------------------------------------
 -----
 title
 -----
 Structure from the checkpoint file:  "BDE49_nonexpt_1177_mol1.chk"
 Charge =  0 Multiplicity = 1

                         Standard orientation:
 ---------------------------------------------------------------------
 Center     Atomic      Atomic             Coordinates (Angstroms)
 Number     Number       Type             X           Y           Z
 ---------------------------------------------------------------------
      1          9           0        1.793891   -1.694751    0.789634
      2          8           0        1.067522   -1.204945   -0.633545
      3          6           0       -0.036143   -0.595655   -0.296396
      4          6           0       -0.062287    0.814552   -0.031858
      5          6           0       -1.311373    1.425214    0.188605
      6          1           0       -1.326221    2.493806    0.362286
      7          6           0       -2.469761    0.674892    0.203498
      8          6           0       -1.246290   -1.339608   -0.231686
      9          1           0       -1.163378   -2.406987   -0.395791
     10          6           0       -2.449463   -0.720677   -0.005294
     11          1           0       -3.371447   -1.287904    0.017358
     12          1           0       -3.415733    1.173174    0.384584
     13          8           0        0.985938    1.629845    0.006857
     14          6           0        2.351858    1.176954   -0.145367
     15          1           0        2.950471    2.053664    0.093147
     16          1           0        2.529919    0.863202   -1.174256
     17          1           0        2.564445    0.350574    0.530454
 ---------------------------------------------------------------------

 SCF Done:  E(RHF) =  -518.354684434     A.U. after    2 cycles

 The electronic state is 1-A.
 Alpha  occ. eigenvalues --  -26.07694 -20.71505 -20.62840 -11.36383 -11.32058
 Alpha  occ. eigenvalues --  -11.29845 -11.29272 -11.28532 -11.26310 -11.26220
 Alpha  occ. eigenvalues --   -1.55466  -1.40546  -1.37253  -1.16096  -1.05109
 Alpha  occ. eigenvalues --   -1.01880  -0.95490  -0.87169  -0.84410  -0.75373
 Alpha  occ. eigenvalues --   -0.73706  -0.72360  -0.69008  -0.67408  -0.66608
 Alpha  occ. eigenvalues --   -0.65715  -0.63259  -0.62474  -0.61538  -0.58312
 Alpha  occ. eigenvalues --   -0.55490  -0.55104  -0.54614  -0.49912  -0.49435
 Alpha  occ. eigenvalues --   -0.37945  -0.34495
 Alpha virt. eigenvalues --   -0.01644   0.02884   0.03721   0.04202   0.05505
 Alpha virt. eigenvalues --    0.05759   0.06621   0.07935   0.09767   0.09971
 Alpha virt. eigenvalues --    0.11201   0.11849   0.12618   0.13110   0.13371

 Mulliken charges:
               1
     1  F   -0.568016
     2  O   -0.296442
     3  C    0.303519
     4  C    0.235668
     5  C    0.680315
     6  H   -0.560393
     7  C    0.502906
     8  C    0.744465
     9  H   -0.505638
    10  C    0.539068
    11  H   -0.419209
    12  H   -0.417437
    13  O   -0.640664
    14  C    0.840315
    15  H   -0.292897
    16  H   -0.112497
    17  H   -0.033064
 Sum of Mulliken charges =   0.00000

 Dipole moment (field-independent basis, Debye):
    X=             -3.8119    Y=              2.6835    Z=             -1.3473  Tot=              4.8525

 Test job not archived.
 1\1\GINC-SE090\SP\RHF\Aug-CC-pVDZ\C7H7F1O2\OHZDE\08-Apr-2025\0\\#t hf
 aug-cc-pvdz iop(5/13=1,5/36=2,99/5=2) pseudo=read geom=check guess=(re
 ad,tcheck) scf=(maxcycle=1)\\title\\0,1\F,0,-1.793891,1.694751,0.78963
 4\O,0,-1.067522,1.204945,-0.633545\C,0,0.036143,0.595655,-0.296396\C,0
 ,0.062287,-0.814552,-0.031858\C,0,1.311373,-1.425214,0.188605\H,0,1.32
 6221,-2.493806,0.362286\C,0,2.469761,-0.674892,0.203498\C,0,1.24629,1.
 339608,-0.231686\H,0,1.163378,2.406987,-0.395791\C,0,2.449463,0.720677
 ,-0.005294\H,0,3.371447,1.287905,0.017358\H,0,3.415733,-1.173173,0.384

 Normal termination of Gaussian 16 at Tue Apr  8 23:22:28 2025.
