 Gaussian 16, Revision C.01,

 ----------------------------------------------------------------------
 #t hf aug-cc-pvdz symm=none int=(grid=ultrafine) guess=(read,tcheck) s
 table=(opt,rrhf)
 ----------------------------------------------------------------------
 -----
 title
 -----
 Symbolic Z-matrix:
 Charge =  0 Multiplicity = 1

 SCF Done:  E(RHF) =  -366.164799566     A.U. after   11 cycles

 1\1\GINC-SE097\Stability\RHF\Aug-CC-pVDZ\H4O1Si1\OHZDE\08-Apr-2025\0\\
 #t hf aug-cc-pvdz symm=none int=(grid=ultrafine) guess=(read,tcheck) s
 table=(opt,rrhf)\\title\\0,1\O,0,-1.11563,0.111076,0.\Si,0,0.533026,-0
 .008916,0.\H,0,-1.640786,-0.691727,0.000003\H,0,1.033278,1.378424,-0.0
 00018\H,0,1.03509,-0.725254,-1.198592\H,0,1.035092,-0.725223,1.19861\\
 Version=ES64L-G16RevC.01\HF=-366.1647996\RMSD=3.206e-09\Dipole=-0.0186
 039,-0.5472885,0.0000015\Quadrupole=0.486396,0.2965074,-0.7829035,2.25
 24688,-0.000011,-0.000005\PG=Unknown\\@

 Normal termination of Gaussian 16 at Tue Apr  8 23:55:17 2025.
 Gaussian 16:  ES64L-G16RevC.01  3-Jul-2019

 ----------------------------------------------------------------------
 #t hf aug-cc-pvdz iop(5/13=1,5/36=2,99/5=2) pseudo=read geom=check gue
 ss=(read,tcheck) scf=(maxcycle=1)
 ----------------------------------------------------------------------
 -----
 title
 -----
 Structure from the checkpoint file:  "BDE49_nonexpt_2009_mol1.chk"
 Charge =  0 Multiplicity = 1

                         Standard orientation:
 ---------------------------------------------------------------------
 Center     Atomic      Atomic             Coordinates (Angstroms)
 Number     Number       Type             X           Y           Z
 ---------------------------------------------------------------------
      1          8           0       -1.115630    0.111076   -0.000000
      2         14           0        0.533026   -0.008916   -0.000000
      3          1           0       -1.640786   -0.691727    0.000003
      4          1           0        1.033278    1.378424   -0.000018
      5          1           0        1.035090   -0.725254   -1.198592
      6          1           0        1.035092   -0.725223    1.198610
 ---------------------------------------------------------------------

 SCF Done:  E(RHF) =  -366.223296530     A.U. after    2 cycles

 The electronic state is 1-A.
 Alpha  occ. eigenvalues --  -69.09546 -20.57547  -6.84349  -3.95277  -3.95136
 Alpha  occ. eigenvalues --   -3.95107  -1.30493  -0.76505  -0.65389  -0.56987
 Alpha  occ. eigenvalues --   -0.56806  -0.47598  -0.46215
 Alpha virt. eigenvalues --    0.03232   0.04984   0.06117   0.06484   0.07573
 Alpha virt. eigenvalues --    0.09254   0.09373   0.14913   0.16675   0.19114
 Alpha virt. eigenvalues --    0.19115   0.21246   0.22792   0.23797   0.26604

 Mulliken charges:
               1
     1  O   -0.757310
     2  Si   0.966613
     3  H    0.120365
     4  H   -0.101062
     5  H   -0.114303
     6  H   -0.114304
 Sum of Mulliken charges =  -0.00000

 Dipole moment (field-independent basis, Debye):
    X=             -0.0388    Y=             -1.4553    Z=              0.0000  Tot=              1.4559

 Test job not archived.
 1\1\GINC-SE097\SP\RHF\Aug-CC-pVDZ\H4O1Si1\OHZDE\08-Apr-2025\0\\#t hf a
 ug-cc-pvdz iop(5/13=1,5/36=2,99/5=2) pseudo=read geom=check guess=(rea
 d,tcheck) scf=(maxcycle=1)\\title\\0,1\O,0,-1.11563,0.111076,0.\Si,0,0
 .533026,-0.008916,0.\H,0,-1.640786,-0.691727,0.000003\H,0,1.033278,1.3
 78424,-0.000018\H,0,1.03509,-0.725254,-1.198592\H,0,1.035092,-0.725223
 ,1.19861\\Version=ES64L-G16RevC.01\State=1-A\HF=-366.2232965\RMSD=5.03
 6e-03\Dipole=-0.0152736,-0.5725738,0.0000016\Quadrupole=0.4795962,0.29
 30319,-0.7726282,2.2907576,-0.0000111,-0.0000047\PG=C01 [X(H4O1Si1)]\\

 Normal termination of Gaussian 16 at Tue Apr  8 23:55:18 2025.
