 Gaussian 16, Revision C.01,

 ----------------------------------------------------------------------
 #t hf aug-cc-pvdz symm=none int=(grid=ultrafine) guess=(read,tcheck) s
 table=(opt,rrhf)
 ----------------------------------------------------------------------
 -----
 title
 -----
 Symbolic Z-matrix:
 Charge =  0 Multiplicity = 1

 SCF Done:  E(RHF) =  -295.024317945     A.U. after   15 cycles
 Normal termination of Gaussian 16 at Wed Apr  9 00:35:47 2025.
 Gaussian 16:  ES64L-G16RevC.01  3-Jul-2019

 ----------------------------------------------------------------------
 #t hf aug-cc-pvdz iop(5/13=1,5/36=2,99/5=2) pseudo=read geom=check gue
 ss=(read,tcheck) scf=(maxcycle=1)
 ----------------------------------------------------------------------
 -----
 title
 -----
 Structure from the checkpoint file:  "BDE49_nonexpt_530_mol1.chk"
 Charge =  0 Multiplicity = 1

                         Standard orientation:
 ---------------------------------------------------------------------
 Center     Atomic      Atomic             Coordinates (Angstroms)
 Number     Number       Type             X           Y           Z
 ---------------------------------------------------------------------
      1          1           0        2.747469    1.509925   -0.000005
      2          1           0        1.349130    3.006573   -0.000006
      3          5           0        1.602432    1.839788    0.000003
      4          6           0        0.448579    0.825955    0.000001
      5          6           0        0.632130   -0.586677   -0.000000
      6          6           0       -0.489448   -1.416260   -0.000001
      7          6           0       -1.781863   -0.891039   -0.000001
      8          6           0       -0.872747    1.324209    0.000001
      9          1           0       -1.015790    2.399577    0.000002
     10          6           0       -1.981210    0.486734   -0.000000
     11          1           0       -2.984424    0.897357   -0.000000
     12          1           0       -0.355078   -2.493045   -0.000002
     13          6           0        2.007051   -1.213777   -0.000000
     14          1           0        2.584796   -0.913618    0.877718
     15          1           0        2.584796   -0.913617   -0.877717
     16          1           0        1.934978   -2.303034   -0.000000
     17          1           0       -2.632991   -1.563928   -0.000002
 ---------------------------------------------------------------------

 SCF Done:  E(RHF) =  -295.111861851     A.U. after    2 cycles

 The electronic state is 1-A.
 Alpha  occ. eigenvalues --  -11.26426 -11.25936 -11.25465 -11.24168 -11.24093
 Alpha  occ. eigenvalues --  -11.23497 -11.21955  -7.60155  -1.14527  -1.04269
 Alpha  occ. eigenvalues --   -1.01003  -0.93344  -0.83335  -0.80615  -0.71136
 Alpha  occ. eigenvalues --   -0.66074  -0.64745  -0.61901  -0.58119  -0.57899
 Alpha  occ. eigenvalues --   -0.55234  -0.53896  -0.49874  -0.49478  -0.46911
 Alpha  occ. eigenvalues --   -0.46195  -0.34685  -0.33367
 Alpha virt. eigenvalues --    0.03189   0.03826   0.03856   0.04039   0.05581
 Alpha virt. eigenvalues --    0.05738   0.06702   0.07140   0.07526   0.07722
 Alpha virt. eigenvalues --    0.08390   0.10499   0.10848   0.12029   0.12617

 Mulliken charges:
               1
     1  H    0.529202
     2  H    0.416898
     3  B   -1.271682
     4  C   -0.245038
     5  C   -0.328370
     6  C    0.867805
     7  C    0.355547
     8  C    0.866364
     9  H   -0.571586
    10  C    0.386416
    11  H   -0.432553
    12  H   -0.580342
    13  C    0.563635
    14  H    0.069831
    15  H    0.069830
    16  H   -0.251745
    17  H   -0.444213
 Sum of Mulliken charges =  -0.00000

 Dipole moment (field-independent basis, Debye):
    X=             -0.6337    Y=             -1.0787    Z=              0.0000  Tot=              1.2511

 Test job not archived.
 1\1\GINC-SE090\SP\RHF\Aug-CC-pVDZ\C7H9B1\OHZDE\09-Apr-2025\0\\#t hf au
 g-cc-pvdz iop(5/13=1,5/36=2,99/5=2) pseudo=read geom=check guess=(read
 ,tcheck) scf=(maxcycle=1)\\title\\0,1\H,0,-2.747469,1.509924,0.000005\
 H,0,-1.349131,3.006573,0.000006\B,0,-1.602432,1.839788,-0.000003\C,0,-
 0.448579,0.825955,-0.000001\C,0,-0.63213,-0.586677,0.\C,0,0.489448,-1.
 41626,0.000001\C,0,1.781863,-0.891039,0.000001\C,0,0.872747,1.324209,-
 0.000001\H,0,1.01579,2.399577,-0.000002\C,0,1.98121,0.486734,0.\H,0,2.
 984424,0.897358,0.\H,0,0.355079,-2.493045,0.000002\C,0,-2.007051,-1.21

 Normal termination of Gaussian 16 at Wed Apr  9 00:35:54 2025.
