 Gaussian 16, Revision C.01,

 ----------------------------------------------------------------------
 #t hf aug-cc-pvdz symm=none int=(grid=ultrafine) guess=(read,tcheck) s
 table=(opt,rrhf)
 ----------------------------------------------------------------------
 -----
 title
 -----
 Symbolic Z-matrix:
 Charge =  0 Multiplicity = 1

 SCF Done:  E(RHF) =  -731.017181075     A.U. after   13 cycles

 1\1\GINC-SE396\Stability\RHF\Aug-CC-pVDZ\H6O2Si2\OHZDE\09-Apr-2025\0\\
 #t hf aug-cc-pvdz symm=none int=(grid=ultrafine) guess=(read,tcheck) s
 table=(opt,rrhf)\\title\\0,1\Si,0,-0.156697,0.679095,0.013798\Si,0,2.0
 08052,-0.255603,-0.000816\O,0,-1.15858,-0.678183,-0.025965\H,0,-0.3948
 19,1.542924,-1.165055\H,0,-0.410585,1.473187,1.240421\H,0,2.989592,0.8
 55462,0.065842\H,0,2.242534,-1.027312,-1.242927\O,0,-2.546664,-0.19416
 9,-0.090102\H,0,-2.913021,-0.655622,0.676882\H,0,2.209274,-1.138711,1.
 171617\\Version=ES64L-G16RevC.01\HF=-731.0171811\RMSD=3.472e-09\Dipole

 Normal termination of Gaussian 16 at Wed Apr  9 00:09:01 2025.
 Gaussian 16:  ES64L-G16RevC.01  3-Jul-2019

 ----------------------------------------------------------------------
 #t hf aug-cc-pvdz iop(5/13=1,5/36=2,99/5=2) pseudo=read geom=check gue
 ss=(read,tcheck) scf=(maxcycle=1)
 ----------------------------------------------------------------------
 -----
 title
 -----
 Structure from the checkpoint file:  "BDE49_nonexpt_2359_mol1.chk"
 Charge =  0 Multiplicity = 1

                         Standard orientation:
 ---------------------------------------------------------------------
 Center     Atomic      Atomic             Coordinates (Angstroms)
 Number     Number       Type             X           Y           Z
 ---------------------------------------------------------------------
      1         14           0       -0.156697    0.679095    0.013798
      2         14           0        2.008052   -0.255603   -0.000816
      3          8           0       -1.158580   -0.678183   -0.025965
      4          1           0       -0.394819    1.542924   -1.165055
      5          1           0       -0.410585    1.473187    1.240421
      6          1           0        2.989592    0.855462    0.065842
      7          1           0        2.242534   -1.027312   -1.242927
      8          8           0       -2.546664   -0.194169   -0.090102
      9          1           0       -2.913021   -0.655622    0.676882
     10          1           0        2.209274   -1.138711    1.171617
 ---------------------------------------------------------------------

 SCF Done:  E(RHF) =  -731.115366606     A.U. after    2 cycles

 The electronic state is 1-A.
 Alpha  occ. eigenvalues --  -69.10005 -69.06561 -20.65293 -20.63025  -6.84912
 Alpha  occ. eigenvalues --   -6.82007  -3.95800  -3.95639  -3.95619  -3.92769
 Alpha  occ. eigenvalues --   -3.92763  -3.92740  -1.41375  -1.18483  -0.75132
 Alpha  occ. eigenvalues --   -0.73639  -0.69559  -0.64066  -0.61094  -0.54715
 Alpha  occ. eigenvalues --   -0.51168  -0.48894  -0.48768  -0.46631  -0.40567
 Alpha virt. eigenvalues --    0.03579   0.04110   0.05259   0.06532   0.06934
 Alpha virt. eigenvalues --    0.07273   0.07852   0.08134   0.08983   0.09060
 Alpha virt. eigenvalues --    0.10317   0.10499   0.13280   0.14315   0.15566

 Mulliken charges:
               1
     1  Si   0.878375
     2  Si  -0.205245
     3  O   -0.634379
     4  H   -0.019077
     5  H   -0.029800
     6  H    0.029489
     7  H    0.007821
     8  O   -0.272398
     9  H    0.234996
    10  H    0.010219
 Sum of Mulliken charges =  -0.00000

 Dipole moment (field-independent basis, Debye):
    X=              0.0854    Y=              0.3127    Z=              1.3557  Tot=              1.3939

 Test job not archived.
 1\1\GINC-SE396\SP\RHF\Aug-CC-pVDZ\H6O2Si2\OHZDE\09-Apr-2025\0\\#t hf a
 ug-cc-pvdz iop(5/13=1,5/36=2,99/5=2) pseudo=read geom=check guess=(rea
 d,tcheck) scf=(maxcycle=1)\\title\\0,1\Si,0,-0.156697,0.679095,0.01379
 8\Si,0,2.008052,-0.255603,-0.000816\O,0,-1.15858,-0.678183,-0.025965\H
 ,0,-0.394819,1.542924,-1.165055\H,0,-0.410585,1.473187,1.240421\H,0,2.
 989592,0.855462,0.065842\H,0,2.242534,-1.027312,-1.242927\O,0,-2.54666
 4,-0.194169,-0.090102\H,0,-2.913021,-0.655622,0.676882\H,0,2.209274,-1
 .138711,1.171617\\Version=ES64L-G16RevC.01\State=1-A\HF=-731.1153666\R

 Normal termination of Gaussian 16 at Wed Apr  9 00:09:04 2025.
