 Gaussian 16, Revision C.01,

 ----------------------------------------------------------------------
 #t hf aug-cc-pvdz symm=none int=(grid=ultrafine) guess=(read,tcheck) s
 table=opt
 ----------------------------------------------------------------------
 -----
 title
 -----
 Symbolic Z-matrix:
 Charge =  0 Multiplicity = 2

 SCF Done:  E(UHF) =  -969.442429039     A.U. after   17 cycles
 Normal termination of Gaussian 16 at Tue Apr  8 22:53:42 2025.
 Gaussian 16:  ES64L-G16RevC.01  3-Jul-2019

 ----------------------------------------------------------------------
 #t hf aug-cc-pvdz iop(5/13=1,5/36=2,99/5=2) pseudo=read geom=check gue
 ss=(read,tcheck) scf=(maxcycle=1)
 ----------------------------------------------------------------------
 -----
 title
 -----
 Structure from the checkpoint file:  "BDE49_expt_1866_mol2.chk"
 Charge =  0 Multiplicity = 2

                         Standard orientation:
 ---------------------------------------------------------------------
 Center     Atomic      Atomic             Coordinates (Angstroms)
 Number     Number       Type             X           Y           Z
 ---------------------------------------------------------------------
      1          8           0        0.000003    0.000495    1.646595
      2         16           0        0.000050    0.000019    0.025293
      3          9           0       -1.614400    0.000051   -0.047229
      4          9           0       -0.000059    1.610702    0.082208
      5          9           0        0.000114   -0.000496   -1.579629
      6          9           0        1.614470   -0.000107   -0.047105
      7          9           0       -0.000217   -1.610625    0.083150
 ---------------------------------------------------------------------

 SCF Done:  E(UHF) =  -969.719860589     A.U. after    2 cycles

 The electronic state is 2-A.
 Alpha  occ. eigenvalues --  -94.05948 -26.21255 -26.21248 -26.20749 -26.19753
 Alpha  occ. eigenvalues --  -26.19745 -20.74926  -9.28591  -6.63341  -6.63298
 Alpha  occ. eigenvalues --   -6.63166  -1.81628  -1.74571  -1.72896  -1.72764
 Alpha  occ. eigenvalues --   -1.70751  -1.48022  -1.12469  -0.96010  -0.94865
 Alpha  occ. eigenvalues --   -0.92220  -0.87705  -0.86999  -0.85844  -0.79077
 Alpha  occ. eigenvalues --   -0.78117  -0.78008  -0.77848  -0.76887  -0.76705
 Alpha  occ. eigenvalues --   -0.75223  -0.74495  -0.73762  -0.71851  -0.66736
 Alpha virt. eigenvalues --    0.04381   0.08782   0.08842   0.09047   0.11305
 Alpha virt. eigenvalues --    0.17465   0.19579   0.20801   0.21470   0.23318
 Alpha virt. eigenvalues --    0.23814   0.23861   0.24595   0.30014   0.30380

  Beta  occ. eigenvalues --  -94.06014 -26.21066 -26.21059 -26.20742 -26.19828
  Beta  occ. eigenvalues --  -26.19819 -20.70733  -9.28684  -6.63418  -6.63356
  Beta  occ. eigenvalues --   -6.63321  -1.81392  -1.74017  -1.73126  -1.72523
  Beta  occ. eigenvalues --   -1.70753  -1.34810  -1.10396  -0.95172  -0.94998
  Beta  occ. eigenvalues --   -0.89998  -0.86933  -0.85743  -0.84553  -0.78473
  Beta  occ. eigenvalues --   -0.78040  -0.77955  -0.77280  -0.76641  -0.76161
  Beta  occ. eigenvalues --   -0.75143  -0.74434  -0.68269  -0.62226
  Beta virt. eigenvalues --   -0.01138   0.04930   0.08859   0.09070   0.09376
  Beta virt. eigenvalues --    0.11520   0.17528   0.19579   0.21467   0.22273
  Beta virt. eigenvalues --    0.23771   0.23831   0.24001   0.25051   0.30447

 Mulliken charges and spin densities:
               1          2
     1  O   -0.397206   1.069959
     2  S    2.450089  -0.087565
     3  F   -0.406263  -0.003600
     4  F   -0.419264   0.011579
     5  F   -0.401835   0.001646
     6  F   -0.406270  -0.003601
     7  F   -0.419252   0.011581
 Sum of Mulliken charges =  -0.00000   1.00000

 Dipole moment (field-independent basis, Debye):
    X=              0.0009    Y=              0.0003    Z=              0.6066  Tot=              0.6066
                          Isotropic Fermi Contact Couplings
        Atom                 a.u.       MegaHertz       Gauss      10(-4) cm-1
     1  O(17)              0.26120    -158.34129     -56.50011     -52.81697
     2  S(33)             -0.13099     -44.99288     -16.05458     -15.00801
     3  F(19)             -0.00927     -39.00154     -13.91672     -13.00951
     4  F(19)              0.02549     107.26329      38.27421      35.77918
     5  F(19)              0.00020       0.82698       0.29509       0.27585
     6  F(19)             -0.00927     -39.01115     -13.92015     -13.01272
     7  F(19)              0.02549     107.26550      38.27500      35.77992
 --------------------------------------------------------

 Normal termination of Gaussian 16 at Tue Apr  8 22:53:45 2025.
