 Gaussian 16, Revision C.01,

 ----------------------------------------------------------------------
 #t hf aug-cc-pvdz symm=none int=(grid=ultrafine) guess=(read,tcheck) s
 table=(opt,rrhf)
 ----------------------------------------------------------------------
 -----
 title
 -----
 Symbolic Z-matrix:
 Charge =  0 Multiplicity = 1

 SCF Done:  E(RHF) =  -1203.42179794     A.U. after   13 cycles
 Normal termination of Gaussian 16 at Wed Apr  9 00:11:43 2025.
 Gaussian 16:  ES64L-G16RevC.01  3-Jul-2019

 ----------------------------------------------------------------------
 #t hf aug-cc-pvdz iop(5/13=1,5/36=2,99/5=2) pseudo=read geom=check gue
 ss=(read,tcheck) scf=(maxcycle=1)
 ----------------------------------------------------------------------
 -----
 title
 -----
 Structure from the checkpoint file:  "BDE49_nonexpt_2425_mol1.chk"
 Charge =  0 Multiplicity = 1

                         Standard orientation:
 ---------------------------------------------------------------------
 Center     Atomic      Atomic             Coordinates (Angstroms)
 Number     Number       Type             X           Y           Z
 ---------------------------------------------------------------------
      1         14           0        2.553081   -0.398257    0.006351
      2         14           0        0.733087    1.098129    0.046294
      3         16           0       -1.163252   -0.077405   -0.150994
      4          1           0        0.685849    2.007615   -1.118219
      5          1           0        0.585189    1.861726    1.303976
      6          8           0       -2.331374    0.770700   -0.028662
      7          8           0       -1.106845   -0.978751    1.232812
      8          8           0       -1.017181   -1.005931   -1.243798
      9          1           0        3.787506    0.394727    0.217173
     10          1           0        2.603674   -1.066200   -1.310283
     11          1           0        2.402788   -1.387739    1.093587
     12          1           0       -1.816119   -0.658006    1.809835
 ---------------------------------------------------------------------

 SCF Done:  E(RHF) =  -1203.61097473     A.U. after    2 cycles

 The electronic state is 1-A.
 Alpha  occ. eigenvalues --  -93.81183 -69.12052 -69.09167 -20.64027 -20.57694
 Alpha  occ. eigenvalues --  -20.57428  -9.07567  -6.87359  -6.84572  -6.42191
 Alpha  occ. eigenvalues --   -6.42087  -6.41766  -3.98161  -3.98039  -3.97996
 Alpha  occ. eigenvalues --   -3.95333  -3.95322  -3.95313  -1.46167  -1.34913
 Alpha  occ. eigenvalues --   -1.32436  -0.91216  -0.78880  -0.75095  -0.72172
 Alpha  occ. eigenvalues --   -0.69855  -0.65909  -0.64881  -0.59001  -0.54838
 Alpha  occ. eigenvalues --   -0.53847  -0.52557  -0.51415  -0.50744  -0.50348
 Alpha  occ. eigenvalues --   -0.46319  -0.43140
 Alpha virt. eigenvalues --    0.02807   0.03643   0.04432   0.05556   0.06294
 Alpha virt. eigenvalues --    0.06581   0.07189   0.07760   0.08424   0.08851
 Alpha virt. eigenvalues --    0.08982   0.09511   0.10880   0.12317   0.12861

 Mulliken charges:
               1
     1  Si  -0.209208
     2  Si   0.327197
     3  S    2.164829
     4  H    0.019950
     5  H    0.046972
     6  O   -1.023046
     7  O   -0.760133
     8  O   -0.972440
     9  H    0.038032
    10  H    0.094671
    11  H    0.090256
    12  H    0.182919
 Sum of Mulliken charges =  -0.00000

 Dipole moment (field-independent basis, Debye):
    X=              3.8493    Y=              1.7971    Z=              2.7003  Tot=              5.0337

 Test job not archived.
 1\1\GINC-SE423\SP\RHF\Aug-CC-pVDZ\H6O3S1Si2\OHZDE\09-Apr-2025\0\\#t hf
  aug-cc-pvdz iop(5/13=1,5/36=2,99/5=2) pseudo=read geom=check guess=(r
 ead,tcheck) scf=(maxcycle=1)\\title\\0,1\Si,0,2.553081,-0.398257,0.006
 351\Si,0,0.733087,1.098129,0.046294\S,0,-1.163252,-0.077405,-0.150994\
 H,0,0.685849,2.007615,-1.118219\H,0,0.585189,1.861726,1.303976\O,0,-2.
 331374,0.7707,-0.028662\O,0,-1.106845,-0.978751,1.232812\O,0,-1.017181
 ,-1.005931,-1.243798\H,0,3.787506,0.394727,0.217173\H,0,2.603674,-1.06
 62,-1.310283\H,0,2.402788,-1.387739,1.093587\H,0,-1.816119,-0.658006,1

 Normal termination of Gaussian 16 at Wed Apr  9 00:11:47 2025.
