 Gaussian 16, Revision C.01,

 ----------------------------------------------------------------------
 #t hf aug-cc-pvdz symm=none int=(grid=ultrafine) guess=(read,tcheck) s
 table=opt
 ----------------------------------------------------------------------
 -----
 title
 -----
 Symbolic Z-matrix:
 Charge =  0 Multiplicity = 2

 SCF Done:  E(UHF) =  -440.298552774     A.U. after   22 cycles

 1\1\GINC-SE460\Stability\UHF\Aug-CC-pVDZ\H3O2Si1\OHZDE\08-Apr-2025\0\\
 #t hf aug-cc-pvdz symm=none int=(grid=ultrafine) guess=(read,tcheck) s
 table=opt\\title\\0,2\Si,0,1.050446,-0.034813,-0.023577\O,0,-0.453801,
 0.701004,-0.014419\H,0,1.373152,-0.674293,1.275734\H,0,1.171118,-1.001
 665,-1.144469\O,0,-1.459068,-0.397366,0.126608\H,0,-1.94757,-0.265767,
 -0.698695\\Version=ES64L-G16RevC.01\HF=-440.2985528\S2=0.80003\S2-1=0.
 \S2A=0.750387\RMSD=8.443e-09\Dipole=0.0875988,-0.2477596,-0.5359707\Qu
 adrupole=1.8709548,-1.7743671,-0.0965877,0.2786044,2.4348954,0.292132\

 Normal termination of Gaussian 16 at Tue Apr  8 23:49:22 2025.
 Gaussian 16:  ES64L-G16RevC.01  3-Jul-2019

 ----------------------------------------------------------------------
 #t hf aug-cc-pvdz iop(5/13=1,5/36=2,99/5=2) pseudo=read geom=check gue
 ss=(read,tcheck) scf=(maxcycle=1)
 ----------------------------------------------------------------------
 -----
 title
 -----
 Structure from the checkpoint file:  "BDE49_nonexpt_1886_mol2.chk"
 Charge =  0 Multiplicity = 2

                         Standard orientation:
 ---------------------------------------------------------------------
 Center     Atomic      Atomic             Coordinates (Angstroms)
 Number     Number       Type             X           Y           Z
 ---------------------------------------------------------------------
      1         14           0        1.050446   -0.034813   -0.023577
      2          8           0       -0.453801    0.701004   -0.014419
      3          1           0        1.373152   -0.674293    1.275734
      4          1           0        1.171118   -1.001665   -1.144469
      5          8           0       -1.459068   -0.397366    0.126608
      6          1           0       -1.947570   -0.265767   -0.698695
 ---------------------------------------------------------------------

 SCF Done:  E(UHF) =  -440.375631079     A.U. after    2 cycles

 The electronic state is 2-A.
 Alpha  occ. eigenvalues --  -69.11455 -20.66067 -20.63022  -6.86369  -3.97698
 Alpha  occ. eigenvalues --   -3.96935  -3.96743  -1.41478  -1.19279  -0.74255
 Alpha  occ. eigenvalues --   -0.73357  -0.64813  -0.62145  -0.55315  -0.51920
 Alpha  occ. eigenvalues --   -0.47808  -0.34492
 Alpha virt. eigenvalues --    0.03465   0.05086   0.06036   0.06399   0.07529
 Alpha virt. eigenvalues --    0.09048   0.12785   0.14063   0.16277   0.17794
 Alpha virt. eigenvalues --    0.18526   0.19257   0.21218   0.24105   0.25042

  Beta  occ. eigenvalues --  -69.10883 -20.64997 -20.63767  -6.85491  -3.96550
  Beta  occ. eigenvalues --   -3.96362  -3.95564  -1.40506  -1.18985  -0.73461
  Beta  occ. eigenvalues --   -0.71930  -0.63240  -0.59980  -0.55085  -0.51321
  Beta  occ. eigenvalues --   -0.47105
  Beta virt. eigenvalues --    0.02588   0.03561   0.05401   0.06479   0.06983
  Beta virt. eigenvalues --    0.09213   0.09964   0.13719   0.15551   0.17025
  Beta virt. eigenvalues --    0.18607   0.20261   0.21150   0.23188   0.25103

 Mulliken charges and spin densities:
               1          2
     1  Si   0.881103   0.981714
     2  O   -0.667937  -0.283420
     3  H   -0.078821   0.034060
     4  H   -0.099364   0.026867
     5  O   -0.267845   0.254694
     6  H    0.232865  -0.013913
 Sum of Mulliken charges =  -0.00000   1.00000

 Dipole moment (field-independent basis, Debye):
    X=              0.2859    Y=             -0.6206    Z=             -1.4241  Tot=              1.5796
                          Isotropic Fermi Contact Couplings
        Atom                 a.u.       MegaHertz       Gauss      10(-4) cm-1
     1  Si(29)             0.60661    -539.11178    -192.36849    -179.82833
     2  O(17)              0.07215     -43.73750     -15.60663     -14.58926
     3  H(1)               0.01051      46.98632      16.76589      15.67295
     4  H(1)               0.00902      40.30737      14.38267      13.44509
     5  O(17)              0.05863     -35.54378     -12.68290     -11.85613
     6  H(1)              -0.00499     -22.32539      -7.96625      -7.44695
 --------------------------------------------------------
       Center         ----  Spin Dipole Couplings  ----

 Normal termination of Gaussian 16 at Tue Apr  8 23:49:25 2025.
