 Gaussian 16, Revision C.01,

 ----------------------------------------------------------------------
 #t hf aug-cc-pvdz symm=none int=(grid=ultrafine) guess=(read,tcheck) s
 table=(opt,rrhf)
 ----------------------------------------------------------------------
 -----
 title
 -----
 Symbolic Z-matrix:
 Charge =  0 Multiplicity = 1

 SCF Done:  E(RHF) =  -488.595348302     A.U. after   13 cycles
 Normal termination of Gaussian 16 at Tue Apr  8 22:59:44 2025.
 Gaussian 16:  ES64L-G16RevC.01  3-Jul-2019

 ----------------------------------------------------------------------
 #t hf aug-cc-pvdz iop(5/13=1,5/36=2,99/5=2) pseudo=read geom=check gue
 ss=(read,tcheck) scf=(maxcycle=1)
 ----------------------------------------------------------------------
 -----
 title
 -----
 Structure from the checkpoint file:  "BDE49_expt_221_mol1.chk"
 Charge =  0 Multiplicity = 1

                         Standard orientation:
 ---------------------------------------------------------------------
 Center     Atomic      Atomic             Coordinates (Angstroms)
 Number     Number       Type             X           Y           Z
 ---------------------------------------------------------------------
      1          6           0       -0.610409   -0.035299    0.000016
      2          6           0        0.907212    0.308010    0.000231
      3          8           0        1.249367    1.457917   -0.000001
      4          6           0        1.827571   -0.882780   -0.000018
      5          1           0        1.634170   -1.503450   -0.879226
      6          1           0        1.634433   -1.503586    0.879149
      7          1           0        2.861062   -0.541747   -0.000148
      8          9           0       -0.917581   -0.774074    1.089849
      9          9           0       -0.917254   -0.774227   -1.089806
     10          9           0       -1.373037    1.053396   -0.000170
 ---------------------------------------------------------------------

 SCF Done:  E(RHF) =  -488.765571057     A.U. after    2 cycles

 The electronic state is 1-A.
 Alpha  occ. eigenvalues --  -26.18444 -26.18434 -26.18046 -20.61496 -11.54387
 Alpha  occ. eigenvalues --  -11.39302 -11.27609  -1.77807  -1.70829  -1.70745
 Alpha  occ. eigenvalues --   -1.40754  -1.08429  -1.02646  -0.91651  -0.89583
 Alpha  occ. eigenvalues --   -0.89465  -0.78936  -0.78929  -0.77532  -0.74642
 Alpha  occ. eigenvalues --   -0.74540  -0.73331  -0.69069  -0.67049  -0.63484
 Alpha  occ. eigenvalues --   -0.59065  -0.55166  -0.48202
 Alpha virt. eigenvalues --    0.03136   0.05309   0.05512   0.07480   0.08604
 Alpha virt. eigenvalues --    0.09149   0.11028   0.11627   0.12328   0.12812
 Alpha virt. eigenvalues --    0.14811   0.15455   0.16300   0.16705   0.20038

 Mulliken charges:
               1
     1  C    1.118979
     2  C   -0.233823
     3  O   -0.407033
     4  C    0.339230
     5  H    0.083871
     6  H    0.083900
     7  H   -0.071754
     8  F   -0.327026
     9  F   -0.327036
    10  F   -0.259309
 Sum of Mulliken charges =  -0.00000

 Dipole moment (field-independent basis, Debye):
    X=              1.8080    Y=             -2.6558    Z=              0.0004  Tot=              3.2128

 Test job not archived.
 1\1\GINC-SE162\SP\RHF\Aug-CC-pVDZ\C3H3F3O1\OHZDE\08-Apr-2025\0\\#t hf
 aug-cc-pvdz iop(5/13=1,5/36=2,99/5=2) pseudo=read geom=check guess=(re
 ad,tcheck) scf=(maxcycle=1)\\title\\0,1\C,0,-0.610409,-0.035299,0.0000
 16\C,0,0.907212,0.30801,0.000231\O,0,1.249367,1.457917,-0.000001\C,0,1
 .827571,-0.88278,-0.000018\H,0,1.63417,-1.50345,-0.879226\H,0,1.634433
 ,-1.503586,0.879149\H,0,2.861062,-0.541748,-0.000148\F,0,-0.917581,-0.
 774074,1.089849\F,0,-0.917254,-0.774227,-1.089806\F,0,-1.373037,1.0533
 96,-0.00017\\Version=ES64L-G16RevC.01\State=1-A\HF=-488.7655711\RMSD=6

 Normal termination of Gaussian 16 at Tue Apr  8 22:59:48 2025.
