 Gaussian 16, Revision C.01,

 ----------------------------------------------------------------------
 #t hf aug-cc-pvdz symm=none int=(grid=ultrafine) guess=(read,tcheck) s
 table=(opt,rrhf)
 ----------------------------------------------------------------------
 -----
 title
 -----
 Symbolic Z-matrix:
 Charge =  0 Multiplicity = 1

 SCF Done:  E(RHF) =  -544.460387752     A.U. after   12 cycles
 Normal termination of Gaussian 16 at Wed Apr  9 00:43:12 2025.
 Gaussian 16:  ES64L-G16RevC.01  3-Jul-2019

 ----------------------------------------------------------------------
 #t hf aug-cc-pvdz iop(5/13=1,5/36=2,99/5=2) pseudo=read geom=check gue
 ss=(read,tcheck) scf=(maxcycle=1)
 ----------------------------------------------------------------------
 -----
 title
 -----
 Structure from the checkpoint file:  "BDE49_nonexpt_774_mol1.chk"
 Charge =  0 Multiplicity = 1

                         Standard orientation:
 ---------------------------------------------------------------------
 Center     Atomic      Atomic             Coordinates (Angstroms)
 Number     Number       Type             X           Y           Z
 ---------------------------------------------------------------------
      1         14           0        0.320765   -1.068061   -0.186536
      2          5           0       -1.325508    0.128309   -0.043415
      3          8           0       -2.477753   -0.196111    0.625042
      4          8           0       -1.280278    1.341522   -0.663416
      5          6           0        1.920134   -0.082853   -0.413015
      6          6           0        2.203909    0.927640    0.711583
      7          1           0        2.286359    0.433752    1.684634
      8          1           0        1.405955    1.671738    0.782536
      9          1           0        3.140522    1.465957    0.538224
     10          1           0        1.851022    0.439328   -1.373866
     11          1           0        2.752033   -0.789468   -0.508647
     12          1           0       -2.443842   -1.050195    1.063016
     13          1           0       -2.102566    1.837499   -0.553053
     14          1           0        0.152138   -2.012370   -1.326387
     15          1           0        0.415203   -1.916955    1.037699
 ---------------------------------------------------------------------

 SCF Done:  E(RHF) =  -544.570567239     A.U. after    2 cycles

 The electronic state is 1-A.
 Alpha  occ. eigenvalues --  -69.04137 -20.59073 -20.58365 -11.22719 -11.21878
 Alpha  occ. eigenvalues --   -7.66084  -6.79614  -3.90392  -3.90374  -3.90326
 Alpha  occ. eigenvalues --   -1.34975  -1.31130  -1.00888  -0.84051  -0.78906
 Alpha  occ. eigenvalues --   -0.75579  -0.68101  -0.62204  -0.60507  -0.59454
 Alpha  occ. eigenvalues --   -0.58577  -0.56953  -0.52572  -0.51516  -0.49533
 Alpha  occ. eigenvalues --   -0.45912  -0.42814  -0.40560
 Alpha virt. eigenvalues --    0.03182   0.04336   0.04726   0.05233   0.06145
 Alpha virt. eigenvalues --    0.06668   0.06873   0.07221   0.07660   0.09214
 Alpha virt. eigenvalues --    0.09729   0.09934   0.10158   0.10648   0.11424

 Mulliken charges:
               1
     1  Si  -0.233524
     2  B    0.944861
     3  O   -0.465256
     4  O   -0.548369
     5  C    0.122227
     6  C    0.291484
     7  H   -0.076065
     8  H   -0.140505
     9  H   -0.094987
    10  H   -0.124275
    11  H   -0.212857
    12  H    0.187123
    13  H    0.160360
    14  H    0.035262
    15  H    0.154521
 Sum of Mulliken charges =   0.00000

 Dipole moment (field-independent basis, Debye):
    X=             -0.3915    Y=             -0.2690    Z=              0.6912  Tot=              0.8386

 Test job not archived.
 1\1\GINC-SE343\SP\RHF\Aug-CC-pVDZ\C2H9B1O2Si1\OHZDE\09-Apr-2025\0\\#t
 hf aug-cc-pvdz iop(5/13=1,5/36=2,99/5=2) pseudo=read geom=check guess=
 (read,tcheck) scf=(maxcycle=1)\\title\\0,1\Si,0,0.320765,-1.068061,-0.
 186536\B,0,-1.325508,0.128309,-0.043415\O,0,-2.477753,-0.196111,0.6250
 42\O,0,-1.280278,1.341522,-0.663416\C,0,1.920134,-0.082853,-0.413015\C
 ,0,2.203909,0.92764,0.711583\H,0,2.286359,0.433752,1.684634\H,0,1.4059
 55,1.671738,0.782536\H,0,3.140522,1.465957,0.538224\H,0,1.851022,0.439
 328,-1.373866\H,0,2.752033,-0.789468,-0.508647\H,0,-2.443842,-1.050195

 Normal termination of Gaussian 16 at Wed Apr  9 00:43:17 2025.
