 Gaussian 16, Revision C.01,

 ----------------------------------------------------------------------
 #t hf aug-cc-pvdz symm=none int=(grid=ultrafine) guess=(read,tcheck) s
 table=(opt,rrhf)
 ----------------------------------------------------------------------
 -----
 title
 -----
 Symbolic Z-matrix:
 Charge =  0 Multiplicity = 1

 SCF Done:  E(RHF) =  -660.885401359     A.U. after   15 cycles
 Normal termination of Gaussian 16 at Tue Apr  8 23:32:09 2025.
 Gaussian 16:  ES64L-G16RevC.01  3-Jul-2019

 ----------------------------------------------------------------------
 #t hf aug-cc-pvdz iop(5/13=1,5/36=2,99/5=2) pseudo=read geom=check gue
 ss=(read,tcheck) scf=(maxcycle=1)
 ----------------------------------------------------------------------
 -----
 title
 -----
 Structure from the checkpoint file:  "BDE49_nonexpt_1455_mol1.chk"
 Charge =  0 Multiplicity = 1

                         Standard orientation:
 ---------------------------------------------------------------------
 Center     Atomic      Atomic             Coordinates (Angstroms)
 Number     Number       Type             X           Y           Z
 ---------------------------------------------------------------------
      1          6           0        1.327458    0.004741    0.028311
      2         15           0       -0.013036   -1.291686   -0.239009
      3          6           0       -1.317109    0.051545    0.036720
      4          7           0       -0.720752    1.280917   -0.080188
      5          6           0        0.723808    1.412659   -0.108420
      6          8           0       -2.496928   -0.136098    0.216479
      7          1           0        1.102411    2.025265    0.716326
      8          1           0        1.082510    1.850439   -1.048123
      9          8           0        2.493045   -0.188094    0.238833
     10          1           0       -1.318047    2.092712    0.007600
     11          1           0        0.000051   -1.779685    1.088477
 ---------------------------------------------------------------------

 SCF Done:  E(RHF) =  -661.002693241     A.U. after    2 cycles

 The electronic state is 1-A.
 Alpha  occ. eigenvalues --  -81.29585 -20.60277 -20.56407 -15.67987 -11.39208
 Alpha  occ. eigenvalues --  -11.38131 -11.32121  -7.80106  -4.94043  -4.93999
 Alpha  occ. eigenvalues --   -4.93740  -1.39432  -1.37341  -1.23825  -1.00949
 Alpha  occ. eigenvalues --   -0.93070  -0.78968  -0.77142  -0.71946  -0.68327
 Alpha  occ. eigenvalues --   -0.66830  -0.64862  -0.64132  -0.59375  -0.58125
 Alpha  occ. eigenvalues --   -0.55553  -0.47612  -0.42341  -0.41466  -0.39054
 Alpha virt. eigenvalues --    0.02573   0.04360   0.04704   0.05292   0.06798
 Alpha virt. eigenvalues --    0.07565   0.08332   0.09418   0.10422   0.11527
 Alpha virt. eigenvalues --    0.12396   0.13133   0.13354   0.14075   0.14193

 Mulliken charges:
               1
     1  C   -0.037282
     2  P    0.263123
     3  C    0.299291
     4  N   -0.312530
     5  C    0.718352
     6  O   -0.470862
     7  H   -0.060973
     8  H   -0.031822
     9  O   -0.478870
    10  H   -0.113469
    11  H    0.225040
 Sum of Mulliken charges =  -0.00000

 Dipole moment (field-independent basis, Debye):
    X=              0.8929    Y=              2.4919    Z=             -0.3665  Tot=              2.6723

 Test job not archived.
 1\1\GINC-SE331\SP\RHF\Aug-CC-pVDZ\C3H4N1O2P1\OHZDE\08-Apr-2025\0\\#t h
 f aug-cc-pvdz iop(5/13=1,5/36=2,99/5=2) pseudo=read geom=check guess=(
 read,tcheck) scf=(maxcycle=1)\\title\\0,1\C,0,1.327458,0.004741,0.0283
 11\P,0,-0.013036,-1.291686,-0.239009\C,0,-1.317109,0.051545,0.03672\N,
 0,-0.720752,1.280917,-0.080188\C,0,0.723808,1.412659,-0.10842\O,0,-2.4
 96928,-0.136098,0.216479\H,0,1.102411,2.025265,0.716326\H,0,1.08251,1.
 850439,-1.048123\O,0,2.493045,-0.188094,0.238833\H,0,-1.318047,2.09271
 2,0.0076\H,0,0.000051,-1.779685,1.088477\\Version=ES64L-G16RevC.01\Sta

 Normal termination of Gaussian 16 at Tue Apr  8 23:32:13 2025.
