 Gaussian 16, Revision C.01,

 ----------------------------------------------------------------------
 #t hf aug-cc-pvdz symm=none int=(grid=ultrafine) guess=(read,tcheck) s
 table=(opt,rrhf)
 ----------------------------------------------------------------------
 -----
 title
 -----
 Symbolic Z-matrix:
 Charge =  0 Multiplicity = 1

 SCF Done:  E(RHF) =  -777.043176182     A.U. after   14 cycles
 Normal termination of Gaussian 16 at Wed Apr  9 00:51:00 2025.
 Gaussian 16:  ES64L-G16RevC.01  3-Jul-2019

 ----------------------------------------------------------------------
 #t hf aug-cc-pvdz iop(5/13=1,5/36=2,99/5=2) pseudo=read geom=check gue
 ss=(read,tcheck) scf=(maxcycle=1)
 ----------------------------------------------------------------------
 -----
 title
 -----
 Structure from the checkpoint file:  "BDE49_nonexpt_972_mol1.chk"
 Charge =  0 Multiplicity = 1

                         Standard orientation:
 ---------------------------------------------------------------------
 Center     Atomic      Atomic             Coordinates (Angstroms)
 Number     Number       Type             X           Y           Z
 ---------------------------------------------------------------------
      1         16           0       -0.482727   -0.034612    0.110142
      2          9           0        2.040104    0.083257    0.016616
      3          8           0       -0.397228    0.974506   -1.146253
      4          8           0       -0.493386    0.742334    1.305883
      5          8           0       -1.437365   -1.037438   -0.225515
      6          7           0        1.002059   -0.877790    0.045525
      7          1           0        1.053962   -1.320053   -0.875570
      8          1           0       -0.081851    1.833849   -0.827844
 ---------------------------------------------------------------------

 SCF Done:  E(RHF) =  -777.255312651     A.U. after    2 cycles

 The electronic state is 1-A.
 Alpha  occ. eigenvalues --  -93.88563 -26.19109 -20.67955 -20.61399 -20.61383
 Alpha  occ. eigenvalues --  -15.79449  -9.14386  -6.49065  -6.48954  -6.48840
 Alpha  occ. eigenvalues --   -1.70711  -1.52149  -1.39578  -1.37558  -1.20144
 Alpha  occ. eigenvalues --   -0.92962  -0.85233  -0.81560  -0.79513  -0.77522
 Alpha  occ. eigenvalues --   -0.73525  -0.71860  -0.68256  -0.63799  -0.59605
 Alpha  occ. eigenvalues --   -0.57400  -0.55996  -0.55164  -0.51866
 Alpha virt. eigenvalues --    0.02852   0.04198   0.08525   0.09399   0.11153
 Alpha virt. eigenvalues --    0.13006   0.13063   0.14853   0.16428   0.17788
 Alpha virt. eigenvalues --    0.17932   0.19629   0.22780   0.23217   0.24158

 Mulliken charges:
               1
     1  S    2.716398
     2  F   -0.411763
     3  O   -0.698291
     4  O   -0.833868
     5  O   -0.814096
     6  N   -0.309257
     7  H    0.158321
     8  H    0.192556
 Sum of Mulliken charges =   0.00000

 Dipole moment (field-independent basis, Debye):
    X=              1.5998    Y=              0.7723    Z=             -2.4263  Tot=              3.0071

 Test job not archived.
 1\1\GINC-SE454\SP\RHF\Aug-CC-pVDZ\F1H2N1O3S1\OHZDE\09-Apr-2025\0\\#t h
 f aug-cc-pvdz iop(5/13=1,5/36=2,99/5=2) pseudo=read geom=check guess=(
 read,tcheck) scf=(maxcycle=1)\\title\\0,1\S,0,-0.482727,-0.034612,0.11
 0142\F,0,2.040104,0.083258,0.016616\O,0,-0.397228,0.974506,-1.146253\O
 ,0,-0.493386,0.742334,1.305883\O,0,-1.437365,-1.037438,-0.225515\N,0,1
 .002059,-0.87779,0.045525\H,0,1.053962,-1.320053,-0.87557\H,0,-0.08185
 1,1.833849,-0.827844\\Version=ES64L-G16RevC.01\State=1-A\HF=-777.25531
 27\RMSD=3.751e-03\Dipole=0.6293903,0.3038482,-0.9545864\Quadrupole=-2.

 Normal termination of Gaussian 16 at Wed Apr  9 00:51:03 2025.
