 Gaussian 16, Revision C.01,

 ----------------------------------------------------------------------
 #t hf aug-cc-pvdz symm=none int=(grid=ultrafine) guess=(read,tcheck) s
 table=(opt,rrhf)
 ----------------------------------------------------------------------
 -----
 title
 -----
 Symbolic Z-matrix:
 Charge =  0 Multiplicity = 1

 SCF Done:  E(RHF) =  -817.899798130     A.U. after   16 cycles
 Normal termination of Gaussian 16 at Tue Apr  8 23:37:07 2025.
 Gaussian 16:  ES64L-G16RevC.01  3-Jul-2019

 ----------------------------------------------------------------------
 #t hf aug-cc-pvdz iop(5/13=1,5/36=2,99/5=2) pseudo=read geom=check gue
 ss=(read,tcheck) scf=(maxcycle=1)
 ----------------------------------------------------------------------
 -----
 title
 -----
 Structure from the checkpoint file:  "BDE49_nonexpt_1479_mol1.chk"
 Charge =  0 Multiplicity = 1

                         Standard orientation:
 ---------------------------------------------------------------------
 Center     Atomic      Atomic             Coordinates (Angstroms)
 Number     Number       Type             X           Y           Z
 ---------------------------------------------------------------------
      1          6           0        2.525419   -0.579276    1.446443
      2          6           0        1.371453   -0.926229    0.751017
      3          6           0        3.405760    0.366129    0.918854
      4          6           0        3.128112    0.962248   -0.307787
      5          6           0        1.972730    0.612992   -1.006803
      6          6           0        1.081537   -0.332375   -0.486366
      7          1           0        0.688465   -1.658340    1.167385
      8          1           0        2.739858   -1.047777    2.400638
      9          1           0        3.810618    1.694424   -0.724811
     10          1           0        1.765898    1.072242   -1.967732
     11         15           0       -0.426805   -0.770019   -1.466391
     12          6           0       -1.752158   -0.625822   -0.099985
     13          8           0       -2.187553   -1.638745    0.423766
     14          7           0       -2.198021    0.628560    0.216922
     15          1           0        4.305071    0.633493    1.462372
     16          6           0       -1.680507    1.859282   -0.354878
     17          1           0       -1.119768    1.654275   -1.265650
     18          1           0       -1.025525    2.386151    0.348992
     19          1           0       -2.512397    2.521051   -0.615869
     20          6           0       -3.174639    0.782166    1.289623
     21          1           0       -3.474375   -0.206584    1.626916
     22          1           0       -4.051698    1.327549    0.926344
     23          1           0       -2.741275    1.338470    2.128610
     24          1           0       -0.362474   -2.169309   -1.300626
 ---------------------------------------------------------------------

 SCF Done:  E(RHF) =  -818.065079701     A.U. after    2 cycles

 The electronic state is 1-A.
 Alpha  occ. eigenvalues --  -81.26681 -20.53600 -15.65496 -11.36287 -11.28098
 Alpha  occ. eigenvalues --  -11.26647 -11.26201 -11.25944 -11.25833 -11.25665
 Alpha  occ. eigenvalues --  -11.25465 -11.25393  -7.77030  -4.91100  -4.91049
 Alpha  occ. eigenvalues --   -4.90792  -1.34489  -1.21327  -1.15259  -1.02455
 Alpha  occ. eigenvalues --   -1.02048  -0.97582  -0.94059  -0.85538  -0.83859
 Alpha  occ. eigenvalues --   -0.79643  -0.73369  -0.70946  -0.66704  -0.65713
 Alpha  occ. eigenvalues --   -0.65415  -0.64053  -0.63330  -0.60180  -0.57598
 Alpha  occ. eigenvalues --   -0.56870  -0.56447  -0.55018  -0.54132  -0.53647
 Alpha  occ. eigenvalues --   -0.51688  -0.50799  -0.48685  -0.43017  -0.37737
 Alpha  occ. eigenvalues --   -0.35580  -0.34968  -0.34480
 Alpha virt. eigenvalues --    0.02932   0.03684   0.03923   0.04861   0.05226
 Alpha virt. eigenvalues --    0.05394   0.06375   0.06735   0.07452   0.08056
 Alpha virt. eigenvalues --    0.08189   0.08453   0.09180   0.09470   0.10060

 Mulliken charges:
               1
     1  C    0.321841
     2  C    0.515864
     3  C    0.731983
     4  C    0.430577
     5  C    0.478456
     6  C    0.102665
     7  H   -0.638368
     8  H   -0.456982
     9  H   -0.451701
    10  H   -0.583238
    11  P   -0.145145
    12  C    0.206961
    13  O   -0.592714
    14  N   -0.414719
    15  H   -0.434983
    16  C    0.884134
    17  H   -0.268936
    18  H   -0.102605
    19  H   -0.145878
    20  C    0.726198
    21  H   -0.230502
    22  H   -0.119416
    23  H   -0.060613
    24  H    0.247122
 Sum of Mulliken charges =  -0.00000

 Dipole moment (field-independent basis, Debye):
    X=              1.7207    Y=              3.8237    Z=              0.2459  Tot=              4.2003

 Test job not archived.
 1\1\GINC-SE344\SP\RHF\Aug-CC-pVDZ\C9H12N1O1P1\OHZDE\08-Apr-2025\0\\#t
 hf aug-cc-pvdz iop(5/13=1,5/36=2,99/5=2) pseudo=read geom=check guess=
 (read,tcheck) scf=(maxcycle=1)\\title\\0,1\C,0,-2.525419,0.579276,1.44
 6443\C,0,-1.371453,0.926229,0.751017\C,0,-3.40576,-0.366129,0.918854\C
 ,0,-3.128112,-0.962248,-0.307787\C,0,-1.97273,-0.612992,-1.006803\C,0,
 -1.081537,0.332375,-0.486366\H,0,-0.688465,1.65834,1.167385\H,0,-2.739
 858,1.047777,2.400638\H,0,-3.810618,-1.694424,-0.724811\H,0,-1.765898,
 -1.072242,-1.967732\P,0,0.426805,0.770019,-1.466391\C,0,1.752158,0.625

 Normal termination of Gaussian 16 at Tue Apr  8 23:37:27 2025.
