 Gaussian 16, Revision C.01,

 ----------------------------------------------------------------------
 #t hf aug-cc-pvdz symm=none int=(grid=ultrafine) guess=(read,tcheck) s
 table=(opt,rrhf)
 ----------------------------------------------------------------------
 -----
 title
 -----
 Symbolic Z-matrix:
 Charge =  0 Multiplicity = 1

 SCF Done:  E(RHF) =  -590.646832612     A.U. after   13 cycles
 Normal termination of Gaussian 16 at Tue Apr  8 23:22:06 2025.
 Gaussian 16:  ES64L-G16RevC.01  3-Jul-2019

 ----------------------------------------------------------------------
 #t hf aug-cc-pvdz iop(5/13=1,5/36=2,99/5=2) pseudo=read geom=check gue
 ss=(read,tcheck) scf=(maxcycle=1)
 ----------------------------------------------------------------------
 -----
 title
 -----
 Structure from the checkpoint file:  "BDE49_nonexpt_1221_mol1.chk"
 Charge =  0 Multiplicity = 1

                         Standard orientation:
 ---------------------------------------------------------------------
 Center     Atomic      Atomic             Coordinates (Angstroms)
 Number     Number       Type             X           Y           Z
 ---------------------------------------------------------------------
      1         16           0       -1.845271   -0.119100   -0.112121
      2          8           0       -0.310255   -0.539531    0.427089
      3          6           0        0.815065    0.002786   -0.322434
      4          6           0        1.981643   -0.919219    0.001491
      5          1           0        2.195007   -0.900865    1.073314
      6          1           0        2.878482   -0.600344   -0.536107
      7          1           0        1.747996   -1.946042   -0.285261
      8          6           0        1.070619    1.453384    0.065998
      9          1           0        0.571471   -0.058349   -1.389269
     10          1           0        1.271502    1.529772    1.138133
     11          1           0        0.211950    2.084462   -0.175068
     12          1           0        1.933513    1.847863   -0.477647
     13          1           0       -2.007511    1.043643    0.558799
 ---------------------------------------------------------------------

 SCF Done:  E(RHF) =  -590.733894669     A.U. after    2 cycles

 The electronic state is 1-A.
 Alpha  occ. eigenvalues --  -93.58607 -20.60076 -11.30180 -11.23320 -11.23041
 Alpha  occ. eigenvalues --   -8.87679  -6.21926  -6.21582  -6.21216  -1.33305
 Alpha  occ. eigenvalues --   -1.05490  -0.94805  -0.92059  -0.80135  -0.68758
 Alpha  occ. eigenvalues --   -0.63464  -0.62264  -0.58724  -0.55212  -0.54648
 Alpha  occ. eigenvalues --   -0.52904  -0.49842  -0.48152  -0.44638  -0.36670
 Alpha virt. eigenvalues --    0.03537   0.04581   0.05032   0.05117   0.06750
 Alpha virt. eigenvalues --    0.07198   0.07610   0.08081   0.09369   0.11748
 Alpha virt. eigenvalues --    0.13265   0.13821   0.14967   0.15296   0.15921

 Mulliken charges:
               1
     1  S    0.384843
     2  O   -0.914496
     3  C    0.105664
     4  C    0.404255
     5  H   -0.011247
     6  H   -0.006730
     7  H   -0.068611
     8  C    0.342811
     9  H   -0.179019
    10  H    0.025155
    11  H   -0.119356
    12  H   -0.009421
    13  H    0.046151
 Sum of Mulliken charges =  -0.00000

 Dipole moment (field-independent basis, Debye):
    X=              1.1049    Y=              1.5436    Z=             -0.6472  Tot=              2.0056

 Test job not archived.
 1\1\GINC-SE132\SP\RHF\Aug-CC-pVDZ\C3H8O1S1\OHZDE\08-Apr-2025\0\\#t hf
 aug-cc-pvdz iop(5/13=1,5/36=2,99/5=2) pseudo=read geom=check guess=(re
 ad,tcheck) scf=(maxcycle=1)\\title\\0,1\S,0,-1.845271,-0.1191,-0.11212
 1\O,0,-0.310255,-0.539531,0.427089\C,0,0.815065,0.002786,-0.322434\C,0
 ,1.981643,-0.919219,0.001491\H,0,2.195007,-0.900865,1.073314\H,0,2.878
 482,-0.600344,-0.536107\H,0,1.747996,-1.946042,-0.285261\C,0,1.070619,
 1.453384,0.065998\H,0,0.571471,-0.058349,-1.389269\H,0,1.271502,1.5297
 72,1.138133\H,0,0.21195,2.084462,-0.175068\H,0,1.933513,1.847863,-0.47

 Normal termination of Gaussian 16 at Tue Apr  8 23:22:10 2025.
