 Gaussian 16, Revision C.01,

 ----------------------------------------------------------------------
 #t hf aug-cc-pvdz symm=none int=(grid=ultrafine) guess=(read,tcheck) s
 table=(opt,rrhf)
 ----------------------------------------------------------------------
 -----
 title
 -----
 Symbolic Z-matrix:
 Charge =  0 Multiplicity = 1

 SCF Done:  E(RHF) =  -1380.96617566     A.U. after   13 cycles
 Normal termination of Gaussian 16 at Tue Apr  8 23:38:56 2025.
 Gaussian 16:  ES64L-G16RevC.01  3-Jul-2019

 ----------------------------------------------------------------------
 #t hf aug-cc-pvdz iop(5/13=1,5/36=2,99/5=2) pseudo=read geom=check gue
 ss=(read,tcheck) scf=(maxcycle=1)
 ----------------------------------------------------------------------
 -----
 title
 -----
 Structure from the checkpoint file:  "BDE49_nonexpt_161_mol1.chk"
 Charge =  0 Multiplicity = 1

                         Standard orientation:
 ---------------------------------------------------------------------
 Center     Atomic      Atomic             Coordinates (Angstroms)
 Number     Number       Type             X           Y           Z
 ---------------------------------------------------------------------
      1         17           0        0.229807    1.759163   -0.000030
      2         17           0        1.989124   -0.730220   -0.000104
      3         16           0       -1.019752   -1.116811    0.000081
      4          5           0        0.378545   -0.002665    0.000179
      5          6           0       -2.489423   -0.021476    0.000015
      6          1           0       -3.355824   -0.682121   -0.000039
      7          1           0       -2.503037    0.600634   -0.892692
      8          1           0       -2.503129    0.600612    0.892737
 ---------------------------------------------------------------------

 SCF Done:  E(RHF) =  -1381.04147615     A.U. after    2 cycles

 The electronic state is 1-A.
 Alpha  occ. eigenvalues -- -103.67655-103.67075 -93.55351 -11.28615 -10.71132
 Alpha  occ. eigenvalues --  -10.70542  -8.85334  -8.36825  -8.36594  -8.36573
 Alpha  occ. eigenvalues --   -8.36240  -8.36004  -8.35981  -7.75338  -6.19468
 Alpha  occ. eigenvalues --   -6.19226  -6.19008  -1.18643  -1.14959  -1.04551
 Alpha  occ. eigenvalues --   -0.89068  -0.68465  -0.62540  -0.61254  -0.60075
 Alpha  occ. eigenvalues --   -0.55400  -0.53377  -0.49285  -0.48553  -0.47027
 Alpha  occ. eigenvalues --   -0.44843  -0.38710
 Alpha virt. eigenvalues --    0.03288   0.05113   0.05506   0.05737   0.07090
 Alpha virt. eigenvalues --    0.07519   0.07857   0.08363   0.11817   0.12751
 Alpha virt. eigenvalues --    0.13769   0.14076   0.14306   0.16342   0.16775

 Mulliken charges:
               1
     1  Cl  -0.277776
     2  Cl  -0.331356
     3  S    0.120837
     4  B    0.721059
     5  C    0.053011
     6  H   -0.098138
     7  H   -0.093820
     8  H   -0.093817
 Sum of Mulliken charges =  -0.00000

 Dipole moment (field-independent basis, Debye):
    X=             -2.4758    Y=              0.4418    Z=              0.0003  Tot=              2.5150

 Test job not archived.
 1\1\GINC-SE038\SP\RHF\Aug-CC-pVDZ\C1H3B1Cl2S1\OHZDE\08-Apr-2025\0\\#t
 hf aug-cc-pvdz iop(5/13=1,5/36=2,99/5=2) pseudo=read geom=check guess=
 (read,tcheck) scf=(maxcycle=1)\\title\\0,1\Cl,0,-0.229807,1.759163,0.0
 0003\Cl,0,-1.989124,-0.73022,0.000104\S,0,1.019752,-1.116811,-0.000081
 \B,0,-0.378545,-0.002665,-0.000179\C,0,2.489423,-0.021476,-0.000015\H,
 0,3.355824,-0.682121,0.000039\H,0,2.503037,0.600634,0.892692\H,0,2.503
 129,0.600612,-0.892737\\Version=ES64L-G16RevC.01\State=1-A\HF=-1381.04
 14762\RMSD=3.978e-03\Dipole=0.9740736,0.1738155,-0.0001072\Quadrupole=

 Normal termination of Gaussian 16 at Tue Apr  8 23:39:00 2025.
