 Gaussian 16, Revision C.01,

 ----------------------------------------------------------------------
 #t hf aug-cc-pvdz symm=none int=(grid=ultrafine) guess=(read,tcheck) s
 table=(opt,rrhf)
 ----------------------------------------------------------------------
 -----
 title
 -----
 Symbolic Z-matrix:
 Charge =  0 Multiplicity = 1

 SCF Done:  E(RHF) =  -1510.06412459     A.U. after   16 cycles
 Normal termination of Gaussian 16 at Wed Apr  9 00:49:21 2025.
 Gaussian 16:  ES64L-G16RevC.01  3-Jul-2019

 ----------------------------------------------------------------------
 #t hf aug-cc-pvdz iop(5/13=1,5/36=2,99/5=2) pseudo=read geom=check gue
 ss=(read,tcheck) scf=(maxcycle=1)
 ----------------------------------------------------------------------
 -----
 title
 -----
 Structure from the checkpoint file:  "BDE49_nonexpt_896_mol1.chk"
 Charge =  0 Multiplicity = 1

                         Standard orientation:
 ---------------------------------------------------------------------
 Center     Atomic      Atomic             Coordinates (Angstroms)
 Number     Number       Type             X           Y           Z
 ---------------------------------------------------------------------
      1         17           0        4.127381   -0.002058    0.000643
      2         16           0       -3.015271    1.473630    0.327028
      3         16           0       -2.836440   -1.561999   -0.368774
      4          5           0       -1.992472    0.006023    0.004346
      5          6           0       -0.432939    0.013530    0.006097
      6          6           0        0.296287   -1.104828    0.450654
      7          1           0       -0.231071   -1.980034    0.813075
      8          6           0        1.686718   -1.116140    0.460679
      9          1           0        2.232988   -1.979631    0.817659
     10          6           0        2.374056    0.002481    0.001069
     11          6           0        1.693264    1.125227   -0.459950
     12          1           0        2.245173    1.982645   -0.822902
     13          6           0        0.303269    1.123539   -0.446175
     14          1           0       -0.215357    1.999487   -0.819889
     15          1           0       -2.029839    2.309638    0.697503
     16          1           0       -4.101552   -1.176176   -0.124400
 ---------------------------------------------------------------------

 SCF Done:  E(RHF) =  -1510.19113967     A.U. after    2 cycles

 The electronic state is 1-A.
 Alpha  occ. eigenvalues -- -103.67548 -93.54788 -93.54545 -11.32862 -11.27429
 Alpha  occ. eigenvalues --  -11.27286 -11.26901 -11.26826 -11.25314 -10.70821
 Alpha  occ. eigenvalues --   -8.84750  -8.84500  -8.36557  -8.36248  -8.36234
 Alpha  occ. eigenvalues --   -7.67988  -6.18944  -6.18700  -6.18688  -6.18454
 Alpha  occ. eigenvalues --   -6.18439  -6.18208  -1.20839  -1.14263  -1.03822
 Alpha  occ. eigenvalues --   -1.02672  -0.98797  -0.95316  -0.85800  -0.83647
 Alpha  occ. eigenvalues --   -0.73118  -0.66916  -0.66596  -0.63754  -0.61773
 Alpha  occ. eigenvalues --   -0.59868  -0.56679  -0.55694  -0.52899  -0.52254
 Alpha  occ. eigenvalues --   -0.48884  -0.47634  -0.46645  -0.45373  -0.43169
 Alpha  occ. eigenvalues --   -0.37409  -0.36549  -0.34908
 Alpha virt. eigenvalues --    0.03084   0.04065   0.04613   0.04954   0.05594
 Alpha virt. eigenvalues --    0.06152   0.06463   0.07204   0.07775   0.08221
 Alpha virt. eigenvalues --    0.08593   0.09371   0.09835   0.10609   0.11655

 Mulliken charges:
               1
     1  Cl  -0.339490
     2  S   -0.254168
     3  S   -0.232559
     4  B    0.485041
     5  C   -0.183303
     6  C    0.792093
     7  H   -0.634069
     8  C    0.772251
     9  H   -0.441406
    10  C   -0.439053
    11  C    0.731895
    12  H   -0.454472
    13  C    0.829808
    14  H   -0.634617
    15  H    0.012425
    16  H   -0.010376
 Sum of Mulliken charges =  -0.00000

 Dipole moment (field-independent basis, Debye):
    X=             -0.6335    Y=              0.6802    Z=              0.3769  Tot=              1.0030

 Test job not archived.
 1\1\GINC-SE097\SP\RHF\Aug-CC-pVDZ\C6H6B1Cl1S2\OHZDE\09-Apr-2025\0\\#t
 hf aug-cc-pvdz iop(5/13=1,5/36=2,99/5=2) pseudo=read geom=check guess=
 (read,tcheck) scf=(maxcycle=1)\\title\\0,1\Cl,0,4.127381,-0.002058,0.0
 00643\S,0,-3.015271,1.47363,0.327028\S,0,-2.83644,-1.561999,-0.368774\
 B,0,-1.992472,0.006023,0.004346\C,0,-0.432939,0.01353,0.006097\C,0,0.2
 96287,-1.104828,0.450654\H,0,-0.231071,-1.980034,0.813075\C,0,1.686718
 ,-1.11614,0.460679\H,0,2.232988,-1.979631,0.817659\C,0,2.374056,0.0024
 81,0.001069\C,0,1.693264,1.125227,-0.45995\H,0,2.245173,1.982645,-0.82

 Normal termination of Gaussian 16 at Wed Apr  9 00:49:31 2025.
