 Gaussian 16, Revision C.01,

 ----------------------------------------------------------------------
 #t hf aug-cc-pvdz symm=none int=(grid=ultrafine) guess=(read,tcheck) s
 table=(opt,rrhf)
 ----------------------------------------------------------------------
 -----
 title
 -----
 Symbolic Z-matrix:
 Charge =  0 Multiplicity = 1

 SCF Done:  E(RHF) =  -257.238126625     A.U. after   15 cycles
 Normal termination of Gaussian 16 at Wed Apr  9 00:35:53 2025.
 Gaussian 16:  ES64L-G16RevC.01  3-Jul-2019

 ----------------------------------------------------------------------
 #t hf aug-cc-pvdz iop(5/13=1,5/36=2,99/5=2) pseudo=read geom=check gue
 ss=(read,tcheck) scf=(maxcycle=1)
 ----------------------------------------------------------------------
 -----
 title
 -----
 Structure from the checkpoint file:  "BDE49_nonexpt_542_mol1.chk"
 Charge =  0 Multiplicity = 1

                         Standard orientation:
 ---------------------------------------------------------------------
 Center     Atomic      Atomic             Coordinates (Angstroms)
 Number     Number       Type             X           Y           Z
 ---------------------------------------------------------------------
      1          9           0        2.225759    0.129394    0.220551
      2          6           0       -0.080170    0.489928   -0.179192
      3          6           0        1.047913   -0.514315   -0.143998
      4          1           0        1.193286   -0.947237   -1.140184
      5          1           0        0.835644   -1.310927    0.572586
      6          7           0       -1.277541    0.179843   -0.027175
      7          5           0       -2.577983   -0.176894    0.136056
      8          1           0       -3.049817   -0.152118    1.231590
      9          1           0       -3.210318   -0.505780   -0.820975
     10          1           0        0.225621    1.523400   -0.378890
 ---------------------------------------------------------------------

 SCF Done:  E(RHF) =  -257.325793607     A.U. after    2 cycles

 The electronic state is 1-A.
 Alpha  occ. eigenvalues --  -26.12417 -15.64588 -11.34669 -11.33120  -7.61545
 Alpha  occ. eigenvalues --   -1.65601  -1.21138  -1.01463  -0.87509  -0.77898
 Alpha  occ. eigenvalues --   -0.76385  -0.74025  -0.69760  -0.60707  -0.58925
 Alpha  occ. eigenvalues --   -0.57958  -0.54023  -0.42033  -0.41015
 Alpha virt. eigenvalues --    0.03524   0.03929   0.04496   0.05272   0.06710
 Alpha virt. eigenvalues --    0.06986   0.07543   0.09806   0.10100   0.12041
 Alpha virt. eigenvalues --    0.12802   0.13156   0.14288   0.15003   0.15658

 Mulliken charges:
               1
     1  F   -0.381493
     2  C    0.326461
     3  C    0.662061
     4  H   -0.026892
     5  H   -0.126427
     6  N   -0.194585
     7  B   -0.484358
     8  H    0.217016
     9  H    0.219098
    10  H   -0.210881
 Sum of Mulliken charges =  -0.00000

 Dipole moment (field-independent basis, Debye):
    X=              0.1684    Y=             -0.5764    Z=             -0.8523  Tot=              1.0426

 Test job not archived.
 1\1\GINC-SE120\SP\RHF\Aug-CC-pVDZ\C2H5B1F1N1\OHZDE\09-Apr-2025\0\\#t h
 f aug-cc-pvdz iop(5/13=1,5/36=2,99/5=2) pseudo=read geom=check guess=(
 read,tcheck) scf=(maxcycle=1)\\title\\0,1\F,0,-2.225759,0.129394,-0.22
 0551\C,0,0.08017,0.489928,0.179192\C,0,-1.047913,-0.514315,0.143998\H,
 0,-1.193286,-0.947237,1.140184\H,0,-0.835644,-1.310927,-0.572586\N,0,1
 .277541,0.179843,0.027175\B,0,2.577983,-0.176894,-0.136056\H,0,3.04981
 7,-0.152118,-1.23159\H,0,3.210318,-0.50578,0.820975\H,0,-0.225621,1.52
 34,0.37889\\Version=ES64L-G16RevC.01\State=1-A\HF=-257.3257936\RMSD=4.

 Normal termination of Gaussian 16 at Wed Apr  9 00:35:56 2025.
