 Gaussian 16, Revision C.01,

 ----------------------------------------------------------------------
 #t hf aug-cc-pvdz symm=none int=(grid=ultrafine) guess=(read,tcheck) s
 table=(opt,rrhf)
 ----------------------------------------------------------------------
 -----
 title
 -----
 Symbolic Z-matrix:
 Charge =  0 Multiplicity = 1

 SCF Done:  E(RHF) =  -1863.31315509     A.U. after   12 cycles
 Normal termination of Gaussian 16 at Wed Apr  9 00:15:52 2025.
 Gaussian 16:  ES64L-G16RevC.01  3-Jul-2019

 ----------------------------------------------------------------------
 #t hf aug-cc-pvdz iop(5/13=1,5/36=2,99/5=2) pseudo=read geom=check gue
 ss=(read,tcheck) scf=(maxcycle=1)
 ----------------------------------------------------------------------
 -----
 title
 -----
 Structure from the checkpoint file:  "BDE49_nonexpt_2448_mol1.chk"
 Charge =  0 Multiplicity = 1

                         Standard orientation:
 ---------------------------------------------------------------------
 Center     Atomic      Atomic             Coordinates (Angstroms)
 Number     Number       Type             X           Y           Z
 ---------------------------------------------------------------------
      1         14           0       -1.099937    2.060837   -0.679332
      2         14           0        0.860753    2.091588    0.652136
      3         15           0        1.921391   -0.639155   -0.153598
      4          8           0        3.451060   -0.930072   -0.437835
      5          8           0        1.609393   -1.461433    1.146359
      6          1           0        3.571534   -1.547567   -1.168047
      7          1           0        0.659129   -1.330984    1.408470
      8          8           0        1.033196   -0.918876   -1.312040
      9         15           0       -1.838872   -0.731661    0.184059
     10          8           0       -3.283788   -1.212195    0.606240
     11          1           0       -3.866497   -1.405210   -0.138131
     12          8           0       -1.445328   -1.693330   -0.991982
     13          1           0       -0.495539   -1.533112   -1.265053
     14          8           0       -0.904889   -0.674334    1.330061
     15          8           0        1.953870    0.880312    0.253006
     16          1           0        0.570228    2.021833    2.096527
     17          1           0        1.572753    3.352199    0.346709
     18          8           0       -2.061851    0.698158   -0.461536
     19          1           0       -0.774339    2.147753   -2.118062
     20          1           0       -1.939783    3.217556   -0.296772
 ---------------------------------------------------------------------

 SCF Done:  E(RHF) =  -1863.71991034     A.U. after    2 cycles

 The electronic state is 1-A.
 Alpha  occ. eigenvalues --  -81.46418 -81.46410 -69.12194 -69.12175 -20.62984
 Alpha  occ. eigenvalues --  -20.62708 -20.60977 -20.60881 -20.60402 -20.60118
 Alpha  occ. eigenvalues --  -20.55154 -20.55056  -7.94255  -7.94225  -6.86961
 Alpha  occ. eigenvalues --   -6.86906  -5.08974  -5.08947  -5.08913  -5.08889
 Alpha  occ. eigenvalues --   -5.08878  -5.08853  -3.97876  -3.97828  -3.97690
 Alpha  occ. eigenvalues --   -3.97675  -3.97629  -3.97585  -1.40502  -1.40120
 Alpha  occ. eigenvalues --   -1.35760  -1.35389  -1.34155  -1.34039  -1.28691
 Alpha  occ. eigenvalues --   -1.28297  -0.88571  -0.86755  -0.80278  -0.79140
 Alpha  occ. eigenvalues --   -0.78676  -0.75734  -0.71160  -0.70814  -0.68723
 Alpha  occ. eigenvalues --   -0.67436  -0.65260  -0.64489  -0.64224  -0.62600
 Alpha  occ. eigenvalues --   -0.62198  -0.61266  -0.59916  -0.59335  -0.58618
 Alpha  occ. eigenvalues --   -0.57347  -0.56701  -0.56254  -0.52462  -0.51753
 Alpha  occ. eigenvalues --   -0.51521  -0.50947  -0.49165  -0.48228  -0.41517
 Alpha virt. eigenvalues --    0.03061   0.03800   0.04103   0.04628   0.06072
 Alpha virt. eigenvalues --    0.06423   0.06796   0.07362   0.07681   0.08548
 Alpha virt. eigenvalues --    0.08961   0.09767   0.10358   0.10569   0.10909

 Mulliken charges:
               1
     1  Si   0.250466
     2  Si   0.193816
     3  P    2.601547
     4  O   -0.621224
     5  O   -0.702039
     6  H    0.173158
     7  H    0.271564
     8  O   -1.068018
     9  P    2.568179
    10  O   -0.618306
    11  H    0.170913
    12  O   -0.693690
    13  H    0.286861
    14  O   -1.056129
    15  O   -1.132465
    16  H    0.174240
    17  H    0.139841
    18  O   -1.197307
    19  H    0.131164
    20  H    0.127428
 Sum of Mulliken charges =  -0.00000

 Dipole moment (field-independent basis, Debye):
    X=             -1.0069    Y=              1.6120    Z=             -2.2393  Tot=              2.9372

 Test job not archived.
 1\1\GINC-SE109\SP\RHF\Aug-CC-pVDZ\H8O8P2Si2\OHZDE\09-Apr-2025\0\\#t hf
  aug-cc-pvdz iop(5/13=1,5/36=2,99/5=2) pseudo=read geom=check guess=(r
 ead,tcheck) scf=(maxcycle=1)\\title\\0,1\Si,0,-1.099937,2.060837,-0.67
 9332\Si,0,0.860753,2.091588,0.652136\P,0,1.921391,-0.639155,-0.153598\
 O,0,3.45106,-0.930072,-0.437835\O,0,1.609393,-1.461433,1.146359\H,0,3.
 571534,-1.547567,-1.168047\H,0,0.659129,-1.330984,1.40847\O,0,1.033196
 ,-0.918876,-1.31204\P,0,-1.838872,-0.731661,0.184059\O,0,-3.283788,-1.
 212195,0.60624\H,0,-3.866497,-1.40521,-0.138131\O,0,-1.445328,-1.69333

 Normal termination of Gaussian 16 at Wed Apr  9 00:16:09 2025.
