 Gaussian 16, Revision C.01,

 ----------------------------------------------------------------------
 #t hf aug-cc-pvdz symm=none int=(grid=ultrafine) guess=(read,tcheck) s
 table=opt
 ----------------------------------------------------------------------
 -----
 title
 -----
 Symbolic Z-matrix:
 Charge =  0 Multiplicity = 2

 SCF Done:  E(UHF) =  -465.759437998     A.U. after   15 cycles
 Normal termination of Gaussian 16 at Wed Apr  9 00:12:36 2025.
 Gaussian 16:  ES64L-G16RevC.01  3-Jul-2019

 ----------------------------------------------------------------------
 #t hf aug-cc-pvdz iop(5/13=1,5/36=2,99/5=2) pseudo=read geom=check gue
 ss=(read,tcheck) scf=(maxcycle=1)
 ----------------------------------------------------------------------
 -----
 title
 -----
 Structure from the checkpoint file:  "BDE49_nonexpt_2455_mol2.chk"
 Charge =  0 Multiplicity = 2

                         Standard orientation:
 ---------------------------------------------------------------------
 Center     Atomic      Atomic             Coordinates (Angstroms)
 Number     Number       Type             X           Y           Z
 ---------------------------------------------------------------------
      1         14           0        1.490225   -0.000000   -0.073015
      2          5           0       -0.517677    0.000000    0.014663
      3          1           0        2.186005    1.220162    0.398595
      4          1           0        2.186005   -1.220162    0.398595
      5          8           0       -1.151077   -1.211896    0.009043
      6          8           0       -1.151077    1.211896    0.009043
      7          1           0       -2.114771   -1.178916    0.003506
      8          1           0       -2.114770    1.178916    0.003506
 ---------------------------------------------------------------------

 SCF Done:  E(UHF) =  -465.839630360     A.U. after    2 cycles

 The electronic state is 2-A.
 Alpha  occ. eigenvalues --  -69.04913 -20.59822 -20.59821  -7.67675  -6.80536
 Alpha  occ. eigenvalues --   -3.91951  -3.91028  -3.90968  -1.35926  -1.32260
 Alpha  occ. eigenvalues --   -0.80708  -0.76823  -0.69029  -0.65723  -0.60538
 Alpha  occ. eigenvalues --   -0.56694  -0.54109  -0.47411  -0.43914  -0.30071
 Alpha virt. eigenvalues --    0.02379   0.04712   0.05776   0.06099   0.07573
 Alpha virt. eigenvalues --    0.07789   0.08617   0.09379   0.10074   0.10399
 Alpha virt. eigenvalues --    0.10727   0.14513   0.16971   0.17312   0.19141

  Beta  occ. eigenvalues --  -69.04375 -20.59767 -20.59766  -7.67715  -6.79773
  Beta  occ. eigenvalues --   -3.90627  -3.90593  -3.89756  -1.35789  -1.32108
  Beta  occ. eigenvalues --   -0.80282  -0.76794  -0.67300  -0.63133  -0.60011
  Beta  occ. eigenvalues --   -0.56638  -0.53576  -0.47130  -0.43128
  Beta virt. eigenvalues --    0.02396   0.03465   0.04971   0.05787   0.06589
  Beta virt. eigenvalues --    0.07786   0.07865   0.09579   0.10136   0.10566
  Beta virt. eigenvalues --    0.10882   0.11388   0.16564   0.17789   0.19741

 Mulliken charges and spin densities:
               1          2
     1  Si  -0.164206   1.093976
     2  B    0.779042  -0.039618
     3  H   -0.027043  -0.050615
     4  H   -0.027043  -0.050615
     5  O   -0.442308   0.023949
     6  O   -0.442307   0.023949
     7  H    0.161933  -0.000512
     8  H    0.161932  -0.000512
 Sum of Mulliken charges =  -0.00000   1.00000

 Dipole moment (field-independent basis, Debye):
    X=             -3.2114    Y=             -0.0000    Z=              0.1019  Tot=              3.2130
                          Isotropic Fermi Contact Couplings
        Atom                 a.u.       MegaHertz       Gauss      10(-4) cm-1
     1  Si(29)             0.37208    -330.67336    -117.99248    -110.30076
     2  B(11)             -0.00965     -13.83771      -4.93764      -4.61576
     3  H(1)              -0.00880     -39.35000     -14.04106     -13.12575
     4  H(1)              -0.00880     -39.35000     -14.04106     -13.12575
     5  O(17)              0.00365      -2.21072      -0.78884      -0.73742
     6  O(17)              0.00365      -2.21072      -0.78884      -0.73742
     7  H(1)              -0.00052      -2.33089      -0.83172      -0.77750
     8  H(1)              -0.00052      -2.33089      -0.83172      -0.77750

 Normal termination of Gaussian 16 at Wed Apr  9 00:12:39 2025.
