 Gaussian 16, Revision C.01,

 ----------------------------------------------------------------------
 #t hf aug-cc-pvdz symm=none int=(grid=ultrafine) guess=(read,tcheck) s
 table=(opt,rrhf)
 ----------------------------------------------------------------------
 -----
 title
 -----
 Symbolic Z-matrix:
 Charge =  0 Multiplicity = 1

 SCF Done:  E(RHF) =  -1181.13228019     A.U. after   12 cycles
 Normal termination of Gaussian 16 at Tue Apr  8 23:44:15 2025.
 Gaussian 16:  ES64L-G16RevC.01  3-Jul-2019

 ----------------------------------------------------------------------
 #t hf aug-cc-pvdz iop(5/13=1,5/36=2,99/5=2) pseudo=read geom=check gue
 ss=(read,tcheck) scf=(maxcycle=1)
 ----------------------------------------------------------------------
 -----
 title
 -----
 Structure from the checkpoint file:  "BDE49_nonexpt_175_mol1.chk"
 Charge =  0 Multiplicity = 1

                         Standard orientation:
 ---------------------------------------------------------------------
 Center     Atomic      Atomic             Coordinates (Angstroms)
 Number     Number       Type             X           Y           Z
 ---------------------------------------------------------------------
      1         17           0        0.481204    1.734421    0.195419
      2         17           0        1.749364   -1.006843   -0.149509
      3          5           0        0.336585    0.024129   -0.089742
      4          6           0       -1.103705   -0.651526   -0.262257
      5          9           0       -2.020878    0.225235   -0.773354
      6          9           0       -1.518757   -1.005837    1.008895
      7          1           0       -1.123627   -1.554889   -0.878102
 ---------------------------------------------------------------------

 SCF Done:  E(RHF) =  -1181.25883272     A.U. after    2 cycles

 The electronic state is 1-A.
 Alpha  occ. eigenvalues -- -103.69591-103.69181 -26.14957 -26.14843 -11.42642
 Alpha  occ. eigenvalues --  -10.73082 -10.72677  -8.38773  -8.38547  -8.38510
 Alpha  occ. eigenvalues --   -8.38373  -8.38142  -8.38099  -7.76142  -1.70666
 Alpha  occ. eigenvalues --   -1.66474  -1.20854  -1.17179  -1.01306  -0.83201
 Alpha  occ. eigenvalues --   -0.82402  -0.81760  -0.74269  -0.70994  -0.70761
 Alpha  occ. eigenvalues --   -0.66206  -0.60719  -0.57701  -0.54833  -0.50202
 Alpha  occ. eigenvalues --   -0.49606  -0.49092
 Alpha virt. eigenvalues --    0.03606   0.04246   0.05189   0.05692   0.05894
 Alpha virt. eigenvalues --    0.07919   0.11576   0.12107   0.12591   0.14309
 Alpha virt. eigenvalues --    0.15020   0.15540   0.17871   0.18254   0.18664

 Mulliken charges:
               1
     1  Cl  -0.249707
     2  Cl  -0.268766
     3  B    0.704692
     4  C    0.867761
     5  F   -0.397144
     6  F   -0.404863
     7  H   -0.251974
 Sum of Mulliken charges =  -0.00000

 Dipole moment (field-independent basis, Debye):
    X=              1.3013    Y=             -0.9490    Z=             -1.2221  Tot=              2.0217

 Test job not archived.
 1\1\GINC-SE341\SP\RHF\Aug-CC-pVDZ\C1H1B1Cl2F2\OHZDE\08-Apr-2025\0\\#t
 hf aug-cc-pvdz iop(5/13=1,5/36=2,99/5=2) pseudo=read geom=check guess=
 (read,tcheck) scf=(maxcycle=1)\\title\\0,1\Cl,0,0.481204,1.734421,0.19
 5419\Cl,0,1.749364,-1.006843,-0.149509\B,0,0.336585,0.024129,-0.089742
 \C,0,-1.103705,-0.651526,-0.262257\F,0,-2.020878,0.225235,-0.773354\F,
 0,-1.518757,-1.005837,1.008895\H,0,-1.123627,-1.554889,-0.878102\\Vers
 ion=ES64L-G16RevC.01\State=1-A\HF=-1181.2588327\RMSD=4.102e-03\Dipole=
 0.5119652,-0.3733484,-0.4807917\Quadrupole=-2.8442071,1.6919817,1.1522

 Normal termination of Gaussian 16 at Tue Apr  8 23:44:18 2025.
