 Gaussian 16, Revision C.01,

 ----------------------------------------------------------------------
 #t hf aug-cc-pvdz symm=none int=(grid=ultrafine) guess=(read,tcheck) s
 table=(opt,rrhf)
 ----------------------------------------------------------------------
 -----
 title
 -----
 Symbolic Z-matrix:
 Charge =  0 Multiplicity = 1

 SCF Done:  E(RHF) =  -969.786341912     A.U. after   18 cycles
 Normal termination of Gaussian 16 at Tue Apr  8 23:19:51 2025.
 Gaussian 16:  ES64L-G16RevC.01  3-Jul-2019

 ----------------------------------------------------------------------
 #t hf aug-cc-pvdz iop(5/13=1,5/36=2,99/5=2) pseudo=read geom=check gue
 ss=(read,tcheck) scf=(maxcycle=1)
 ----------------------------------------------------------------------
 -----
 title
 -----
 Structure from the checkpoint file:  "BDE49_nonexpt_1143_mol1.chk"
 Charge =  0 Multiplicity = 1

                         Standard orientation:
 ---------------------------------------------------------------------
 Center     Atomic      Atomic             Coordinates (Angstroms)
 Number     Number       Type             X           Y           Z
 ---------------------------------------------------------------------
      1          9           0       -2.003655   -0.833136   -0.219654
      2          8           0       -1.200432    0.258411    0.608745
      3         16           0       -0.010310    0.816894   -0.246484
      4         16           0        1.642474   -0.404992    0.127103
      5          1           0        1.521716   -1.159505   -0.982973
 ---------------------------------------------------------------------

 SCF Done:  E(RHF) =  -969.894972468     A.U. after    2 cycles

 The electronic state is 1-A.
 Alpha  occ. eigenvalues --  -93.66601 -93.59993 -26.14633 -20.75561  -8.95632
 Alpha  occ. eigenvalues --   -8.89676  -6.29871  -6.29375  -6.29055  -6.23749
 Alpha  occ. eigenvalues --   -6.23539  -6.23185  -1.62246  -1.39411  -1.05069
 Alpha  occ. eigenvalues --   -0.89768  -0.74939  -0.73592  -0.70853  -0.66110
 Alpha  occ. eigenvalues --   -0.64550  -0.57782  -0.48208  -0.42581  -0.42287
 Alpha virt. eigenvalues --    0.00452   0.03571   0.05017   0.08562   0.09917
 Alpha virt. eigenvalues --    0.10249   0.12101   0.12599   0.13082   0.17066
 Alpha virt. eigenvalues --    0.17116   0.19494   0.20576   0.23581   0.24261

 Mulliken charges:
               1
     1  F   -0.367587
     2  O   -0.304605
     3  S    0.580665
     4  S   -0.089352
     5  H    0.180878
 Sum of Mulliken charges =  -0.00000

 Dipole moment (field-independent basis, Debye):
    X=              3.0787    Y=              0.9221    Z=             -0.8246  Tot=              3.3179

 Test job not archived.
 1\1\GINC-SE116\SP\RHF\Aug-CC-pVDZ\F1H1O1S2\OHZDE\08-Apr-2025\0\\#t hf
 aug-cc-pvdz iop(5/13=1,5/36=2,99/5=2) pseudo=read geom=check guess=(re
 ad,tcheck) scf=(maxcycle=1)\\title\\0,1\F,0,-2.003655,-0.833136,-0.219
 654\O,0,-1.200432,0.258411,0.608745\S,0,-0.01031,0.816894,-0.246484\S,
 0,1.642474,-0.404992,0.127103\H,0,1.521716,-1.159505,-0.982973\\Versio
 n=ES64L-G16RevC.01\State=1-A\HF=-969.8949725\RMSD=5.551e-03\Dipole=1.2
 112446,0.3627844,-0.3244106\Quadrupole=-2.3451442,1.3505413,0.9946029,
 -3.1528126,-0.9209898,0.7779218\PG=C01 [X(F1H1O1S2)]\\@

 Normal termination of Gaussian 16 at Tue Apr  8 23:19:54 2025.
