 Gaussian 16, Revision C.01,

 ----------------------------------------------------------------------
 #t hf aug-cc-pvdz symm=none int=(grid=ultrafine) guess=(read,tcheck) s
 table=(opt,rrhf)
 ----------------------------------------------------------------------
 -----
 title
 -----
 Symbolic Z-matrix:
 Charge =  0 Multiplicity = 1

 SCF Done:  E(RHF) =  -348.142999755     A.U. after   14 cycles

 1\1\GINC-SE423\Stability\RHF\Aug-CC-pVDZ\C7H14O1\OHZDE\08-Apr-2025\0\\
 #t hf aug-cc-pvdz symm=none int=(grid=ultrafine) guess=(read,tcheck) s
 table=(opt,rrhf)\\title\\0,1\C,0,2.481903,-0.041485,0.673762\C,0,1.192
 821,-0.849769,0.504205\C,0,-0.000004,-0.043733,0.000036\H,0,0.880281,-
 1.27863,1.466581\H,0,1.346385,-1.7114,-0.157798\O,0,0.000009,1.167814,
 0.000075\C,0,-1.192809,-0.849711,-0.504272\C,0,-2.481886,-0.041408,-0.
 673784\H,0,-1.346397,-1.711418,0.157626\H,0,-0.880235,-1.278462,-1.466
 687\C,0,3.126831,0.362236,-0.655846\H,0,3.191447,-0.633294,1.261191\H,

 Normal termination of Gaussian 16 at Tue Apr  8 23:00:56 2025.
 Gaussian 16:  ES64L-G16RevC.01  3-Jul-2019

 ----------------------------------------------------------------------
 #t hf aug-cc-pvdz iop(5/13=1,5/36=2,99/5=2) pseudo=read geom=check gue
 ss=(read,tcheck) scf=(maxcycle=1)
 ----------------------------------------------------------------------
 -----
 title
 -----
 Structure from the checkpoint file:  "BDE49_expt_226_mol1.chk"
 Charge =  0 Multiplicity = 1

                         Standard orientation:
 ---------------------------------------------------------------------
 Center     Atomic      Atomic             Coordinates (Angstroms)
 Number     Number       Type             X           Y           Z
 ---------------------------------------------------------------------
      1          6           0        2.481903    0.041485   -0.673762
      2          6           0        1.192821    0.849769   -0.504205
      3          6           0       -0.000004    0.043733   -0.000036
      4          1           0        0.880281    1.278630   -1.466581
      5          1           0        1.346385    1.711400    0.157798
      6          8           0        0.000009   -1.167814   -0.000075
      7          6           0       -1.192809    0.849711    0.504272
      8          6           0       -2.481886    0.041408    0.673784
      9          1           0       -1.346397    1.711418   -0.157626
     10          1           0       -0.880235    1.278462    1.466687
     11          6           0        3.126831   -0.362236    0.655846
     12          1           0        3.191447    0.633294   -1.261191
     13          1           0        2.255650   -0.855817   -1.255838
     14          1           0        3.373132    0.517091    1.260398
     15          1           0        4.053248   -0.917992    0.488790
     16          1           0        2.458063   -1.000445    1.237356
     17          6           0       -3.126865   -0.362157   -0.655847
     18          1           0       -3.191407    0.633150    1.261308
     19          1           0       -2.255611   -0.855962    1.255746
     20          1           0       -3.373187    0.517241   -1.260287
     21          1           0       -4.053276   -0.917931   -0.488821
     22          1           0       -2.458119   -1.000298   -1.237457
 ---------------------------------------------------------------------

 SCF Done:  E(RHF) =  -348.252900814     A.U. after    2 cycles

 The electronic state is 1-A.
 Alpha  occ. eigenvalues --  -20.55757 -11.33824 -11.24545 -11.24539 -11.23173
 Alpha  occ. eigenvalues --  -11.23173 -11.22018 -11.22018  -1.35047  -1.07125
 Alpha  occ. eigenvalues --   -1.05435  -0.97688  -0.93028  -0.84132  -0.79958
 Alpha  occ. eigenvalues --   -0.72915  -0.68004  -0.64413  -0.63294  -0.60635
 Alpha  occ. eigenvalues --   -0.59724  -0.57568  -0.56067  -0.55040  -0.52062
 Alpha  occ. eigenvalues --   -0.49868  -0.48811  -0.48228  -0.48228  -0.47971
 Alpha  occ. eigenvalues --   -0.47684  -0.41188
 Alpha virt. eigenvalues --    0.03207   0.03919   0.04310   0.04606   0.05736
 Alpha virt. eigenvalues --    0.05826   0.05921   0.06765   0.07190   0.08246
 Alpha virt. eigenvalues --    0.08619   0.09037   0.09138   0.09651   0.13014

 Mulliken charges:
               1
     1  C    0.386143
     2  C    0.180574
     3  C   -0.338546
     4  H    0.014137
     5  H   -0.111693
     6  O   -0.548792
     7  C    0.180532
     8  C    0.386130
     9  H   -0.111679
    10  H    0.014138
    11  C    0.383464
    12  H   -0.064654
    13  H   -0.091087
    14  H   -0.071360
    15  H   -0.088173
    16  H   -0.093663
    17  C    0.383463
    18  H   -0.064655
    19  H   -0.091086
    20  H   -0.071358
    21  H   -0.088172
    22  H   -0.093662
 Sum of Mulliken charges =  -0.00000

 Dipole moment (field-independent basis, Debye):
    X=             -0.0000    Y=              3.0382    Z=              0.0001  Tot=              3.0382

 Test job not archived.
 1\1\GINC-SE423\SP\RHF\Aug-CC-pVDZ\C7H14O1\OHZDE\08-Apr-2025\0\\#t hf a
 ug-cc-pvdz iop(5/13=1,5/36=2,99/5=2) pseudo=read geom=check guess=(rea
 d,tcheck) scf=(maxcycle=1)\\title\\0,1\C,0,2.481903,-0.041485,0.673762
 \C,0,1.192821,-0.849769,0.504205\C,0,-0.000004,-0.043733,0.000036\H,0,
 0.880281,-1.27863,1.466581\H,0,1.346385,-1.7114,-0.157798\O,0,0.000009
 ,1.167814,0.000075\C,0,-1.192809,-0.849711,-0.504272\C,0,-2.481886,-0.
 041408,-0.673784\H,0,-1.346397,-1.711418,0.157626\H,0,-0.880235,-1.278
 462,-1.466687\C,0,3.126831,0.362236,-0.655846\H,0,3.191447,-0.633294,1

 Normal termination of Gaussian 16 at Tue Apr  8 23:01:06 2025.
