 Gaussian 16, Revision C.01,

 ----------------------------------------------------------------------
 #t hf aug-cc-pvdz symm=none int=(grid=ultrafine) guess=(read,tcheck) s
 table=(opt,rrhf)
 ----------------------------------------------------------------------
 -----
 title
 -----
 Symbolic Z-matrix:
 Charge =  0 Multiplicity = 1

 SCF Done:  E(RHF) =  -461.797108060     A.U. after   13 cycles
 Normal termination of Gaussian 16 at Wed Apr  9 00:41:21 2025.
 Gaussian 16:  ES64L-G16RevC.01  3-Jul-2019

 ----------------------------------------------------------------------
 #t hf aug-cc-pvdz iop(5/13=1,5/36=2,99/5=2) pseudo=read geom=check gue
 ss=(read,tcheck) scf=(maxcycle=1)
 ----------------------------------------------------------------------
 -----
 title
 -----
 Structure from the checkpoint file:  "BDE49_nonexpt_724_mol1.chk"
 Charge =  0 Multiplicity = 1

                         Standard orientation:
 ---------------------------------------------------------------------
 Center     Atomic      Atomic             Coordinates (Angstroms)
 Number     Number       Type             X           Y           Z
 ---------------------------------------------------------------------
      1         15           0        0.734010   -0.592262   -0.097933
      2          6           0       -0.996207   -0.301331    0.512888
      3          5           0        1.801902    0.889551    0.123016
      4          7           0       -1.785952    0.513711   -0.405539
      5          1           0       -0.876061    0.101574    1.531020
      6          1           0       -1.480536   -1.276153    0.612206
      7          1           0       -1.405772    1.452675   -0.466325
      8          1           0       -2.746124    0.588306   -0.081089
      9          1           0        2.737535    1.042598   -0.594806
     10          1           0        1.658558    1.571583    1.089211
     11          1           0        0.571647   -0.832397   -1.474863
 ---------------------------------------------------------------------

 SCF Done:  E(RHF) =  -461.855867669     A.U. after    2 cycles

 The electronic state is 1-A.
 Alpha  occ. eigenvalues --  -81.23718 -15.62071 -11.28241  -7.74554  -7.62106
 Alpha  occ. eigenvalues --   -4.88628  -4.88611  -4.88307  -1.15584  -0.91764
 Alpha  occ. eigenvalues --   -0.78037  -0.67239  -0.65658  -0.62184  -0.56508
 Alpha  occ. eigenvalues --   -0.52452  -0.47631  -0.45470  -0.39714  -0.32677
 Alpha virt. eigenvalues --    0.03144   0.04222   0.04694   0.04963   0.05479
 Alpha virt. eigenvalues --    0.06771   0.07111   0.08338   0.09624   0.10349
 Alpha virt. eigenvalues --    0.11249   0.12560   0.12819   0.13554   0.15092

 Mulliken charges:
               1
     1  P    0.136719
     2  C    0.391894
     3  B   -0.479190
     4  N   -0.371761
     5  H   -0.149894
     6  H   -0.249505
     7  H    0.031581
     8  H   -0.014796
     9  H    0.319141
    10  H    0.248812
    11  H    0.136999
 Sum of Mulliken charges =   0.00000

 Dipole moment (field-independent basis, Debye):
    X=             -1.5786    Y=              0.8368    Z=              0.7818  Tot=              1.9502

 Test job not archived.
 1\1\GINC-SE090\SP\RHF\Aug-CC-pVDZ\C1H7B1N1P1\OHZDE\09-Apr-2025\0\\#t h
 f aug-cc-pvdz iop(5/13=1,5/36=2,99/5=2) pseudo=read geom=check guess=(
 read,tcheck) scf=(maxcycle=1)\\title\\0,1\P,0,0.73401,-0.592262,-0.097
 933\C,0,-0.996207,-0.301331,0.512888\B,0,1.801902,0.889551,0.123016\N,
 0,-1.785952,0.513711,-0.405539\H,0,-0.876061,0.101574,1.53102\H,0,-1.4
 80536,-1.276153,0.612206\H,0,-1.405772,1.452675,-0.466325\H,0,-2.74612
 4,0.588306,-0.081089\H,0,2.737535,1.042598,-0.594806\H,0,1.658558,1.57
 1583,1.089211\H,0,0.571647,-0.832397,-1.474863\\Version=ES64L-G16RevC.

 Normal termination of Gaussian 16 at Wed Apr  9 00:41:24 2025.
