 Gaussian 16, Revision C.01,

 ----------------------------------------------------------------------
 #t hf aug-cc-pvdz symm=none int=(grid=ultrafine) guess=(read,tcheck) s
 table=(opt,rrhf)
 ----------------------------------------------------------------------
 -----
 title
 -----
 Symbolic Z-matrix:
 Charge =  0 Multiplicity = 1

 SCF Done:  E(RHF) =  -849.547084426     A.U. after   16 cycles
 Normal termination of Gaussian 16 at Tue Apr  8 23:35:14 2025.
 Gaussian 16:  ES64L-G16RevC.01  3-Jul-2019

 ----------------------------------------------------------------------
 #t hf aug-cc-pvdz iop(5/13=1,5/36=2,99/5=2) pseudo=read geom=check gue
 ss=(read,tcheck) scf=(maxcycle=1)
 ----------------------------------------------------------------------
 -----
 title
 -----
 Structure from the checkpoint file:  "BDE49_nonexpt_1520_mol1.chk"
 Charge =  0 Multiplicity = 1

                         Standard orientation:
 ---------------------------------------------------------------------
 Center     Atomic      Atomic             Coordinates (Angstroms)
 Number     Number       Type             X           Y           Z
 ---------------------------------------------------------------------
      1         15           0        0.041196    0.657726   -0.834551
      2          7           0       -1.372253    0.228759    0.046557
      3          7           0        1.211770   -0.608355   -0.007626
      4          9           0        0.486118    1.911558    0.045777
      5          8           0        0.791885   -1.754883   -0.193022
      6          8           0        2.224910   -0.299292    0.566591
      7          8           0       -1.963173   -0.918589   -0.505387
      8          8           0       -1.139938    0.058395    1.427621
      9          1           0       -1.868987    0.536610    1.843897
     10          1           0       -1.310109   -1.634407   -0.376571
 ---------------------------------------------------------------------

 SCF Done:  E(RHF) =  -849.744287201     A.U. after    2 cycles

 The electronic state is 1-A.
 Alpha  occ. eigenvalues --  -81.44635 -26.18402 -20.66385 -20.65726 -20.65277
 Alpha  occ. eigenvalues --  -20.63730 -15.91734 -15.78667  -7.93462  -5.07469
 Alpha  occ. eigenvalues --   -5.07292  -5.06906  -1.71188  -1.56505  -1.46687
 Alpha  occ. eigenvalues --   -1.38903  -1.35826  -1.08103  -0.96926  -0.88243
 Alpha  occ. eigenvalues --   -0.83124  -0.81051  -0.79431  -0.78623  -0.75638
 Alpha  occ. eigenvalues --   -0.74876  -0.73212  -0.70342  -0.67970  -0.58516
 Alpha  occ. eigenvalues --   -0.56088  -0.54802  -0.53301  -0.49815  -0.46655
 Alpha  occ. eigenvalues --   -0.44575
 Alpha virt. eigenvalues --    0.03283   0.03987   0.04891   0.05669   0.07203
 Alpha virt. eigenvalues --    0.08464   0.11322   0.12238   0.13120   0.14084
 Alpha virt. eigenvalues --    0.14502   0.16403   0.17080   0.18116   0.20103

 Mulliken charges:
               1
     1  P    1.596354
     2  N    0.063344
     3  N    0.555614
     4  F   -0.570458
     5  O   -0.634265
     6  O   -0.534921
     7  O   -0.456268
     8  O   -0.492991
     9  H    0.226157
    10  H    0.247435
 Sum of Mulliken charges =  -0.00000

 Dipole moment (field-independent basis, Debye):
    X=             -2.3595    Y=              1.7240    Z=             -0.9646  Tot=              3.0773

 Test job not archived.
 1\1\GINC-SE367\SP\RHF\Aug-CC-pVDZ\F1H2N2O4P1\OHZDE\08-Apr-2025\0\\#t h
 f aug-cc-pvdz iop(5/13=1,5/36=2,99/5=2) pseudo=read geom=check guess=(
 read,tcheck) scf=(maxcycle=1)\\title\\0,1\P,0,0.041196,0.657726,-0.834
 551\N,0,-1.372253,0.228759,0.046557\N,0,1.21177,-0.608355,-0.007626\F,
 0,0.486118,1.911558,0.045777\O,0,0.791885,-1.754883,-0.193022\O,0,2.22
 491,-0.299292,0.566591\O,0,-1.963173,-0.918589,-0.505387\O,0,-1.139938
 ,0.058395,1.427621\H,0,-1.868987,0.53661,1.843897\H,0,-1.310109,-1.634
 407,-0.376571\\Version=ES64L-G16RevC.01\State=1-A\HF=-849.7442872\RMSD

 Normal termination of Gaussian 16 at Tue Apr  8 23:35:19 2025.
