 Gaussian 16, Revision C.01,

 ----------------------------------------------------------------------
 #t hf aug-cc-pvdz symm=none int=(grid=ultrafine) guess=(read,tcheck) s
 table=(opt,rrhf)
 ----------------------------------------------------------------------
 -----
 title
 -----
 Symbolic Z-matrix:
 Charge =  0 Multiplicity = 1

 SCF Done:  E(RHF) =  -466.376616775     A.U. after   11 cycles
 Normal termination of Gaussian 16 at Wed Apr  9 00:45:24 2025.
 Gaussian 16:  ES64L-G16RevC.01  3-Jul-2019

 ----------------------------------------------------------------------
 #t hf aug-cc-pvdz iop(5/13=1,5/36=2,99/5=2) pseudo=read geom=check gue
 ss=(read,tcheck) scf=(maxcycle=1)
 ----------------------------------------------------------------------
 -----
 title
 -----
 Structure from the checkpoint file:  "BDE49_nonexpt_836_mol1.chk"
 Charge =  0 Multiplicity = 1

                         Standard orientation:
 ---------------------------------------------------------------------
 Center     Atomic      Atomic             Coordinates (Angstroms)
 Number     Number       Type             X           Y           Z
 ---------------------------------------------------------------------
      1         14           0        1.459374   -0.013152   -0.000001
      2          5           0       -0.579606   -0.003356   -0.000066
      3          8           0       -1.213861   -1.206024    0.000019
      4          8           0       -1.348862    1.129654    0.000008
      5          1           0       -0.840385    1.944440    0.000038
      6          1           0       -2.175784   -1.113648    0.000046
      7          1           0        1.998267   -0.698587   -1.200521
      8          1           0        1.998214   -0.698610    1.200532
      9          1           0        1.988260    1.378273    0.000023
 ---------------------------------------------------------------------

 SCF Done:  E(RHF) =  -466.460683423     A.U. after    2 cycles

 The electronic state is 1-A.
 Alpha  occ. eigenvalues --  -69.05075 -20.59607 -20.58738  -7.66908  -6.80588
 Alpha  occ. eigenvalues --   -3.91364  -3.91354  -3.91303  -1.35486  -1.31674
 Alpha  occ. eigenvalues --   -0.79552  -0.76376  -0.70265  -0.63052  -0.59898
 Alpha  occ. eigenvalues --   -0.59134  -0.53022  -0.47749  -0.47631  -0.42358
 Alpha virt. eigenvalues --    0.03143   0.04541   0.05542   0.05863   0.07283
 Alpha virt. eigenvalues --    0.07526   0.07576   0.07970   0.09245   0.10256
 Alpha virt. eigenvalues --    0.10479   0.12537   0.13516   0.16853   0.17965

 Mulliken charges:
               1
     1  Si  -0.341299
     2  B    0.809827
     3  O   -0.447949
     4  O   -0.467293
     5  H    0.189232
     6  H    0.188787
     7  H    0.017042
     8  H    0.017038
     9  H    0.034616
 Sum of Mulliken charges =  -0.00000

 Dipole moment (field-independent basis, Debye):
    X=             -0.5924    Y=              1.4296    Z=             -0.0001  Tot=              1.5475

 Test job not archived.
 1\1\GINC-SE015\SP\RHF\Aug-CC-pVDZ\B1H5O2Si1\OHZDE\09-Apr-2025\0\\#t hf
  aug-cc-pvdz iop(5/13=1,5/36=2,99/5=2) pseudo=read geom=check guess=(r
 ead,tcheck) scf=(maxcycle=1)\\title\\0,1\Si,0,-1.459374,-0.013152,0.00
 0001\B,0,0.579606,-0.003356,0.000066\O,0,1.213861,-1.206024,-0.000019\
 O,0,1.348862,1.129654,-0.000008\H,0,0.840386,1.94444,-0.000038\H,0,2.1
 75784,-1.113648,-0.000046\H,0,-1.998267,-0.698586,1.200521\H,0,-1.9982
 14,-0.698609,-1.200532\H,0,-1.988259,1.378274,-0.000023\\Version=ES64L
 -G16RevC.01\State=1-A\HF=-466.4606834\RMSD=5.534e-03\Dipole=0.2330634,

 Normal termination of Gaussian 16 at Wed Apr  9 00:45:26 2025.
