 Gaussian 16, Revision C.01,

 ----------------------------------------------------------------------
 #t hf aug-cc-pvdz symm=none int=(grid=ultrafine) guess=(read,tcheck) s
 table=opt
 ----------------------------------------------------------------------
 -----
 title
 -----
 Symbolic Z-matrix:
 Charge =  0 Multiplicity = 2

 SCF Done:  E(UHF) =  -291.383572395     A.U. after   18 cycles
 Normal termination of Gaussian 16 at Wed Apr  9 00:32:16 2025.
 Gaussian 16:  ES64L-G16RevC.01  3-Jul-2019

 ----------------------------------------------------------------------
 #t hf aug-cc-pvdz iop(5/13=1,5/36=2,99/5=2) pseudo=read geom=check gue
 ss=(read,tcheck) scf=(maxcycle=1)
 ----------------------------------------------------------------------
 -----
 title
 -----
 Structure from the checkpoint file:  "BDE49_nonexpt_410_mol2.chk"
 Charge =  0 Multiplicity = 2

                         Standard orientation:
 ---------------------------------------------------------------------
 Center     Atomic      Atomic             Coordinates (Angstroms)
 Number     Number       Type             X           Y           Z
 ---------------------------------------------------------------------
      1          9           0       -2.342104   -0.150124   -0.000002
      2          5           0       -1.201351    0.503068    0.000003
      3          6           0        1.248036   -0.029545    0.000001
      4          8           0        2.409492    0.006554   -0.000001
      5          7           0        0.045934   -0.148483    0.000001
 ---------------------------------------------------------------------

 SCF Done:  E(UHF) =  -291.488756967     A.U. after    2 cycles

 The electronic state is 2-A.
 Alpha  occ. eigenvalues --  -26.15630 -20.66249 -15.67638 -11.46111  -7.75658
 Alpha  occ. eigenvalues --   -1.70149  -1.46787  -1.25933  -0.90451  -0.83703
 Alpha  occ. eigenvalues --   -0.77876  -0.76122  -0.76090  -0.69362  -0.68973
 Alpha  occ. eigenvalues --   -0.52697  -0.49468  -0.37935
 Alpha virt. eigenvalues --    0.03957   0.04580   0.05106   0.05537   0.08341
 Alpha virt. eigenvalues --    0.09961   0.10648   0.11238   0.13484   0.16757
 Alpha virt. eigenvalues --    0.19885   0.19999   0.22137   0.22609   0.23381

  Beta  occ. eigenvalues --  -26.15279 -20.66118 -15.67563 -11.46026  -7.73517
  Beta  occ. eigenvalues --   -1.69059  -1.46519  -1.25429  -0.89013  -0.81902
  Beta  occ. eigenvalues --   -0.77054  -0.76101  -0.74013  -0.69044  -0.68324
  Beta  occ. eigenvalues --   -0.50108  -0.49558
  Beta virt. eigenvalues --    0.02836   0.04552   0.04770   0.05332   0.09548
  Beta virt. eigenvalues --    0.10259   0.10272   0.11828   0.12224   0.13744
  Beta virt. eigenvalues --    0.17905   0.20073   0.20565   0.23593   0.23906

 Mulliken charges and spin densities:
               1          2
     1  F   -0.404794  -0.034894
     2  B    0.446743   0.998221
     3  C   -0.031289   0.048495
     4  O   -0.148736   0.024491
     5  N    0.138076  -0.036313
 Sum of Mulliken charges =   0.00000   1.00000

 Dipole moment (field-independent basis, Debye):
    X=             -0.1712    Y=              0.5148    Z=              0.0000  Tot=              0.5425
                          Isotropic Fermi Contact Couplings
        Atom                 a.u.       MegaHertz       Gauss      10(-4) cm-1
     1  F(19)              0.09619     404.69893     144.40664     134.99303
     2  B(11)              0.44118     632.80989     225.80231     211.08266
     3  C(13)              0.00206       2.31714       0.82681       0.77291
     4  O(17)              0.01161      -7.03729      -2.51108      -2.34739
     5  N(14)              0.05191      16.77349       5.98520       5.59503
 --------------------------------------------------------
       Center         ----  Spin Dipole Couplings  ----
                      3XX-RR        3YY-RR        3ZZ-RR

 Normal termination of Gaussian 16 at Wed Apr  9 00:32:18 2025.
