 Gaussian 16, Revision C.01,

 ----------------------------------------------------------------------
 #t hf aug-cc-pvdz symm=none int=(grid=ultrafine) guess=(read,tcheck) s
 table=(opt,rrhf)
 ----------------------------------------------------------------------
 -----
 title
 -----
 Symbolic Z-matrix:
 Charge =  0 Multiplicity = 1

 SCF Done:  E(RHF) =  -1124.45617683     A.U. after   15 cycles
 Normal termination of Gaussian 16 at Wed Apr  9 00:18:04 2025.
 Gaussian 16:  ES64L-G16RevC.01  3-Jul-2019

 ----------------------------------------------------------------------
 #t hf aug-cc-pvdz iop(5/13=1,5/36=2,99/5=2) pseudo=read geom=check gue
 ss=(read,tcheck) scf=(maxcycle=1)
 ----------------------------------------------------------------------
 -----
 title
 -----
 Structure from the checkpoint file:  "BDE49_nonexpt_2587_mol1.chk"
 Charge =  0 Multiplicity = 1

                         Standard orientation:
 ---------------------------------------------------------------------
 Center     Atomic      Atomic             Coordinates (Angstroms)
 Number     Number       Type             X           Y           Z
 ---------------------------------------------------------------------
      1         17           0       -2.177166    0.249492    0.323108
      2         16           0       -0.710530   -0.528177   -0.926570
      3          6           0        0.871414   -0.386978    0.130482
      4          8           0        0.984267    0.833206    0.767741
      5          8           0        1.854806   -0.648828   -0.835610
      6          6           0        1.118575    2.005979   -0.033034
      7          1           0        2.080945    2.023343   -0.556336
      8          1           0        1.082738    2.843559    0.660541
      9          1           0        0.296861    2.092380   -0.749855
     10          6           0        0.934065   -1.465303    1.188732
     11          1           0        0.115005   -1.336755    1.895687
     12          1           0        1.882859   -1.372134    1.721426
     13          1           0        0.866941   -2.448208    0.725391
     14          1           0        1.798041    0.010069   -1.538701
 ---------------------------------------------------------------------

 SCF Done:  E(RHF) =  -1124.58059387     A.U. after    2 cycles

 The electronic state is 1-A.
 Alpha  occ. eigenvalues -- -103.67554 -93.58962 -20.61840 -20.60673 -11.41359
 Alpha  occ. eigenvalues --  -11.30434 -11.24204 -10.70686  -8.88341  -8.36419
 Alpha  occ. eigenvalues --   -8.36080  -8.36055  -6.22446  -6.22133  -6.21791
 Alpha  occ. eigenvalues --   -1.41333  -1.33936  -1.16163  -1.05264  -0.94803
 Alpha  occ. eigenvalues --   -0.92904  -0.82419  -0.76101  -0.69378  -0.68897
 Alpha  occ. eigenvalues --   -0.64775  -0.60640  -0.57505  -0.56137  -0.55144
 Alpha  occ. eigenvalues --   -0.54046  -0.52029  -0.51447  -0.50828  -0.48874
 Alpha  occ. eigenvalues --   -0.41961  -0.37073
 Alpha virt. eigenvalues --    0.03182   0.04385   0.04768   0.05811   0.06139
 Alpha virt. eigenvalues --    0.06863   0.07131   0.07540   0.09080   0.11064
 Alpha virt. eigenvalues --    0.12622   0.13337   0.13987   0.14532   0.15344

 Mulliken charges:
               1
     1  Cl  -0.345871
     2  S    0.301388
     3  C    0.366431
     4  O   -0.675573
     5  O   -0.571744
     6  C    0.731952
     7  H   -0.101422
     8  H   -0.263294
     9  H   -0.039866
    10  C    0.430956
    11  H   -0.005443
    12  H    0.001223
    13  H   -0.015878
    14  H    0.187142
 Sum of Mulliken charges =  -0.00000

 Dipole moment (field-independent basis, Debye):
    X=              1.6821    Y=              1.2778    Z=             -0.8875  Tot=              2.2913

 Test job not archived.
 1\1\GINC-SE435\SP\RHF\Aug-CC-pVDZ\C3H7Cl1O2S1\OHZDE\09-Apr-2025\0\\#t
 hf aug-cc-pvdz iop(5/13=1,5/36=2,99/5=2) pseudo=read geom=check guess=
 (read,tcheck) scf=(maxcycle=1)\\title\\0,1\Cl,0,-2.177166,0.249492,0.3
 23108\S,0,-0.71053,-0.528177,-0.92657\C,0,0.871414,-0.386978,0.130482\
 O,0,0.984267,0.833206,0.767741\O,0,1.854806,-0.648828,-0.83561\C,0,1.1
 18575,2.005979,-0.033034\H,0,2.080945,2.023343,-0.556336\H,0,1.082738,
 2.843559,0.660541\H,0,0.296861,2.09238,-0.749855\C,0,0.934065,-1.46530
 3,1.188732\H,0,0.115005,-1.336755,1.895687\H,0,1.882859,-1.372134,1.72

 Normal termination of Gaussian 16 at Wed Apr  9 00:18:09 2025.
