 Gaussian 16, Revision C.01,

 ----------------------------------------------------------------------
 #t hf aug-cc-pvdz symm=none int=(grid=ultrafine) guess=(read,tcheck) s
 table=(opt,rrhf)
 ----------------------------------------------------------------------
 -----
 title
 -----
 Symbolic Z-matrix:
 Charge =  0 Multiplicity = 1

 SCF Done:  E(RHF) =  -495.096016869     A.U. after   14 cycles
 Normal termination of Gaussian 16 at Tue Apr  8 23:33:54 2025.
 Gaussian 16:  ES64L-G16RevC.01  3-Jul-2019

 ----------------------------------------------------------------------
 #t hf aug-cc-pvdz iop(5/13=1,5/36=2,99/5=2) pseudo=read geom=check gue
 ss=(read,tcheck) scf=(maxcycle=1)
 ----------------------------------------------------------------------
 -----
 title
 -----
 Structure from the checkpoint file:  "BDE49_nonexpt_1487_mol1.chk"
 Charge =  0 Multiplicity = 1

                         Standard orientation:
 ---------------------------------------------------------------------
 Center     Atomic      Atomic             Coordinates (Angstroms)
 Number     Number       Type             X           Y           Z
 ---------------------------------------------------------------------
      1         15           0        0.163994   -1.209860   -0.000000
      2          6           0       -0.049533    0.045385    1.285039
      3          6           0       -0.049533    1.278994    0.728301
      4          6           0       -0.049533    1.278994   -0.728301
      5          6           0       -0.049533    0.045385   -1.285039
      6          1           0       -0.032848   -0.160430    2.346503
      7          1           0       -0.045607    2.199950    1.301582
      8          1           0       -0.032848   -0.160430   -2.346503
      9          1           0       -0.045607    2.199950   -1.301582
     10          1           0       -1.114195   -1.823691   -0.000000
 ---------------------------------------------------------------------

 SCF Done:  E(RHF) =  -495.164106182     A.U. after    2 cycles

 The electronic state is 1-A'.
 Alpha  occ. eigenvalues --  -81.25902 -11.25593 -11.25515 -11.24733 -11.24733
 Alpha  occ. eigenvalues --   -7.76362  -4.90422  -4.90354  -4.90043  -1.11842
 Alpha  occ. eigenvalues --   -0.97515  -0.87758  -0.73260  -0.72661  -0.68554
 Alpha  occ. eigenvalues --   -0.57993  -0.55307  -0.52135  -0.48056  -0.45584
 Alpha  occ. eigenvalues --   -0.34023  -0.32922
 Alpha virt. eigenvalues --    0.03451   0.04310   0.04662   0.06036   0.06607
 Alpha virt. eigenvalues --    0.07212   0.08894   0.10442   0.10994   0.13331
 Alpha virt. eigenvalues --    0.13547   0.14298   0.14489   0.15018   0.15283

 Mulliken charges:
               1
     1  P    0.525451
     2  C    0.131483
     3  C    0.241492
     4  C    0.241492
     5  C    0.131483
     6  H   -0.395854
     7  H   -0.345605
     8  H   -0.395854
     9  H   -0.345605
    10  H    0.211517
 Sum of Mulliken charges =  -0.00000

 Dipole moment (field-independent basis, Debye):
    X=             -0.5474    Y=              0.7830    Z=              0.0000  Tot=              0.9554

 Test job not archived.
 1\1\GINC-SE118\SP\RHF\Aug-CC-pVDZ\C4H5P1\OHZDE\08-Apr-2025\0\\#t hf au
 g-cc-pvdz iop(5/13=1,5/36=2,99/5=2) pseudo=read geom=check guess=(read
 ,tcheck) scf=(maxcycle=1)\\title\\0,1\P,0,0.163994,-1.20986,0.\C,0,-0.
 049533,0.045385,1.285039\C,0,-0.049533,1.278994,0.728301\C,0,-0.049533
 ,1.278994,-0.728301\C,0,-0.049533,0.045385,-1.285039\H,0,-0.032848,-0.
 16043,2.346503\H,0,-0.045607,2.19995,1.301582\H,0,-0.032848,-0.16043,-
 2.346503\H,0,-0.045607,2.19995,-1.301582\H,0,-1.114195,-1.823691,0.\\V
 ersion=ES64L-G16RevC.01\State=1-A'\HF=-495.1641062\RMSD=2.030e-02\Dipo

 Normal termination of Gaussian 16 at Tue Apr  8 23:33:57 2025.
