 Gaussian 16, Revision C.01,

 ----------------------------------------------------------------------
 #t hf aug-cc-pvdz symm=none int=(grid=ultrafine) guess=(read,tcheck) s
 table=(opt,rrhf)
 ----------------------------------------------------------------------
 -----
 title
 -----
 Symbolic Z-matrix:
 Charge =  0 Multiplicity = 1

 SCF Done:  E(RHF) =  -800.244489938     A.U. after   13 cycles
 Normal termination of Gaussian 16 at Tue Apr  8 22:35:14 2025.
 Gaussian 16:  ES64L-G16RevC.01  3-Jul-2019

 ----------------------------------------------------------------------
 #t hf aug-cc-pvdz iop(5/13=1,5/36=2,99/5=2) pseudo=read geom=check gue
 ss=(read,tcheck) scf=(maxcycle=1)
 ----------------------------------------------------------------------
 -----
 title
 -----
 Structure from the checkpoint file:  "BDE49_expt_1131_mol1.chk"
 Charge =  0 Multiplicity = 1

                         Standard orientation:
 ---------------------------------------------------------------------
 Center     Atomic      Atomic             Coordinates (Angstroms)
 Number     Number       Type             X           Y           Z
 ---------------------------------------------------------------------
      1          6           0       -1.138215    0.475473   -0.158429
      2          8           0       -1.665057    1.243970   -0.908730
      3          8           0       -1.684197   -0.600398    0.400876
      4          6           0        0.332717    0.623924    0.310432
      5          6           0       -3.065646   -0.856482    0.055374
      6          1           0       -3.324690   -1.773786    0.576421
      7          1           0       -3.164352   -0.978375   -1.023357
      8          1           0       -3.691971   -0.028864    0.388725
      9          6           0        1.268642   -0.505291   -0.195070
     10          9           0        0.384423    0.636996    1.667629
     11          9           0        0.814600    1.793727   -0.150635
     12          9           0        2.545196   -0.190883    0.041568
     13          9           0        0.995924   -1.664345    0.410362
     14          9           0        1.103197   -0.663638   -1.519236
 ---------------------------------------------------------------------

 SCF Done:  E(RHF) =  -800.522537619     A.U. after    2 cycles

 The electronic state is 1-A.
 Alpha  occ. eigenvalues --  -26.19691 -26.19468 -26.19385 -26.18538 -26.18150
 Alpha  occ. eigenvalues --  -20.65894 -20.60988 -11.56455 -11.49326 -11.44466
 Alpha  occ. eigenvalues --  -11.32731  -1.79427  -1.74978  -1.72276  -1.72096
 Alpha  occ. eigenvalues --   -1.70332  -1.46703  -1.37487  -1.13250  -1.04170
 Alpha  occ. eigenvalues --   -0.99723  -0.92530  -0.91687  -0.91464  -0.88087
 Alpha  occ. eigenvalues --   -0.85893  -0.81892  -0.80289  -0.79708  -0.79545
 Alpha  occ. eigenvalues --   -0.77643  -0.75784  -0.75609  -0.74505  -0.73998
 Alpha  occ. eigenvalues --   -0.73598  -0.72834  -0.71499  -0.65605  -0.61606
 Alpha  occ. eigenvalues --   -0.59354  -0.57374  -0.51702  -0.51572
 Alpha virt. eigenvalues --    0.02993   0.05224   0.05345   0.07016   0.08070
 Alpha virt. eigenvalues --    0.08622   0.09773   0.10930   0.11389   0.11923
 Alpha virt. eigenvalues --    0.13159   0.13501   0.14270   0.14757   0.15730

 Mulliken charges:
               1
     1  C    0.295900
     2  O   -0.394680
     3  O   -0.510158
     4  C    0.877757
     5  C    0.760276
     6  H   -0.233957
     7  H   -0.052884
     8  H   -0.061462
     9  C    0.948511
    10  F   -0.402102
    11  F   -0.341035
    12  F   -0.279263
    13  F   -0.292406
    14  F   -0.314497
 Sum of Mulliken charges =  -0.00000

 Dipole moment (field-independent basis, Debye):
    X=             -2.7062    Y=             -2.0693    Z=              0.5263  Tot=              3.4471

 Test job not archived.
 1\1\GINC-SE458\SP\RHF\Aug-CC-pVDZ\C4H3F5O2\OHZDE\08-Apr-2025\0\\#t hf
 aug-cc-pvdz iop(5/13=1,5/36=2,99/5=2) pseudo=read geom=check guess=(re
 ad,tcheck) scf=(maxcycle=1)\\title\\0,1\C,0,-1.138215,0.475473,-0.1584
 29\O,0,-1.665057,1.24397,-0.90873\O,0,-1.684197,-0.600398,0.400876\C,0
 ,0.332717,0.623924,0.310432\C,0,-3.065646,-0.856482,0.055374\H,0,-3.32
 469,-1.773786,0.576421\H,0,-3.164352,-0.978375,-1.023357\H,0,-3.691971
 ,-0.028864,0.388725\C,0,1.268642,-0.505291,-0.19507\F,0,0.384423,0.636
 996,1.667629\F,0,0.8146,1.793727,-0.150635\F,0,2.545196,-0.190883,0.04

 Normal termination of Gaussian 16 at Tue Apr  8 22:35:20 2025.
