 Gaussian 16, Revision C.01,

 ----------------------------------------------------------------------
 #t hf aug-cc-pvdz symm=none int=(grid=ultrafine) guess=(read,tcheck) s
 table=(opt,rrhf)
 ----------------------------------------------------------------------
 -----
 title
 -----
 Symbolic Z-matrix:
 Charge =  0 Multiplicity = 1

 SCF Done:  E(RHF) =  -321.605225037     A.U. after   14 cycles
 Normal termination of Gaussian 16 at Tue Apr  8 22:39:34 2025.
 Gaussian 16:  ES64L-G16RevC.01  3-Jul-2019

 ----------------------------------------------------------------------
 #t hf aug-cc-pvdz iop(5/13=1,5/36=2,99/5=2) pseudo=read geom=check gue
 ss=(read,tcheck) scf=(maxcycle=1)
 ----------------------------------------------------------------------
 -----
 title
 -----
 Structure from the checkpoint file:  "BDE49_expt_1348_mol1.chk"
 Charge =  0 Multiplicity = 1

                         Standard orientation:
 ---------------------------------------------------------------------
 Center     Atomic      Atomic             Coordinates (Angstroms)
 Number     Number       Type             X           Y           Z
 ---------------------------------------------------------------------
      1          6           0       -1.064289   -1.187857    0.000005
      2          6           0       -1.823053   -0.022991    0.000001
      3          6           0       -1.141946    1.193844    0.000001
      4          6           0        0.244622    1.193993   -0.000002
      5          6           0        0.904188   -0.045216   -0.000011
      6          7           0        0.272012   -1.209308   -0.000003
      7          1           0       -1.548455   -2.160508    0.000003
      8          1           0       -2.904622   -0.067292    0.000001
      9          1           0       -1.684315    2.132659    0.000003
     10          1           0        0.804023    2.123773    0.000003
     11          8           0        2.259440   -0.137775    0.000004
     12          1           0        2.636641    0.748085    0.000013
 ---------------------------------------------------------------------

 SCF Done:  E(RHF) =  -321.701410988     A.U. after    2 cycles

 The electronic state is 1-A.
 Alpha  occ. eigenvalues --  -20.61364 -15.62601 -11.35761 -11.29358 -11.27794
 Alpha  occ. eigenvalues --  -11.25564 -11.24595  -1.38578  -1.22944  -1.08482
 Alpha  occ. eigenvalues --   -1.02267  -0.88190  -0.85835  -0.76597  -0.70157
 Alpha  occ. eigenvalues --   -0.68465  -0.63299  -0.62456  -0.60692  -0.57004
 Alpha  occ. eigenvalues --   -0.54487  -0.51824  -0.42230  -0.39107  -0.33778
 Alpha virt. eigenvalues --    0.02693   0.03527   0.04512   0.05848   0.06870
 Alpha virt. eigenvalues --    0.08498   0.10331   0.11145   0.11503   0.11771
 Alpha virt. eigenvalues --    0.13259   0.13355   0.13464   0.14411   0.14431

 Mulliken charges:
               1
     1  C    0.452392
     2  C    0.866692
     3  C   -0.313136
     4  C    0.793403
     5  C    0.623979
     6  N   -0.382151
     7  H   -0.349145
     8  H   -0.407247
     9  H   -0.393850
    10  H   -0.502145
    11  O   -0.537275
    12  H    0.148482
 Sum of Mulliken charges =   0.00000

 Dipole moment (field-independent basis, Debye):
    X=             -1.3942    Y=              3.3492    Z=              0.0000  Tot=              3.6279

 Test job not archived.
 1\1\GINC-SE340\SP\RHF\Aug-CC-pVDZ\C5H5N1O1\OHZDE\08-Apr-2025\0\\#t hf
 aug-cc-pvdz iop(5/13=1,5/36=2,99/5=2) pseudo=read geom=check guess=(re
 ad,tcheck) scf=(maxcycle=1)\\title\\0,1\C,0,1.064289,-1.187857,-0.0000
 05\C,0,1.823053,-0.022991,-0.000001\C,0,1.141946,1.193844,-0.000001\C,
 0,-0.244622,1.193993,0.000002\C,0,-0.904188,-0.045216,0.000011\N,0,-0.
 272012,-1.209308,0.000003\H,0,1.548455,-2.160508,-0.000003\H,0,2.90462
 2,-0.067292,-0.000001\H,0,1.684315,2.132659,-0.000003\H,0,-0.804023,2.
 123773,-0.000003\O,0,-2.25944,-0.137775,-0.000004\H,0,-2.636641,0.7480

 Normal termination of Gaussian 16 at Tue Apr  8 22:39:39 2025.
