 Gaussian 16, Revision C.01,

 ----------------------------------------------------------------------
 #t hf aug-cc-pvdz symm=none int=(grid=ultrafine) guess=(read,tcheck) s
 table=(opt,rrhf)
 ----------------------------------------------------------------------
 -----
 title
 -----
 Symbolic Z-matrix:
 Charge =  0 Multiplicity = 1

 SCF Done:  E(RHF) =  -1147.72351143     A.U. after   12 cycles
 Normal termination of Gaussian 16 at Wed Apr  9 00:15:03 2025.
 Gaussian 16:  ES64L-G16RevC.01  3-Jul-2019

 ----------------------------------------------------------------------
 #t hf aug-cc-pvdz iop(5/13=1,5/36=2,99/5=2) pseudo=read geom=check gue
 ss=(read,tcheck) scf=(maxcycle=1)
 ----------------------------------------------------------------------
 -----
 title
 -----
 Structure from the checkpoint file:  "BDE49_nonexpt_2534_mol1.chk"
 Charge =  0 Multiplicity = 1

                         Standard orientation:
 ---------------------------------------------------------------------
 Center     Atomic      Atomic             Coordinates (Angstroms)
 Number     Number       Type             X           Y           Z
 ---------------------------------------------------------------------
      1         17           0        1.610920   -0.462362    0.000026
      2         16           0        0.077712    0.958956   -0.000016
      3         14           0       -1.617278   -0.396246   -0.000011
      4          1           0       -1.611408   -1.237214    1.213002
      5          1           0       -2.764337    0.538786   -0.000040
      6          1           0       -1.611381   -1.237257   -1.212994
 ---------------------------------------------------------------------

 SCF Done:  E(RHF) =  -1147.78535646     A.U. after    2 cycles

 The electronic state is 1-A.
 Alpha  occ. eigenvalues -- -103.68501 -93.58845 -69.11190 -10.71607  -8.88402
 Alpha  occ. eigenvalues --   -8.37340  -8.36992  -8.36963  -6.86269  -6.22474
 Alpha  occ. eigenvalues --   -6.22164  -6.21848  -3.97102  -3.97004  -3.96960
 Alpha  occ. eigenvalues --   -1.16687  -0.92439  -0.71555  -0.55501  -0.53724
 Alpha  occ. eigenvalues --   -0.53559  -0.50036  -0.49939  -0.43416  -0.38006
 Alpha virt. eigenvalues --    0.03248   0.03658   0.05305   0.05935   0.06326
 Alpha virt. eigenvalues --    0.08734   0.09013   0.10611   0.12230   0.13584
 Alpha virt. eigenvalues --    0.14597   0.15677   0.16804   0.17398   0.18019

 Mulliken charges:
               1
     1  Cl  -0.323398
     2  S   -0.201364
     3  Si   0.739665
     4  H   -0.058652
     5  H   -0.097599
     6  H   -0.058652
 Sum of Mulliken charges =  -0.00000

 Dipole moment (field-independent basis, Debye):
    X=             -2.1003    Y=             -0.2666    Z=             -0.0000  Tot=              2.1172

 Test job not archived.
 1\1\GINC-SE044\SP\RHF\Aug-CC-pVDZ\Cl1H3S1Si1\OHZDE\09-Apr-2025\0\\#t h
 f aug-cc-pvdz iop(5/13=1,5/36=2,99/5=2) pseudo=read geom=check guess=(
 read,tcheck) scf=(maxcycle=1)\\title\\0,1\Cl,0,1.61092,-0.462362,0.000
 026\S,0,0.077712,0.958956,-0.000016\Si,0,-1.617278,-0.396246,-0.000011
 \H,0,-1.611408,-1.237214,1.213002\H,0,-2.764337,0.538786,-0.00004\H,0,
 -1.611381,-1.237257,-1.212994\\Version=ES64L-G16RevC.01\State=1-A\HF=-
 1147.7853565\RMSD=5.774e-03\Dipole=-0.826333,-0.1049053,-0.0000075\Qua
 drupole=1.2363649,0.1096612,-1.3460261,0.0478043,0.0000286,-0.0000247\

 Normal termination of Gaussian 16 at Wed Apr  9 00:15:06 2025.
