 Gaussian 16, Revision C.01,

 ----------------------------------------------------------------------
 #t hf aug-cc-pvdz symm=none int=(grid=ultrafine) guess=(read,tcheck) s
 table=(opt,rrhf)
 ----------------------------------------------------------------------
 -----
 title
 -----
 Symbolic Z-matrix:
 Charge =  0 Multiplicity = 1

 SCF Done:  E(RHF) =  -2247.19693594     A.U. after   16 cycles
 Normal termination of Gaussian 16 at Wed Apr  9 00:13:00 2025.
 Gaussian 16:  ES64L-G16RevC.01  3-Jul-2019

 ----------------------------------------------------------------------
 #t hf aug-cc-pvdz iop(5/13=1,5/36=2,99/5=2) pseudo=read geom=check gue
 ss=(read,tcheck) scf=(maxcycle=1)
 ----------------------------------------------------------------------
 -----
 title
 -----
 Structure from the checkpoint file:  "BDE49_nonexpt_2442_mol1.chk"
 Charge =  0 Multiplicity = 1

                         Standard orientation:
 ---------------------------------------------------------------------
 Center     Atomic      Atomic             Coordinates (Angstroms)
 Number     Number       Type             X           Y           Z
 ---------------------------------------------------------------------
      1         14           0        1.096338    1.101221   -1.177684
      2         14           0       -0.974149    1.650431   -0.175006
      3          6           0       -1.974137    0.047475    0.091542
      4          1           0       -1.764638    2.519688   -1.072912
      5          1           0       -0.757688    2.332199    1.123410
      6         16           0       -2.441964   -0.830614   -1.213733
      7         16           0       -2.292972   -0.355685    1.757496
      8          6           0        1.998590   -0.142205   -0.058304
      9          1           0        1.934877    2.311211   -1.298845
     10          1           0        0.861439    0.505824   -2.515216
     11         16           0        2.807421    0.399977    1.261178
     12         16           0        1.904332   -1.858261   -0.398243
     13          1           0       -2.949141   -1.514257    1.533065
     14          1           0        1.188726   -1.796079   -1.538452
 ---------------------------------------------------------------------

 SCF Done:  E(RHF) =  -2247.33498695     A.U. after    2 cycles

 The electronic state is 1-A.
 Alpha  occ. eigenvalues --  -93.58886 -93.58367 -93.53487 -93.53062 -69.09682
 Alpha  occ. eigenvalues --  -69.09646 -11.36081 -11.35553  -8.88679  -8.88130
 Alpha  occ. eigenvalues --   -8.83327  -8.82896  -6.85023  -6.84980  -6.22840
 Alpha  occ. eigenvalues --   -6.22588  -6.22288  -6.22257  -6.22046  -6.21726
 Alpha  occ. eigenvalues --   -6.17467  -6.17114  -6.17027  -6.16886  -6.16684
 Alpha  occ. eigenvalues --   -6.16443  -3.95813  -3.95772  -3.95748  -3.95741
 Alpha  occ. eigenvalues --   -3.95707  -3.95655  -1.10386  -1.09805  -0.96789
 Alpha  occ. eigenvalues --   -0.96550  -0.80287  -0.77038  -0.70099  -0.66578
 Alpha  occ. eigenvalues --   -0.59340  -0.58989  -0.55792  -0.54272  -0.52102
 Alpha  occ. eigenvalues --   -0.50684  -0.49393  -0.48723  -0.48185  -0.47336
 Alpha  occ. eigenvalues --   -0.41728  -0.36681  -0.35460  -0.34608  -0.34025
 Alpha virt. eigenvalues --    0.01441   0.01959   0.03555   0.04025   0.04939
 Alpha virt. eigenvalues --    0.05988   0.06113   0.06744   0.07537   0.07605
 Alpha virt. eigenvalues --    0.07964   0.08274   0.08780   0.09355   0.09785

 Mulliken charges:
               1
     1  Si   0.040882
     2  Si   0.173003
     3  C   -0.600468
     4  H    0.150284
     5  H    0.055820
     6  S   -0.058626
     7  S    0.221003
     8  C   -0.617008
     9  H    0.106968
    10  H    0.079237
    11  S   -0.015580
    12  S    0.316376
    13  H    0.093307
    14  H    0.054803
 Sum of Mulliken charges =  -0.00000

 Dipole moment (field-independent basis, Debye):
    X=             -1.3153    Y=              0.2943    Z=             -0.8423  Tot=              1.5894

 Test job not archived.
 1\1\GINC-SE222\SP\RHF\Aug-CC-pVDZ\C2H6S4Si2\OHZDE\09-Apr-2025\0\\#t hf
  aug-cc-pvdz iop(5/13=1,5/36=2,99/5=2) pseudo=read geom=check guess=(r
 ead,tcheck) scf=(maxcycle=1)\\title\\0,1\Si,0,1.096338,1.101221,-1.177
 684\Si,0,-0.974149,1.650431,-0.175006\C,0,-1.974137,0.047475,0.091542\
 H,0,-1.764638,2.519688,-1.072912\H,0,-0.757688,2.332199,1.12341\S,0,-2
 .441964,-0.830614,-1.213733\S,0,-2.292972,-0.355685,1.757496\C,0,1.998
 59,-0.142205,-0.058304\H,0,1.934877,2.311211,-1.298845\H,0,0.861439,0.
 505824,-2.515216\S,0,2.807421,0.399977,1.261178\S,0,1.904332,-1.858261

 Normal termination of Gaussian 16 at Wed Apr  9 00:13:08 2025.
