 Gaussian 16, Revision C.01,

 ----------------------------------------------------------------------
 #t hf aug-cc-pvdz symm=none int=(grid=ultrafine) guess=(read,tcheck) s
 table=(opt,rrhf)
 ----------------------------------------------------------------------
 -----
 title
 -----
 Symbolic Z-matrix:
 Charge =  0 Multiplicity = 1

 SCF Done:  E(RHF) =  -1943.10420200     A.U. after   18 cycles
 Normal termination of Gaussian 16 at Tue Apr  8 23:25:20 2025.
 Gaussian 16:  ES64L-G16RevC.01  3-Jul-2019

 ----------------------------------------------------------------------
 #t hf aug-cc-pvdz iop(5/13=1,5/36=2,99/5=2) pseudo=read geom=check gue
 ss=(read,tcheck) scf=(maxcycle=1)
 ----------------------------------------------------------------------
 -----
 title
 -----
 Structure from the checkpoint file:  "BDE49_nonexpt_1259_mol1.chk"
 Charge =  0 Multiplicity = 1

                         Standard orientation:
 ---------------------------------------------------------------------
 Center     Atomic      Atomic             Coordinates (Angstroms)
 Number     Number       Type             X           Y           Z
 ---------------------------------------------------------------------
      1         17           0        3.006960    0.011662   -0.641927
      2         17           0       -1.619669    1.792349   -1.059341
      3          8           0        0.991872    2.155928    1.033991
      4          8           0        0.352945   -1.684102   -1.529598
      5         15           0        1.533152   -0.539472    0.696644
      6         15           0       -1.382207    0.775048    0.758627
      7          6           0        0.532153    1.067557    0.868072
      8          6           0        0.158388   -1.202613   -0.451570
      9          6           0       -1.221402   -1.035813    0.205283
     10          6           0       -1.273562   -1.851168    1.526959
     11          1           0       -0.564664   -1.505316    2.284691
     12          1           0       -1.046948   -2.901144    1.322678
     13          1           0       -2.275169   -1.794891    1.957554
     14          6           0       -2.339872   -1.475751   -0.743583
     15          1           0       -2.283629   -0.952863   -1.697260
     16          1           0       -2.250725   -2.546077   -0.944300
     17          1           0       -3.319741   -1.289411   -0.296977
 ---------------------------------------------------------------------

 SCF Done:  E(RHF) =  -1943.28480522     A.U. after    2 cycles

 The electronic state is 1-A.
 Alpha  occ. eigenvalues -- -103.68222-103.67977 -81.34963 -81.34621 -20.62313
 Alpha  occ. eigenvalues --  -20.61225 -11.39334 -11.38717 -11.31144 -11.28334
 Alpha  occ. eigenvalues --  -11.25985 -10.71508 -10.71268  -8.37222  -8.36973
 Alpha  occ. eigenvalues --   -8.36914  -8.36905  -8.36692  -8.36678  -7.84792
 Alpha  occ. eigenvalues --   -7.84644  -4.98676  -4.98555  -4.98544  -4.98402
 Alpha  occ. eigenvalues --   -4.98292  -4.98187  -1.41178  -1.40359  -1.16464
 Alpha  occ. eigenvalues --   -1.16258  -1.12121  -0.97825  -0.95984  -0.86928
 Alpha  occ. eigenvalues --   -0.83993  -0.75069  -0.74131  -0.69806  -0.67978
 Alpha  occ. eigenvalues --   -0.65358  -0.63366  -0.62358  -0.62080  -0.59774
 Alpha  occ. eigenvalues --   -0.58422  -0.57451  -0.56910  -0.53874  -0.51932
 Alpha  occ. eigenvalues --   -0.51067  -0.50546  -0.50265  -0.49933  -0.46810
 Alpha  occ. eigenvalues --   -0.42608  -0.38910  -0.36143
 Alpha virt. eigenvalues --    0.01777   0.02680   0.04183   0.04766   0.05252
 Alpha virt. eigenvalues --    0.05942   0.06840   0.07353   0.07471   0.07844
 Alpha virt. eigenvalues --    0.08432   0.09119   0.10025   0.10277   0.11134

 Mulliken charges:
               1
     1  Cl  -0.433551
     2  Cl  -0.447952
     3  O   -0.421043
     4  O   -0.477783
     5  P    0.690580
     6  P    0.596673
     7  C    0.056136
     8  C    0.201588
     9  C   -1.416672
    10  C    0.906327
    11  H   -0.129390
    12  H   -0.038916
    13  H   -0.034022
    14  C    1.004907
    15  H   -0.059473
    16  H    0.028773
    17  H   -0.026180
 Sum of Mulliken charges =  -0.00000

 Dipole moment (field-independent basis, Debye):
    X=             -3.0171    Y=             -3.3220    Z=              3.1363  Tot=              5.4750

 Test job not archived.
 1\1\GINC-SE128\SP\RHF\Aug-CC-pVDZ\C5H6Cl2O2P2\OHZDE\08-Apr-2025\0\\#t
 hf aug-cc-pvdz iop(5/13=1,5/36=2,99/5=2) pseudo=read geom=check guess=
 (read,tcheck) scf=(maxcycle=1)\\title\\0,1\Cl,0,3.00696,0.011662,-0.64
 1927\Cl,0,-1.619669,1.792349,-1.059341\O,0,0.991872,2.155928,1.033991\
 O,0,0.352945,-1.684102,-1.529598\P,0,1.533152,-0.539472,0.696644\P,0,-
 1.382207,0.775048,0.758627\C,0,0.532153,1.067557,0.868072\C,0,0.158388
 ,-1.202613,-0.45157\C,0,-1.221402,-1.035813,0.205283\C,0,-1.273562,-1.
 851168,1.526959\H,0,-0.564664,-1.505316,2.284691\H,0,-1.046948,-2.9011

 Normal termination of Gaussian 16 at Tue Apr  8 23:25:33 2025.
