 Gaussian 16, Revision C.01,

 ----------------------------------------------------------------------
 #t hf aug-cc-pvdz symm=none int=(grid=ultrafine) guess=(read,tcheck) s
 table=(opt,rrhf)
 ----------------------------------------------------------------------
 -----
 title
 -----
 Symbolic Z-matrix:
 Charge =  0 Multiplicity = 1

 SCF Done:  E(RHF) =  -415.415762395     A.U. after   11 cycles
 Normal termination of Gaussian 16 at Wed Apr  9 00:33:44 2025.
 Gaussian 16:  ES64L-G16RevC.01  3-Jul-2019

 ----------------------------------------------------------------------
 #t hf aug-cc-pvdz iop(5/13=1,5/36=2,99/5=2) pseudo=read geom=check gue
 ss=(read,tcheck) scf=(maxcycle=1)
 ----------------------------------------------------------------------
 -----
 title
 -----
 Structure from the checkpoint file:  "BDE49_nonexpt_458_mol1.chk"
 Charge =  0 Multiplicity = 1

                         Standard orientation:
 ---------------------------------------------------------------------
 Center     Atomic      Atomic             Coordinates (Angstroms)
 Number     Number       Type             X           Y           Z
 ---------------------------------------------------------------------
      1          1           0        1.600513   -1.893162    0.000000
      2          1           0        2.704270   -0.175764    0.000000
      3          5           0        1.634305   -0.703485    0.000000
      4         14           0        0.000000    0.456742    0.000000
      5          9           0       -1.383611   -0.383932    0.000000
      6          1           0       -0.011904    1.323675    1.204977
      7          1           0       -0.011904    1.323675   -1.204977
 ---------------------------------------------------------------------

 SCF Done:  E(RHF) =  -415.489977863     A.U. after    2 cycles

 The electronic state is 1-A'.
 Alpha  occ. eigenvalues --  -69.10430 -26.10012  -7.63820  -6.85282  -3.96191
 Alpha  occ. eigenvalues --   -3.96027  -3.95978  -1.62517  -0.80001  -0.71998
 Alpha  occ. eigenvalues --   -0.71308  -0.70422  -0.61513  -0.51259  -0.48746
 Alpha  occ. eigenvalues --   -0.42974
 Alpha virt. eigenvalues --    0.02172   0.03867   0.04576   0.05132   0.07195
 Alpha virt. eigenvalues --    0.07502   0.07601   0.08371   0.08750   0.10109
 Alpha virt. eigenvalues --    0.13160   0.14010   0.15077   0.17516   0.21073

 Mulliken charges:
               1
     1  H    0.310878
     2  H    0.305651
     3  B   -0.550050
     4  Si   0.806565
     5  F   -0.802102
     6  H   -0.035472
     7  H   -0.035472
 Sum of Mulliken charges =  -0.00000

 Dipole moment (field-independent basis, Debye):
    X=              1.8287    Y=              0.4521    Z=              0.0000  Tot=              1.8837

 Test job not archived.
 1\1\GINC-SE096\SP\RHF\Aug-CC-pVDZ\B1F1H4Si1\OHZDE\09-Apr-2025\0\\#t hf
  aug-cc-pvdz iop(5/13=1,5/36=2,99/5=2) pseudo=read geom=check guess=(r
 ead,tcheck) scf=(maxcycle=1)\\title\\0,1\H,0,1.600513,-1.893162,0.\H,0
 ,2.70427,-0.175764,0.\B,0,1.634305,-0.703485,0.\Si,0,0.,0.456742,0.\F,
 0,-1.383611,-0.383932,0.\H,0,-0.011904,1.323675,1.204977\H,0,-0.011904
 ,1.323675,-1.204977\\Version=ES64L-G16RevC.01\State=1-A'\HF=-415.48997
 79\RMSD=6.157e-03\Dipole=0.7194602,0.1778622,0.\Quadrupole=-1.6643444,
 -0.0128192,1.6771635,-0.7109742,0.,0.\PG=CS [SG(B1F1H2Si1),X(H2)]\\@

 Normal termination of Gaussian 16 at Wed Apr  9 00:33:46 2025.
