 Gaussian 16, Revision C.01,

 ----------------------------------------------------------------------
 #t hf aug-cc-pvdz symm=none int=(grid=ultrafine) guess=(read,tcheck) s
 table=(opt,rrhf)
 ----------------------------------------------------------------------
 -----
 title
 -----
 Symbolic Z-matrix:
 Charge =  0 Multiplicity = 1

 SCF Done:  E(RHF) =  -1100.30603753     A.U. after   17 cycles
 Normal termination of Gaussian 16 at Tue Apr  8 22:56:38 2025.
 Gaussian 16:  ES64L-G16RevC.01  3-Jul-2019

 ----------------------------------------------------------------------
 #t hf aug-cc-pvdz iop(5/13=1,5/36=2,99/5=2) pseudo=read geom=check gue
 ss=(read,tcheck) scf=(maxcycle=1)
 ----------------------------------------------------------------------
 -----
 title
 -----
 Structure from the checkpoint file:  "BDE49_expt_1589_mol1.chk"
 Charge =  0 Multiplicity = 1

                         Standard orientation:
 ---------------------------------------------------------------------
 Center     Atomic      Atomic             Coordinates (Angstroms)
 Number     Number       Type             X           Y           Z
 ---------------------------------------------------------------------
      1          6           0        2.790224   -1.266009   -0.411421
      2          6           0        1.435231   -1.545018   -0.385220
      3          6           0        3.229152    0.002023   -0.034817
      4          6           0        2.331740    0.988384    0.356651
      5          6           0        0.972301    0.706939    0.370722
      6          6           0        0.503355   -0.564914    0.007174
      7          1           0        1.087619   -2.533166   -0.662889
      8          1           0        3.514092   -2.011726   -0.709045
      9          7           0        4.667344    0.303390   -0.054665
     10          1           0        2.705919    1.963733    0.635313
     11          1           0        0.284207    1.490573    0.652740
     12         16           0       -1.193936   -1.058439   -0.015973
     13          6           0       -2.116525    0.302531    0.905613
     14          6           0       -3.366809   -0.308594    1.468899
     15          6           0       -2.410761    1.526972    0.090464
     16          1           0       -1.454890    0.561787    1.731425
     17          6           0       -3.276149    1.606044   -0.941081
     18          6           0       -4.451601   -0.666539    0.752031
     19          6           0       -4.705272   -0.419699   -0.646487
     20          6           0       -4.188592    0.588937   -1.395595
     21          1           0       -3.356994   -0.515437    2.534188
     22          1           0       -5.236916   -1.198156    1.283250
     23          1           0       -1.850640    2.420200    0.351893
     24          1           0       -3.300206    2.541737   -1.493438
     25          1           0       -5.466658   -1.042327   -1.106845
     26          1           0       -4.571757    0.706684   -2.404816
     27          8           0        5.430901   -0.588096   -0.407271
     28          8           0        5.019103    1.428226    0.282876
 ---------------------------------------------------------------------

 SCF Done:  E(RHF) =  -1100.52956885     A.U. after    2 cycles

 The electronic state is 1-A.
 Alpha  occ. eigenvalues --  -93.55594 -20.61358 -20.61317 -15.91715 -11.31571
 Alpha  occ. eigenvalues --  -11.31281 -11.30997 -11.28709 -11.28512 -11.27362
 Alpha  occ. eigenvalues --  -11.27323 -11.27166 -11.27147 -11.26599 -11.26486
 Alpha  occ. eigenvalues --  -11.26434 -11.26358  -8.85322  -6.19521  -6.19269
 Alpha  occ. eigenvalues --   -6.18929  -1.54479  -1.36009  -1.19209  -1.15212
 Alpha  occ. eigenvalues --   -1.10147  -1.06600  -1.05938  -1.04802  -0.99368
 Alpha  occ. eigenvalues --   -0.93716  -0.88998  -0.88460  -0.86754  -0.81588
 Alpha  occ. eigenvalues --   -0.78641  -0.74615  -0.73592  -0.72821  -0.72639
 Alpha  occ. eigenvalues --   -0.72287  -0.67297  -0.66963  -0.65633  -0.64219
 Alpha  occ. eigenvalues --   -0.63226  -0.62592  -0.58934  -0.56868  -0.55155
 Alpha  occ. eigenvalues --   -0.54754  -0.53666  -0.53393  -0.51442  -0.51104
 Alpha  occ. eigenvalues --   -0.50962  -0.47180  -0.47166  -0.45561  -0.42884
 Alpha  occ. eigenvalues --   -0.38647  -0.37505  -0.32869  -0.31698
 Alpha virt. eigenvalues --    0.02497   0.03126   0.03187   0.03557   0.04003
 Alpha virt. eigenvalues --    0.04761   0.05077   0.05787   0.05900   0.06285
 Alpha virt. eigenvalues --    0.07034   0.07496   0.08193   0.08814   0.09616

 Mulliken charges:
               1
     1  C    0.325001
     2  C   -0.089380
     3  C    1.062044
     4  C    0.554545
     5  C    0.737163
     6  C    0.138511
     7  H   -0.553004
     8  H   -0.467605
     9  N    0.088831
    10  H   -0.477835
    11  H   -0.846181
    12  S    0.563630
    13  C   -0.080139
    14  C    0.946402
    15  C    0.618950
    16  H   -0.158203
    17  C    0.602511
    18  C    0.570623
    19  C    0.276254
    20  C    0.232035
    21  H   -0.529783
    22  H   -0.460770
    23  H   -0.522923
    24  H   -0.487045
    25  H   -0.463312
    26  H   -0.453680
    27  O   -0.568297
    28  O   -0.558343
 Sum of Mulliken charges =  -0.00000

 Dipole moment (field-independent basis, Debye):
    X=             -6.7096    Y=              0.0914    Z=              0.5743  Tot=              6.7347

 Test job not archived.
 1\1\GINC-SE247\SP\RHF\Aug-CC-pVDZ\C13H11N1O2S1\OHZDE\08-Apr-2025\0\\#t
  hf aug-cc-pvdz iop(5/13=1,5/36=2,99/5=2) pseudo=read geom=check guess
 =(read,tcheck) scf=(maxcycle=1)\\title\\0,1\C,0,-2.790224,-1.266009,0.
 411421\C,0,-1.435231,-1.545018,0.38522\C,0,-3.229152,0.002023,0.034817
 \C,0,-2.33174,0.988384,-0.356651\C,0,-0.972301,0.706939,-0.370722\C,0,
 -0.503355,-0.564914,-0.007174\H,0,-1.087619,-2.533166,0.662889\H,0,-3.
 514092,-2.011726,0.709045\N,0,-4.667344,0.30339,0.054665\H,0,-2.705919
 ,1.963733,-0.635313\H,0,-0.284207,1.490573,-0.65274\S,0,1.193936,-1.05

 Normal termination of Gaussian 16 at Tue Apr  8 22:57:14 2025.
