 Gaussian 16, Revision C.01,

 ----------------------------------------------------------------------
 #t hf aug-cc-pvdz symm=none int=(grid=ultrafine) guess=(read,tcheck) s
 table=(opt,rrhf)
 ----------------------------------------------------------------------
 -----
 title
 -----
 Symbolic Z-matrix:
 Charge =  0 Multiplicity = 1

 SCF Done:  E(RHF) =  -857.821742011     A.U. after   16 cycles
 Normal termination of Gaussian 16 at Tue Apr  8 22:51:44 2025.
 Gaussian 16:  ES64L-G16RevC.01  3-Jul-2019

 ----------------------------------------------------------------------
 #t hf aug-cc-pvdz iop(5/13=1,5/36=2,99/5=2) pseudo=read geom=check gue
 ss=(read,tcheck) scf=(maxcycle=1)
 ----------------------------------------------------------------------
 -----
 title
 -----
 Structure from the checkpoint file:  "BDE49_expt_1583_mol1.chk"
 Charge =  0 Multiplicity = 1

                         Standard orientation:
 ---------------------------------------------------------------------
 Center     Atomic      Atomic             Coordinates (Angstroms)
 Number     Number       Type             X           Y           Z
 ---------------------------------------------------------------------
      1          6           0       -0.000000    1.405975    0.513572
      2          6           0        0.879889    2.458936    0.778556
      3          6           0       -0.902601    1.508219   -0.550772
      4          6           0       -0.908618    2.647861   -1.347944
      5          6           0        0.850741    3.608068   -0.010093
      6          6           0       -0.037389    3.703728   -1.077812
      7          1           0       -1.593193    0.698142   -0.750830
      8          1           0       -1.606645    2.717623   -2.174848
      9          1           0        1.586782    2.373146    1.595387
     10          1           0        1.534792    4.421507    0.204450
     11          1           0       -0.052142    4.593430   -1.696773
     12         16           0       -0.000000   -0.000000    1.623696
     13          6           0       -0.000000   -1.405975    0.513572
     14          6           0       -0.879889   -2.458936    0.778556
     15          6           0       -0.850741   -3.608068   -0.010093
     16          6           0        0.037389   -3.703728   -1.077812
     17          6           0        0.908618   -2.647861   -1.347944
     18          6           0        0.902601   -1.508219   -0.550772
     19          1           0       -1.586782   -2.373146    1.595387
     20          1           0       -1.534792   -4.421507    0.204450
     21          1           0        0.052142   -4.593430   -1.696773
     22          1           0        1.606645   -2.717623   -2.174848
     23          1           0        1.593193   -0.698142   -0.750830
 ---------------------------------------------------------------------

 SCF Done:  E(RHF) =  -857.975245075     A.U. after    2 cycles

 The electronic state is 1-A.
 Alpha  occ. eigenvalues --  -93.54283 -11.28083 -11.28072 -11.25343 -11.25342
 Alpha  occ. eigenvalues --  -11.25300 -11.25299 -11.25224 -11.25223 -11.25179
 Alpha  occ. eigenvalues --  -11.25178 -11.25071 -11.25069  -8.83992  -6.18221
 Alpha  occ. eigenvalues --   -6.17997  -6.17643  -1.16015  -1.14920  -1.06019
 Alpha  occ. eigenvalues --   -1.01910  -1.01841  -1.01491  -0.92702  -0.83855
 Alpha  occ. eigenvalues --   -0.83824  -0.82717  -0.79102  -0.71437  -0.69794
 Alpha  occ. eigenvalues --   -0.64832  -0.64215  -0.63905  -0.63031  -0.59972
 Alpha  occ. eigenvalues --   -0.59928  -0.58597  -0.55020  -0.52117  -0.51929
 Alpha  occ. eigenvalues --   -0.50837  -0.50742  -0.48868  -0.45315  -0.40183
 Alpha  occ. eigenvalues --   -0.35470  -0.34874  -0.34536  -0.30294
 Alpha virt. eigenvalues --    0.03262   0.03549   0.04270   0.04327   0.04913
 Alpha virt. eigenvalues --    0.05562   0.06378   0.06389   0.07524   0.07805
 Alpha virt. eigenvalues --    0.08904   0.09228   0.09571   0.10414   0.10975

 Mulliken charges:
               1
     1  C    0.138171
     2  C    0.360456
     3  C    0.389783
     4  C    0.369389
     5  C    0.422343
     6  C    0.610983
     7  H   -0.556194
     8  H   -0.469608
     9  H   -0.506884
    10  H   -0.440429
    11  H   -0.439805
    12  S    0.243588
    13  C    0.138171
    14  C    0.360456
    15  C    0.422343
    16  C    0.610983
    17  C    0.369389
    18  C    0.389783
    19  H   -0.506884
    20  H   -0.440429
    21  H   -0.439805
    22  H   -0.469608
    23  H   -0.556194
 Sum of Mulliken charges =  -0.00000

 Dipole moment (field-independent basis, Debye):
    X=              0.0000    Y=              0.0000    Z=             -1.7749  Tot=              1.7749

 Test job not archived.
 1\1\GINC-SE220\SP\RHF\Aug-CC-pVDZ\C12H10S1\OHZDE\08-Apr-2025\0\\#t hf
 aug-cc-pvdz iop(5/13=1,5/36=2,99/5=2) pseudo=read geom=check guess=(re
 ad,tcheck) scf=(maxcycle=1)\\title\\0,1\C,0,0.,1.405975,0.513572\C,0,0
 .879889,2.458936,0.778556\C,0,-0.902601,1.508219,-0.550772\C,0,-0.9086
 18,2.647861,-1.347944\C,0,0.850741,3.608068,-0.010093\C,0,-0.037389,3.
 703728,-1.077812\H,0,-1.593193,0.698142,-0.75083\H,0,-1.606645,2.71762
 3,-2.174848\H,0,1.586782,2.373146,1.595387\H,0,1.534792,4.421507,0.204
 45\H,0,-0.052142,4.59343,-1.696773\S,0,0.,0.,1.623696\C,0,0.,-1.405975

 Normal termination of Gaussian 16 at Tue Apr  8 22:51:57 2025.
