 Gaussian 16, Revision C.01,

 ----------------------------------------------------------------------
 #t hf aug-cc-pvdz symm=none int=(grid=ultrafine) guess=(read,tcheck) s
 table=(opt,rrhf)
 ----------------------------------------------------------------------
 -----
 title
 -----
 Symbolic Z-matrix:
 Charge =  0 Multiplicity = 1

 SCF Done:  E(RHF) =  -985.510543300     A.U. after   15 cycles
 Normal termination of Gaussian 16 at Wed Apr  9 00:19:36 2025.
 Gaussian 16:  ES64L-G16RevC.01  3-Jul-2019

 ----------------------------------------------------------------------
 #t hf aug-cc-pvdz iop(5/13=1,5/36=2,99/5=2) pseudo=read geom=check gue
 ss=(read,tcheck) scf=(maxcycle=1)
 ----------------------------------------------------------------------
 -----
 title
 -----
 Structure from the checkpoint file:  "BDE49_nonexpt_2625_mol1.chk"
 Charge =  0 Multiplicity = 1

                         Standard orientation:
 ---------------------------------------------------------------------
 Center     Atomic      Atomic             Coordinates (Angstroms)
 Number     Number       Type             X           Y           Z
 ---------------------------------------------------------------------
      1          9           0       -2.047172    0.633939    0.306762
      2         16           0       -1.166737   -0.664589   -0.311190
      3         14           0        0.723540    0.111501    0.338968
      4          9           0        1.747554   -1.066875    0.021735
      5          9           0        1.166579    1.388081   -0.497484
      6          1           0        0.735583    0.476108    1.754367
 ---------------------------------------------------------------------

 SCF Done:  E(RHF) =  -985.681428578     A.U. after    2 cycles

 The electronic state is 1-A.
 Alpha  occ. eigenvalues --  -93.63718 -69.21461 -26.15335 -26.15219 -26.14683
 Alpha  occ. eigenvalues --   -8.92819  -6.95366  -6.26992  -6.26564  -6.26243
 Alpha  occ. eigenvalues --   -4.06362  -4.06257  -4.06089  -1.68598  -1.67282
 Alpha  occ. eigenvalues --   -1.65869  -0.99458  -0.86387  -0.80610  -0.78090
 Alpha  occ. eigenvalues --   -0.77756  -0.75622  -0.75434  -0.74846  -0.73545
 Alpha  occ. eigenvalues --   -0.69959  -0.60229  -0.49194  -0.42394
 Alpha virt. eigenvalues --    0.02298   0.04998   0.05254   0.05847   0.06783
 Alpha virt. eigenvalues --    0.09556   0.11912   0.13323   0.14586   0.15904
 Alpha virt. eigenvalues --    0.16901   0.19767   0.20588   0.21719   0.23659

 Mulliken charges:
               1
     1  F   -0.616709
     2  S    0.235104
     3  Si   1.932492
     4  F   -0.742814
     5  F   -0.767173
     6  H   -0.040899
 Sum of Mulliken charges =  -0.00000

 Dipole moment (field-independent basis, Debye):
    X=              0.4649    Y=             -1.0990    Z=              0.8701  Tot=              1.4768

 Test job not archived.
 1\1\GINC-SE058\SP\RHF\Aug-CC-pVDZ\F3H1S1Si1\OHZDE\09-Apr-2025\0\\#t hf
  aug-cc-pvdz iop(5/13=1,5/36=2,99/5=2) pseudo=read geom=check guess=(r
 ead,tcheck) scf=(maxcycle=1)\\title\\0,1\F,0,-2.047172,0.633939,0.3067
 62\S,0,-1.166737,-0.664589,-0.31119\Si,0,0.72354,0.111501,0.338968\F,0
 ,1.747554,-1.066875,0.021735\F,0,1.166579,1.388081,-0.497484\H,0,0.735
 583,0.476108,1.754367\\Version=ES64L-G16RevC.01\State=1-A\HF=-985.6814
 286\RMSD=5.456e-03\Dipole=0.1829183,-0.4323834,0.3423144\Quadrupole=-2
 .102655,-0.2029435,2.3055985,1.6661494,1.864748,1.2161296\PG=C01 [X(F3

 Normal termination of Gaussian 16 at Wed Apr  9 00:19:39 2025.
