 Gaussian 16, Revision C.01,

 ----------------------------------------------------------------------
 #t hf aug-cc-pvdz symm=none int=(grid=ultrafine) guess=(read,tcheck) s
 table=opt
 ----------------------------------------------------------------------
 -----
 title
 -----
 Symbolic Z-matrix:
 Charge =  0 Multiplicity = 2

 SCF Done:  E(UHF) =  -178.792670977     A.U. after   15 cycles
 Normal termination of Gaussian 16 at Wed Apr  9 00:38:25 2025.
 Gaussian 16:  ES64L-G16RevC.01  3-Jul-2019

 ----------------------------------------------------------------------
 #t hf aug-cc-pvdz iop(5/13=1,5/36=2,99/5=2) pseudo=read geom=check gue
 ss=(read,tcheck) scf=(maxcycle=1)
 ----------------------------------------------------------------------
 -----
 title
 -----
 Structure from the checkpoint file:  "BDE49_nonexpt_642_mol2.chk"
 Charge =  0 Multiplicity = 2

                         Standard orientation:
 ---------------------------------------------------------------------
 Center     Atomic      Atomic             Coordinates (Angstroms)
 Number     Number       Type             X           Y           Z
 ---------------------------------------------------------------------
      1          5           0       -0.893108    0.708882   -0.000001
      2          6           0        0.678999    0.754990    0.000000
      3          6           0        1.391610   -0.613208    0.000002
      4          1           0        1.130858   -1.203655   -0.884557
      5          1           0        1.130857   -1.203653    0.884562
      6          1           0        2.478663   -0.499718    0.000002
      7          8           0       -1.683040   -0.370225   -0.000002
      8          1           0       -1.223571   -1.226182   -0.000001
      9          1           0        0.994697    1.349956    0.866303
     10          1           0        0.994698    1.349954   -0.866304
 ---------------------------------------------------------------------

 SCF Done:  E(UHF) =  -178.853938712     A.U. after    2 cycles

 The electronic state is 2-A.
 Alpha  occ. eigenvalues --  -20.59712 -11.23985 -11.22295  -7.64779  -1.34041
 Alpha  occ. eigenvalues --   -1.02389  -0.86158  -0.78254  -0.65836  -0.61623
 Alpha  occ. eigenvalues --   -0.57696  -0.56082  -0.54274  -0.50171  -0.48998
 Alpha  occ. eigenvalues --   -0.31578
 Alpha virt. eigenvalues --    0.03070   0.04595   0.04852   0.05191   0.06956
 Alpha virt. eigenvalues --    0.07199   0.07533   0.07996   0.08344   0.12037
 Alpha virt. eigenvalues --    0.14296   0.14317   0.15129   0.15816   0.17026

  Beta  occ. eigenvalues --  -20.59685 -11.23876 -11.22075  -7.62906  -1.33788
  Beta  occ. eigenvalues --   -1.01788  -0.85312  -0.76623  -0.64798  -0.61475
  Beta  occ. eigenvalues --   -0.57107  -0.56500  -0.52444  -0.50107  -0.47329
  Beta virt. eigenvalues --    0.02901   0.04575   0.04753   0.04923   0.07009
  Beta virt. eigenvalues --    0.07319   0.07537   0.08114   0.08363   0.10012
  Beta virt. eigenvalues --    0.14063   0.14446   0.15351   0.16337   0.17038

 Mulliken charges and spin densities:
               1          2
     1  B    0.251484   1.040512
     2  C    0.292510   0.010448
     3  C    0.193995   0.027588
     4  H   -0.099524  -0.001590
     5  H   -0.099524  -0.001590
     6  H   -0.119796   0.000894
     7  O   -0.412140  -0.076231
     8  H    0.206443   0.040640
     9  H   -0.106724  -0.020336
    10  H   -0.106724  -0.020336
 Sum of Mulliken charges =  -0.00000   1.00000

 Dipole moment (field-independent basis, Debye):
    X=              2.0089    Y=             -1.3745    Z=              0.0000  Tot=              2.4341
                          Isotropic Fermi Contact Couplings
        Atom                 a.u.       MegaHertz       Gauss      10(-4) cm-1
     1  B(11)              0.31833     456.60795     162.92907     152.30802
     2  C(13)              0.06215      69.86406      24.92923      23.30414
     3  C(13)              0.02080      23.38755       8.34526       7.80125
     4  H(1)              -0.00076      -3.41049      -1.21695      -1.13762
     5  H(1)              -0.00076      -3.41049      -1.21695      -1.13762
     6  H(1)               0.00065       2.91184       1.03902       0.97129
     7  O(17)              0.12478     -75.63956     -26.99008     -25.23064
     8  H(1)               0.01748      78.13185      27.87939      26.06198

 Normal termination of Gaussian 16 at Wed Apr  9 00:38:28 2025.
