 Gaussian 16, Revision C.01,

 ----------------------------------------------------------------------
 #t hf aug-cc-pvdz symm=none int=(grid=ultrafine) guess=(read,tcheck) s
 table=(opt,rrhf)
 ----------------------------------------------------------------------
 -----
 title
 -----
 Symbolic Z-matrix:
 Charge =  0 Multiplicity = 1

 SCF Done:  E(RHF) =  -667.299825487     A.U. after   15 cycles
 Normal termination of Gaussian 16 at Tue Apr  8 22:45:11 2025.
 Gaussian 16:  ES64L-G16RevC.01  3-Jul-2019

 ----------------------------------------------------------------------
 #t hf aug-cc-pvdz iop(5/13=1,5/36=2,99/5=2) pseudo=read geom=check gue
 ss=(read,tcheck) scf=(maxcycle=1)
 ----------------------------------------------------------------------
 -----
 title
 -----
 Structure from the checkpoint file:  "BDE49_expt_1560_mol1.chk"
 Charge =  0 Multiplicity = 1

                         Standard orientation:
 ---------------------------------------------------------------------
 Center     Atomic      Atomic             Coordinates (Angstroms)
 Number     Number       Type             X           Y           Z
 ---------------------------------------------------------------------
      1          6           0       -1.995058    1.204806   -0.157033
      2          6           0       -0.663302    1.203630    0.248765
      3          6           0        0.016509   -0.000001    0.460429
      4          6           0       -0.663303   -1.203631    0.248764
      5          6           0       -1.995059   -1.204805   -0.157035
      6          6           0       -2.664749    0.000001   -0.360249
      7          1           0       -2.510051    2.146077   -0.312885
      8          1           0       -0.144366    2.143962    0.403070
      9          1           0       -0.144369   -2.143963    0.403068
     10          1           0       -2.510053   -2.146075   -0.312888
     11          1           0       -3.702317    0.000002   -0.674431
     12          6           0        1.458452   -0.000002    0.894957
     13         16           0        2.559824    0.000001   -0.600941
     14          1           0        1.682224   -0.888255    1.485694
     15          1           0        1.682224    0.888250    1.485697
     16          1           0        3.728579   -0.000000    0.066135
 ---------------------------------------------------------------------

 SCF Done:  E(RHF) =  -667.398690854     A.U. after    2 cycles

 The electronic state is 1-A.
 Alpha  occ. eigenvalues --  -93.53496 -11.28151 -11.25948 -11.24938 -11.24915
 Alpha  occ. eigenvalues --  -11.24803 -11.24783 -11.24721  -8.83185  -6.17354
 Alpha  occ. eigenvalues --   -6.17118  -6.16768  -1.15298  -1.06372  -1.01434
 Alpha  occ. eigenvalues --   -0.98157  -0.87646  -0.83541  -0.79937  -0.70412
 Alpha  occ. eigenvalues --   -0.65414  -0.64517  -0.60071  -0.59645  -0.57382
 Alpha  occ. eigenvalues --   -0.56113  -0.50701  -0.49898  -0.49362  -0.45563
 Alpha  occ. eigenvalues --   -0.35914  -0.34181  -0.33572
 Alpha virt. eigenvalues --    0.03385   0.03753   0.04168   0.05372   0.05805
 Alpha virt. eigenvalues --    0.05957   0.07422   0.08318   0.09560   0.10516
 Alpha virt. eigenvalues --    0.10591   0.10970   0.11872   0.12820   0.13951

 Mulliken charges:
               1
     1  C    0.407418
     2  C    0.178010
     3  C    1.076014
     4  C    0.178017
     5  C    0.407418
     6  C    0.461688
     7  H   -0.435474
     8  H   -0.555490
     9  H   -0.555493
    10  H   -0.435474
    11  H   -0.434545
    12  C   -0.082510
    13  S    0.196951
    14  H   -0.214581
    15  H   -0.214578
    16  H    0.022630
 Sum of Mulliken charges =  -0.00000

 Dipole moment (field-independent basis, Debye):
    X=             -0.3853    Y=             -0.0000    Z=              1.5184  Tot=              1.5665

 Test job not archived.
 1\1\GINC-SE460\SP\RHF\Aug-CC-pVDZ\C7H8S1\OHZDE\08-Apr-2025\0\\#t hf au
 g-cc-pvdz iop(5/13=1,5/36=2,99/5=2) pseudo=read geom=check guess=(read
 ,tcheck) scf=(maxcycle=1)\\title\\0,1\C,0,1.995058,-1.204806,-0.157033
 \C,0,0.663302,-1.20363,0.248765\C,0,-0.016509,0.000001,0.460429\C,0,0.
 663303,1.203631,0.248764\C,0,1.995059,1.204805,-0.157035\C,0,2.664749,
 -0.000001,-0.360249\H,0,2.510051,-2.146077,-0.312885\H,0,0.144366,-2.1
 43962,0.40307\H,0,0.144369,2.143963,0.403068\H,0,2.510053,2.146075,-0.
 312888\H,0,3.702317,-0.000002,-0.674431\C,0,-1.458452,0.000002,0.89495

 Normal termination of Gaussian 16 at Tue Apr  8 22:45:17 2025.
