 Gaussian 16, Revision C.01,

 ----------------------------------------------------------------------
 #t hf aug-cc-pvdz symm=none int=(grid=ultrafine) guess=(read,tcheck) s
 table=(opt,rrhf)
 ----------------------------------------------------------------------
 -----
 title
 -----
 Symbolic Z-matrix:
 Charge =  0 Multiplicity = 1

 SCF Done:  E(RHF) =  -691.039238176     A.U. after   14 cycles
 Normal termination of Gaussian 16 at Tue Apr  8 22:56:00 2025.
 Gaussian 16:  ES64L-G16RevC.01  3-Jul-2019

 ----------------------------------------------------------------------
 #t hf aug-cc-pvdz iop(5/13=1,5/36=2,99/5=2) pseudo=read geom=check gue
 ss=(read,tcheck) scf=(maxcycle=1)
 ----------------------------------------------------------------------
 -----
 title
 -----
 Structure from the checkpoint file:  "BDE49_expt_1925_mol1.chk"
 Charge =  0 Multiplicity = 1

                         Standard orientation:
 ---------------------------------------------------------------------
 Center     Atomic      Atomic             Coordinates (Angstroms)
 Number     Number       Type             X           Y           Z
 ---------------------------------------------------------------------
      1          8           0       -0.398911   -0.000001   -0.859844
      2         17           0       -1.951878    0.000000   -0.063735
      3          6           0        0.752547    0.000000    0.041493
      4          6           0        1.892615   -0.000001   -0.985962
      5          1           0        1.838645   -0.886701   -1.619866
      6          1           0        2.852318   -0.000001   -0.463450
      7          1           0        1.838645    0.886699   -1.619868
      8          6           0        0.773301    1.269727    0.891589
      9          1           0        0.714564    2.154538    0.254323
     10          1           0        1.697695    1.318769    1.472764
     11          1           0       -0.065742    1.289485    1.589494
     12          6           0        0.773301   -1.269726    0.891591
     13          1           0        0.714563   -2.154538    0.254325
     14          1           0       -0.065743   -1.289483    1.589496
     15          1           0        1.697695   -1.318768    1.472766
 ---------------------------------------------------------------------

 SCF Done:  E(RHF) =  -691.130959016     A.U. after    2 cycles

 The electronic state is 1-A.
 Alpha  occ. eigenvalues -- -103.69906 -20.64050 -11.31694 -11.23688 -11.23378
 Alpha  occ. eigenvalues --  -11.23369 -10.72612  -8.38367  -8.37984  -8.37959
 Alpha  occ. eigenvalues --   -1.35419  -1.12207  -1.04242  -0.94836  -0.94600
 Alpha  occ. eigenvalues --   -0.77472  -0.66363  -0.65729  -0.64497  -0.58903
 Alpha  occ. eigenvalues --   -0.58455  -0.55169  -0.53927  -0.53570  -0.52980
 Alpha  occ. eigenvalues --   -0.49059  -0.48294  -0.45886  -0.43812
 Alpha virt. eigenvalues --    0.03404   0.04526   0.04698   0.05358   0.06596
 Alpha virt. eigenvalues --    0.06864   0.07175   0.07557   0.08102   0.09512
 Alpha virt. eigenvalues --    0.10324   0.13022   0.14373   0.14419   0.15417

 Mulliken charges:
               1
     1  O   -0.651753
     2  Cl   0.188588
     3  C   -2.305943
     4  C    0.778361
     5  H   -0.020116
     6  H    0.052138
     7  H   -0.020112
     8  C    0.972103
     9  H    0.029003
    10  H    0.051757
    11  H   -0.063444
    12  C    0.972098
    13  H    0.029005
    14  H   -0.063442
    15  H    0.051756
 Sum of Mulliken charges =  -0.00000

 Dipole moment (field-independent basis, Debye):
    X=              1.9728    Y=              0.0000    Z=              1.3441  Tot=              2.3871

 Test job not archived.
 1\1\GINC-SE424\SP\RHF\Aug-CC-pVDZ\C4H9Cl1O1\OHZDE\08-Apr-2025\0\\#t hf
  aug-cc-pvdz iop(5/13=1,5/36=2,99/5=2) pseudo=read geom=check guess=(r
 ead,tcheck) scf=(maxcycle=1)\\title\\0,1\O,0,0.398911,0.000001,-0.8598
 44\Cl,0,1.951878,0.,-0.063735\C,0,-0.752547,0.,0.041493\C,0,-1.892615,
 0.000001,-0.985962\H,0,-1.838645,0.886701,-1.619866\H,0,-2.852318,0.00
 0001,-0.46345\H,0,-1.838645,-0.886699,-1.619868\C,0,-0.773301,-1.26972
 7,0.891589\H,0,-0.714564,-2.154538,0.254323\H,0,-1.697695,-1.318769,1.
 472764\H,0,0.065742,-1.289485,1.589494\C,0,-0.773301,1.269726,0.891591

 Normal termination of Gaussian 16 at Tue Apr  8 22:56:05 2025.
