 Gaussian 16, Revision C.01,

 ----------------------------------------------------------------------
 #t hf aug-cc-pvdz symm=none int=(grid=ultrafine) guess=(read,tcheck) s
 table=(opt,rrhf)
 ----------------------------------------------------------------------
 -----
 title
 -----
 Symbolic Z-matrix:
 Charge =  0 Multiplicity = 1

 SCF Done:  E(RHF) =  -449.222392105     A.U. after   13 cycles
 Normal termination of Gaussian 16 at Wed Apr  9 00:51:56 2025.
 Gaussian 16:  ES64L-G16RevC.01  3-Jul-2019

 ----------------------------------------------------------------------
 #t hf aug-cc-pvdz iop(5/13=1,5/36=2,99/5=2) pseudo=read geom=check gue
 ss=(read,tcheck) scf=(maxcycle=1)
 ----------------------------------------------------------------------
 -----
 title
 -----
 Structure from the checkpoint file:  "BDE49_nonexpt_98_mol1.chk"
 Charge =  0 Multiplicity = 1

                         Standard orientation:
 ---------------------------------------------------------------------
 Center     Atomic      Atomic             Coordinates (Angstroms)
 Number     Number       Type             X           Y           Z
 ---------------------------------------------------------------------
      1          5           0        1.998164   -0.218551    0.000038
      2          5           0        0.557766    0.591098   -0.000175
      3         16           0       -1.039842   -0.219657   -0.000024
      4          1           0       -1.841705    0.861186    0.000338
      5          1           0        2.564294   -0.497803    1.015050
      6          1           0        2.564875   -0.497255   -1.014800
      7          1           0        0.570351    1.785657    0.000482
 ---------------------------------------------------------------------

 SCF Done:  E(RHF) =  -449.258203842     A.U. after    2 cycles

 The electronic state is 1-A.
 Alpha  occ. eigenvalues --  -93.54372  -8.84330  -7.62729  -7.61178  -6.18507
 Alpha  occ. eigenvalues --   -6.18236  -6.18040  -0.97386  -0.72776  -0.62090
 Alpha  occ. eigenvalues --   -0.57300  -0.49869  -0.45617  -0.43504  -0.39629
 Alpha virt. eigenvalues --    0.03409   0.04180   0.04316   0.05481   0.06611
 Alpha virt. eigenvalues --    0.06651   0.07018   0.08951   0.10028   0.10312
 Alpha virt. eigenvalues --    0.10636   0.13239   0.13663   0.14600   0.15535

 Mulliken charges:
               1
     1  B   -0.353716
     2  B    0.013392
     3  S   -0.215619
     4  H   -0.022710
     5  H    0.213397
     6  H    0.213347
     7  H    0.151909
 Sum of Mulliken charges =  -0.00000

 Dipole moment (field-independent basis, Debye):
    X=             -0.1025    Y=              0.8913    Z=             -0.0001  Tot=              0.8972

 Test job not archived.
 1\1\GINC-SE049\SP\RHF\Aug-CC-pVDZ\B2H4S1\OHZDE\09-Apr-2025\0\\#t hf au
 g-cc-pvdz iop(5/13=1,5/36=2,99/5=2) pseudo=read geom=check guess=(read
 ,tcheck) scf=(maxcycle=1)\\title\\0,1\B,0,-1.998164,-0.218551,-0.00003
 8\B,0,-0.557766,0.591098,0.000175\S,0,1.039842,-0.219657,0.000024\H,0,
 1.841705,0.861186,-0.000338\H,0,-2.564294,-0.497803,-1.01505\H,0,-2.56
 4875,-0.497255,1.0148\H,0,-0.570351,1.785657,-0.000482\\Version=ES64L-
 G16RevC.01\State=1-A\HF=-449.2582038\RMSD=6.397e-03\Dipole=0.0403405,0
 .3506702,0.0000475\Quadrupole=0.3382819,0.6364215,-0.9747034,0.7306968

 Normal termination of Gaussian 16 at Wed Apr  9 00:51:58 2025.
