 Gaussian 16, Revision C.01,

 ----------------------------------------------------------------------
 #t hf aug-cc-pvdz symm=none int=(grid=ultrafine) guess=(read,tcheck) s
 table=(opt,rrhf)
 ----------------------------------------------------------------------
 -----
 title
 -----
 Symbolic Z-matrix:
 Charge =  0 Multiplicity = 1

 SCF Done:  E(RHF) =  -958.753393527     A.U. after   14 cycles
 Normal termination of Gaussian 16 at Wed Apr  9 00:10:28 2025.
 Gaussian 16:  ES64L-G16RevC.01  3-Jul-2019

 ----------------------------------------------------------------------
 #t hf aug-cc-pvdz iop(5/13=1,5/36=2,99/5=2) pseudo=read geom=check gue
 ss=(read,tcheck) scf=(maxcycle=1)
 ----------------------------------------------------------------------
 -----
 title
 -----
 Structure from the checkpoint file:  "BDE49_nonexpt_2366_mol1.chk"
 Charge =  0 Multiplicity = 1

                         Standard orientation:
 ---------------------------------------------------------------------
 Center     Atomic      Atomic             Coordinates (Angstroms)
 Number     Number       Type             X           Y           Z
 ---------------------------------------------------------------------
      1         14           0       -0.803743   -1.240924    0.866937
      2         14           0        0.803743   -1.240924   -0.866937
      3          8           0       -1.630351    0.236285    0.912415
      4          1           0       -0.204190   -1.286657    2.218971
      5          1           0       -1.751247   -2.371325    0.706936
      6          8           0       -2.298056    0.361560   -0.392539
      7          6           0       -2.081264    1.696575   -0.820677
      8          1           0       -2.641637    1.773692   -1.755466
      9          1           0       -1.020145    1.890086   -1.004110
     10          1           0       -2.479249    2.404924   -0.088805
     11          8           0        1.630351    0.236285   -0.912415
     12          1           0        0.204190   -1.286658   -2.218971
     13          1           0        1.751247   -2.371325   -0.706936
     14          8           0        2.298056    0.361560    0.392539
     15          6           0        2.081264    1.696576    0.820677
     16          1           0        2.641637    1.773693    1.755466
     17          1           0        1.020145    1.890087    1.004110
     18          1           0        2.479248    2.404924    0.088804
 ---------------------------------------------------------------------

 SCF Done:  E(RHF) =  -958.932905246     A.U. after    2 cycles

 The electronic state is 1-A.
 Alpha  occ. eigenvalues --  -69.09828 -69.09828 -20.64894 -20.64893 -20.62350
 Alpha  occ. eigenvalues --  -20.62350 -11.29736 -11.29736  -6.84717  -6.84707
 Alpha  occ. eigenvalues --   -3.95596  -3.95589  -3.95461  -3.95460  -3.95430
 Alpha  occ. eigenvalues --   -3.95356  -1.41415  -1.41307  -1.19681  -1.19620
 Alpha  occ. eigenvalues --   -0.92390  -0.92187  -0.76211  -0.72950  -0.69016
 Alpha  occ. eigenvalues --   -0.68491  -0.67265  -0.67093  -0.65319  -0.61933
 Alpha  occ. eigenvalues --   -0.57784  -0.57259  -0.54789  -0.53583  -0.53225
 Alpha  occ. eigenvalues --   -0.52651  -0.49225  -0.48065  -0.46920  -0.46127
 Alpha  occ. eigenvalues --   -0.39703
 Alpha virt. eigenvalues --    0.03475   0.04493   0.04578   0.04720   0.05763
 Alpha virt. eigenvalues --    0.05900   0.06731   0.06929   0.07458   0.08871
 Alpha virt. eigenvalues --    0.09091   0.09503   0.09547   0.10052   0.11589

 Mulliken charges:
               1
     1  Si   0.579548
     2  Si   0.579548
     3  O   -0.725537
     4  H    0.079642
     5  H    0.016578
     6  O   -0.423901
     7  C    0.915248
     8  H   -0.170185
     9  H   -0.154662
    10  H   -0.116731
    11  O   -0.725537
    12  H    0.079642
    13  H    0.016578
    14  O   -0.423902
    15  C    0.915249
    16  H   -0.170185
    17  H   -0.154662
    18  H   -0.116731
 Sum of Mulliken charges =  -0.00000

 Dipole moment (field-independent basis, Debye):
    X=              0.0000    Y=              1.2789    Z=              0.0000  Tot=              1.2789

 Test job not archived.
 1\1\GINC-SE398\SP\RHF\Aug-CC-pVDZ\C2H10O4Si2\OHZDE\09-Apr-2025\0\\#t h
 f aug-cc-pvdz iop(5/13=1,5/36=2,99/5=2) pseudo=read geom=check guess=(
 read,tcheck) scf=(maxcycle=1)\\title\\0,1\Si,0,-0.803743,-1.240924,0.8
 66937\Si,0,0.803743,-1.240924,-0.866937\O,0,-1.630351,0.236285,0.91241
 5\H,0,-0.20419,-1.286657,2.218971\H,0,-1.751247,-2.371325,0.706936\O,0
 ,-2.298056,0.36156,-0.392539\C,0,-2.081264,1.696575,-0.820677\H,0,-2.6
 41637,1.773692,-1.755466\H,0,-1.020145,1.890086,-1.00411\H,0,-2.479249
 ,2.404924,-0.088805\O,0,1.630351,0.236285,-0.912415\H,0,0.20419,-1.286

 Normal termination of Gaussian 16 at Wed Apr  9 00:10:49 2025.
