 Gaussian 16, Revision C.01,

 ----------------------------------------------------------------------
 #t hf aug-cc-pvdz symm=none int=(grid=ultrafine) guess=(read,tcheck) s
 table=(opt,rrhf)
 ----------------------------------------------------------------------
 -----
 title
 -----
 Symbolic Z-matrix:
 Charge =  0 Multiplicity = 1

 SCF Done:  E(RHF) =  -424.418110931     A.U. after   11 cycles
 Normal termination of Gaussian 16 at Tue Apr  8 23:58:30 2025.
 Gaussian 16:  ES64L-G16RevC.01  3-Jul-2019

 ----------------------------------------------------------------------
 #t hf aug-cc-pvdz iop(5/13=1,5/36=2,99/5=2) pseudo=read geom=check gue
 ss=(read,tcheck) scf=(maxcycle=1)
 ----------------------------------------------------------------------
 -----
 title
 -----
 Structure from the checkpoint file:  "BDE49_nonexpt_2108_mol1.chk"
 Charge =  0 Multiplicity = 1

                         Standard orientation:
 ---------------------------------------------------------------------
 Center     Atomic      Atomic             Coordinates (Angstroms)
 Number     Number       Type             X           Y           Z
 ---------------------------------------------------------------------
      1          7           0       -0.686066    1.543150   -0.208101
      2         14           0        0.002186    0.059008    0.357618
      3          1           0       -0.347479    2.426006    0.146928
      4          1           0       -0.973535    1.636498   -1.172179
      5          6           0       -1.127741   -1.341711   -0.174319
      6          1           0       -1.211890   -1.391279   -1.265162
      7          6           0        1.755937   -0.296416   -0.232210
      8          1           0        1.797670   -0.405878   -1.320929
      9          1           0        2.136511   -1.223077    0.210767
     10          1           0        2.440932    0.509708    0.047971
     11          1           0       -2.132467   -1.210670    0.235054
     12          1           0       -0.743071   -2.307198    0.167573
     13          1           0        0.036014    0.166489    1.839201
 ---------------------------------------------------------------------

 SCF Done:  E(RHF) =  -424.494400912     A.U. after    2 cycles

 The electronic state is 1-A.
 Alpha  occ. eigenvalues --  -69.05932 -15.59045 -11.20684 -11.20553  -6.80899
 Alpha  occ. eigenvalues --   -3.91793  -3.91710  -3.91653  -1.09039  -0.94223
 Alpha  occ. eigenvalues --   -0.91545  -0.66670  -0.64499  -0.56756  -0.56208
 Alpha  occ. eigenvalues --   -0.54247  -0.54064  -0.50982  -0.45614  -0.43990
 Alpha  occ. eigenvalues --   -0.38158
 Alpha virt. eigenvalues --    0.03048   0.04577   0.04728   0.05036   0.07044
 Alpha virt. eigenvalues --    0.07163   0.07463   0.07759   0.08431   0.09855
 Alpha virt. eigenvalues --    0.10469   0.12129   0.13995   0.15610   0.16730

 Mulliken charges:
               1
     1  N   -0.519226
     2  Si   1.538970
     3  H   -0.076550
     4  H   -0.023404
     5  C    0.392381
     6  H   -0.180053
     7  C    0.324987
     8  H   -0.219911
     9  H   -0.245862
    10  H   -0.314630
    11  H   -0.303129
    12  H   -0.258084
    13  H   -0.115491
 Sum of Mulliken charges =   0.00000

 Dipole moment (field-independent basis, Debye):
    X=              0.4311    Y=              0.4252    Z=             -1.0090  Tot=              1.1768

 Test job not archived.
 1\1\GINC-SE071\SP\RHF\Aug-CC-pVDZ\C2H9N1Si1\OHZDE\08-Apr-2025\0\\#t hf
  aug-cc-pvdz iop(5/13=1,5/36=2,99/5=2) pseudo=read geom=check guess=(r
 ead,tcheck) scf=(maxcycle=1)\\title\\0,1\N,0,-0.686068,1.543149,-0.208
 101\Si,0,0.002186,0.059008,0.357618\H,0,-0.347482,2.426006,0.146928\H,
 0,-0.973537,1.636497,-1.172179\C,0,-1.127739,-1.341712,-0.174319\H,0,-
 1.211888,-1.39128,-1.265162\C,0,1.755937,-0.296414,-0.23221\H,0,1.7976
 71,-0.405876,-1.320929\H,0,2.136512,-1.223075,0.210767\H,0,2.440932,0.
 509711,0.047971\H,0,-2.132466,-1.210672,0.235054\H,0,-0.743068,-2.3071

 Normal termination of Gaussian 16 at Tue Apr  8 23:58:34 2025.
