 Gaussian 16, Revision C.01,

 ----------------------------------------------------------------------
 #t hf aug-cc-pvdz symm=none int=(grid=ultrafine) guess=(read,tcheck) s
 table=(opt,rrhf)
 ----------------------------------------------------------------------
 -----
 title
 -----
 Symbolic Z-matrix:
 Charge =  0 Multiplicity = 1

 SCF Done:  E(RHF) =  -1406.90058740     A.U. after   15 cycles
 Normal termination of Gaussian 16 at Wed Apr  9 00:16:40 2025.
 Gaussian 16:  ES64L-G16RevC.01  3-Jul-2019

 ----------------------------------------------------------------------
 #t hf aug-cc-pvdz iop(5/13=1,5/36=2,99/5=2) pseudo=read geom=check gue
 ss=(read,tcheck) scf=(maxcycle=1)
 ----------------------------------------------------------------------
 -----
 title
 -----
 Structure from the checkpoint file:  "BDE49_nonexpt_2577_mol1.chk"
 Charge =  0 Multiplicity = 1

                         Standard orientation:
 ---------------------------------------------------------------------
 Center     Atomic      Atomic             Coordinates (Angstroms)
 Number     Number       Type             X           Y           Z
 ---------------------------------------------------------------------
      1         17           0        2.429767    0.425316    0.000046
      2         16           0        0.889259   -1.005251   -0.000016
      3          6           0       -0.610739   -0.125367   -0.000082
      4         16           0       -1.921466   -1.121090    0.000030
      5          8           0       -0.540751    1.185017   -0.000058
      6          6           0       -1.773088    1.943403   -0.000009
      7          1           0       -1.455691    2.982575    0.000003
      8          1           0       -2.353015    1.710066    0.893017
      9          1           0       -2.353062    1.710100   -0.893014
 ---------------------------------------------------------------------

 SCF Done:  E(RHF) =  -1407.00907072     A.U. after    2 cycles

 The electronic state is 1-A.
 Alpha  occ. eigenvalues -- -103.68974 -93.63218 -93.52575 -20.66939 -11.43861
 Alpha  occ. eigenvalues --  -11.32849 -10.72089  -8.92572  -8.82532  -8.37818
 Alpha  occ. eigenvalues --   -8.37470  -8.37441  -6.26632  -6.26342  -6.25928
 Alpha  occ. eigenvalues --   -6.16735  -6.16220  -6.16141  -1.44581  -1.17992
 Alpha  occ. eigenvalues --   -1.09639  -0.99870  -0.94098  -0.80183  -0.71257
 Alpha  occ. eigenvalues --   -0.71256  -0.65807  -0.59159  -0.57324  -0.53467
 Alpha  occ. eigenvalues --   -0.52317  -0.52201  -0.47537  -0.44090  -0.36643
 Alpha  occ. eigenvalues --   -0.35870
 Alpha virt. eigenvalues --    0.03196   0.03541   0.05476   0.05708   0.06070
 Alpha virt. eigenvalues --    0.06881   0.08756   0.09102   0.11348   0.12614
 Alpha virt. eigenvalues --    0.13570   0.13640   0.14766   0.15467   0.16170

 Mulliken charges:
               1
     1  Cl  -0.328726
     2  S    0.648957
     3  C   -0.327048
     4  S    0.002919
     5  O   -0.443546
     6  C    0.751500
     7  H   -0.208526
     8  H   -0.047760
     9  H   -0.047770
 Sum of Mulliken charges =  -0.00000

 Dipole moment (field-independent basis, Debye):
    X=             -1.3563    Y=              2.2019    Z=             -0.0000  Tot=              2.5861

 Test job not archived.
 1\1\GINC-SE335\SP\RHF\Aug-CC-pVDZ\C2H3Cl1O1S2\OHZDE\09-Apr-2025\0\\#t
 hf aug-cc-pvdz iop(5/13=1,5/36=2,99/5=2) pseudo=read geom=check guess=
 (read,tcheck) scf=(maxcycle=1)\\title\\0,1\Cl,0,2.429767,0.425316,0.00
 0046\S,0,0.889259,-1.005251,-0.000016\C,0,-0.610739,-0.125367,-0.00008
 2\S,0,-1.921466,-1.12109,0.00003\O,0,-0.540751,1.185017,-0.000058\C,0,
 -1.773088,1.943403,-0.000009\H,0,-1.455691,2.982575,0.000003\H,0,-2.35
 3015,1.710066,0.893017\H,0,-2.353062,1.7101,-0.893014\\Version=ES64L-G
 16RevC.01\State=1-A\HF=-1407.0090707\RMSD=4.480e-03\Dipole=-0.533603,0

 Normal termination of Gaussian 16 at Wed Apr  9 00:16:43 2025.
