 Gaussian 16, Revision C.01,

 ----------------------------------------------------------------------
 #t hf aug-cc-pvdz symm=none int=(grid=ultrafine) guess=(read,tcheck) s
 table=(opt,rrhf)
 ----------------------------------------------------------------------
 -----
 title
 -----
 Symbolic Z-matrix:
 Charge =  0 Multiplicity = 1

 SCF Done:  E(RHF) =  -878.260341717     A.U. after   14 cycles
 Normal termination of Gaussian 16 at Wed Apr  9 00:22:50 2025.
 Gaussian 16:  ES64L-G16RevC.01  3-Jul-2019

 ----------------------------------------------------------------------
 #t hf aug-cc-pvdz iop(5/13=1,5/36=2,99/5=2) pseudo=read geom=check gue
 ss=(read,tcheck) scf=(maxcycle=1)
 ----------------------------------------------------------------------
 -----
 title
 -----
 Structure from the checkpoint file:  "BDE49_nonexpt_2678_mol1.chk"
 Charge =  0 Multiplicity = 1

                         Standard orientation:
 ---------------------------------------------------------------------
 Center     Atomic      Atomic             Coordinates (Angstroms)
 Number     Number       Type             X           Y           Z
 ---------------------------------------------------------------------
      1          9           0        2.366486   -0.101436   -0.114181
      2         16           0        1.090128   -0.283421   -1.197780
      3          6           0       -0.341848    0.070726   -0.025966
      4          8           0       -1.346265   -0.515335   -0.781695
      5          8           0       -0.609172    1.407984    0.130375
      6          8           0       -0.166717   -0.478254    1.229959
      7          6           0       -2.694348   -0.104448   -0.485825
      8          1           0       -3.330870   -0.788527   -1.044092
      9          1           0       -2.866535    0.922283   -0.808812
     10          1           0       -2.897192   -0.195454    0.583603
     11          6           0        0.366720    2.186434    0.835081
     12          1           0       -0.036128    3.196930    0.868792
     13          1           0        1.318351    2.185527    0.298003
     14          1           0        0.512373    1.804040    1.845975
     15          6           0        0.147735   -1.875118    1.306470
     16          1           0       -0.037777   -2.160287    2.341088
     17          1           0        1.197530   -2.041723    1.059566
     18          1           0       -0.492503   -2.455856    0.640309
 ---------------------------------------------------------------------

 SCF Done:  E(RHF) =  -878.441628486     A.U. after    2 cycles

 The electronic state is 1-A.
 Alpha  occ. eigenvalues --  -93.61230 -26.12055 -20.60492 -20.60183 -20.59962
 Alpha  occ. eigenvalues --  -11.45466 -11.29724 -11.29326 -11.29123  -8.90128
 Alpha  occ. eigenvalues --   -6.24331  -6.23926  -6.23533  -1.62969  -1.44170
 Alpha  occ. eigenvalues --   -1.33913  -1.33505  -1.02922  -0.97094  -0.94655
 Alpha  occ. eigenvalues --   -0.93661  -0.80973  -0.75125  -0.74465  -0.74074
 Alpha  occ. eigenvalues --   -0.72325  -0.70799  -0.65629  -0.65314  -0.63090
 Alpha  occ. eigenvalues --   -0.62389  -0.61139  -0.60173  -0.55875  -0.54222
 Alpha  occ. eigenvalues --   -0.52816  -0.51221  -0.48671  -0.47948  -0.43608
 Alpha  occ. eigenvalues --   -0.38295
 Alpha virt. eigenvalues --    0.03409   0.04468   0.04589   0.05528   0.06235
 Alpha virt. eigenvalues --    0.06361   0.06696   0.07350   0.08004   0.08852
 Alpha virt. eigenvalues --    0.09442   0.11184   0.12899   0.13638   0.14909

 Mulliken charges:
               1
     1  F   -0.679033
     2  S    0.705557
     3  C    0.854381
     4  O   -0.623487
     5  O   -0.716063
     6  O   -0.694200
     7  C    0.745408
     8  H   -0.237513
     9  H   -0.068042
    10  H   -0.046187
    11  C    0.741937
    12  H   -0.243217
    13  H   -0.067510
    14  H   -0.073972
    15  C    0.786597
    16  H   -0.230704
    17  H   -0.099063
    18  H   -0.054888
 Sum of Mulliken charges =  -0.00000

 Dipole moment (field-independent basis, Debye):
    X=             -2.2023    Y=             -0.2402    Z=              0.8210  Tot=              2.3626

 Test job not archived.
 1\1\GINC-SE177\SP\RHF\Aug-CC-pVDZ\C4H9F1O3S1\OHZDE\09-Apr-2025\0\\#t h
 f aug-cc-pvdz iop(5/13=1,5/36=2,99/5=2) pseudo=read geom=check guess=(
 read,tcheck) scf=(maxcycle=1)\\title\\0,1\F,0,2.366486,-0.101436,-0.11
 4181\S,0,1.090128,-0.283421,-1.19778\C,0,-0.341848,0.070726,-0.025966\
 O,0,-1.346265,-0.515335,-0.781695\O,0,-0.609172,1.407984,0.130375\O,0,
 -0.166717,-0.478254,1.229959\C,0,-2.694348,-0.104448,-0.485825\H,0,-3.
 33087,-0.788526,-1.044092\H,0,-2.866535,0.922283,-0.808812\H,0,-2.8971
 92,-0.195453,0.583603\C,0,0.36672,2.186434,0.835081\H,0,-0.036128,3.19

 Normal termination of Gaussian 16 at Wed Apr  9 00:23:00 2025.
