 Gaussian 16, Revision C.01,

 ----------------------------------------------------------------------
 #t hf aug-cc-pvdz symm=none int=(grid=ultrafine) guess=(read,tcheck) s
 table=(opt,rrhf)
 ----------------------------------------------------------------------
 -----
 title
 -----
 Symbolic Z-matrix:
 Charge =  0 Multiplicity = 1

 SCF Done:  E(RHF) =  -436.545632623     A.U. after   12 cycles
 Normal termination of Gaussian 16 at Tue Apr  8 23:35:04 2025.
 Gaussian 16:  ES64L-G16RevC.01  3-Jul-2019

 ----------------------------------------------------------------------
 #t hf aug-cc-pvdz iop(5/13=1,5/36=2,99/5=2) pseudo=read geom=check gue
 ss=(read,tcheck) scf=(maxcycle=1)
 ----------------------------------------------------------------------
 -----
 title
 -----
 Structure from the checkpoint file:  "BDE49_nonexpt_1533_mol1.chk"
 Charge =  0 Multiplicity = 1

                         Standard orientation:
 ---------------------------------------------------------------------
 Center     Atomic      Atomic             Coordinates (Angstroms)
 Number     Number       Type             X           Y           Z
 ---------------------------------------------------------------------
      1         15           0       -1.144574   -0.015392    0.013268
      2          7           0        0.452461    0.574343   -0.099318
      3          6           0        1.624943   -0.286110    0.015736
      4          1           0        2.533590    0.297877   -0.154218
      5          1           0        1.580509   -1.063592   -0.751594
      6          1           0        1.707185   -0.783356    0.993652
      7          1           0       -1.041388   -1.034765    1.016710
      8          1           0       -1.093554   -0.966458   -1.041222
      9          1           0        0.565389    1.477431    0.338469
 ---------------------------------------------------------------------

 SCF Done:  E(RHF) =  -436.603977984     A.U. after    2 cycles

 The electronic state is 1-A.
 Alpha  occ. eigenvalues --  -81.27235 -15.61883 -11.26767  -7.77251  -4.91379
 Alpha  occ. eigenvalues --   -4.91090  -4.90899  -1.15205  -0.91167  -0.77862
 Alpha  occ. eigenvalues --   -0.64063  -0.60211  -0.58816  -0.52278  -0.50645
 Alpha  occ. eigenvalues --   -0.37879  -0.35317
 Alpha virt. eigenvalues --    0.03408   0.04637   0.05172   0.06007   0.07562
 Alpha virt. eigenvalues --    0.08991   0.10048   0.11012   0.11851   0.13079
 Alpha virt. eigenvalues --    0.15797   0.16186   0.16901   0.18824   0.19768

 Mulliken charges:
               1
     1  P    0.410264
     2  N   -0.667901
     3  C    0.748586
     4  H   -0.176915
     5  H   -0.157265
     6  H   -0.091632
     7  H   -0.008895
     8  H   -0.003585
     9  H   -0.052657
 Sum of Mulliken charges =  -0.00000

 Dipole moment (field-independent basis, Debye):
    X=              1.4255    Y=             -0.1774    Z=              0.6061  Tot=              1.5592

 Test job not archived.
 1\1\GINC-SE460\SP\RHF\Aug-CC-pVDZ\C1H6N1P1\OHZDE\08-Apr-2025\0\\#t hf
 aug-cc-pvdz iop(5/13=1,5/36=2,99/5=2) pseudo=read geom=check guess=(re
 ad,tcheck) scf=(maxcycle=1)\\title\\0,1\P,0,-1.144574,-0.015392,0.0132
 68\N,0,0.452461,0.574343,-0.099318\C,0,1.624943,-0.28611,0.015736\H,0,
 2.53359,0.297877,-0.154218\H,0,1.580509,-1.063592,-0.751594\H,0,1.7071
 85,-0.783356,0.993652\H,0,-1.041388,-1.034765,1.01671\H,0,-1.093554,-0
 .966458,-1.041222\H,0,0.565389,1.477431,0.338469\\Version=ES64L-G16Rev
 C.01\State=1-A\HF=-436.603978\RMSD=7.517e-03\Dipole=0.5608537,-0.06980

 Normal termination of Gaussian 16 at Tue Apr  8 23:35:07 2025.
