 Gaussian 16, Revision C.01,

 ----------------------------------------------------------------------
 #t hf aug-cc-pvdz symm=none int=(grid=ultrafine) guess=(read,tcheck) s
 table=(opt,rrhf)
 ----------------------------------------------------------------------
 -----
 title
 -----
 Symbolic Z-matrix:
 Charge =  0 Multiplicity = 1

 SCF Done:  E(RHF) =  -785.836971065     A.U. after   14 cycles
 Normal termination of Gaussian 16 at Tue Apr  8 23:24:16 2025.
 Gaussian 16:  ES64L-G16RevC.01  3-Jul-2019

 ----------------------------------------------------------------------
 #t hf aug-cc-pvdz iop(5/13=1,5/36=2,99/5=2) pseudo=read geom=check gue
 ss=(read,tcheck) scf=(maxcycle=1)
 ----------------------------------------------------------------------
 -----
 title
 -----
 Structure from the checkpoint file:  "BDE49_nonexpt_1206_mol1.chk"
 Charge =  0 Multiplicity = 1

                         Standard orientation:
 ---------------------------------------------------------------------
 Center     Atomic      Atomic             Coordinates (Angstroms)
 Number     Number       Type             X           Y           Z
 ---------------------------------------------------------------------
      1          6           0       -2.031460   -0.752120    0.463386
      2          8           0       -1.032855   -0.992674   -0.549808
      3         16           0        0.127559   -2.156434   -0.160386
      4          6           0        1.410190   -1.145131    0.645696
      5          6           0       -3.086648    0.169432   -0.134633
      6          6           0        2.067915   -0.110568   -0.267688
      7          1           0        0.990322   -0.679617    1.542307
      8          1           0       -2.480422   -1.703870    0.765720
      9          6           0       -2.576106    1.549601   -0.576681
     10          1           0       -3.881731    0.288812    0.612549
     11          1           0       -3.534442   -0.343175   -0.992086
     12          6           0       -2.083087    2.439591    0.569079
     13          1           0       -3.389172    2.062109   -1.101928
     14          1           0       -1.776099    1.410133   -1.309225
     15          1           0       -2.867532    2.595645    1.317017
     16          1           0       -1.780466    3.422393    0.197836
     17          1           0       -1.218827    2.006851    1.080655
     18          6           0        3.108032    0.752091    0.459067
     19          1           0        1.287593    0.529513   -0.691212
     20          6           0        3.765887    1.788526   -0.456612
     21          1           0        3.880362    0.104534    0.891995
     22          1           0        2.630381    1.262778    1.304003
     23          1           0        4.284450    1.306263   -1.290765
     24          1           0        4.498355    2.391968    0.086187
     25          1           0        3.021231    2.469298   -0.880121
     26          1           0       -1.561309   -0.305628    1.347558
     27          1           0        2.535784   -0.627362   -1.112434
     28          1           0        2.135073   -1.894843    0.986889
 ---------------------------------------------------------------------

 SCF Done:  E(RHF) =  -785.984929746     A.U. after    2 cycles

 The electronic state is 1-A.
 Alpha  occ. eigenvalues --  -93.57072 -20.59161 -11.28801 -11.26765 -11.23441
 Alpha  occ. eigenvalues --  -11.23327 -11.23123 -11.22702 -11.22607 -11.22394
 Alpha  occ. eigenvalues --   -8.86160  -6.20410  -6.20051  -6.19712  -1.32454
 Alpha  occ. eigenvalues --   -1.08072  -1.06141  -1.01163  -0.97181  -0.91120
 Alpha  occ. eigenvalues --   -0.87252  -0.82018  -0.79726  -0.77454  -0.67157
 Alpha  occ. eigenvalues --   -0.65924  -0.64302  -0.61943  -0.60018  -0.59892
 Alpha  occ. eigenvalues --   -0.58597  -0.57227  -0.54941  -0.54458  -0.52637
 Alpha  occ. eigenvalues --   -0.51674  -0.50107  -0.49572  -0.48209  -0.47608
 Alpha  occ. eigenvalues --   -0.47278  -0.46192  -0.45887  -0.41694  -0.34276
 Alpha virt. eigenvalues --    0.03278   0.03987   0.04245   0.04581   0.05172
 Alpha virt. eigenvalues --    0.05437   0.05783   0.06563   0.06866   0.07500
 Alpha virt. eigenvalues --    0.07646   0.07949   0.08158   0.09383   0.09672

 Mulliken charges:
               1
     1  C    0.718044
     2  O   -0.921922
     3  S    0.716969
     4  C    0.196911
     5  C    0.218863
     6  C   -0.051949
     7  H   -0.134150
     8  H   -0.135319
     9  C    0.222796
    10  H   -0.054985
    11  H   -0.097465
    12  C    0.394354
    13  H   -0.097589
    14  H   -0.091212
    15  H   -0.081264
    16  H   -0.104396
    17  H   -0.174586
    18  C    0.277888
    19  H   -0.298763
    20  C    0.426849
    21  H   -0.141692
    22  H   -0.139203
    23  H   -0.073454
    24  H   -0.063797
    25  H   -0.082763
    26  H   -0.268935
    27  H   -0.086011
    28  H   -0.073219
 Sum of Mulliken charges =  -0.00000

 Dipole moment (field-independent basis, Debye):
    X=              0.3941    Y=              1.0770    Z=              1.6817  Tot=              2.0355

 Test job not archived.
 1\1\GINC-SE455\SP\RHF\Aug-CC-pVDZ\C8H18O1S1\OHZDE\08-Apr-2025\0\\#t hf
  aug-cc-pvdz iop(5/13=1,5/36=2,99/5=2) pseudo=read geom=check guess=(r
 ead,tcheck) scf=(maxcycle=1)\\title\\0,1\C,0,-2.03146,-0.75212,0.46338
 6\O,0,-1.032855,-0.992674,-0.549808\S,0,0.127559,-2.156434,-0.160386\C
 ,0,1.41019,-1.145131,0.645696\C,0,-3.086648,0.169432,-0.134633\C,0,2.0
 67915,-0.110568,-0.267688\H,0,0.990322,-0.679617,1.542307\H,0,-2.48042
 2,-1.70387,0.76572\C,0,-2.576106,1.549601,-0.576681\H,0,-3.881731,0.28
 8812,0.612549\H,0,-3.534442,-0.343175,-0.992086\C,0,-2.083087,2.439591

 Normal termination of Gaussian 16 at Tue Apr  8 23:24:36 2025.
