 Gaussian 16, Revision C.01,

 ----------------------------------------------------------------------
 #t hf aug-cc-pvdz symm=none int=(grid=ultrafine) guess=(read,tcheck) s
 table=opt
 ----------------------------------------------------------------------
 -----
 title
 -----
 Symbolic Z-matrix:
 Charge =  0 Multiplicity = 2

 SCF Done:  E(UHF) =  -297.881560277     A.U. after   17 cycles

 1\1\GINC-SE092\Stability\UHF\Aug-CC-pVDZ\C7H14B1\OHZDE\09-Apr-2025\0\\
 #t hf aug-cc-pvdz symm=none int=(grid=ultrafine) guess=(read,tcheck) s
 table=opt\\title\\0,2\C,0,0.23287,-1.34514,0.162378\C,0,1.685676,-1.10
 8037,-0.274233\C,0,2.214177,0.241199,0.232415\C,0,1.295219,1.395236,-0
 .192131\C,0,-0.155849,1.150123,0.244001\C,0,-2.149314,-0.425823,0.2033
 14\C,0,-0.698962,-0.197021,-0.263812\B,0,-3.2693,0.49269,-0.321116\H,0
 ,-4.413542,0.528402,0.01325\H,0,0.194146,-1.445442,1.256114\H,0,-0.134
 248,-2.293121,-0.24759\H,0,1.740112,-1.127424,-1.370485\H,0,2.323372,-

 Normal termination of Gaussian 16 at Wed Apr  9 00:38:15 2025.
 Gaussian 16:  ES64L-G16RevC.01  3-Jul-2019

 ----------------------------------------------------------------------
 #t hf aug-cc-pvdz iop(5/13=1,5/36=2,99/5=2) pseudo=read geom=check gue
 ss=(read,tcheck) scf=(maxcycle=1)
 ----------------------------------------------------------------------
 -----
 title
 -----
 Structure from the checkpoint file:  "BDE49_nonexpt_540_mol2.chk"
 Charge =  0 Multiplicity = 2

                         Standard orientation:
 ---------------------------------------------------------------------
 Center     Atomic      Atomic             Coordinates (Angstroms)
 Number     Number       Type             X           Y           Z
 ---------------------------------------------------------------------
      1          6           0        0.232870   -1.345140    0.162378
      2          6           0        1.685676   -1.108037   -0.274233
      3          6           0        2.214177    0.241199    0.232415
      4          6           0        1.295219    1.395236   -0.192131
      5          6           0       -0.155849    1.150123    0.244001
      6          6           0       -2.149314   -0.425823    0.203314
      7          6           0       -0.698962   -0.197021   -0.263812
      8          5           0       -3.269300    0.492690   -0.321116
      9          1           0       -4.413542    0.528402    0.013250
     10          1           0        0.194146   -1.445442    1.256114
     11          1           0       -0.134248   -2.293121   -0.247590
     12          1           0        1.740112   -1.127424   -1.370485
     13          1           0        2.323372   -1.923784    0.081838
     14          1           0        3.231787    0.411709   -0.133801
     15          1           0        2.277409    0.215032    1.328202
     16          1           0        1.329964    1.501487   -1.284064
     17          1           0        1.657393    2.341511    0.222855
     18          1           0       -0.801974    1.961394   -0.110423
     19          1           0       -0.210994    1.162527    1.341934
     20          1           0       -2.193874   -0.467149    1.305418
     21          1           0       -2.491119   -1.433428   -0.107307
     22          1           0       -0.704838   -0.158382   -1.361955
 ---------------------------------------------------------------------

 SCF Done:  E(UHF) =  -297.970161168     A.U. after    2 cycles

 The electronic state is 2-A.
 Alpha  occ. eigenvalues --  -11.23266 -11.22418 -11.22384 -11.22336 -11.22315
 Alpha  occ. eigenvalues --  -11.22286 -11.21668  -7.63085  -1.10786  -1.02470
 Alpha  occ. eigenvalues --   -0.99333  -0.92333  -0.83025  -0.80612  -0.75161
 Alpha  occ. eigenvalues --   -0.65431  -0.64512  -0.60869  -0.60342  -0.59041
 Alpha  occ. eigenvalues --   -0.55219  -0.54378  -0.52541  -0.51003  -0.48468
 Alpha  occ. eigenvalues --   -0.47911  -0.47216  -0.45097  -0.42911  -0.42364
 Alpha  occ. eigenvalues --   -0.31553
 Alpha virt. eigenvalues --    0.03327   0.03916   0.04004   0.04290   0.05318
 Alpha virt. eigenvalues --    0.05596   0.05979   0.06317   0.06751   0.07593
 Alpha virt. eigenvalues --    0.08310   0.08351   0.08964   0.09171   0.09946

  Beta  occ. eigenvalues --  -11.23194 -11.22420 -11.22385 -11.22337 -11.22318
  Beta  occ. eigenvalues --  -11.22279 -11.21678  -7.61345  -1.10722  -1.02258
  Beta  occ. eigenvalues --   -0.99324  -0.91879  -0.82999  -0.80323  -0.75085
  Beta  occ. eigenvalues --   -0.64393  -0.62397  -0.60692  -0.60210  -0.58063
  Beta  occ. eigenvalues --   -0.54837  -0.53684  -0.52522  -0.50560  -0.48363
  Beta  occ. eigenvalues --   -0.47661  -0.46890  -0.45035  -0.42703  -0.42128
  Beta virt. eigenvalues --    0.03193   0.03926   0.04134   0.04201   0.05518
  Beta virt. eigenvalues --    0.05599   0.05821   0.06324   0.06758   0.07566
  Beta virt. eigenvalues --    0.08150   0.08458   0.09063   0.09173   0.09959

 Mulliken charges and spin densities:
               1          2
     1  C    0.590157   0.003453
     2  C    0.329059  -0.004420
     3  C    0.267765   0.001146
     4  C    0.331233   0.000302
     5  C    0.421826   0.042717
     6  C    0.956377  -0.020956
     7  C   -1.156419  -0.083167
     8  B   -0.533373   1.070749
     9  H    0.488728  -0.008110
    10  H   -0.073469  -0.000104
    11  H   -0.160828   0.002531
    12  H   -0.095558  -0.000427
    13  H   -0.105911  -0.000347
    14  H   -0.127304   0.000004
    15  H   -0.095050   0.000146
    16  H   -0.083562   0.000757
    17  H   -0.101753   0.000635
    18  H   -0.180821  -0.003566
    19  H   -0.098376   0.000407
    20  H   -0.174314   0.017719
    21  H   -0.132114  -0.011010
    22  H   -0.266294  -0.008460
 Sum of Mulliken charges =  -0.00000   1.00000

 Dipole moment (field-independent basis, Debye):
    X=              0.4770    Y=             -0.6428    Z=              0.4910  Tot=              0.9390
                          Isotropic Fermi Contact Couplings
        Atom                 a.u.       MegaHertz       Gauss      10(-4) cm-1
     1  C(13)             -0.00161      -1.80845      -0.64530      -0.60323
     2  C(13)             -0.00035      -0.39555      -0.14114      -0.13194
     3  C(13)              0.00028       0.31689       0.11307       0.10570
     4  C(13)             -0.00033      -0.36959      -0.13188      -0.12328
     5  C(13)              0.00095       1.07195       0.38250       0.35756
     6  C(13)              0.00350       3.93223       1.40312       1.31165
     7  C(13)              0.01907      21.43889       7.64993       7.15124
     8  B(11)              0.24462     350.87094     125.19948     117.03795

 Normal termination of Gaussian 16 at Wed Apr  9 00:38:28 2025.
