 Gaussian 16, Revision C.01,

 ----------------------------------------------------------------------
 #t hf aug-cc-pvdz symm=none int=(grid=ultrafine) guess=(read,tcheck) s
 table=(opt,rrhf)
 ----------------------------------------------------------------------
 -----
 title
 -----
 Symbolic Z-matrix:
 Charge =  0 Multiplicity = 1

 SCF Done:  E(RHF) =  -603.603021792     A.U. after   15 cycles
 Normal termination of Gaussian 16 at Wed Apr  9 00:40:03 2025.
 Gaussian 16:  ES64L-G16RevC.01  3-Jul-2019

 ----------------------------------------------------------------------
 #t hf aug-cc-pvdz iop(5/13=1,5/36=2,99/5=2) pseudo=read geom=check gue
 ss=(read,tcheck) scf=(maxcycle=1)
 ----------------------------------------------------------------------
 -----
 title
 -----
 Structure from the checkpoint file:  "BDE49_nonexpt_651_mol1.chk"
 Charge =  0 Multiplicity = 1

                         Standard orientation:
 ---------------------------------------------------------------------
 Center     Atomic      Atomic             Coordinates (Angstroms)
 Number     Number       Type             X           Y           Z
 ---------------------------------------------------------------------
      1          9           0        3.580406   -0.154262    0.000016
      2          9           0       -0.479424    2.163385   -0.000008
      3          8           0       -2.891300    0.836726   -0.000008
      4          6           0       -0.570331   -0.213258   -0.000011
      5          6           0        1.548192    1.025266    0.000003
      6          1           0        2.072739    1.971096    0.000007
      7          6           0        0.160522    0.978504   -0.000005
      8          6           0        0.187611   -1.399025   -0.000006
      9          1           0       -0.343735   -2.342594   -0.000011
     10          6           0        2.232227   -0.178820    0.000007
     11          6           0        1.576738   -1.401999    0.000003
     12          1           0        2.149966   -2.320008    0.000006
     13          5           0       -2.133575   -0.299703   -0.000025
     14          1           0       -3.841441    0.691311    0.000010
     15          8           0       -2.666473   -1.566397    0.000016
     16          1           0       -3.626078   -1.610039    0.000036
 ---------------------------------------------------------------------

 SCF Done:  E(RHF) =  -603.801600814     A.U. after    2 cycles

 The electronic state is 1-A.
 Alpha  occ. eigenvalues --  -26.14500 -26.13539 -20.59591 -20.59234 -11.35799
 Alpha  occ. eigenvalues --  -11.35641 -11.27032 -11.25727 -11.25333 -11.23542
 Alpha  occ. eigenvalues --   -7.67447  -1.68377  -1.67584  -1.35788  -1.31938
 Alpha  occ. eigenvalues --   -1.16734  -1.03848  -1.03585  -0.89115  -0.88621
 Alpha  occ. eigenvalues --   -0.81315  -0.79973  -0.78484  -0.75947  -0.75897
 Alpha  occ. eigenvalues --   -0.74927  -0.72233  -0.70230  -0.68007  -0.65676
 Alpha  occ. eigenvalues --   -0.61427  -0.60924  -0.60373  -0.56330  -0.53771
 Alpha  occ. eigenvalues --   -0.53662  -0.51746  -0.51531  -0.36004  -0.35372
 Alpha virt. eigenvalues --    0.02276   0.04119   0.04621   0.05334   0.05546
 Alpha virt. eigenvalues --    0.06426   0.07417   0.08642   0.08654   0.09599
 Alpha virt. eigenvalues --    0.10567   0.10753   0.12821   0.13364   0.14028

 Mulliken charges:
               1
     1  F   -0.330649
     2  F   -0.331100
     3  O   -0.474332
     4  C    0.027682
     5  C    0.829931
     6  H   -0.399577
     7  C   -0.050529
     8  C    0.242389
     9  H   -0.588120
    10  C    0.361639
    11  C    0.599470
    12  H   -0.415857
    13  B    0.682511
    14  H    0.163289
    15  O   -0.481166
    16  H    0.164418
 Sum of Mulliken charges =  -0.00000

 Dipole moment (field-independent basis, Debye):
    X=             -3.4300    Y=             -1.9842    Z=             -0.0000  Tot=              3.9626

 Test job not archived.
 1\1\GINC-SE095\SP\RHF\Aug-CC-pVDZ\C6H5B1F2O2\OHZDE\09-Apr-2025\0\\#t h
 f aug-cc-pvdz iop(5/13=1,5/36=2,99/5=2) pseudo=read geom=check guess=(
 read,tcheck) scf=(maxcycle=1)\\title\\0,1\F,0,3.580406,-0.154262,0.000
 016\F,0,-0.479424,2.163385,-0.000008\O,0,-2.8913,0.836726,-0.000008\C,
 0,-0.570331,-0.213258,-0.000011\C,0,1.548192,1.025266,0.000003\H,0,2.0
 72739,1.971096,0.000007\C,0,0.160522,0.978504,-0.000005\C,0,0.187611,-
 1.399025,-0.000006\H,0,-0.343735,-2.342594,-0.000011\C,0,2.232227,-0.1
 7882,0.000007\C,0,1.576738,-1.401999,0.000003\H,0,2.149966,-2.320008,0

 Normal termination of Gaussian 16 at Wed Apr  9 00:40:11 2025.
