 Gaussian 16, Revision C.01,

 ----------------------------------------------------------------------
 #t hf aug-cc-pvdz symm=none int=(grid=ultrafine) guess=(read,tcheck) s
 table=(opt,rrhf)
 ----------------------------------------------------------------------
 -----
 title
 -----
 Symbolic Z-matrix:
 Charge =  0 Multiplicity = 1

 SCF Done:  E(RHF) =  -565.609600603     A.U. after   12 cycles
 Normal termination of Gaussian 16 at Wed Apr  9 00:29:10 2025.
 Gaussian 16:  ES64L-G16RevC.01  3-Jul-2019

 ----------------------------------------------------------------------
 #t hf aug-cc-pvdz iop(5/13=1,5/36=2,99/5=2) pseudo=read geom=check gue
 ss=(read,tcheck) scf=(maxcycle=1)
 ----------------------------------------------------------------------
 -----
 title
 -----
 Structure from the checkpoint file:  "BDE49_nonexpt_361_mol1.chk"
 Charge =  0 Multiplicity = 1

                         Standard orientation:
 ---------------------------------------------------------------------
 Center     Atomic      Atomic             Coordinates (Angstroms)
 Number     Number       Type             X           Y           Z
 ---------------------------------------------------------------------
      1          9           0       -1.207729   -1.130974    0.003979
      2          9           0       -1.207725    1.130976    0.003978
      3          5           0       -0.516657   -0.000000    0.016123
      4         15           0        1.405615   -0.000000   -0.116993
      5          1           0        1.619079   -1.054585    0.801331
      6          1           0        1.619077    1.054575    0.801342
 ---------------------------------------------------------------------

 SCF Done:  E(RHF) =  -565.721555972     A.U. after    2 cycles

 The electronic state is 1-A.
 Alpha  occ. eigenvalues --  -81.26644 -26.14855 -26.14848  -7.77286  -7.76176
 Alpha  occ. eigenvalues --   -4.91261  -4.91227  -4.90957  -1.70198  -1.67955
 Alpha  occ. eigenvalues --   -0.89273  -0.83893  -0.83049  -0.77856  -0.76241
 Alpha  occ. eigenvalues --   -0.73128  -0.72590  -0.53776  -0.50511  -0.38354
 Alpha virt. eigenvalues --    0.03266   0.05643   0.05946   0.05996   0.07957
 Alpha virt. eigenvalues --    0.08746   0.09429   0.10619   0.12997   0.13638
 Alpha virt. eigenvalues --    0.17805   0.18575   0.20849   0.23046   0.24280

 Mulliken charges:
               1
     1  F   -0.426693
     2  F   -0.426693
     3  B    1.002074
     4  P   -0.385617
     5  H    0.118465
     6  H    0.118464
 Sum of Mulliken charges =  -0.00000

 Dipole moment (field-independent basis, Debye):
    X=              1.4345    Y=             -0.0000    Z=              0.6232  Tot=              1.5640

 Test job not archived.
 1\1\GINC-SE049\SP\RHF\Aug-CC-pVDZ\B1F2H2P1\OHZDE\09-Apr-2025\0\\#t hf
 aug-cc-pvdz iop(5/13=1,5/36=2,99/5=2) pseudo=read geom=check guess=(re
 ad,tcheck) scf=(maxcycle=1)\\title\\0,1\F,0,-1.207729,-1.130974,0.0039
 79\F,0,-1.207725,1.130976,0.003978\B,0,-0.516657,0.,0.016123\P,0,1.405
 615,0.,-0.116993\H,0,1.619079,-1.054585,0.801331\H,0,1.619077,1.054575
 ,0.801342\\Version=ES64L-G16RevC.01\State=1-A\HF=-565.721556\RMSD=1.01
 4e-02\Dipole=0.5643747,-0.0000017,0.2451661\Quadrupole=-0.9304098,-0.5
 16792,1.4472018,-0.000011,1.2413115,0.0000105\PG=C01 [X(B1F2H2P1)]\\@

 Normal termination of Gaussian 16 at Wed Apr  9 00:29:12 2025.
