 Gaussian 16, Revision C.01,

 ----------------------------------------------------------------------
 #t hf aug-cc-pvdz symm=none int=(grid=ultrafine) guess=(read,tcheck) s
 table=(opt,rrhf)
 ----------------------------------------------------------------------
 -----
 title
 -----
 Symbolic Z-matrix:
 Charge =  0 Multiplicity = 1

 SCF Done:  E(RHF) =  -609.376155198     A.U. after   16 cycles
 Normal termination of Gaussian 16 at Wed Apr  9 00:28:39 2025.
 Gaussian 16:  ES64L-G16RevC.01  3-Jul-2019

 ----------------------------------------------------------------------
 #t hf aug-cc-pvdz iop(5/13=1,5/36=2,99/5=2) pseudo=read geom=check gue
 ss=(read,tcheck) scf=(maxcycle=1)
 ----------------------------------------------------------------------
 -----
 title
 -----
 Structure from the checkpoint file:  "BDE49_nonexpt_320_mol1.chk"
 Charge =  0 Multiplicity = 1

                         Standard orientation:
 ---------------------------------------------------------------------
 Center     Atomic      Atomic             Coordinates (Angstroms)
 Number     Number       Type             X           Y           Z
 ---------------------------------------------------------------------
      1          6           0        0.007331    1.215949    0.772287
      2          6           0        0.000000    1.203063   -0.617787
      3          6           0       -0.000000   -0.000000    1.445141
      4          6           0       -0.007331   -1.215949    0.772287
      5          6           0       -0.000000   -1.203063   -0.617787
      6          6           0        0.000000    0.000000   -1.343391
      7          1           0       -0.015758   -2.151593   -1.145187
      8          1           0        0.018584    2.137003    1.338189
      9          1           0        0.015758    2.151593   -1.145187
     10          5           0        0.000000    0.000000   -2.925195
     11          8           0        0.688451   -0.927644   -3.648118
     12          8           0       -0.688451    0.927644   -3.648118
     13          7           0       -0.000000   -0.000000    2.927294
     14          8           0       -0.004212   -1.084755    3.492097
     15          8           0        0.004212    1.084755    3.492097
     16          1           0       -0.018584   -2.137003    1.338189
     17          1           0       -1.240116    1.499702   -3.109629
     18          1           0        1.240116   -1.499702   -3.109629
 ---------------------------------------------------------------------

 SCF Done:  E(RHF) =  -609.564007491     A.U. after    2 cycles

 The electronic state is 1-A.
 Alpha  occ. eigenvalues --  -20.62750 -20.62740 -20.59764 -20.59764 -15.92987
 Alpha  occ. eigenvalues --  -11.33323 -11.29454 -11.29453 -11.28766 -11.28759
 Alpha  occ. eigenvalues --  -11.27365  -7.68315  -1.55978  -1.37572  -1.35961
 Alpha  occ. eigenvalues --   -1.32803  -1.19823  -1.09101  -1.05702  -0.96265
 Alpha  occ. eigenvalues --   -0.87762  -0.84293  -0.82267  -0.79827  -0.74879
 Alpha  occ. eigenvalues --   -0.73628  -0.72949  -0.71192  -0.67744  -0.66730
 Alpha  occ. eigenvalues --   -0.63932  -0.62494  -0.62377  -0.59960  -0.54781
 Alpha  occ. eigenvalues --   -0.54109  -0.53763  -0.52465  -0.52419  -0.50617
 Alpha  occ. eigenvalues --   -0.48386  -0.39111  -0.38273
 Alpha virt. eigenvalues --    0.01664   0.02236   0.03179   0.04622   0.04732
 Alpha virt. eigenvalues --    0.05671   0.05966   0.06702   0.07162   0.08426
 Alpha virt. eigenvalues --    0.08485   0.09447   0.10952   0.11383   0.11810

 Mulliken charges:
               1
     1  C    0.164295
     2  C    0.958271
     3  C    1.216838
     4  C    0.164295
     5  C    0.958271
     6  C   -0.263544
     7  H   -0.625348
     8  H   -0.460029
     9  H   -0.625348
    10  B    0.650966
    11  O   -0.548647
    12  O   -0.548647
    13  N    0.087675
    14  O   -0.555962
    15  O   -0.555962
    16  H   -0.460029
    17  H    0.221453
    18  H    0.221453
 Sum of Mulliken charges =  -0.00000

 Dipole moment (field-independent basis, Debye):
    X=             -0.0000    Y=             -0.0000    Z=             -2.0203  Tot=              2.0203

 Test job not archived.
 1\1\GINC-SE247\SP\RHF\Aug-CC-pVDZ\C6H6B1N1O4\OHZDE\09-Apr-2025\0\\#t h
 f aug-cc-pvdz iop(5/13=1,5/36=2,99/5=2) pseudo=read geom=check guess=(
 read,tcheck) scf=(maxcycle=1)\\title\\0,1\C,0,0.007331,1.215949,0.7722
 87\C,0,0.,1.203063,-0.617787\C,0,0.,0.,1.445141\C,0,-0.007331,-1.21594
 9,0.772287\C,0,0.,-1.203063,-0.617787\C,0,0.,0.,-1.343391\H,0,-0.01575
 8,-2.151593,-1.145187\H,0,0.018584,2.137003,1.338189\H,0,0.015758,2.15
 1593,-1.145187\B,0,0.,0.,-2.925195\O,0,0.688451,-0.927644,-3.648118\O,
 0,-0.688451,0.927644,-3.648118\N,0,0.,0.,2.927294\O,0,-0.004212,-1.084

 Normal termination of Gaussian 16 at Wed Apr  9 00:28:46 2025.
