 Gaussian 16, Revision C.01,

 ----------------------------------------------------------------------
 #t hf aug-cc-pvdz symm=none int=(grid=ultrafine) guess=(read,tcheck) s
 table=(opt,rrhf)
 ----------------------------------------------------------------------
 -----
 title
 -----
 Symbolic Z-matrix:
 Charge =  0 Multiplicity = 1

 SCF Done:  E(RHF) =  -708.550044987     A.U. after   15 cycles
 Normal termination of Gaussian 16 at Tue Apr  8 23:43:24 2025.
 Gaussian 16:  ES64L-G16RevC.01  3-Jul-2019

 ----------------------------------------------------------------------
 #t hf aug-cc-pvdz iop(5/13=1,5/36=2,99/5=2) pseudo=read geom=check gue
 ss=(read,tcheck) scf=(maxcycle=1)
 ----------------------------------------------------------------------
 -----
 title
 -----
 Structure from the checkpoint file:  "BDE49_nonexpt_157_mol1.chk"
 Charge =  0 Multiplicity = 1

                         Standard orientation:
 ---------------------------------------------------------------------
 Center     Atomic      Atomic             Coordinates (Angstroms)
 Number     Number       Type             X           Y           Z
 ---------------------------------------------------------------------
      1          5           0        0.708368    1.695046   -0.434761
      2          5           0       -0.708360    1.695037    0.434813
      3          6           0       -1.974612    0.836171    0.208688
      4          6           0       -3.131239    1.028181    0.995474
      5          6           0       -2.031786   -0.169786   -0.781509
      6          6           0       -3.168261   -0.941831   -0.981599
      7          6           0       -4.274806   -0.704300   -0.175983
      8          6           0       -4.280559    0.269439    0.813668
      9          1           0       -1.162976   -0.350471   -1.405336
     10          1           0       -3.216210   -1.714140   -1.739279
     11          6           0        1.974616    0.836166   -0.208663
     12          6           0        3.131308    1.028320   -0.995318
     13          6           0        2.031720   -0.169950    0.781377
     14          6           0        3.168187   -0.942013    0.981438
     15          6           0        4.274799   -0.704336    0.175954
     16          6           0        4.280623    0.269564   -0.813538
     17          1           0        1.162860   -0.350747    1.405101
     18          1           0        3.216083   -1.714446    1.738995
     19          9           0       -5.383235   -1.447652   -0.361954
     20          9           0        5.383222   -1.447705    0.361899
     21          1           0       -3.120062    1.792568    1.764313
     22          1           0        3.120186    1.792831   -1.764035
     23          1           0        5.169821    0.414248   -1.414616
     24          1           0       -5.169708    0.414014    1.414845
     25          1           0       -0.779660    2.504951    1.323947
     26          1           0        0.779808    2.505239   -1.323629
 ---------------------------------------------------------------------

 SCF Done:  E(RHF) =  -708.767469458     A.U. after    2 cycles

 The electronic state is 1-A.
 Alpha  occ. eigenvalues --  -26.14655 -26.14654 -11.35837 -11.35837 -11.27246
 Alpha  occ. eigenvalues --  -11.27246 -11.27098 -11.27098 -11.25927 -11.25927
 Alpha  occ. eigenvalues --  -11.25874 -11.25874 -11.23358 -11.23357  -7.59127
 Alpha  occ. eigenvalues --   -7.59044  -1.68589  -1.68589  -1.16328  -1.16196
 Alpha  occ. eigenvalues --   -1.03581  -1.03580  -1.03018  -1.02693  -0.87643
 Alpha  occ. eigenvalues --   -0.87252  -0.87012  -0.86913  -0.77719  -0.77713
 Alpha  occ. eigenvalues --   -0.76016  -0.76016  -0.75111  -0.75030  -0.73974
 Alpha  occ. eigenvalues --   -0.69861  -0.64755  -0.63648  -0.63034  -0.62807
 Alpha  occ. eigenvalues --   -0.61558  -0.61450  -0.61408  -0.56768  -0.52105
 Alpha  occ. eigenvalues --   -0.52047  -0.51579  -0.51431  -0.48473  -0.47899
 Alpha  occ. eigenvalues --   -0.41855  -0.36268  -0.36150  -0.35612  -0.35518
 Alpha virt. eigenvalues --    0.02754   0.03543   0.03988   0.04042   0.04776
 Alpha virt. eigenvalues --    0.04977   0.04979   0.05494   0.06230   0.06399
 Alpha virt. eigenvalues --    0.06433   0.07259   0.07988   0.08224   0.09101

 Mulliken charges:
               1
     1  B   -0.621212
     2  B   -0.621355
     3  C   -0.507390
     4  C    0.557263
     5  C    1.174571
     6  C    0.510073
     7  C    0.532665
     8  C    0.532947
     9  H   -0.639501
    10  H   -0.444111
    11  C   -0.507478
    12  C    0.557279
    13  C    1.174445
    14  C    0.510179
    15  C    0.532679
    16  C    0.532964
    17  H   -0.639485
    18  H   -0.444109
    19  F   -0.341454
    20  F   -0.341458
    21  H   -0.640115
    22  H   -0.640127
    23  H   -0.413886
    24  H   -0.413887
    25  H    0.300256
    26  H    0.300245
 Sum of Mulliken charges =  -0.00000

 Dipole moment (field-independent basis, Debye):
    X=             -0.0001    Y=              0.8973    Z=             -0.0001  Tot=              0.8973

 Test job not archived.
 1\1\GINC-SE333\SP\RHF\Aug-CC-pVDZ\C12H10B2F2\OHZDE\08-Apr-2025\0\\#t h
 f aug-cc-pvdz iop(5/13=1,5/36=2,99/5=2) pseudo=read geom=check guess=(
 read,tcheck) scf=(maxcycle=1)\\title\\0,1\B,0,0.708368,1.695046,-0.434
 761\B,0,-0.70836,1.695037,0.434813\C,0,-1.974612,0.836171,0.208688\C,0
 ,-3.131239,1.028181,0.995474\C,0,-2.031786,-0.169786,-0.781509\C,0,-3.
 168261,-0.941831,-0.981599\C,0,-4.274806,-0.7043,-0.175983\C,0,-4.2805
 59,0.269439,0.813668\H,0,-1.162976,-0.350471,-1.405336\H,0,-3.21621,-1
 .71414,-1.739279\C,0,1.974616,0.836166,-0.208663\C,0,3.131308,1.02832,

 Normal termination of Gaussian 16 at Tue Apr  8 23:43:50 2025.
