 Gaussian 16, Revision C.01,

 ----------------------------------------------------------------------
 #t hf aug-cc-pvdz symm=none int=(grid=ultrafine) guess=(read,tcheck) s
 table=(opt,rrhf)
 ----------------------------------------------------------------------
 -----
 title
 -----
 Symbolic Z-matrix:
 Charge =  0 Multiplicity = 1

 SCF Done:  E(RHF) =  -949.323311400     A.U. after   14 cycles
 Normal termination of Gaussian 16 at Wed Apr  9 00:16:03 2025.
 Gaussian 16:  ES64L-G16RevC.01  3-Jul-2019

 ----------------------------------------------------------------------
 #t hf aug-cc-pvdz iop(5/13=1,5/36=2,99/5=2) pseudo=read geom=check gue
 ss=(read,tcheck) scf=(maxcycle=1)
 ----------------------------------------------------------------------
 -----
 title
 -----
 Structure from the checkpoint file:  "BDE49_nonexpt_2562_mol1.chk"
 Charge =  0 Multiplicity = 1

                         Standard orientation:
 ---------------------------------------------------------------------
 Center     Atomic      Atomic             Coordinates (Angstroms)
 Number     Number       Type             X           Y           Z
 ---------------------------------------------------------------------
      1         17           0        1.505957   -0.495423    0.000000
      2         16           0       -0.040550    0.894165   -0.000001
      3          6           0       -1.392515   -0.117312    0.000000
      4          7           0       -2.371055   -0.740083    0.000001
 ---------------------------------------------------------------------

 SCF Done:  E(RHF) =  -949.392264679     A.U. after    2 cycles

 The electronic state is 1-A.
 Alpha  occ. eigenvalues -- -103.72332 -93.67201 -15.68415 -11.33779 -10.75446
 Alpha  occ. eigenvalues --   -8.96428  -8.41181  -8.40797  -8.40766  -6.30526
 Alpha  occ. eigenvalues --   -6.30279  -6.29798  -1.23559  -1.20482  -1.02957
 Alpha  occ. eigenvalues --   -0.71325  -0.60047  -0.58267  -0.58143  -0.52219
 Alpha  occ. eigenvalues --   -0.51202  -0.49144  -0.41030
 Alpha virt. eigenvalues --   -0.00530   0.05328   0.08286   0.08953   0.10778
 Alpha virt. eigenvalues --    0.11287   0.12060   0.13437   0.14192   0.14968
 Alpha virt. eigenvalues --    0.15947   0.16123   0.17144   0.19430   0.22379

 Mulliken charges:
               1
     1  Cl  -0.212960
     2  S    0.654368
     3  C   -0.295675
     4  N   -0.145733
 Sum of Mulliken charges =  -0.00000

 Dipole moment (field-independent basis, Debye):
    X=              1.8545    Y=              1.7805    Z=             -0.0000  Tot=              2.5709

 Test job not archived.
 1\1\GINC-SE128\SP\RHF\Aug-CC-pVDZ\C1Cl1N1S1\OHZDE\09-Apr-2025\0\\#t hf
  aug-cc-pvdz iop(5/13=1,5/36=2,99/5=2) pseudo=read geom=check guess=(r
 ead,tcheck) scf=(maxcycle=1)\\title\\0,1\Cl,0,1.505957,-0.495423,0.\S,
 0,-0.04055,0.894165,-0.000001\C,0,-1.392515,-0.117312,0.\N,0,-2.371055
 ,-0.740083,0.000001\\Version=ES64L-G16RevC.01\State=1-A\HF=-949.392264
 7\RMSD=4.421e-03\Dipole=0.7296155,0.7005211,-0.0000009\Quadrupole=-2.7
 81143,2.1940325,0.5871106,-2.7803986,0.0000036,-0.0000007\PG=C01 [X(C1
 Cl1N1S1)]\\@

 Normal termination of Gaussian 16 at Wed Apr  9 00:16:05 2025.
