 Gaussian 16, Revision C.01,

 ----------------------------------------------------------------------
 #t hf aug-cc-pvdz symm=none int=(grid=ultrafine) guess=(read,tcheck) s
 table=(opt,rrhf)
 ----------------------------------------------------------------------
 -----
 title
 -----
 Symbolic Z-matrix:
 Charge =  0 Multiplicity = 1

 SCF Done:  E(RHF) =  -554.843094139     A.U. after   12 cycles

 1\1\GINC-SE038\Stability\RHF\Aug-CC-pVDZ\C4H10S1\OHZDE\08-Apr-2025\0\\
 #t hf aug-cc-pvdz symm=none int=(grid=ultrafine) guess=(read,tcheck) s
 table=(opt,rrhf)\\title\\0,1\S,0,-0.770179,-0.708065,-0.321855\C,0,0.7
 28142,0.125445,0.366015\C,0,1.911757,-0.823505,0.161263\H,0,2.821656,-
 0.382517,0.578762\H,0,2.08703,-1.006447,-0.902988\H,0,1.741893,-1.7854
 26,0.649236\C,0,0.982685,1.496998,-0.260207\H,0,0.547641,0.239725,1.43
 9895\H,0,0.14261,2.178517,-0.110567\H,0,1.155994,1.403563,-1.335412\H,
 0,1.86666,1.960107,0.19195\C,0,-2.101034,0.370205,0.297929\H,0,-2.0634

 Normal termination of Gaussian 16 at Tue Apr  8 22:45:46 2025.
 Gaussian 16:  ES64L-G16RevC.01  3-Jul-2019

 ----------------------------------------------------------------------
 #t hf aug-cc-pvdz iop(5/13=1,5/36=2,99/5=2) pseudo=read geom=check gue
 ss=(read,tcheck) scf=(maxcycle=1)
 ----------------------------------------------------------------------
 -----
 title
 -----
 Structure from the checkpoint file:  "BDE49_expt_1566_mol1.chk"
 Charge =  0 Multiplicity = 1

                         Standard orientation:
 ---------------------------------------------------------------------
 Center     Atomic      Atomic             Coordinates (Angstroms)
 Number     Number       Type             X           Y           Z
 ---------------------------------------------------------------------
      1         16           0       -0.770179   -0.708065   -0.321855
      2          6           0        0.728142    0.125445    0.366015
      3          6           0        1.911757   -0.823505    0.161263
      4          1           0        2.821656   -0.382517    0.578762
      5          1           0        2.087030   -1.006447   -0.902988
      6          1           0        1.741893   -1.785426    0.649236
      7          6           0        0.982685    1.496998   -0.260207
      8          1           0        0.547641    0.239725    1.439895
      9          1           0        0.142610    2.178517   -0.110567
     10          1           0        1.155994    1.403563   -1.335412
     11          1           0        1.866660    1.960107    0.191950
     12          6           0       -2.101034    0.370205    0.297929
     13          1           0       -2.063487    1.364452   -0.148768
     14          1           0       -2.066448    0.447236    1.386493
     15          1           0       -3.039989   -0.105020    0.011081
 ---------------------------------------------------------------------

 SCF Done:  E(RHF) =  -554.915491968     A.U. after    2 cycles

 The electronic state is 1-A.
 Alpha  occ. eigenvalues --  -93.51773 -11.27196 -11.25993 -11.23173 -11.23134
 Alpha  occ. eigenvalues --   -8.81501  -6.15655  -6.15437  -6.15113  -1.08298
 Alpha  occ. eigenvalues --   -0.99676  -0.93541  -0.85854  -0.76120  -0.63151
 Alpha  occ. eigenvalues --   -0.61247  -0.58938  -0.57970  -0.55788  -0.54492
 Alpha  occ. eigenvalues --   -0.50146  -0.49596  -0.46472  -0.41428  -0.33164
 Alpha virt. eigenvalues --    0.03522   0.04362   0.04955   0.05098   0.06475
 Alpha virt. eigenvalues --    0.06900   0.07221   0.07547   0.08477   0.09602
 Alpha virt. eigenvalues --    0.11018   0.13701   0.13902   0.14580   0.15314

 Mulliken charges:
               1
     1  S    0.385186
     2  C   -0.860341
     3  C    0.639207
     4  H   -0.030804
     5  H   -0.031958
     6  H   -0.086653
     7  C    0.496027
     8  H   -0.137464
     9  H   -0.180724
    10  H   -0.020896
    11  H   -0.023579
    12  C    0.130087
    13  H   -0.079220
    14  H   -0.094452
    15  H   -0.104416
 Sum of Mulliken charges =   0.00000

 Dipole moment (field-independent basis, Debye):
    X=              0.3116    Y=              1.4661    Z=              1.0309  Tot=              1.8192

 Test job not archived.
 1\1\GINC-SE038\SP\RHF\Aug-CC-pVDZ\C4H10S1\OHZDE\08-Apr-2025\0\\#t hf a
 ug-cc-pvdz iop(5/13=1,5/36=2,99/5=2) pseudo=read geom=check guess=(rea
 d,tcheck) scf=(maxcycle=1)\\title\\0,1\S,0,-0.770179,-0.708065,-0.3218
 55\C,0,0.728142,0.125445,0.366015\C,0,1.911757,-0.823505,0.161263\H,0,
 2.821656,-0.382517,0.578762\H,0,2.08703,-1.006447,-0.902988\H,0,1.7418
 93,-1.785426,0.649236\C,0,0.982685,1.496998,-0.260207\H,0,0.547641,0.2
 39725,1.439895\H,0,0.14261,2.178517,-0.110567\H,0,1.155994,1.403563,-1
 .335412\H,0,1.86666,1.960107,0.19195\C,0,-2.101034,0.370205,0.297929\H

 Normal termination of Gaussian 16 at Tue Apr  8 22:45:51 2025.
