 Gaussian 16, Revision C.01,

 ----------------------------------------------------------------------
 #t hf aug-cc-pvdz symm=none int=(grid=ultrafine) guess=(read,tcheck) s
 table=(opt,rrhf)
 ----------------------------------------------------------------------
 -----
 title
 -----
 Symbolic Z-matrix:
 Charge =  0 Multiplicity = 1

 SCF Done:  E(RHF) =  -894.247249116     A.U. after   15 cycles
 Normal termination of Gaussian 16 at Tue Apr  8 23:23:51 2025.
 Gaussian 16:  ES64L-G16RevC.01  3-Jul-2019

 ----------------------------------------------------------------------
 #t hf aug-cc-pvdz iop(5/13=1,5/36=2,99/5=2) pseudo=read geom=check gue
 ss=(read,tcheck) scf=(maxcycle=1)
 ----------------------------------------------------------------------
 -----
 title
 -----
 Structure from the checkpoint file:  "BDE49_nonexpt_1197_mol1.chk"
 Charge =  0 Multiplicity = 1

                         Standard orientation:
 ---------------------------------------------------------------------
 Center     Atomic      Atomic             Coordinates (Angstroms)
 Number     Number       Type             X           Y           Z
 ---------------------------------------------------------------------
      1          6           0       -1.607364    0.192871   -0.399635
      2          8           0       -0.879812    1.145448   -0.471459
      3         16           0       -0.995592   -1.496633   -0.333241
      4          8           0        0.658810   -1.219476   -0.528249
      5          6           0        1.390232   -0.798187    0.581273
      6          8           0        0.923106   -0.677780    1.672597
      7          6           0       -3.122984    0.245628   -0.345985
      8          6           0        2.813484   -0.527885    0.154015
      9          6           0        2.949386    0.745377   -0.708572
     10          1           0        3.171707   -1.391949   -0.411987
     11          1           0        3.403635   -0.438551    1.068194
     12          6           0        2.564041    2.031536    0.026324
     13          1           0        2.335266    0.629785   -1.605367
     14          1           0        3.990348    0.803949   -1.042281
     15          1           0        3.155671    2.159542    0.938112
     16          1           0        1.507425    2.029602    0.301196
     17          1           0        2.738465    2.902868   -0.610277
     18          6           0       -3.617293    1.265209    0.687383
     19          1           0       -3.527808   -0.751683   -0.141992
     20          1           0       -3.458862    0.526967   -1.350405
     21          1           0       -3.323584    0.972381    1.697870
     22          1           0       -4.705874    1.342741    0.655259
     23          1           0       -3.190758    2.247656    0.481594
 ---------------------------------------------------------------------

 SCF Done:  E(RHF) =  -894.427497936     A.U. after    2 cycles

 The electronic state is 1-A.
 Alpha  occ. eigenvalues --  -93.61420 -20.64197 -20.58583 -20.57367 -11.40280
 Alpha  occ. eigenvalues --  -11.38650 -11.27285 -11.25521 -11.24651 -11.24144
 Alpha  occ. eigenvalues --  -11.21822  -8.90593  -6.24833  -6.24432  -6.24103
 Alpha  occ. eigenvalues --   -1.42259  -1.38301  -1.33606  -1.08239  -1.07098
 Alpha  occ. eigenvalues --   -1.00659  -0.95540  -0.89698  -0.83466  -0.79763
 Alpha  occ. eigenvalues --   -0.74575  -0.70833  -0.69980  -0.68010  -0.65704
 Alpha  occ. eigenvalues --   -0.64798  -0.62840  -0.61545  -0.58997  -0.57801
 Alpha  occ. eigenvalues --   -0.57308  -0.55406  -0.53757  -0.53316  -0.51943
 Alpha  occ. eigenvalues --   -0.51299  -0.50537  -0.48866  -0.48204  -0.45967
 Alpha  occ. eigenvalues --   -0.42205  -0.39280
 Alpha virt. eigenvalues --    0.03266   0.03819   0.04827   0.04902   0.05284
 Alpha virt. eigenvalues --    0.05681   0.05851   0.06981   0.07513   0.07736
 Alpha virt. eigenvalues --    0.08321   0.09066   0.10128   0.10618   0.11197

 Mulliken charges:
               1
     1  C    0.041421
     2  O   -0.521276
     3  S    0.746646
     4  O   -0.872274
     5  C    0.585059
     6  O   -0.466008
     7  C   -0.027703
     8  C    0.184694
     9  C    0.184812
    10  H   -0.004319
    11  H   -0.046740
    12  C    0.411684
    13  H   -0.102664
    14  H   -0.088947
    15  H   -0.045001
    16  H   -0.136071
    17  H   -0.086184
    18  C    0.360540
    19  H   -0.037233
    20  H    0.087465
    21  H   -0.058344
    22  H   -0.056960
    23  H   -0.052596
 Sum of Mulliken charges =  -0.00000

 Dipole moment (field-independent basis, Debye):
    X=             -1.3441    Y=             -0.7331    Z=             -1.5092  Tot=              2.1498

 Test job not archived.
 1\1\GINC-SE343\SP\RHF\Aug-CC-pVDZ\C7H12O3S1\OHZDE\08-Apr-2025\0\\#t hf
  aug-cc-pvdz iop(5/13=1,5/36=2,99/5=2) pseudo=read geom=check guess=(r
 ead,tcheck) scf=(maxcycle=1)\\title\\0,1\C,0,-1.607364,0.192871,-0.399
 635\O,0,-0.879812,1.145448,-0.471459\S,0,-0.995592,-1.496633,-0.333241
 \O,0,0.65881,-1.219476,-0.528249\C,0,1.390232,-0.798187,0.581273\O,0,0
 .923106,-0.67778,1.672597\C,0,-3.122984,0.245628,-0.345985\C,0,2.81348
 4,-0.527885,0.154015\C,0,2.949386,0.745377,-0.708572\H,0,3.171707,-1.3
 91949,-0.411987\H,0,3.403635,-0.438551,1.068194\C,0,2.564041,2.031536,

 Normal termination of Gaussian 16 at Tue Apr  8 23:24:07 2025.
