 Gaussian 16, Revision C.01,

 ----------------------------------------------------------------------
 #t hf aug-cc-pvdz symm=none int=(grid=ultrafine) guess=(read,tcheck) s
 table=(opt,rrhf)
 ----------------------------------------------------------------------
 -----
 title
 -----
 Symbolic Z-matrix:
 Charge =  0 Multiplicity = 1

 SCF Done:  E(RHF) =  -1426.57037703     A.U. after   18 cycles
 Normal termination of Gaussian 16 at Tue Apr  8 23:24:55 2025.
 Gaussian 16:  ES64L-G16RevC.01  3-Jul-2019

 ----------------------------------------------------------------------
 #t hf aug-cc-pvdz iop(5/13=1,5/36=2,99/5=2) pseudo=read geom=check gue
 ss=(read,tcheck) scf=(maxcycle=1)
 ----------------------------------------------------------------------
 -----
 title
 -----
 Structure from the checkpoint file:  "BDE49_nonexpt_1199_mol1.chk"
 Charge =  0 Multiplicity = 1

                         Standard orientation:
 ---------------------------------------------------------------------
 Center     Atomic      Atomic             Coordinates (Angstroms)
 Number     Number       Type             X           Y           Z
 ---------------------------------------------------------------------
      1          6           0        3.382822   -0.168914    0.387032
      2          8           0        3.025590   -0.133220    1.524566
      3          8           0        2.668643    0.375266   -0.671242
      4         16           0        1.142388    1.042308   -0.353810
      5          6           0        0.243380   -0.533175   -0.285729
      6          8           0        0.871073   -1.558649   -0.383215
      7          6           0        4.640990   -0.795192   -0.152112
      8          1           0        5.286184   -1.075737    0.677814
      9          1           0        5.155252   -0.108290   -0.825685
     10          1           0        4.367726   -1.683548   -0.726405
     11          6           0       -1.250531   -0.545776   -0.109894
     12          6           0       -1.828117   -1.827589   -0.101355
     13          6           0       -3.192870   -2.011165    0.049805
     14          6           0       -4.026445   -0.903936    0.199547
     15          6           0       -3.486244    0.375953    0.196778
     16          6           0       -2.113162    0.547274    0.042764
     17          1           0       -3.606040   -3.012501    0.052138
     18          1           0       -4.117932    1.246647    0.313605
     19          1           0       -1.159866   -2.670855   -0.216591
     20          1           0       -5.095915   -1.031445    0.319601
     21         17           0       -1.520530    2.198045    0.055564
 ---------------------------------------------------------------------

 SCF Done:  E(RHF) =  -1426.78450776     A.U. after    2 cycles

 The electronic state is 1-A.
 Alpha  occ. eigenvalues -- -103.69128 -93.61334 -20.63410 -20.58566 -20.56813
 Alpha  occ. eigenvalues --  -11.40141 -11.39689 -11.34783 -11.29466 -11.28545
 Alpha  occ. eigenvalues --  -11.28030 -11.27907 -11.27205 -11.25278 -10.72446
 Alpha  occ. eigenvalues --   -8.90418  -8.38171  -8.37890  -8.37839  -6.24624
 Alpha  occ. eigenvalues --   -6.24258  -6.23872  -1.41855  -1.38462  -1.33067
 Alpha  occ. eigenvalues --   -1.22703  -1.15850  -1.06751  -1.03799  -1.02792
 Alpha  occ. eigenvalues --   -0.97769  -0.89168  -0.85774  -0.81351  -0.76944
 Alpha  occ. eigenvalues --   -0.72477  -0.70776  -0.69619  -0.68432  -0.67058
 Alpha  occ. eigenvalues --   -0.66569  -0.64414  -0.62128  -0.61221  -0.60248
 Alpha  occ. eigenvalues --   -0.58733  -0.56404  -0.55939  -0.55576  -0.54899
 Alpha  occ. eigenvalues --   -0.53505  -0.50898  -0.49939  -0.48634  -0.46866
 Alpha  occ. eigenvalues --   -0.43310  -0.39124  -0.37495  -0.36530
 Alpha virt. eigenvalues --    0.02740   0.03836   0.04165   0.04176   0.05114
 Alpha virt. eigenvalues --    0.05987   0.06408   0.07167   0.07880   0.08015
 Alpha virt. eigenvalues --    0.09648   0.10025   0.10303   0.11337   0.11554

 Mulliken charges:
               1
     1  C    0.376262
     2  O   -0.431689
     3  O   -0.876046
     4  S    0.942185
     5  C   -0.677466
     6  O   -0.496674
     7  C    0.257524
     8  H    0.006317
     9  H    0.011487
    10  H    0.060629
    11  C    2.215057
    12  C   -0.025328
    13  C    0.343833
    14  C    0.422760
    15  C    0.715703
    16  C   -0.503516
    17  H   -0.422728
    18  H   -0.441913
    19  H   -0.662999
    20  H   -0.417460
    21  Cl  -0.395937
 Sum of Mulliken charges =  -0.00000

 Dipole moment (field-independent basis, Debye):
    X=             -3.1368    Y=             -0.6172    Z=             -1.3580  Tot=              3.4735

 Test job not archived.
 1\1\GINC-SE252\SP\RHF\Aug-CC-pVDZ\C9H7Cl1O3S1\OHZDE\08-Apr-2025\0\\#t
 hf aug-cc-pvdz iop(5/13=1,5/36=2,99/5=2) pseudo=read geom=check guess=
 (read,tcheck) scf=(maxcycle=1)\\title\\0,1\C,0,3.382822,-0.168914,0.38
 7032\O,0,3.02559,-0.13322,1.524566\O,0,2.668643,0.375266,-0.671242\S,0
 ,1.142388,1.042308,-0.35381\C,0,0.24338,-0.533175,-0.285729\O,0,0.8710
 73,-1.558649,-0.383215\C,0,4.64099,-0.795192,-0.152112\H,0,5.286184,-1
 .075737,0.677814\H,0,5.155252,-0.10829,-0.825685\H,0,4.367726,-1.68354
 8,-0.726405\C,0,-1.250531,-0.545776,-0.109894\C,0,-1.828117,-1.827589,

 Normal termination of Gaussian 16 at Tue Apr  8 23:25:12 2025.
