 Gaussian 16, Revision C.01,

 ----------------------------------------------------------------------
 #t hf aug-cc-pvdz symm=none int=(grid=ultrafine) guess=(read,tcheck) s
 table=opt
 ----------------------------------------------------------------------
 -----
 title
 -----
 Symbolic Z-matrix:
 Charge =  0 Multiplicity = 2

 SCF Done:  E(UHF) =  -624.756511368     A.U. after   19 cycles
 Normal termination of Gaussian 16 at Tue Apr  8 23:16:54 2025.
 Gaussian 16:  ES64L-G16RevC.01  3-Jul-2019

 ----------------------------------------------------------------------
 #t hf aug-cc-pvdz iop(5/13=1,5/36=2,99/5=2) pseudo=read geom=check gue
 ss=(read,tcheck) scf=(maxcycle=1)
 ----------------------------------------------------------------------
 -----
 title
 -----
 Structure from the checkpoint file:  "BDE49_nonexpt_1062_mol2.chk"
 Charge =  0 Multiplicity = 2

                         Standard orientation:
 ---------------------------------------------------------------------
 Center     Atomic      Atomic             Coordinates (Angstroms)
 Number     Number       Type             X           Y           Z
 ---------------------------------------------------------------------
      1          8           0       -0.134139    1.444204   -0.000142
      2          6           0        0.088140    0.257901    0.000490
      3         16           0        1.747546   -0.318133   -0.000285
      4          8           0       -0.821210   -0.715806    0.000289
      5          6           0       -2.205070   -0.283217    0.000066
      6          1           0       -2.786114   -1.201391   -0.000066
      7          1           0       -2.414981    0.308147   -0.891324
      8          1           0       -2.415272    0.308082    0.891431
 ---------------------------------------------------------------------

 SCF Done:  E(UHF) =  -624.849454520     A.U. after    2 cycles

 The electronic state is 2-A.
 Alpha  occ. eigenvalues --  -93.59136 -20.64410 -20.58160 -11.43696 -11.31715
 Alpha  occ. eigenvalues --   -8.88960  -6.24319  -6.22633  -6.22129  -1.44594
 Alpha  occ. eigenvalues --   -1.35210  -1.05544  -0.97036  -0.80468  -0.71540
 Alpha  occ. eigenvalues --   -0.70659  -0.70113  -0.60200  -0.58780  -0.55901
 Alpha  occ. eigenvalues --   -0.50461  -0.49561  -0.46250  -0.41579
 Alpha virt. eigenvalues --    0.03320   0.05596   0.05927   0.06303   0.08853
 Alpha virt. eigenvalues --    0.11360   0.11913   0.13488   0.13565   0.13731
 Alpha virt. eigenvalues --    0.13972   0.15659   0.17345   0.17439   0.18616

  Beta  occ. eigenvalues --  -93.58201 -20.64387 -20.57966 -11.43812 -11.31704
  Beta  occ. eigenvalues --   -8.87915  -6.22123  -6.21541  -6.20209  -1.44428
  Beta  occ. eigenvalues --   -1.34815  -1.02457  -0.92813  -0.79815  -0.70819
  Beta  occ. eigenvalues --   -0.70669  -0.68049  -0.58976  -0.58662  -0.55598
  Beta  occ. eigenvalues --   -0.50379  -0.46764  -0.39235
  Beta virt. eigenvalues --   -0.00628   0.03328   0.05648   0.05930   0.06499
  Beta virt. eigenvalues --    0.08971   0.11892   0.12864   0.13575   0.13867
  Beta virt. eigenvalues --    0.14002   0.14148   0.15745   0.17454   0.17498

 Mulliken charges and spin densities:
               1          2
     1  O   -0.407012   0.021353
     2  C    0.144209  -0.080053
     3  S    0.327407   1.082509
     4  O   -0.480643  -0.019130
     5  C    0.735549  -0.004280
     6  H   -0.211283   0.000422
     7  H   -0.054097  -0.000409
     8  H   -0.054130  -0.000411
 Sum of Mulliken charges =  -0.00000   1.00000

 Dipole moment (field-independent basis, Debye):
    X=             -1.5184    Y=             -1.8498    Z=              0.0008  Tot=              2.3932
                          Isotropic Fermi Contact Couplings
        Atom                 a.u.       MegaHertz       Gauss      10(-4) cm-1
     1  O(17)              0.02521     -15.28232      -5.45311      -5.09763
     2  C(13)             -0.02343     -26.34219      -9.39955      -8.78681
     3  S(33)              0.22525      77.36834      27.60695      25.80730
     4  O(17)              0.01342      -8.13372      -2.90231      -2.71312
     5  C(13)              0.00205       2.30662       0.82306       0.76941
     6  H(1)               0.00004       0.17632       0.06292       0.05881
     7  H(1)              -0.00007      -0.33462      -0.11940      -0.11162
     8  H(1)              -0.00007      -0.33415      -0.11923      -0.11146

 Normal termination of Gaussian 16 at Tue Apr  8 23:16:56 2025.
