 Gaussian 16, Revision C.01,

 ----------------------------------------------------------------------
 #t hf aug-cc-pvdz symm=none int=(grid=ultrafine) guess=(read,tcheck) s
 table=(opt,rrhf)
 ----------------------------------------------------------------------
 -----
 title
 -----
 Symbolic Z-matrix:
 Charge =  0 Multiplicity = 1

 SCF Done:  E(RHF) =  -624.068006323     A.U. after   15 cycles
 Normal termination of Gaussian 16 at Tue Apr  8 23:25:03 2025.
 Gaussian 16:  ES64L-G16RevC.01  3-Jul-2019

 ----------------------------------------------------------------------
 #t hf aug-cc-pvdz iop(5/13=1,5/36=2,99/5=2) pseudo=read geom=check gue
 ss=(read,tcheck) scf=(maxcycle=1)
 ----------------------------------------------------------------------
 -----
 title
 -----
 Structure from the checkpoint file:  "BDE49_nonexpt_1302_mol1.chk"
 Charge =  0 Multiplicity = 1

                         Standard orientation:
 ---------------------------------------------------------------------
 Center     Atomic      Atomic             Coordinates (Angstroms)
 Number     Number       Type             X           Y           Z
 ---------------------------------------------------------------------
      1         15           0       -0.677652   -0.000055   -0.631612
      2          6           0       -1.273602   -1.430761    0.362522
      3          1           0       -1.105160   -1.302775    1.433341
      4          1           0       -0.766508   -2.332930    0.021274
      5          1           0       -2.344894   -1.542581    0.172830
      6          7           0        1.095158    0.000013   -0.017027
      7          8           0        1.638536   -1.085834    0.124262
      8          8           0        1.638363    1.085920    0.124461
      9          6           0       -1.273619    1.430760    0.362359
     10          1           0       -2.344912    1.542545    0.172652
     11          1           0       -0.766536    2.332896    0.021006
     12          1           0       -1.105179    1.302899    1.433193
 ---------------------------------------------------------------------

 SCF Done:  E(RHF) =  -624.181988892     A.U. after    2 cycles

 The electronic state is 1-A.
 Alpha  occ. eigenvalues --  -81.32549 -20.61447 -20.61437 -15.89233 -11.26576
 Alpha  occ. eigenvalues --  -11.26575  -7.82531  -4.96582  -4.96346  -4.96028
 Alpha  occ. eigenvalues --   -1.53524  -1.35795  -1.02978  -0.96705  -0.92781
 Alpha  occ. eigenvalues --   -0.79401  -0.72920  -0.71120  -0.67862  -0.61833
 Alpha  occ. eigenvalues --   -0.59715  -0.59515  -0.58980  -0.51796  -0.49364
 Alpha  occ. eigenvalues --   -0.47353  -0.47010  -0.38238
 Alpha virt. eigenvalues --    0.02638   0.04166   0.04783   0.05782   0.06964
 Alpha virt. eigenvalues --    0.07271   0.07492   0.08194   0.09447   0.11088
 Alpha virt. eigenvalues --    0.12206   0.14335   0.14813   0.15109   0.16332

 Mulliken charges:
               1
     1  P    0.925374
     2  C    0.196491
     3  H   -0.119643
     4  H   -0.085676
     5  H   -0.089056
     6  N    0.424139
     7  O   -0.576905
     8  O   -0.576870
     9  C    0.196524
    10  H   -0.089073
    11  H   -0.085670
    12  H   -0.119634
 Sum of Mulliken charges =   0.00000

 Dipole moment (field-independent basis, Debye):
    X=             -5.1992    Y=             -0.0001    Z=              0.3279  Tot=              5.2095

 Test job not archived.
 1\1\GINC-SE069\SP\RHF\Aug-CC-pVDZ\C2H6N1O2P1\OHZDE\08-Apr-2025\0\\#t h
 f aug-cc-pvdz iop(5/13=1,5/36=2,99/5=2) pseudo=read geom=check guess=(
 read,tcheck) scf=(maxcycle=1)\\title\\0,1\P,0,0.677652,0.000055,-0.631
 612\C,0,1.273602,1.430761,0.362522\H,0,1.10516,1.302775,1.433341\H,0,0
 .766508,2.33293,0.021274\H,0,2.344894,1.542581,0.17283\N,0,-1.095158,-
 0.000013,-0.017027\O,0,-1.638536,1.085834,0.124262\O,0,-1.638363,-1.08
 592,0.124461\C,0,1.273619,-1.43076,0.362359\H,0,2.344912,-1.542545,0.1
 72652\H,0,0.766536,-2.332896,0.021006\H,0,1.105179,-1.302899,1.433193\

 Normal termination of Gaussian 16 at Tue Apr  8 23:25:07 2025.
