 Gaussian 16, Revision C.01,

 ----------------------------------------------------------------------
 #t hf aug-cc-pvdz symm=none int=(grid=ultrafine) guess=(read,tcheck) s
 table=(opt,rrhf)
 ----------------------------------------------------------------------
 -----
 title
 -----
 Symbolic Z-matrix:
 Charge =  0 Multiplicity = 1

 SCF Done:  E(RHF) =  -603.609438124     A.U. after   15 cycles
 Normal termination of Gaussian 16 at Wed Apr  9 00:39:34 2025.
 Gaussian 16:  ES64L-G16RevC.01  3-Jul-2019

 ----------------------------------------------------------------------
 #t hf aug-cc-pvdz iop(5/13=1,5/36=2,99/5=2) pseudo=read geom=check gue
 ss=(read,tcheck) scf=(maxcycle=1)
 ----------------------------------------------------------------------
 -----
 title
 -----
 Structure from the checkpoint file:  "BDE49_nonexpt_634_mol1.chk"
 Charge =  0 Multiplicity = 1

                         Standard orientation:
 ---------------------------------------------------------------------
 Center     Atomic      Atomic             Coordinates (Angstroms)
 Number     Number       Type             X           Y           Z
 ---------------------------------------------------------------------
      1          9           0       -1.108545    2.140172    0.000002
      2          9           0        2.992571   -1.437043   -0.000001
      3          8           0       -3.002787    0.101960   -0.000007
      4          1           0       -2.795908    1.042015   -0.000010
      5          8           0       -2.046890   -2.041327    0.000014
      6          1           0       -2.976524   -2.292758    0.000022
      7          6           0       -0.414348   -0.136461   -0.000006
      8          6           0       -0.093391    1.219341    0.000000
      9          6           0        1.201670    1.709679    0.000006
     10          1           0        1.372560    2.778514    0.000010
     11          6           0        2.256703    0.802542    0.000005
     12          1           0        3.287161    1.134314    0.000009
     13          6           0        1.967846   -0.555446   -0.000001
     14          6           0        0.668314   -1.030704   -0.000006
     15          1           0        0.486205   -2.097817   -0.000011
     16          5           0       -1.890616   -0.686237   -0.000015
 ---------------------------------------------------------------------

 SCF Done:  E(RHF) =  -603.807214504     A.U. after    2 cycles

 The electronic state is 1-A.
 Alpha  occ. eigenvalues --  -26.15584 -26.14158 -20.58663 -20.58655 -11.35772
 Alpha  occ. eigenvalues --  -11.34900 -11.27970 -11.27544 -11.27270 -11.25533
 Alpha  occ. eigenvalues --   -7.67277  -1.69083  -1.67979  -1.35207  -1.31505
 Alpha  occ. eigenvalues --   -1.17806  -1.04916  -1.04542  -0.89765  -0.89472
 Alpha  occ. eigenvalues --   -0.80902  -0.79805  -0.78832  -0.77273  -0.76937
 Alpha  occ. eigenvalues --   -0.75670  -0.74021  -0.72375  -0.65640  -0.63806
 Alpha  occ. eigenvalues --   -0.62193  -0.61793  -0.59958  -0.59114  -0.56600
 Alpha  occ. eigenvalues --   -0.53037  -0.52735  -0.50757  -0.37375  -0.36069
 Alpha virt. eigenvalues --    0.03202   0.04007   0.04514   0.05580   0.05952
 Alpha virt. eigenvalues --    0.05964   0.06684   0.07543   0.08885   0.09577
 Alpha virt. eigenvalues --    0.10224   0.11163   0.12726   0.12732   0.13406

 Mulliken charges:
               1
     1  F   -0.385906
     2  F   -0.329340
     3  O   -0.523489
     4  H    0.254760
     5  O   -0.500505
     6  H    0.198547
     7  C    0.032846
     8  C   -0.228123
     9  C    0.810250
    10  H   -0.462301
    11  C    0.783070
    12  H   -0.417869
    13  C    0.303355
    14  C    0.381352
    15  H   -0.588577
    16  B    0.671930
 Sum of Mulliken charges =  -0.00000

 Dipole moment (field-independent basis, Debye):
    X=              0.0855    Y=              1.4415    Z=             -0.0000  Tot=              1.4440

 Test job not archived.
 1\1\GINC-SE039\SP\RHF\Aug-CC-pVDZ\C6H5B1F2O2\OHZDE\09-Apr-2025\0\\#t h
 f aug-cc-pvdz iop(5/13=1,5/36=2,99/5=2) pseudo=read geom=check guess=(
 read,tcheck) scf=(maxcycle=1)\\title\\0,1\F,0,1.108545,2.140172,-0.000
 002\F,0,-2.992571,-1.437043,0.000001\O,0,3.002787,0.10196,0.000007\H,0
 ,2.795908,1.042015,0.00001\O,0,2.04689,-2.041327,-0.000014\H,0,2.97652
 4,-2.292758,-0.000022\C,0,0.414348,-0.136461,0.000006\C,0,0.093391,1.2
 19341,0.\C,0,-1.20167,1.709679,-0.000006\H,0,-1.37256,2.778514,-0.0000
 1\C,0,-2.256703,0.802542,-0.000005\H,0,-3.287161,1.134315,-0.000009\C,

 Normal termination of Gaussian 16 at Wed Apr  9 00:39:46 2025.
