 Gaussian 16, Revision C.01,

 ----------------------------------------------------------------------
 #t hf aug-cc-pvdz symm=none int=(grid=ultrafine) guess=(read,tcheck) s
 table=(opt,rrhf)
 ----------------------------------------------------------------------
 -----
 title
 -----
 Symbolic Z-matrix:
 Charge =  0 Multiplicity = 1

 SCF Done:  E(RHF) =  -469.525569241     A.U. after   12 cycles
 Normal termination of Gaussian 16 at Wed Apr  9 00:43:37 2025.
 Gaussian 16:  ES64L-G16RevC.01  3-Jul-2019

 ----------------------------------------------------------------------
 #t hf aug-cc-pvdz iop(5/13=1,5/36=2,99/5=2) pseudo=read geom=check gue
 ss=(read,tcheck) scf=(maxcycle=1)
 ----------------------------------------------------------------------
 -----
 title
 -----
 Structure from the checkpoint file:  "BDE49_nonexpt_785_mol1.chk"
 Charge =  0 Multiplicity = 1

                         Standard orientation:
 ---------------------------------------------------------------------
 Center     Atomic      Atomic             Coordinates (Angstroms)
 Number     Number       Type             X           Y           Z
 ---------------------------------------------------------------------
      1         14           0        0.499840   -0.023651    0.425122
      2          5           0       -1.375506   -0.771567    0.180852
      3          8           0       -2.346050    0.049718   -0.295139
      4          6           0        0.652338    1.759608   -0.174829
      5          1           0       -0.065084    2.405506    0.338698
      6          1           0        0.448304    1.829526   -1.247407
      7          6           0        1.773459   -1.125626   -0.440099
      8          1           0        1.618928   -1.136164   -1.523352
      9          1           0        1.708935   -2.157605   -0.083652
     10          1           0        2.790811   -0.770343   -0.252035
     11          1           0        1.655113    2.158042    0.004982
     12          1           0       -3.208384   -0.373141   -0.375004
     13          1           0       -1.659958   -1.911186    0.445375
     14          1           0        0.804723   -0.057317    1.887109
 ---------------------------------------------------------------------

 SCF Done:  E(RHF) =  -469.612145466     A.U. after    2 cycles

 The electronic state is 1-A.
 Alpha  occ. eigenvalues --  -69.03178 -20.59643 -11.20843 -11.20451  -7.63345
 Alpha  occ. eigenvalues --   -6.78578  -3.89366  -3.89350  -3.89303  -1.33556
 Alpha  occ. eigenvalues --   -0.94110  -0.91294  -0.78104  -0.66279  -0.64064
 Alpha  occ. eigenvalues --   -0.56721  -0.56304  -0.55722  -0.53889  -0.53877
 Alpha  occ. eigenvalues --   -0.52934  -0.43873  -0.42884  -0.38176
 Alpha virt. eigenvalues --    0.02882   0.04148   0.04825   0.05148   0.06448
 Alpha virt. eigenvalues --    0.06510   0.06602   0.07387   0.07682   0.08875
 Alpha virt. eigenvalues --    0.09838   0.10349   0.10627   0.10746   0.11996

 Mulliken charges:
               1
     1  Si   0.639451
     2  B    0.258242
     3  O   -0.510433
     4  C    0.306642
     5  H   -0.272543
     6  H   -0.145864
     7  C    0.319672
     8  H   -0.174472
     9  H   -0.289376
    10  H   -0.267638
    11  H   -0.270346
    12  H    0.189147
    13  H    0.212210
    14  H    0.005309
 Sum of Mulliken charges =   0.00000

 Dipole moment (field-independent basis, Debye):
    X=             -1.1575    Y=             -0.8805    Z=             -0.5229  Tot=              1.5455

 Test job not archived.
 1\1\GINC-SE212\SP\RHF\Aug-CC-pVDZ\C2H9B1O1Si1\OHZDE\09-Apr-2025\0\\#t
 hf aug-cc-pvdz iop(5/13=1,5/36=2,99/5=2) pseudo=read geom=check guess=
 (read,tcheck) scf=(maxcycle=1)\\title\\0,1\Si,0,0.49984,-0.023651,0.42
 5122\B,0,-1.375506,-0.771567,0.180852\O,0,-2.34605,0.049718,-0.295139\
 C,0,0.652338,1.759608,-0.174829\H,0,-0.065084,2.405506,0.338698\H,0,0.
 448304,1.829526,-1.247407\C,0,1.773459,-1.125626,-0.440099\H,0,1.61892
 8,-1.136164,-1.523352\H,0,1.708935,-2.157605,-0.083652\H,0,2.790811,-0
 .770343,-0.252035\H,0,1.655113,2.158042,0.004982\H,0,-3.208384,-0.3731

 Normal termination of Gaussian 16 at Wed Apr  9 00:43:41 2025.
