 Gaussian 16, Revision C.01,

 ----------------------------------------------------------------------
 #t hf aug-cc-pvdz symm=none int=(grid=ultrafine) guess=(read,tcheck) s
 table=(opt,rrhf)
 ----------------------------------------------------------------------
 -----
 title
 -----
 Symbolic Z-matrix:
 Charge =  0 Multiplicity = 1

 SCF Done:  E(RHF) =  -779.211823707     A.U. after   11 cycles

 1\1\GINC-SE336\Stability\RHF\Aug-CC-pVDZ\F2H4Si2\OHZDE\08-Apr-2025\0\\
 #t hf aug-cc-pvdz symm=none int=(grid=ultrafine) guess=(read,tcheck) s
 table=(opt,rrhf)\\title\\0,1\Si,0,-1.290487,1.178755,0.\Si,0,0.662582,
 -0.133092,0.\F,0,0.662582,-1.089376,1.289864\F,0,0.662582,-1.089376,-1
 .289864\H,0,1.945884,0.594482,0.\H,0,-2.483906,0.303131,0.\H,0,-1.2988
 96,2.035934,-1.208218\H,0,-1.298896,2.035934,1.208218\\Version=ES64L-G
 16RevC.01\HF=-779.2118237\RMSD=2.423e-09\Dipole=-0.182697,0.8129909,0.
 \Quadrupole=1.7138277,-0.3250239,-1.3888038,0.8403658,0.,0.\PG=Unknown

 Normal termination of Gaussian 16 at Tue Apr  8 23:55:20 2025.
 Gaussian 16:  ES64L-G16RevC.01  3-Jul-2019

 ----------------------------------------------------------------------
 #t hf aug-cc-pvdz iop(5/13=1,5/36=2,99/5=2) pseudo=read geom=check gue
 ss=(read,tcheck) scf=(maxcycle=1)
 ----------------------------------------------------------------------
 -----
 title
 -----
 Structure from the checkpoint file:  "BDE49_nonexpt_2019_mol1.chk"
 Charge =  0 Multiplicity = 1

                         Standard orientation:
 ---------------------------------------------------------------------
 Center     Atomic      Atomic             Coordinates (Angstroms)
 Number     Number       Type             X           Y           Z
 ---------------------------------------------------------------------
      1         14           0       -1.290487    1.178755    0.000000
      2         14           0        0.662582   -0.133092   -0.000000
      3          9           0        0.662582   -1.089376    1.289864
      4          9           0        0.662582   -1.089376   -1.289864
      5          1           0        1.945884    0.594482   -0.000000
      6          1           0       -2.483906    0.303131    0.000000
      7          1           0       -1.298896    2.035934   -1.208218
      8          1           0       -1.298896    2.035934    1.208218
 ---------------------------------------------------------------------

 SCF Done:  E(RHF) =  -779.343351755     A.U. after    2 cycles

 The electronic state is 1-A'.
 Alpha  occ. eigenvalues --  -69.16559 -69.07962 -26.12178 -26.12177  -6.90711
 Alpha  occ. eigenvalues --   -6.83444  -4.01684  -4.01536  -4.01359  -3.94199
 Alpha  occ. eigenvalues --   -3.94198  -3.94184  -1.65514  -1.64327  -0.84097
 Alpha  occ. eigenvalues --   -0.77574  -0.75574  -0.74869  -0.72350  -0.71626
 Alpha  occ. eigenvalues --   -0.70758  -0.57772  -0.50263  -0.50222  -0.42951
 Alpha virt. eigenvalues --    0.03581   0.04554   0.05591   0.05801   0.07274
 Alpha virt. eigenvalues --    0.07312   0.07645   0.08439   0.08524   0.10110
 Alpha virt. eigenvalues --    0.12794   0.13100   0.15293   0.15778   0.17885

 Mulliken charges:
               1
     1  Si  -0.153070
     2  Si   1.683299
     3  F   -0.743202
     4  F   -0.743202
     5  H   -0.029187
     6  H    0.001237
     7  H   -0.007938
     8  H   -0.007938
 Sum of Mulliken charges =  -0.00000

 Dipole moment (field-independent basis, Debye):
    X=             -0.4795    Y=              2.2637    Z=             -0.0000  Tot=              2.3139

 Test job not archived.
 1\1\GINC-SE336\SP\RHF\Aug-CC-pVDZ\F2H4Si2\OHZDE\08-Apr-2025\0\\#t hf a
 ug-cc-pvdz iop(5/13=1,5/36=2,99/5=2) pseudo=read geom=check guess=(rea
 d,tcheck) scf=(maxcycle=1)\\title\\0,1\Si,0,-1.290487,1.178755,0.\Si,0
 ,0.662582,-0.133092,0.\F,0,0.662582,-1.089376,1.289864\F,0,0.662582,-1
 .089376,-1.289864\H,0,1.945884,0.594482,0.\H,0,-2.483906,0.303131,0.\H
 ,0,-1.298896,2.035934,-1.208218\H,0,-1.298896,2.035934,1.208218\\Versi
 on=ES64L-G16RevC.01\State=1-A'\HF=-779.3433518\RMSD=5.332e-03\Dipole=-
 0.1886312,0.8905981,0.\Quadrupole=1.8591447,-0.3409359,-1.5182087,0.93

 Normal termination of Gaussian 16 at Tue Apr  8 23:55:22 2025.
