 Gaussian 16, Revision C.01,

 ----------------------------------------------------------------------
 #t hf aug-cc-pvdz symm=none int=(grid=ultrafine) guess=(read,tcheck) s
 table=(opt,rrhf)
 ----------------------------------------------------------------------
 -----
 title
 -----
 Symbolic Z-matrix:
 Charge =  0 Multiplicity = 1

 SCF Done:  E(RHF) =  -671.625992427     A.U. after   11 cycles
 Normal termination of Gaussian 16 at Tue Apr  8 23:40:51 2025.
 Gaussian 16:  ES64L-G16RevC.01  3-Jul-2019

 ----------------------------------------------------------------------
 #t hf aug-cc-pvdz iop(5/13=1,5/36=2,99/5=2) pseudo=read geom=check gue
 ss=(read,tcheck) scf=(maxcycle=1)
 ----------------------------------------------------------------------
 -----
 title
 -----
 Structure from the checkpoint file:  "BDE49_nonexpt_1665_mol1.chk"
 Charge =  0 Multiplicity = 1

                         Standard orientation:
 ---------------------------------------------------------------------
 Center     Atomic      Atomic             Coordinates (Angstroms)
 Number     Number       Type             X           Y           Z
 ---------------------------------------------------------------------
      1         15           0       -1.600893   -0.153498    0.000001
      2         14           0        0.546161    0.620802   -0.000001
      3          6           0        1.881397   -0.704071    0.000000
      4          1           0        1.800965   -1.340700    0.884842
      5          1           0        2.875123   -0.246064   -0.000002
      6          1           0        1.800964   -1.340702   -0.884842
      7          1           0       -1.379673   -1.099948    1.036346
      8          1           0       -1.379674   -1.099950   -1.036343
      9          1           0        0.680531    1.481517    1.201238
     10          1           0        0.680530    1.481516   -1.201240
 ---------------------------------------------------------------------

 SCF Done:  E(RHF) =  -671.682140028     A.U. after    2 cycles

 The electronic state is 1-A.
 Alpha  occ. eigenvalues --  -81.24605 -69.07125 -11.22666  -7.75146  -6.82317
 Alpha  occ. eigenvalues --   -4.89063  -4.88990  -4.88782  -3.93080  -3.93064
 Alpha  occ. eigenvalues --   -3.93044  -0.94843  -0.79694  -0.66235  -0.57317
 Alpha  occ. eigenvalues --   -0.56676  -0.51982  -0.47039  -0.46829  -0.42689
 Alpha  occ. eigenvalues --   -0.35029
 Alpha virt. eigenvalues --    0.03387   0.04748   0.05386   0.05474   0.07089
 Alpha virt. eigenvalues --    0.07734   0.08120   0.08356   0.08719   0.11238
 Alpha virt. eigenvalues --    0.11560   0.12065   0.13211   0.15711   0.16378

 Mulliken charges:
               1
     1  P   -0.565463
     2  Si   0.788220
     3  C    0.212152
     4  H   -0.179493
     5  H   -0.263954
     6  H   -0.179490
     7  H    0.156859
     8  H    0.156859
     9  H   -0.062845
    10  H   -0.062844
 Sum of Mulliken charges =   0.00000

 Dipole moment (field-independent basis, Debye):
    X=              1.2117    Y=             -0.8382    Z=             -0.0000  Tot=              1.4734

 Test job not archived.
 1\1\GINC-SE090\SP\RHF\Aug-CC-pVDZ\C1H7P1Si1\OHZDE\08-Apr-2025\0\\#t hf
  aug-cc-pvdz iop(5/13=1,5/36=2,99/5=2) pseudo=read geom=check guess=(r
 ead,tcheck) scf=(maxcycle=1)\\title\\0,1\P,0,1.600893,-0.153498,-0.000
 001\Si,0,-0.546161,0.620802,0.000001\C,0,-1.881397,-0.704071,0.\H,0,-1
 .800965,-1.3407,-0.884842\H,0,-2.875123,-0.246064,0.000002\H,0,-1.8009
 64,-1.340702,0.884842\H,0,1.379673,-1.099948,-1.036346\H,0,1.379674,-1
 .09995,1.036343\H,0,-0.680531,1.481517,-1.201238\H,0,-0.68053,1.481516
 ,1.20124\\Version=ES64L-G16RevC.01\State=1-A\HF=-671.68214\RMSD=9.196e

 Normal termination of Gaussian 16 at Tue Apr  8 23:40:54 2025.
