 Gaussian 16, Revision C.01,

 ----------------------------------------------------------------------
 #t hf aug-cc-pvdz symm=none int=(grid=ultrafine) guess=(read,tcheck) s
 table=(opt,rrhf)
 ----------------------------------------------------------------------
 -----
 title
 -----
 Symbolic Z-matrix:
 Charge =  0 Multiplicity = 1

 SCF Done:  E(RHF) =  -673.098284491     A.U. after   12 cycles
 Normal termination of Gaussian 16 at Wed Apr  9 00:10:48 2025.
 Gaussian 16:  ES64L-G16RevC.01  3-Jul-2019

 ----------------------------------------------------------------------
 #t hf aug-cc-pvdz iop(5/13=1,5/36=2,99/5=2) pseudo=read geom=check gue
 ss=(read,tcheck) scf=(maxcycle=1)
 ----------------------------------------------------------------------
 -----
 title
 -----
 Structure from the checkpoint file:  "BDE49_nonexpt_2401_mol1.chk"
 Charge =  0 Multiplicity = 1

                         Standard orientation:
 ---------------------------------------------------------------------
 Center     Atomic      Atomic             Coordinates (Angstroms)
 Number     Number       Type             X           Y           Z
 ---------------------------------------------------------------------
      1         14           0        1.752370   -0.469226    0.000001
      2         14           0       -0.166507    0.902349   -0.000004
      3          1           0        2.951283    0.401214    0.000013
      4          1           0        1.754251   -1.317705   -1.212228
      5          1           0        1.754233   -1.317714    1.212223
      6          6           0       -1.672640   -0.183007   -0.000014
      7          1           0       -0.255408    1.746838   -1.209834
      8          1           0       -0.255429    1.746811    1.209845
      9          7           0       -2.587882   -0.889302    0.000016
 ---------------------------------------------------------------------

 SCF Done:  E(RHF) =  -673.167401280     A.U. after    2 cycles

 The electronic state is 1-A.
 Alpha  occ. eigenvalues --  -69.11008 -69.08554 -15.65356 -11.27236  -6.86286
 Alpha  occ. eigenvalues --   -6.83974  -3.97145  -3.97010  -3.96978  -3.94727
 Alpha  occ. eigenvalues --   -3.94722  -3.94721  -1.19250  -0.80290  -0.71644
 Alpha  occ. eigenvalues --   -0.61359  -0.54219  -0.53588  -0.50542  -0.50151
 Alpha  occ. eigenvalues --   -0.49137  -0.46833  -0.42007
 Alpha virt. eigenvalues --    0.03068   0.03648   0.05569   0.05689   0.06470
 Alpha virt. eigenvalues --    0.06656   0.06817   0.08332   0.08452   0.08953
 Alpha virt. eigenvalues --    0.09133   0.10831   0.11324   0.12497   0.13309

 Mulliken charges:
               1
     1  Si  -0.080839
     2  Si   0.359045
     3  H    0.013290
     4  H    0.024899
     5  H    0.024900
     6  C   -0.221772
     7  H    0.027366
     8  H    0.027370
     9  N   -0.174259
 Sum of Mulliken charges =  -0.00000

 Dipole moment (field-independent basis, Debye):
    X=              3.3661    Y=              1.8282    Z=             -0.0000  Tot=              3.8306

 Test job not archived.
 1\1\GINC-SE333\SP\RHF\Aug-CC-pVDZ\C1H5N1Si2\OHZDE\09-Apr-2025\0\\#t hf
  aug-cc-pvdz iop(5/13=1,5/36=2,99/5=2) pseudo=read geom=check guess=(r
 ead,tcheck) scf=(maxcycle=1)\\title\\0,1\Si,0,1.75237,-0.469227,0.0000
 01\Si,0,-0.166507,0.902349,-0.000004\H,0,2.951283,0.401213,0.000013\H,
 0,1.754251,-1.317706,-1.212228\H,0,1.754233,-1.317715,1.212223\C,0,-1.
 67264,-0.183007,-0.000014\H,0,-0.255408,1.746838,-1.209834\H,0,-0.2554
 29,1.746811,1.209845\N,0,-2.587882,-0.889302,0.000016\\Version=ES64L-G
 16RevC.01\State=1-A\HF=-673.1674013\RMSD=5.320e-03\Dipole=1.3243362,0.

 Normal termination of Gaussian 16 at Wed Apr  9 00:10:51 2025.
