 Gaussian 16, Revision C.01,

 ----------------------------------------------------------------------
 #t hf aug-cc-pvdz symm=none int=(grid=ultrafine) guess=(read,tcheck) s
 table=(opt,rrhf)
 ----------------------------------------------------------------------
 -----
 title
 -----
 Symbolic Z-matrix:
 Charge =  0 Multiplicity = 1

 SCF Done:  E(RHF) =  -838.247695773     A.U. after   16 cycles
 Normal termination of Gaussian 16 at Wed Apr  9 00:42:29 2025.
 Gaussian 16:  ES64L-G16RevC.01  3-Jul-2019

 ----------------------------------------------------------------------
 #t hf aug-cc-pvdz iop(5/13=1,5/36=2,99/5=2) pseudo=read geom=check gue
 ss=(read,tcheck) scf=(maxcycle=1)
 ----------------------------------------------------------------------
 -----
 title
 -----
 Structure from the checkpoint file:  "BDE49_nonexpt_704_mol1.chk"
 Charge =  0 Multiplicity = 1

                         Standard orientation:
 ---------------------------------------------------------------------
 Center     Atomic      Atomic             Coordinates (Angstroms)
 Number     Number       Type             X           Y           Z
 ---------------------------------------------------------------------
      1         15           0       -0.419244   -0.095818    1.080747
      2          7           0       -0.880700   -1.503876   -0.040747
      3          5           0       -1.107576    1.372497   -0.028214
      4          8           0       -0.099786   -2.427331   -0.177847
      5          8           0       -2.020052   -1.486693   -0.524676
      6          8           0       -0.490352    2.566598    0.176134
      7          8           0       -2.167489    1.237840   -0.847880
      8          6           0        1.415946   -0.059774    0.832503
      9          6           0        1.960455    0.177370   -0.581622
     10          1           0        1.795048   -0.998287    1.246661
     11          1           0        1.747668    0.735525    1.511957
     12          6           0        3.492273    0.156543   -0.621982
     13          1           0        1.596780    1.141759   -0.947694
     14          1           0        1.569568   -0.592691   -1.252241
     15          1           0        3.917593    0.930539    0.024138
     16          1           0        3.857877    0.332337   -1.636986
     17          1           0        3.883952   -0.809370   -0.290028
     18          1           0       -2.463903    0.310914   -0.898353
     19          1           0       -0.903748    3.283054   -0.321600
 ---------------------------------------------------------------------

 SCF Done:  E(RHF) =  -838.429908251     A.U. after    2 cycles

 The electronic state is 1-A.
 Alpha  occ. eigenvalues --  -81.30860 -20.63201 -20.62217 -20.60990 -20.59754
 Alpha  occ. eigenvalues --  -15.90664 -11.27065 -11.25121 -11.23757  -7.81140
 Alpha  occ. eigenvalues --   -7.70029  -4.95290  -4.94986  -4.94716  -1.54627
 Alpha  occ. eigenvalues --   -1.37174  -1.36455  -1.33266  -1.07550  -0.98171
 Alpha  occ. eigenvalues --   -0.93760  -0.83623  -0.81831  -0.81130  -0.77150
 Alpha  occ. eigenvalues --   -0.74146  -0.72271  -0.69046  -0.65180  -0.64417
 Alpha  occ. eigenvalues --   -0.61618  -0.61445  -0.59325  -0.56687  -0.55397
 Alpha  occ. eigenvalues --   -0.54433  -0.52615  -0.50876  -0.49879  -0.48387
 Alpha  occ. eigenvalues --   -0.47924  -0.46317  -0.37598
 Alpha virt. eigenvalues --    0.02732   0.03881   0.04106   0.05281   0.05734
 Alpha virt. eigenvalues --    0.06051   0.06430   0.06650   0.07316   0.07915
 Alpha virt. eigenvalues --    0.08819   0.09047   0.09219   0.10260   0.10405

 Mulliken charges:
               1
     1  P    0.422320
     2  N    0.475501
     3  B    0.932662
     4  O   -0.567591
     5  O   -0.671681
     6  O   -0.525878
     7  O   -0.509987
     8  C   -0.021958
     9  C    0.206937
    10  H   -0.076336
    11  H   -0.134833
    12  C    0.520191
    13  H   -0.225597
    14  H   -0.146317
    15  H   -0.065051
    16  H   -0.054796
    17  H   -0.076186
    18  H    0.313523
    19  H    0.205077
 Sum of Mulliken charges =   0.00000

 Dipole moment (field-independent basis, Debye):
    X=              2.1341    Y=              3.3006    Z=              0.8613  Tot=              4.0237

 Test job not archived.
 1\1\GINC-SE048\SP\RHF\Aug-CC-pVDZ\C3H9B1N1O4P1\OHZDE\09-Apr-2025\0\\#t
  hf aug-cc-pvdz iop(5/13=1,5/36=2,99/5=2) pseudo=read geom=check guess
 =(read,tcheck) scf=(maxcycle=1)\\title\\0,1\P,0,-0.419244,-0.095818,1.
 080747\N,0,-0.8807,-1.503876,-0.040747\B,0,-1.107576,1.372497,-0.02821
 4\O,0,-0.099786,-2.427331,-0.177847\O,0,-2.020052,-1.486693,-0.524676\
 O,0,-0.490352,2.566598,0.176134\O,0,-2.167489,1.23784,-0.84788\C,0,1.4
 15946,-0.059774,0.832503\C,0,1.960455,0.17737,-0.581622\H,0,1.795048,-
 0.998287,1.246661\H,0,1.747668,0.735525,1.511957\C,0,3.492273,0.156543

 Normal termination of Gaussian 16 at Wed Apr  9 00:42:40 2025.
