 Gaussian 16, Revision C.01,

 ----------------------------------------------------------------------
 #t hf aug-cc-pvdz symm=none int=(grid=ultrafine) guess=(read,tcheck) s
 table=(opt,rrhf)
 ----------------------------------------------------------------------
 -----
 title
 -----
 Symbolic Z-matrix:
 Charge =  0 Multiplicity = 1

 SCF Done:  E(RHF) =  -1164.43584089     A.U. after   13 cycles
 Normal termination of Gaussian 16 at Wed Apr  9 00:13:48 2025.
 Gaussian 16:  ES64L-G16RevC.01  3-Jul-2019

 ----------------------------------------------------------------------
 #t hf aug-cc-pvdz iop(5/13=1,5/36=2,99/5=2) pseudo=read geom=check gue
 ss=(read,tcheck) scf=(maxcycle=1)
 ----------------------------------------------------------------------
 -----
 title
 -----
 Structure from the checkpoint file:  "BDE49_nonexpt_2493_mol1.chk"
 Charge =  0 Multiplicity = 1

                         Standard orientation:
 ---------------------------------------------------------------------
 Center     Atomic      Atomic             Coordinates (Angstroms)
 Number     Number       Type             X           Y           Z
 ---------------------------------------------------------------------
      1         14           0       -1.536435    0.257737    0.609845
      2         16           0        0.131106    1.113055   -0.495907
      3         16           0        1.404844   -0.566417   -0.559453
      4          6           0        2.446689   -0.316600    0.919789
      5          1           0        3.164509   -1.140833    0.915678
      6          1           0        1.851977   -0.358631    1.831458
      7          1           0        2.981481    0.629982    0.855224
      8          6           0       -2.413416   -1.101827   -0.328903
      9          1           0       -2.824320   -0.724785   -1.268389
     10          1           0       -3.236373   -1.500286    0.273006
     11          1           0       -1.727965   -1.921862   -0.554633
     12          1           0       -2.434121    1.416313    0.838148
     13          1           0       -1.039932   -0.243850    1.912124
 ---------------------------------------------------------------------

 SCF Done:  E(RHF) =  -1164.52604685     A.U. after    2 cycles

 The electronic state is 1-A.
 Alpha  occ. eigenvalues --  -93.56038 -93.54320 -69.08956 -11.27321 -11.22544
 Alpha  occ. eigenvalues --   -8.85532  -8.84064  -6.83959  -6.19645  -6.19386
 Alpha  occ. eigenvalues --   -6.19069  -6.18160  -6.17904  -6.17664  -3.94777
 Alpha  occ. eigenvalues --   -3.94701  -3.94665  -1.04977  -0.95703  -0.93513
 Alpha  occ. eigenvalues --   -0.80609  -0.67042  -0.60142  -0.59929  -0.57290
 Alpha  occ. eigenvalues --   -0.56905  -0.52019  -0.48988  -0.47428  -0.46298
 Alpha  occ. eigenvalues --   -0.43533  -0.36391  -0.34619
 Alpha virt. eigenvalues --    0.03403   0.04308   0.04880   0.05357   0.06417
 Alpha virt. eigenvalues --    0.06798   0.06996   0.07676   0.08534   0.09385
 Alpha virt. eigenvalues --    0.09596   0.11095   0.11945   0.13067   0.14329

 Mulliken charges:
               1
     1  Si   1.045593
     2  S   -0.500844
     3  S    0.022783
     4  C    0.077633
     5  H   -0.057018
     6  H   -0.100948
     7  H   -0.034366
     8  C    0.233842
     9  H   -0.189700
    10  H   -0.231419
    11  H   -0.184035
    12  H   -0.064022
    13  H   -0.017501
 Sum of Mulliken charges =   0.00000

 Dipole moment (field-independent basis, Debye):
    X=             -0.1959    Y=             -0.9735    Z=              1.5266  Tot=              1.8211

 Test job not archived.
 1\1\GINC-SE403\SP\RHF\Aug-CC-pVDZ\C2H8S2Si1\OHZDE\09-Apr-2025\0\\#t hf
  aug-cc-pvdz iop(5/13=1,5/36=2,99/5=2) pseudo=read geom=check guess=(r
 ead,tcheck) scf=(maxcycle=1)\\title\\0,1\Si,0,-1.536435,0.257737,0.609
 845\S,0,0.131106,1.113055,-0.495907\S,0,1.404844,-0.566417,-0.559453\C
 ,0,2.446689,-0.3166,0.919789\H,0,3.164509,-1.140833,0.915678\H,0,1.851
 977,-0.358631,1.831458\H,0,2.981481,0.629982,0.855224\C,0,-2.413416,-1
 .101827,-0.328903\H,0,-2.82432,-0.724785,-1.268389\H,0,-3.236373,-1.50
 0286,0.273006\H,0,-1.727965,-1.921862,-0.554633\H,0,-2.434121,1.416313

 Normal termination of Gaussian 16 at Wed Apr  9 00:13:53 2025.
