 Gaussian 16, Revision C.01,

 ----------------------------------------------------------------------
 #t hf aug-cc-pvdz symm=none int=(grid=ultrafine) guess=(read,tcheck) s
 table=opt
 ----------------------------------------------------------------------
 -----
 title
 -----
 Symbolic Z-matrix:
 Charge =  0 Multiplicity = 2

 SCF Done:  E(UHF) =  -195.728556545     A.U. after   16 cycles
 Normal termination of Gaussian 16 at Tue Apr  8 22:42:56 2025.
 Gaussian 16:  ES64L-G16RevC.01  3-Jul-2019

 ----------------------------------------------------------------------
 #t hf aug-cc-pvdz iop(5/13=1,5/36=2,99/5=2) pseudo=read geom=check gue
 ss=(read,tcheck) scf=(maxcycle=1)
 ----------------------------------------------------------------------
 -----
 title
 -----
 Structure from the checkpoint file:  "BDE49_expt_1485_mol2.chk"
 Charge =  0 Multiplicity = 2

                         Standard orientation:
 ---------------------------------------------------------------------
 Center     Atomic      Atomic             Coordinates (Angstroms)
 Number     Number       Type             X           Y           Z
 ---------------------------------------------------------------------
      1          6           0        0.899938   -0.000000    0.698455
      2          6           0        1.912413   -0.000000   -0.472619
      3          6           0       -0.536130    0.000000    0.265849
      4          1           0        1.785284    0.883824   -1.103803
      5          1           0        1.785284   -0.883824   -1.103803
      6          1           0        2.940730   -0.000000   -0.098931
      7          6           0       -1.183027    1.285614   -0.143037
      8          1           0       -1.025963    1.512969   -1.212077
      9          1           0       -0.787617    2.136467    0.420474
     10          1           0       -2.268489    1.254807    0.004045
     11          6           0       -1.183027   -1.285614   -0.143037
     12          1           0       -1.025964   -1.512969   -1.212077
     13          1           0       -2.268489   -1.254806    0.004045
     14          1           0       -0.787618   -2.136467    0.420474
     15          1           0        1.095918    0.879551    1.323992
     16          1           0        1.095918   -0.879551    1.323991
 ---------------------------------------------------------------------

 SCF Done:  E(UHF) =  -195.791920051     A.U. after    2 cycles

 The electronic state is 2-A.
 Alpha  occ. eigenvalues --  -11.23073 -11.22609 -11.22390 -11.22181 -11.22174
 Alpha  occ. eigenvalues --   -1.08669  -0.98750  -0.93037  -0.86002  -0.73483
 Alpha  occ. eigenvalues --   -0.62358  -0.62308  -0.59848  -0.55420  -0.55025
 Alpha  occ. eigenvalues --   -0.53312  -0.51144  -0.50074  -0.47078  -0.46902
 Alpha  occ. eigenvalues --   -0.30937
 Alpha virt. eigenvalues --    0.03551   0.04482   0.04784   0.05009   0.06736
 Alpha virt. eigenvalues --    0.06760   0.07002   0.07206   0.08698   0.09596
 Alpha virt. eigenvalues --    0.10111   0.11794   0.13963   0.14148   0.15373

  Beta  occ. eigenvalues --  -11.22938 -11.22514 -11.22510 -11.22145 -11.20497
  Beta  occ. eigenvalues --   -1.05323  -0.97889  -0.93031  -0.85216  -0.69737
  Beta  occ. eigenvalues --   -0.61941  -0.60512  -0.56572  -0.54773  -0.54528
  Beta  occ. eigenvalues --   -0.52488  -0.50042  -0.49765  -0.46659  -0.46105
  Beta virt. eigenvalues --    0.03583   0.04448   0.04797   0.05009   0.06676
  Beta virt. eigenvalues --    0.06770   0.07008   0.07174   0.08718   0.09597
  Beta virt. eigenvalues --    0.10123   0.11044   0.13736   0.14007   0.14614

 Mulliken charges and spin densities:
               1          2
     1  C    0.246418  -0.258064
     2  C    0.384570   0.069666
     3  C   -0.565769   1.566327
     4  H   -0.113034  -0.005900
     5  H   -0.113034  -0.005900
     6  H   -0.073010   0.000666
     7  C    0.380797  -0.257966
     8  H    0.010668   0.049622
     9  H   -0.084144   0.005645
    10  H   -0.067931   0.012802
    11  C    0.380799  -0.257966
    12  H    0.010668   0.049622
    13  H   -0.067931   0.012802
    14  H   -0.084145   0.005645
    15  H   -0.122460   0.006498
    16  H   -0.122461   0.006498
 Sum of Mulliken charges =  -0.00000   1.00000

 Dipole moment (field-independent basis, Debye):
    X=              0.0792    Y=             -0.0000    Z=             -0.1100  Tot=              0.1355
                          Isotropic Fermi Contact Couplings
        Atom                 a.u.       MegaHertz       Gauss      10(-4) cm-1
     1  C(13)             -0.06257     -70.33685     -25.09794     -23.46185
     2  C(13)              0.05816      65.38855      23.33226      21.81127
     3  C(13)              0.25861     290.72971     103.73959      96.97699
     4  H(1)              -0.00145      -6.47084      -2.30895      -2.15844
     5  H(1)              -0.00145      -6.47083      -2.30895      -2.15844
     6  H(1)               0.00077       3.42209       1.22109       1.14149
     7  C(13)             -0.06271     -70.49379     -25.15394     -23.51420
     8  H(1)               0.02480     110.85991      39.55757      36.97889

 Normal termination of Gaussian 16 at Tue Apr  8 22:43:00 2025.
