 Gaussian 16, Revision C.01,

 ----------------------------------------------------------------------
 #t hf aug-cc-pvdz symm=none int=(grid=ultrafine) guess=(read,tcheck) s
 table=(opt,rrhf)
 ----------------------------------------------------------------------
 -----
 title
 -----
 Symbolic Z-matrix:
 Charge =  0 Multiplicity = 1

 SCF Done:  E(RHF) =  -368.630618873     A.U. after   14 cycles
 Normal termination of Gaussian 16 at Tue Apr  8 22:44:01 2025.
 Gaussian 16:  ES64L-G16RevC.01  3-Jul-2019

 ----------------------------------------------------------------------
 #t hf aug-cc-pvdz iop(5/13=1,5/36=2,99/5=2) pseudo=read geom=check gue
 ss=(read,tcheck) scf=(maxcycle=1)
 ----------------------------------------------------------------------
 -----
 title
 -----
 Structure from the checkpoint file:  "BDE49_expt_1527_mol1.chk"
 Charge =  0 Multiplicity = 1

                         Standard orientation:
 ---------------------------------------------------------------------
 Center     Atomic      Atomic             Coordinates (Angstroms)
 Number     Number       Type             X           Y           Z
 ---------------------------------------------------------------------
      1          6           0       -0.445591   -0.276934    0.000015
      2          6           0        0.505745   -1.301579   -0.000011
      3          6           0       -1.913246   -0.626220    0.000058
      4          6           0       -0.019813    1.050253    0.000025
      5          6           0        1.864233   -1.001744   -0.000021
      6          6           0        2.286917    0.327347   -0.000008
      7          6           0        1.342150    1.349376    0.000012
      8          1           0       -0.757319    1.842266    0.000036
      9          1           0        3.345330    0.561821   -0.000017
     10          1           0        1.662815    2.385233    0.000017
     11          1           0        0.184701   -2.339308   -0.000029
     12          1           0        2.593244   -1.804372   -0.000043
     13          9           0       -2.711315    0.516487   -0.000070
     14          1           0       -2.174650   -1.208410    0.889780
     15          1           0       -2.174654   -1.208618   -0.889527
 ---------------------------------------------------------------------

 SCF Done:  E(RHF) =  -368.745676390     A.U. after    2 cycles

 The electronic state is 1-A.
 Alpha  occ. eigenvalues --  -26.10905 -11.33233 -11.25982 -11.25216 -11.25093
 Alpha  occ. eigenvalues --  -11.24964 -11.24719 -11.24533  -1.64042  -1.15325
 Alpha  occ. eigenvalues --   -1.05047  -1.01528  -0.95086  -0.83843  -0.81984
 Alpha  occ. eigenvalues --   -0.74818  -0.74643  -0.72722  -0.68218  -0.63899
 Alpha  occ. eigenvalues --   -0.62655  -0.59571  -0.57594  -0.56862  -0.50399
 Alpha  occ. eigenvalues --   -0.50105  -0.50008  -0.34580  -0.33869
 Alpha virt. eigenvalues --    0.03261   0.03870   0.04445   0.05559   0.05586
 Alpha virt. eigenvalues --    0.06042   0.07625   0.10077   0.10129   0.10724
 Alpha virt. eigenvalues --    0.11982   0.12631   0.13949   0.14037   0.14396

 Mulliken charges:
               1
     1  C    0.082300
     2  C    0.291603
     3  C    0.660029
     4  C    0.436134
     5  C    0.323350
     6  C    0.457093
     7  C    0.371680
     8  H   -0.511165
     9  H   -0.433847
    10  H   -0.434382
    11  H   -0.551121
    12  H   -0.439691
    13  F   -0.338319
    14  H    0.043186
    15  H    0.043151
 Sum of Mulliken charges =   0.00000

 Dipole moment (field-independent basis, Debye):
    X=              1.2864    Y=             -1.6362    Z=              0.0002  Tot=              2.0813

 Test job not archived.
 1\1\GINC-SE402\SP\RHF\Aug-CC-pVDZ\C7H7F1\OHZDE\08-Apr-2025\0\\#t hf au
 g-cc-pvdz iop(5/13=1,5/36=2,99/5=2) pseudo=read geom=check guess=(read
 ,tcheck) scf=(maxcycle=1)\\title\\0,1\C,0,0.445591,0.276934,0.000015\C
 ,0,-0.505745,1.301579,-0.000011\C,0,1.913246,0.62622,0.000058\C,0,0.01
 9813,-1.050253,0.000025\C,0,-1.864233,1.001744,-0.000021\C,0,-2.286917
 ,-0.327347,-0.000008\C,0,-1.34215,-1.349376,0.000012\H,0,0.757319,-1.8
 42266,0.000036\H,0,-3.34533,-0.561821,-0.000017\H,0,-1.662815,-2.38523
 3,0.000017\H,0,-0.184701,2.339308,-0.000029\H,0,-2.593244,1.804372,-0.

 Normal termination of Gaussian 16 at Tue Apr  8 22:44:07 2025.
