 Gaussian 16, Revision C.01,

 ----------------------------------------------------------------------
 #t hf aug-cc-pvdz symm=none int=(grid=ultrafine) guess=(read,tcheck) s
 table=(opt,rrhf)
 ----------------------------------------------------------------------
 -----
 title
 -----
 Symbolic Z-matrix:
 Charge =  0 Multiplicity = 1

 SCF Done:  E(RHF) =  -644.259538717     A.U. after   16 cycles
 Normal termination of Gaussian 16 at Tue Apr  8 23:07:00 2025.
 Gaussian 16:  ES64L-G16RevC.01  3-Jul-2019

 ----------------------------------------------------------------------
 #t hf aug-cc-pvdz iop(5/13=1,5/36=2,99/5=2) pseudo=read geom=check gue
 ss=(read,tcheck) scf=(maxcycle=1)
 ----------------------------------------------------------------------
 -----
 title
 -----
 Structure from the checkpoint file:  "BDE49_expt_543_mol1.chk"
 Charge =  0 Multiplicity = 1

                         Standard orientation:
 ---------------------------------------------------------------------
 Center     Atomic      Atomic             Coordinates (Angstroms)
 Number     Number       Type             X           Y           Z
 ---------------------------------------------------------------------
      1          6           0        1.485841   -1.186314    0.000003
      2          6           0        2.237470   -0.050066    0.000006
      3          7           0        0.127000   -1.110269    0.000001
      4          6           0       -0.613314    0.062101    0.000004
      5          6           0        0.187699    1.250587    0.000001
      6          6           0        1.554079    1.196138    0.000004
      7         16           0       -2.286388    0.004748   -0.000008
      8          1           0       -0.425760   -1.958643   -0.000001
      9          1           0        1.904752   -2.183853    0.000003
     10          1           0        3.316449   -0.107136    0.000008
     11          1           0       -0.339840    2.194035   -0.000002
     12          1           0        2.126949    2.116829    0.000005
 ---------------------------------------------------------------------

 SCF Done:  E(RHF) =  -644.349998651     A.U. after    2 cycles

 The electronic state is 1-A.
 Alpha  occ. eigenvalues --  -93.46930 -15.71630 -11.35632 -11.33767 -11.29618
 Alpha  occ. eigenvalues --  -11.27110 -11.26647  -8.76820  -6.11093  -6.10519
 Alpha  occ. eigenvalues --   -6.10456  -1.29493  -1.11454  -1.08268  -0.94734
 Alpha  occ. eigenvalues --   -0.89864  -0.84737  -0.76519  -0.70439  -0.68784
 Alpha  occ. eigenvalues --   -0.65457  -0.60537  -0.59407  -0.54590  -0.49528
 Alpha  occ. eigenvalues --   -0.43824  -0.41611  -0.31689  -0.28903
 Alpha virt. eigenvalues --    0.02120   0.03101   0.04348   0.05409   0.06317
 Alpha virt. eigenvalues --    0.06702   0.07825   0.09654   0.10059   0.10866
 Alpha virt. eigenvalues --    0.12240   0.12662   0.13119   0.13719   0.14389

 Mulliken charges:
               1
     1  C    0.665783
     2  C    0.779402
     3  N   -0.388755
     4  C   -0.034992
     5  C    0.940846
     6  C   -0.227943
     7  S   -0.173547
     8  H   -0.011050
     9  H   -0.352070
    10  H   -0.412521
    11  H   -0.407133
    12  H   -0.378019
 Sum of Mulliken charges =  -0.00000

 Dipole moment (field-independent basis, Debye):
    X=              6.1851    Y=             -1.4170    Z=              0.0000  Tot=              6.3453

 Test job not archived.
 1\1\GINC-SE102\SP\RHF\Aug-CC-pVDZ\C5H5N1S1\OHZDE\08-Apr-2025\0\\#t hf
 aug-cc-pvdz iop(5/13=1,5/36=2,99/5=2) pseudo=read geom=check guess=(re
 ad,tcheck) scf=(maxcycle=1)\\title\\0,1\C,0,1.485841,-1.186314,0.00000
 3\C,0,2.23747,-0.050066,0.000006\N,0,0.127,-1.110269,0.000001\C,0,-0.6
 13314,0.062101,0.000004\C,0,0.187699,1.250587,0.000001\C,0,1.554079,1.
 196138,0.000004\S,0,-2.286388,0.004748,-0.000008\H,0,-0.42576,-1.95864
 3,-0.000001\H,0,1.904752,-2.183853,0.000003\H,0,3.316449,-0.107136,0.0
 00008\H,0,-0.33984,2.194035,-0.000002\H,0,2.126949,2.116829,0.000005\\

 Normal termination of Gaussian 16 at Tue Apr  8 23:07:06 2025.
