 Gaussian 16, Revision C.01,

 ----------------------------------------------------------------------
 #t hf aug-cc-pvdz symm=none int=(grid=ultrafine) guess=(read,tcheck) s
 table=(opt,rrhf)
 ----------------------------------------------------------------------
 -----
 title
 -----
 Symbolic Z-matrix:
 Charge =  0 Multiplicity = 1

 SCF Done:  E(RHF) =  -944.278262361     A.U. after   11 cycles
 Normal termination of Gaussian 16 at Tue Apr  8 23:47:01 2025.
 Gaussian 16:  ES64L-G16RevC.01  3-Jul-2019

 ----------------------------------------------------------------------
 #t hf aug-cc-pvdz iop(5/13=1,5/36=2,99/5=2) pseudo=read geom=check gue
 ss=(read,tcheck) scf=(maxcycle=1)
 ----------------------------------------------------------------------
 -----
 title
 -----
 Structure from the checkpoint file:  "BDE49_nonexpt_1805_mol1.chk"
 Charge =  0 Multiplicity = 1

                         Standard orientation:
 ---------------------------------------------------------------------
 Center     Atomic      Atomic             Coordinates (Angstroms)
 Number     Number       Type             X           Y           Z
 ---------------------------------------------------------------------
      1         14           0       -0.587228    0.559605   -0.000000
      2          6           0        0.174795   -0.276398    1.492943
      3          6           0        0.174795   -1.813057    1.294855
      4          1           0       -0.348493   -0.002107    2.413737
      5          1           0        1.205359    0.082620    1.600376
      6          6           0        0.867825   -2.274454    0.000000
      7          1           0       -0.857834   -2.184922    1.296240
      8          1           0        0.664485   -2.286512    2.152456
      9          6           0        0.174795   -1.813057   -1.294855
     10          1           0        0.919268   -3.368210    0.000000
     11          1           0        1.906640   -1.919236    0.000000
     12          6           0        0.174795   -0.276398   -1.492943
     13          1           0       -0.857834   -2.184922   -1.296240
     14          1           0        0.664485   -2.286512   -2.152456
     15          1           0        1.205359    0.082620   -1.600376
     16          1           0       -0.348493   -0.002107   -2.413737
     17         17           0       -0.192468    2.619149    0.000000
     18          1           0       -2.061824    0.429477   -0.000000
 ---------------------------------------------------------------------

 SCF Done:  E(RHF) =  -944.380139523     A.U. after    2 cycles

 The electronic state is 1-A'.
 Alpha  occ. eigenvalues -- -103.63921 -69.09344 -11.24390 -11.24388 -11.23780
 Alpha  occ. eigenvalues --  -11.22531 -11.22529 -10.67340  -8.33028  -8.32821
 Alpha  occ. eigenvalues --   -8.32817  -6.84305  -3.95156  -3.94990  -3.94978
 Alpha  occ. eigenvalues --   -1.12261  -1.08431  -1.00430  -0.93619  -0.83572
 Alpha  occ. eigenvalues --   -0.78449  -0.68362  -0.63908  -0.60915  -0.60466
 Alpha  occ. eigenvalues --   -0.57356  -0.54897  -0.51803  -0.51165  -0.49778
 Alpha  occ. eigenvalues --   -0.49572  -0.47327  -0.47024  -0.46588  -0.42925
 Alpha  occ. eigenvalues --   -0.40434
 Alpha virt. eigenvalues --    0.03059   0.04215   0.04354   0.04575   0.06218
 Alpha virt. eigenvalues --    0.06431   0.06707   0.06771   0.06932   0.08854
 Alpha virt. eigenvalues --    0.09006   0.09575   0.09672   0.11242   0.12931

 Mulliken charges:
               1
     1  Si   0.722115
     2  C    0.174758
     3  C    0.117492
     4  H   -0.212411
     5  H   -0.080641
     6  C    0.257434
     7  H   -0.089850
     8  H   -0.110739
     9  C    0.117492
    10  H   -0.105005
    11  H   -0.095034
    12  C    0.174758
    13  H   -0.089850
    14  H   -0.110739
    15  H   -0.080641
    16  H   -0.212411
    17  Cl  -0.590843
    18  H    0.214115
 Sum of Mulliken charges =  -0.00000

 Dipole moment (field-independent basis, Debye):
    X=              0.3236    Y=             -2.6939    Z=             -0.0000  Tot=              2.7133

 Test job not archived.
 1\1\GINC-SE364\SP\RHF\Aug-CC-pVDZ\C5H11Cl1Si1\OHZDE\08-Apr-2025\0\\#t
 hf aug-cc-pvdz iop(5/13=1,5/36=2,99/5=2) pseudo=read geom=check guess=
 (read,tcheck) scf=(maxcycle=1)\\title\\0,1\Si,0,0.651474,0.,0.483297\C
 ,0,-0.302138,-1.492943,-0.125147\C,0,-1.816329,-1.294855,0.136666\H,0,
 0.057299,-2.413737,0.343756\H,0,-0.123955,-1.600376,-1.201812\C,0,-2.3
 89057,0.,-0.467619\H,0,-2.006819,-1.29624,1.217554\H,0,-2.366294,-2.15
 2456,-0.265198\C,0,-1.816329,1.294855,0.136666\H,0,-3.475586,0.,-0.331
 958\H,0,-2.216024,0.,-1.551767\C,0,-0.302138,1.492943,-0.125147\H,0,-2

 Normal termination of Gaussian 16 at Tue Apr  8 23:47:07 2025.
