 Gaussian 16, Revision C.01,

 ----------------------------------------------------------------------
 #t hf aug-cc-pvdz symm=none int=(grid=ultrafine) guess=(read,tcheck) s
 table=(opt,rrhf)
 ----------------------------------------------------------------------
 -----
 title
 -----
 Symbolic Z-matrix:
 Charge =  0 Multiplicity = 1

 SCF Done:  E(RHF) =  -407.375992295     A.U. after   12 cycles
 Normal termination of Gaussian 16 at Wed Apr  9 00:38:42 2025.
 Gaussian 16:  ES64L-G16RevC.01  3-Jul-2019

 ----------------------------------------------------------------------
 #t hf aug-cc-pvdz iop(5/13=1,5/36=2,99/5=2) pseudo=read geom=check gue
 ss=(read,tcheck) scf=(maxcycle=1)
 ----------------------------------------------------------------------
 -----
 title
 -----
 Structure from the checkpoint file:  "BDE49_nonexpt_626_mol1.chk"
 Charge =  0 Multiplicity = 1

                         Standard orientation:
 ---------------------------------------------------------------------
 Center     Atomic      Atomic             Coordinates (Angstroms)
 Number     Number       Type             X           Y           Z
 ---------------------------------------------------------------------
      1          8           0       -0.741920   -0.958926    0.027534
      2          5           0       -1.637790    0.067597    0.004328
      3          8           0       -2.700633    0.052954    0.872279
      4          6           0        0.384095   -1.019547   -0.860730
      5          6           0        1.685834   -1.093292   -0.068635
      6          1           0        0.371863   -0.157807   -1.531432
      7          6           0        1.976527    0.124350    0.821288
      8          1           0        2.503538   -1.228246   -0.788432
      9          1           0        1.661125   -1.996251    0.551093
     10          6           0        2.147323    1.443536    0.059303
     11          1           0        2.886067   -0.081998    1.395840
     12          1           0        1.171985    0.226388    1.557029
     13          1           0        2.932580    1.363567   -0.699889
     14          1           0        2.428755    2.251683    0.740108
     15          1           0        1.223922    1.743890   -0.441705
     16          1           0        0.268651   -1.922788   -1.467253
     17          1           0       -2.691990   -0.732472    1.426889
     18          8           0       -1.498243    1.118902   -0.864318
     19          1           0       -2.203852    1.762320   -0.755201
 ---------------------------------------------------------------------

 SCF Done:  E(RHF) =  -407.514945558     A.U. after    2 cycles

 The electronic state is 1-A.
 Alpha  occ. eigenvalues --  -20.57907 -20.57687 -20.56942 -11.28690 -11.22936
 Alpha  occ. eigenvalues --  -11.22657 -11.21812  -7.68114  -1.35670  -1.31045
 Alpha  occ. eigenvalues --   -1.30688  -1.05927  -0.97141  -0.87708  -0.78904
 Alpha  occ. eigenvalues --   -0.77907  -0.75556  -0.69958  -0.66181  -0.63087
 Alpha  occ. eigenvalues --   -0.59960  -0.59157  -0.58720  -0.57569  -0.56209
 Alpha  occ. eigenvalues --   -0.53876  -0.52418  -0.51112  -0.49170  -0.47288
 Alpha  occ. eigenvalues --   -0.46100  -0.44956
 Alpha virt. eigenvalues --    0.03205   0.04373   0.04476   0.04752   0.06021
 Alpha virt. eigenvalues --    0.06214   0.06534   0.06763   0.07218   0.08720
 Alpha virt. eigenvalues --    0.08953   0.09177   0.10174   0.10777   0.11556

 Mulliken charges:
               1
     1  O   -0.554940
     2  B    0.809054
     3  O   -0.517062
     4  C    0.882808
     5  C    0.111309
     6  H   -0.230120
     7  C    0.139891
     8  H   -0.060280
     9  H   -0.118831
    10  C    0.442859
    11  H   -0.101819
    12  H   -0.114078
    13  H   -0.070647
    14  H   -0.103021
    15  H   -0.162883
    16  H   -0.188163
    17  H    0.161953
    18  O   -0.498519
    19  H    0.172489
 Sum of Mulliken charges =   0.00000

 Dipole moment (field-independent basis, Debye):
    X=              0.4014    Y=             -0.3253    Z=              0.0404  Tot=              0.5182

 Test job not archived.
 1\1\GINC-SE419\SP\RHF\Aug-CC-pVDZ\C4H11B1O3\OHZDE\09-Apr-2025\0\\#t hf
  aug-cc-pvdz iop(5/13=1,5/36=2,99/5=2) pseudo=read geom=check guess=(r
 ead,tcheck) scf=(maxcycle=1)\\title\\0,1\O,0,-0.74192,-0.958926,0.0275
 34\B,0,-1.63779,0.067597,0.004328\O,0,-2.700633,0.052954,0.872279\C,0,
 0.384095,-1.019547,-0.86073\C,0,1.685834,-1.093292,-0.068635\H,0,0.371
 863,-0.157807,-1.531432\C,0,1.976527,0.12435,0.821288\H,0,2.503538,-1.
 228246,-0.788432\H,0,1.661125,-1.996251,0.551093\C,0,2.147323,1.443536
 ,0.059303\H,0,2.886067,-0.081998,1.39584\H,0,1.171985,0.226388,1.55702

 Normal termination of Gaussian 16 at Wed Apr  9 00:38:50 2025.
