 Gaussian 16, Revision C.01,

 ----------------------------------------------------------------------
 #t hf aug-cc-pvdz symm=none int=(grid=ultrafine) guess=(read,tcheck) s
 table=(opt,rrhf)
 ----------------------------------------------------------------------
 -----
 title
 -----
 Symbolic Z-matrix:
 Charge =  0 Multiplicity = 1

 SCF Done:  E(RHF) =  -484.842693670     A.U. after   14 cycles
 Normal termination of Gaussian 16 at Wed Apr  9 00:40:10 2025.
 Gaussian 16:  ES64L-G16RevC.01  3-Jul-2019

 ----------------------------------------------------------------------
 #t hf aug-cc-pvdz iop(5/13=1,5/36=2,99/5=2) pseudo=read geom=check gue
 ss=(read,tcheck) scf=(maxcycle=1)
 ----------------------------------------------------------------------
 -----
 title
 -----
 Structure from the checkpoint file:  "BDE49_nonexpt_682_mol1.chk"
 Charge =  0 Multiplicity = 1

                         Standard orientation:
 ---------------------------------------------------------------------
 Center     Atomic      Atomic             Coordinates (Angstroms)
 Number     Number       Type             X           Y           Z
 ---------------------------------------------------------------------
      1          5           0        2.243605    1.098857   -0.128312
      2         15           0        1.428624   -0.541976    0.058187
      3          6           0       -2.759889    0.232375   -0.054235
      4          6           0       -0.355421   -0.525612   -0.452864
      5          6           0       -1.303980    0.310459    0.417740
      6          1           0       -0.695154   -1.565522   -0.493240
      7          1           0       -0.360709   -0.160854   -1.485612
      8          1           0       -0.966206    1.351730    0.415170
      9          1           0       -1.236469   -0.029982    1.456749
     10          1           0       -3.131035   -0.796759   -0.028800
     11          1           0       -2.863845    0.597762   -1.080384
     12          1           0       -3.412308    0.836659    0.581745
     13          1           0        3.175984    1.360553    0.562151
     14          1           0        1.959425    1.791248   -1.054607
     15          1           0        1.398674   -0.852808    1.431726
 ---------------------------------------------------------------------

 SCF Done:  E(RHF) =  -484.910313495     A.U. after    2 cycles

 The electronic state is 1-A.
 Alpha  occ. eigenvalues --  -81.23615 -11.25023 -11.24153 -11.23033  -7.74400
 Alpha  occ. eigenvalues --   -7.61872  -4.88485  -4.88467  -4.88167  -1.05917
 Alpha  occ. eigenvalues --   -0.94182  -0.82245  -0.77480  -0.65976  -0.63691
 Alpha  occ. eigenvalues --   -0.59018  -0.55939  -0.54593  -0.51224  -0.49465
 Alpha  occ. eigenvalues --   -0.48608  -0.46773  -0.44084  -0.32235
 Alpha virt. eigenvalues --    0.03304   0.04208   0.04597   0.04774   0.05281
 Alpha virt. eigenvalues --    0.06174   0.06390   0.07096   0.07895   0.08779
 Alpha virt. eigenvalues --    0.08902   0.09598   0.10567   0.11680   0.12542

 Mulliken charges:
               1
     1  B   -0.520892
     2  P    0.235320
     3  C    0.451711
     4  C   -0.122091
     5  C    0.040036
     6  H   -0.165409
     7  H   -0.134687
     8  H   -0.132871
     9  H   -0.123676
    10  H   -0.073929
    11  H   -0.068136
    12  H   -0.071131
    13  H    0.332595
    14  H    0.275213
    15  H    0.077948
 Sum of Mulliken charges =  -0.00000

 Dipole moment (field-independent basis, Debye):
    X=             -1.6630    Y=              0.0967    Z=              0.3297  Tot=              1.6982

 Test job not archived.
 1\1\GINC-SE229\SP\RHF\Aug-CC-pVDZ\C3H10B1P1\OHZDE\09-Apr-2025\0\\#t hf
  aug-cc-pvdz iop(5/13=1,5/36=2,99/5=2) pseudo=read geom=check guess=(r
 ead,tcheck) scf=(maxcycle=1)\\title\\0,1\B,0,2.243605,1.098857,-0.1283
 12\P,0,1.428624,-0.541976,0.058187\C,0,-2.759889,0.232375,-0.054235\C,
 0,-0.355421,-0.525612,-0.452864\C,0,-1.30398,0.310459,0.41774\H,0,-0.6
 95154,-1.565522,-0.49324\H,0,-0.360709,-0.160854,-1.485612\H,0,-0.9662
 06,1.35173,0.41517\H,0,-1.236469,-0.029982,1.456749\H,0,-3.131035,-0.7
 96759,-0.0288\H,0,-2.863845,0.597762,-1.080384\H,0,-3.412308,0.836659,

 Normal termination of Gaussian 16 at Wed Apr  9 00:40:15 2025.
