 Gaussian 16, Revision C.01,

 ----------------------------------------------------------------------
 #t hf aug-cc-pvdz symm=none int=(grid=ultrafine) guess=(read,tcheck) s
 table=(opt,rrhf)
 ----------------------------------------------------------------------
 -----
 title
 -----
 Symbolic Z-matrix:
 Charge =  0 Multiplicity = 1

 SCF Done:  E(RHF) =  -597.588315149     A.U. after   15 cycles
 Normal termination of Gaussian 16 at Wed Apr  9 00:43:36 2025.
 Gaussian 16:  ES64L-G16RevC.01  3-Jul-2019

 ----------------------------------------------------------------------
 #t hf aug-cc-pvdz iop(5/13=1,5/36=2,99/5=2) pseudo=read geom=check gue
 ss=(read,tcheck) scf=(maxcycle=1)
 ----------------------------------------------------------------------
 -----
 title
 -----
 Structure from the checkpoint file:  "BDE49_nonexpt_765_mol1.chk"
 Charge =  0 Multiplicity = 1

                         Standard orientation:
 ---------------------------------------------------------------------
 Center     Atomic      Atomic             Coordinates (Angstroms)
 Number     Number       Type             X           Y           Z
 ---------------------------------------------------------------------
      1          6           0       -2.865530   -0.030396    0.771257
      2          6           0       -2.193828    0.603944   -0.450270
      3          1           0       -2.449799   -1.018149    0.981870
      4          1           0       -3.938948   -0.151893    0.605575
      5          1           0       -2.736021    0.591496    1.662848
      6          6           0       -0.689876    0.840628   -0.269235
      7          1           0       -2.665175    1.566690   -0.671921
      8          1           0       -2.345695   -0.032607   -1.325820
      9          6           0        0.137208   -0.436189   -0.263414
     10          1           0       -0.480688    1.405666    0.646242
     11          1           0       -0.294709    1.452151   -1.090213
     12          8           0       -0.263387   -1.499428   -0.664526
     13          5           0        2.805276    1.135539   -0.126480
     14         15           0        1.864839   -0.339333    0.464283
     15          1           0        3.979529    1.041156   -0.281507
     16          1           0        2.258738    2.187559   -0.209608
     17          1           0        2.453050   -1.502262   -0.063127
 ---------------------------------------------------------------------

 SCF Done:  E(RHF) =  -597.688293817     A.U. after    2 cycles

 The electronic state is 1-A.
 Alpha  occ. eigenvalues --  -81.25552 -20.57804 -11.36265 -11.25779 -11.24038
 Alpha  occ. eigenvalues --  -11.22577  -7.76452  -7.64057  -4.90550  -4.90512
 Alpha  occ. eigenvalues --   -4.90175  -1.37079  -1.07238  -0.97167  -0.86867
 Alpha  occ. eigenvalues --   -0.81436  -0.74567  -0.69413  -0.65443  -0.63914
 Alpha  occ. eigenvalues --   -0.62026  -0.58853  -0.56574  -0.54239  -0.52728
 Alpha  occ. eigenvalues --   -0.50231  -0.49219  -0.48762  -0.48538  -0.40732
 Alpha  occ. eigenvalues --   -0.34938
 Alpha virt. eigenvalues --    0.03055   0.03678   0.03809   0.04585   0.05139
 Alpha virt. eigenvalues --    0.05766   0.06166   0.07447   0.07602   0.07997
 Alpha virt. eigenvalues --    0.08457   0.09132   0.09705   0.10213   0.11892

 Mulliken charges:
               1
     1  C    0.373833
     2  C    0.366241
     3  H   -0.090820
     4  H   -0.076158
     5  H   -0.068887
     6  C    0.008847
     7  H   -0.060967
     8  H   -0.071135
     9  C   -0.053314
    10  H   -0.098739
    11  H   -0.013201
    12  O   -0.538078
    13  B   -0.502534
    14  P    0.066075
    15  H    0.341447
    16  H    0.318397
    17  H    0.098992
 Sum of Mulliken charges =   0.00000

 Dipole moment (field-independent basis, Debye):
    X=              0.3656    Y=              2.5460    Z=              0.2209  Tot=              2.5816

 Test job not archived.
 1\1\GINC-SE177\SP\RHF\Aug-CC-pVDZ\C4H10B1O1P1\OHZDE\09-Apr-2025\0\\#t
 hf aug-cc-pvdz iop(5/13=1,5/36=2,99/5=2) pseudo=read geom=check guess=
 (read,tcheck) scf=(maxcycle=1)\\title\\0,1\C,0,2.86553,0.030396,0.7712
 57\C,0,2.193828,-0.603944,-0.45027\H,0,2.449799,1.018149,0.98187\H,0,3
 .938948,0.151893,0.605575\H,0,2.736021,-0.591496,1.662848\C,0,0.689876
 ,-0.840628,-0.269235\H,0,2.665175,-1.56669,-0.671921\H,0,2.345695,0.03
 2607,-1.32582\C,0,-0.137208,0.436189,-0.263414\H,0,0.480688,-1.405666,
 0.646242\H,0,0.294709,-1.452151,-1.090213\O,0,0.263387,1.499428,-0.664

 Normal termination of Gaussian 16 at Wed Apr  9 00:43:42 2025.
