 Gaussian 16, Revision C.01,

 ----------------------------------------------------------------------
 #t hf aug-cc-pvdz symm=none int=(grid=ultrafine) guess=(read,tcheck) s
 table=(opt,rrhf)
 ----------------------------------------------------------------------
 -----
 title
 -----
 Symbolic Z-matrix:
 Charge =  0 Multiplicity = 1

 SCF Done:  E(RHF) =  -445.244163508     A.U. after   12 cycles
 Normal termination of Gaussian 16 at Wed Apr  9 00:40:07 2025.
 Gaussian 16:  ES64L-G16RevC.01  3-Jul-2019

 ----------------------------------------------------------------------
 #t hf aug-cc-pvdz iop(5/13=1,5/36=2,99/5=2) pseudo=read geom=check gue
 ss=(read,tcheck) scf=(maxcycle=1)
 ----------------------------------------------------------------------
 -----
 title
 -----
 Structure from the checkpoint file:  "BDE49_nonexpt_667_mol1.chk"
 Charge =  0 Multiplicity = 1

                         Standard orientation:
 ---------------------------------------------------------------------
 Center     Atomic      Atomic             Coordinates (Angstroms)
 Number     Number       Type             X           Y           Z
 ---------------------------------------------------------------------
      1          8           0        1.595928    0.937509   -0.021173
      2          8           0        2.493574   -1.216954    0.014301
      3          8           0        0.144538   -0.996962   -0.004965
      4          6           0        0.474738    1.820328   -0.017730
      5          6           0       -0.757857    1.168732   -0.635421
      6          6           0       -1.066408   -0.201590   -0.004851
      7          6           0       -1.549697   -0.082287    1.445181
      8          6           0       -2.081274   -0.972429   -0.848320
      9          5           0        1.389204   -0.412340   -0.001460
     10          1           0        2.239660   -2.143931    0.022451
     11          1           0        0.762309    2.708144   -0.585553
     12          1           0        0.280006    2.139092    1.012452
     13          1           0       -0.585049    1.026885   -1.707718
     14          1           0       -1.620870    1.833381   -0.529370
     15          1           0       -2.499927    0.456553    1.497080
     16          1           0       -0.822372    0.441867    2.069088
     17          1           0       -1.693588   -1.079106    1.867198
     18          1           0       -1.707138   -1.101998   -1.866317
     19          1           0       -2.251779   -1.962095   -0.418527
     20          1           0       -3.036601   -0.442357   -0.891938
 ---------------------------------------------------------------------

 SCF Done:  E(RHF) =  -445.391850274     A.U. after    2 cycles

 The electronic state is 1-A.
 Alpha  occ. eigenvalues --  -20.56950 -20.56804 -20.56419 -11.31279 -11.29812
 Alpha  occ. eigenvalues --  -11.24542 -11.23446 -11.23218  -7.67332  -1.35736
 Alpha  occ. eigenvalues --   -1.30858  -1.30272  -1.08112  -0.99986  -0.94656
 Alpha  occ. eigenvalues --   -0.88357  -0.80924  -0.74365  -0.70833  -0.68447
 Alpha  occ. eigenvalues --   -0.66503  -0.63591  -0.62380  -0.60186  -0.58811
 Alpha  occ. eigenvalues --   -0.58541  -0.55394  -0.54759  -0.53717  -0.52740
 Alpha  occ. eigenvalues --   -0.51666  -0.51256  -0.46502  -0.45636  -0.45238
 Alpha virt. eigenvalues --    0.02941   0.04139   0.04365   0.04660   0.06030
 Alpha virt. eigenvalues --    0.06086   0.06137   0.06669   0.06793   0.08623
 Alpha virt. eigenvalues --    0.09094   0.09205   0.09520   0.10645   0.11233

 Mulliken charges:
               1
     1  O   -0.560295
     2  O   -0.580510
     3  O   -0.578573
     4  C    0.932323
     5  C    0.581021
     6  C   -2.094583
     7  C    0.899950
     8  C    0.993321
     9  B    0.715073
    10  H    0.179938
    11  H   -0.177479
    12  H   -0.126640
    13  H   -0.089197
    14  H   -0.090145
    15  H    0.027693
    16  H   -0.124339
    17  H    0.020196
    18  H   -0.020154
    19  H    0.018113
    20  H    0.074287
 Sum of Mulliken charges =  -0.00000

 Dipole moment (field-independent basis, Debye):
    X=             -3.7618    Y=              0.5779    Z=             -0.0242  Tot=              3.8060

 Test job not archived.
 1\1\GINC-SE072\SP\RHF\Aug-CC-pVDZ\C5H11B1O3\OHZDE\09-Apr-2025\0\\#t hf
  aug-cc-pvdz iop(5/13=1,5/36=2,99/5=2) pseudo=read geom=check guess=(r
 ead,tcheck) scf=(maxcycle=1)\\title\\0,1\O,0,1.595928,0.937509,-0.0211
 73\O,0,2.493574,-1.216954,0.014301\O,0,0.144538,-0.996962,-0.004965\C,
 0,0.474738,1.820328,-0.01773\C,0,-0.757857,1.168732,-0.635421\C,0,-1.0
 66408,-0.20159,-0.004851\C,0,-1.549697,-0.082287,1.445181\C,0,-2.08127
 4,-0.972429,-0.84832\B,0,1.389204,-0.41234,-0.00146\H,0,2.23966,-2.143
 931,0.022451\H,0,0.762309,2.708144,-0.585553\H,0,0.280006,2.139092,1.0

 Normal termination of Gaussian 16 at Wed Apr  9 00:40:18 2025.
