 Gaussian 16, Revision C.01,

 ----------------------------------------------------------------------
 #t hf aug-cc-pvdz symm=none int=(grid=ultrafine) guess=(read,tcheck) s
 table=(opt,rrhf)
 ----------------------------------------------------------------------
 -----
 title
 -----
 Symbolic Z-matrix:
 Charge =  0 Multiplicity = 1

 SCF Done:  E(RHF) =  -747.185054051     A.U. after   15 cycles
 Normal termination of Gaussian 16 at Wed Apr  9 00:43:05 2025.
 Gaussian 16:  ES64L-G16RevC.01  3-Jul-2019

 ----------------------------------------------------------------------
 #t hf aug-cc-pvdz iop(5/13=1,5/36=2,99/5=2) pseudo=read geom=check gue
 ss=(read,tcheck) scf=(maxcycle=1)
 ----------------------------------------------------------------------
 -----
 title
 -----
 Structure from the checkpoint file:  "BDE49_nonexpt_740_mol1.chk"
 Charge =  0 Multiplicity = 1

                         Standard orientation:
 ---------------------------------------------------------------------
 Center     Atomic      Atomic             Coordinates (Angstroms)
 Number     Number       Type             X           Y           Z
 ---------------------------------------------------------------------
      1          6           0        2.375893    1.118519    0.588793
      2          6           0        1.090301    0.700717    0.931275
      3          6           0        3.121788    0.396108   -0.338911
      4          6           0        2.571859   -0.743531   -0.924101
      5          6           0        1.281551   -1.151473   -0.596540
      6          6           0        0.517197   -0.434353    0.335043
      7          1           0        0.864080   -2.032655   -1.070595
      8          1           0        4.124841    0.713673   -0.599454
      9          1           0        3.147221   -1.314319   -1.644748
     10          1           0        2.797778    1.999455    1.059887
     11          1           0        0.536159    1.250308    1.686523
     12          5           0       -2.229800    0.323169   -0.241230
     13          8           0       -3.540930    0.020709   -0.436984
     14          8           0       -1.727772    1.491544   -0.731494
     15          1           0       -0.775352    1.577959   -0.608318
     16          1           0       -3.994531    0.697603   -0.953920
     17         15           0       -1.187000   -0.925409    0.847954
     18          1           0       -1.348113   -2.040677   -0.008070
 ---------------------------------------------------------------------

 SCF Done:  E(RHF) =  -747.332501954     A.U. after    2 cycles

 The electronic state is 1-A.
 Alpha  occ. eigenvalues --  -81.24429 -20.58971 -20.58595 -11.26499 -11.25889
 Alpha  occ. eigenvalues --  -11.25776 -11.25756 -11.25630 -11.25495  -7.74997
 Alpha  occ. eigenvalues --   -7.67642  -4.89145  -4.88977  -4.88730  -1.35154
 Alpha  occ. eigenvalues --   -1.31533  -1.15333  -1.02463  -1.02157  -0.85331
 Alpha  occ. eigenvalues --   -0.83977  -0.79965  -0.77368  -0.74471  -0.69909
 Alpha  occ. eigenvalues --   -0.64620  -0.64241  -0.62930  -0.60307  -0.59898
 Alpha  occ. eigenvalues --   -0.58975  -0.56344  -0.52868  -0.52220  -0.50940
 Alpha  occ. eigenvalues --   -0.48612  -0.45234  -0.38329  -0.35380  -0.31701
 Alpha virt. eigenvalues --    0.02863   0.03824   0.03974   0.05026   0.05840
 Alpha virt. eigenvalues --    0.06013   0.06958   0.07558   0.07684   0.08698
 Alpha virt. eigenvalues --    0.09158   0.09267   0.09825   0.10648   0.11017

 Mulliken charges:
               1
     1  C    0.384582
     2  C    0.657172
     3  C    0.586693
     4  C    0.499591
     5  C    0.628643
     6  C   -0.383015
     7  H   -0.547012
     8  H   -0.426185
     9  H   -0.449236
    10  H   -0.452414
    11  H   -0.562744
    12  B    0.849026
    13  O   -0.536293
    14  O   -0.450645
    15  H    0.256921
    16  H    0.191539
    17  P   -0.354201
    18  H    0.107578
 Sum of Mulliken charges =   0.00000

 Dipole moment (field-independent basis, Debye):
    X=              1.8358    Y=              0.8981    Z=             -1.1834  Tot=              2.3617

 Test job not archived.
 1\1\GINC-SE365\SP\RHF\Aug-CC-pVDZ\C6H8B1O2P1\OHZDE\09-Apr-2025\0\\#t h
 f aug-cc-pvdz iop(5/13=1,5/36=2,99/5=2) pseudo=read geom=check guess=(
 read,tcheck) scf=(maxcycle=1)\\title\\0,1\C,0,2.375893,1.118519,0.5887
 93\C,0,1.090301,0.700717,0.931275\C,0,3.121788,0.396108,-0.338911\C,0,
 2.571859,-0.743531,-0.924101\C,0,1.281551,-1.151473,-0.59654\C,0,0.517
 197,-0.434353,0.335043\H,0,0.86408,-2.032655,-1.070595\H,0,4.124841,0.
 713673,-0.599454\H,0,3.147221,-1.314319,-1.644748\H,0,2.797778,1.99945
 5,1.059887\H,0,0.536159,1.250308,1.686523\B,0,-2.2298,0.323169,-0.2412

 Normal termination of Gaussian 16 at Wed Apr  9 00:43:14 2025.
