 Gaussian 16, Revision C.01,

 ----------------------------------------------------------------------
 #t hf aug-cc-pvdz symm=none int=(grid=ultrafine) guess=(read,tcheck) s
 table=(opt,rrhf)
 ----------------------------------------------------------------------
 -----
 title
 -----
 Symbolic Z-matrix:
 Charge =  0 Multiplicity = 1

 SCF Done:  E(RHF) =  -1076.29473473     A.U. after   13 cycles
 Normal termination of Gaussian 16 at Wed Apr  9 00:01:00 2025.
 Gaussian 16:  ES64L-G16RevC.01  3-Jul-2019

 ----------------------------------------------------------------------
 #t hf aug-cc-pvdz iop(5/13=1,5/36=2,99/5=2) pseudo=read geom=check gue
 ss=(read,tcheck) scf=(maxcycle=1)
 ----------------------------------------------------------------------
 -----
 title
 -----
 Structure from the checkpoint file:  "BDE49_nonexpt_216_mol1.chk"
 Charge =  0 Multiplicity = 1

                         Standard orientation:
 ---------------------------------------------------------------------
 Center     Atomic      Atomic             Coordinates (Angstroms)
 Number     Number       Type             X           Y           Z
 ---------------------------------------------------------------------
      1         17           0        0.921855    1.657153   -0.000224
      2         17           0        1.870404   -1.224266   -0.000418
      3          5           0        0.548504   -0.053160    0.000866
      4          6           0       -0.916721   -0.590960    0.000493
      5          7           0       -1.905575    0.213737    0.000382
      6          1           0       -1.070794   -1.682966    0.000365
      7          6           0       -3.244826   -0.336343    0.000090
      8          1           0       -3.777503    0.046274    0.876304
      9          1           0       -3.277135   -1.435355   -0.000009
     10          1           0       -3.777176    0.046422   -0.876257
 ---------------------------------------------------------------------

 SCF Done:  E(RHF) =  -1076.37653563     A.U. after    2 cycles

 The electronic state is 1-A.
 Alpha  occ. eigenvalues -- -103.67335-103.66732 -15.66408 -11.28662 -11.27620
 Alpha  occ. eigenvalues --  -10.70820 -10.70225  -8.36510  -8.36295  -8.36259
 Alpha  occ. eigenvalues --   -8.35922  -8.35697  -8.35654  -7.73450  -1.21974
 Alpha  occ. eigenvalues --   -1.18125  -1.14639  -0.97558  -0.81360  -0.70433
 Alpha  occ. eigenvalues --   -0.66073  -0.63494  -0.60775  -0.57521  -0.55490
 Alpha  occ. eigenvalues --   -0.53155  -0.48198  -0.48089  -0.46748  -0.43380
 Alpha  occ. eigenvalues --   -0.42128
 Alpha virt. eigenvalues --    0.03228   0.03715   0.04477   0.05271   0.05393
 Alpha virt. eigenvalues --    0.07028   0.07068   0.07253   0.09344   0.12156
 Alpha virt. eigenvalues --    0.12483   0.13019   0.14507   0.15692   0.15855

 Mulliken charges:
               1
     1  Cl  -0.254898
     2  Cl  -0.327275
     3  B    0.580140
     4  C    0.473307
     5  N   -0.476068
     6  H   -0.333003
     7  C    0.643675
     8  H   -0.115499
     9  H   -0.074889
    10  H   -0.115490
 Sum of Mulliken charges =  -0.00000

 Dipole moment (field-independent basis, Debye):
    X=             -2.1815    Y=             -1.6873    Z=              0.0018  Tot=              2.7579

 Test job not archived.
 1\1\GINC-SE094\SP\RHF\Aug-CC-pVDZ\C2H4B1Cl2N1\OHZDE\09-Apr-2025\0\\#t
 hf aug-cc-pvdz iop(5/13=1,5/36=2,99/5=2) pseudo=read geom=check guess=
 (read,tcheck) scf=(maxcycle=1)\\title\\0,1\Cl,0,-0.921855,1.657153,0.0
 00224\Cl,0,-1.870404,-1.224266,0.000418\B,0,-0.548504,-0.05316,-0.0008
 66\C,0,0.916721,-0.59096,-0.000493\N,0,1.905575,0.213737,-0.000382\H,0
 ,1.070794,-1.682966,-0.000365\C,0,3.244826,-0.336343,-0.00009\H,0,3.77
 7503,0.046274,-0.876304\H,0,3.277135,-1.435355,0.000009\H,0,3.777176,0
 .046422,0.876257\\Version=ES64L-G16RevC.01\State=1-A\HF=-1076.3765356\

 Normal termination of Gaussian 16 at Wed Apr  9 00:01:04 2025.
