 Gaussian 16, Revision C.01,

 ----------------------------------------------------------------------
 #t hf aug-cc-pvdz symm=none int=(grid=ultrafine) guess=(read,tcheck) s
 table=(opt,rrhf)
 ----------------------------------------------------------------------
 -----
 title
 -----
 Symbolic Z-matrix:
 Charge =  0 Multiplicity = 1

 SCF Done:  E(RHF) =  -874.306838945     A.U. after   13 cycles
 Normal termination of Gaussian 16 at Wed Apr  9 00:23:41 2025.
 Gaussian 16:  ES64L-G16RevC.01  3-Jul-2019

 ----------------------------------------------------------------------
 #t hf aug-cc-pvdz iop(5/13=1,5/36=2,99/5=2) pseudo=read geom=check gue
 ss=(read,tcheck) scf=(maxcycle=1)
 ----------------------------------------------------------------------
 -----
 title
 -----
 Structure from the checkpoint file:  "BDE49_nonexpt_2740_mol1.chk"
 Charge =  0 Multiplicity = 1

                         Standard orientation:
 ---------------------------------------------------------------------
 Center     Atomic      Atomic             Coordinates (Angstroms)
 Number     Number       Type             X           Y           Z
 ---------------------------------------------------------------------
      1         16           0       -1.589808   -0.529521    0.149576
      2         16           0       -0.181380    0.963806   -0.239113
      3          6           0        1.367429    0.304813    0.505572
      4          6           0        1.987409   -0.871362   -0.236260
      5          1           0        1.163538    0.065703    1.550396
      6          1           0        2.028845    1.177600    0.488565
      7          1           0        1.320498   -1.736479   -0.226046
      8          1           0        2.924437   -1.169647    0.244385
      9          1           0        2.201588   -0.614320   -1.276092
     10          1           0       -1.428917   -1.272125   -0.964489
 ---------------------------------------------------------------------

 SCF Done:  E(RHF) =  -874.374020198     A.U. after    2 cycles

 The electronic state is 1-A.
 Alpha  occ. eigenvalues --  -93.56346 -93.55901 -11.27970 -11.24096  -8.85932
 Alpha  occ. eigenvalues --   -8.85445  -6.20049  -6.19825  -6.19550  -6.19479
 Alpha  occ. eigenvalues --   -6.19290  -6.18963  -1.07463  -0.99578  -0.89467
 Alpha  occ. eigenvalues --   -0.79294  -0.64085  -0.60395  -0.55992  -0.54901
 Alpha  occ. eigenvalues --   -0.51638  -0.48777  -0.44743  -0.37074  -0.35991
 Alpha virt. eigenvalues --    0.03493   0.04510   0.05198   0.05527   0.07105
 Alpha virt. eigenvalues --    0.07908   0.08439   0.09877   0.12433   0.13076
 Alpha virt. eigenvalues --    0.14001   0.14658   0.14830   0.15739   0.16418

 Mulliken charges:
               1
     1  S   -0.126563
     2  S    0.132270
     3  C   -0.191557
     4  C    0.288202
     5  H   -0.057756
     6  H   -0.000559
     7  H   -0.059514
     8  H   -0.055396
     9  H   -0.052701
    10  H    0.123573
 Sum of Mulliken charges =  -0.00000

 Dipole moment (field-independent basis, Debye):
    X=              1.8562    Y=             -1.0462    Z=             -0.0598  Tot=              2.1316

 Test job not archived.
 1\1\GINC-SE102\SP\RHF\Aug-CC-pVDZ\C2H6S2\OHZDE\09-Apr-2025\0\\#t hf au
 g-cc-pvdz iop(5/13=1,5/36=2,99/5=2) pseudo=read geom=check guess=(read
 ,tcheck) scf=(maxcycle=1)\\title\\0,1\S,0,-1.589808,-0.529521,0.149576
 \S,0,-0.18138,0.963806,-0.239113\C,0,1.367429,0.304813,0.505572\C,0,1.
 987409,-0.871362,-0.23626\H,0,1.163538,0.065703,1.550396\H,0,2.028845,
 1.1776,0.488565\H,0,1.320499,-1.736479,-0.226046\H,0,2.924437,-1.16964
 6,0.244385\H,0,2.201588,-0.61432,-1.276092\H,0,-1.428917,-1.272125,-0.
 964489\\Version=ES64L-G16RevC.01\State=1-A\HF=-874.3740202\RMSD=5.642e

 Normal termination of Gaussian 16 at Wed Apr  9 00:23:44 2025.
