 Gaussian 16, Revision C.01,

 ----------------------------------------------------------------------
 #t hf aug-cc-pvdz symm=none int=(grid=ultrafine) guess=(read,tcheck) s
 table=(opt,rrhf)
 ----------------------------------------------------------------------
 -----
 title
 -----
 Symbolic Z-matrix:
 Charge =  0 Multiplicity = 1

 SCF Done:  E(RHF) =  -494.254003613     A.U. after   15 cycles
 Normal termination of Gaussian 16 at Tue Apr  8 23:23:56 2025.
 Gaussian 16:  ES64L-G16RevC.01  3-Jul-2019

 ----------------------------------------------------------------------
 #t hf aug-cc-pvdz iop(5/13=1,5/36=2,99/5=2) pseudo=read geom=check gue
 ss=(read,tcheck) scf=(maxcycle=1)
 ----------------------------------------------------------------------
 -----
 title
 -----
 Structure from the checkpoint file:  "BDE49_nonexpt_1290_mol1.chk"
 Charge =  0 Multiplicity = 1

                         Standard orientation:
 ---------------------------------------------------------------------
 Center     Atomic      Atomic             Coordinates (Angstroms)
 Number     Number       Type             X           Y           Z
 ---------------------------------------------------------------------
      1          6           0       -1.446652   -0.952360    0.003960
      2          6           0       -0.491412    0.224470    0.008364
      3          1           0       -2.462564   -0.594995   -0.167131
      4          1           0       -1.397868   -1.466341    0.968894
      5          1           0       -1.166848   -1.677519   -0.765812
      6         15           0        1.360849   -0.158649   -0.117952
      7          8           0       -0.861688    1.371255    0.005345
      8          1           0        1.386841   -1.271606    0.759754
      9          1           0        1.749596    0.787491    0.856864
 ---------------------------------------------------------------------

 SCF Done:  E(RHF) =  -494.323320765     A.U. after    2 cycles

 The electronic state is 1-A.
 Alpha  occ. eigenvalues --  -81.27329 -20.57867 -11.36007 -11.25768  -7.77810
 Alpha  occ. eigenvalues --   -4.91759  -4.91741  -4.91418  -1.36960  -1.01860
 Alpha  occ. eigenvalues --   -0.85209  -0.73819  -0.64970  -0.63968  -0.61737
 Alpha  occ. eigenvalues --   -0.56335  -0.53278  -0.52140  -0.42674  -0.36875
 Alpha virt. eigenvalues --    0.03036   0.04870   0.05523   0.06041   0.07369
 Alpha virt. eigenvalues --    0.08562   0.09696   0.10607   0.11464   0.12849
 Alpha virt. eigenvalues --    0.12996   0.15560   0.15654   0.15903   0.16694

 Mulliken charges:
               1
     1  C    0.201625
     2  C   -0.036019
     3  H   -0.061575
     4  H    0.025391
     5  H    0.027691
     6  P    0.039013
     7  O   -0.481804
     8  H    0.126883
     9  H    0.158795
 Sum of Mulliken charges =  -0.00000

 Dipole moment (field-independent basis, Debye):
    X=              0.4262    Y=             -3.1381    Z=              0.6284  Tot=              3.2287

 Test job not archived.
 1\1\GINC-SE074\SP\RHF\Aug-CC-pVDZ\C2H5O1P1\OHZDE\08-Apr-2025\0\\#t hf
 aug-cc-pvdz iop(5/13=1,5/36=2,99/5=2) pseudo=read geom=check guess=(re
 ad,tcheck) scf=(maxcycle=1)\\title\\0,1\C,0,-1.446652,-0.95236,0.00396
 \C,0,-0.491412,0.22447,0.008364\H,0,-2.462564,-0.594995,-0.167131\H,0,
 -1.397868,-1.466341,0.968894\H,0,-1.166848,-1.677519,-0.765812\P,0,1.3
 60849,-0.158649,-0.117952\O,0,-0.861688,1.371255,0.005345\H,0,1.386841
 ,-1.271606,0.759754\H,0,1.749596,0.787491,0.856864\\Version=ES64L-G16R
 evC.01\State=1-A\HF=-494.3233208\RMSD=9.708e-03\Dipole=0.167665,-1.234

 Normal termination of Gaussian 16 at Tue Apr  8 23:23:58 2025.
