 Gaussian 16, Revision C.01,

 ----------------------------------------------------------------------
 #t hf aug-cc-pvdz symm=none int=(grid=ultrafine) guess=(read,tcheck) s
 table=(opt,rrhf)
 ----------------------------------------------------------------------
 -----
 title
 -----
 Symbolic Z-matrix:
 Charge =  0 Multiplicity = 1

 SCF Done:  E(RHF) =  -867.778392904     A.U. after   16 cycles
 Normal termination of Gaussian 16 at Tue Apr  8 23:36:42 2025.
 Gaussian 16:  ES64L-G16RevC.01  3-Jul-2019

 ----------------------------------------------------------------------
 #t hf aug-cc-pvdz iop(5/13=1,5/36=2,99/5=2) pseudo=read geom=check gue
 ss=(read,tcheck) scf=(maxcycle=1)
 ----------------------------------------------------------------------
 -----
 title
 -----
 Structure from the checkpoint file:  "BDE49_nonexpt_1515_mol1.chk"
 Charge =  0 Multiplicity = 1

                         Standard orientation:
 ---------------------------------------------------------------------
 Center     Atomic      Atomic             Coordinates (Angstroms)
 Number     Number       Type             X           Y           Z
 ---------------------------------------------------------------------
      1         15           0       -0.202652    0.062110   -0.865971
      2          7           0       -1.299444    1.342536    0.035899
      3          7           0       -0.626493   -1.397799   -0.065395
      4          8           0       -1.092445    2.511785   -0.229222
      5          8           0       -2.161470    0.934916    0.813268
      6          8           0       -0.745167   -1.420032    1.330237
      7          8           0       -1.787804   -1.954455   -0.661922
      8          6           0        1.310565    0.500271    0.100849
      9          6           0        2.531551   -0.327190   -0.331556
     10          1           0        1.110373    0.372735    1.167322
     11          1           0        1.475081    1.564842   -0.093446
     12          6           0        3.802364    0.097315    0.411462
     13          1           0        2.684573   -0.220758   -1.411288
     14          1           0        2.333151   -1.386670   -0.147025
     15          1           0        4.040871    1.147708    0.220600
     16          1           0        4.658375   -0.503287    0.093804
     17          1           0        3.688074   -0.028673    1.491837
     18          1           0       -1.564762   -2.890267   -0.751710
     19          1           0       -1.476169   -0.800524    1.522532
 ---------------------------------------------------------------------

 SCF Done:  E(RHF) =  -867.968396234     A.U. after    2 cycles

 The electronic state is 1-A.
 Alpha  occ. eigenvalues --  -81.35792 -20.64298 -20.63565 -20.63105 -20.62511
 Alpha  occ. eigenvalues --  -15.90092 -15.76322 -11.27262 -11.26178 -11.24381
 Alpha  occ. eigenvalues --   -7.85485  -4.99542  -4.99362  -4.98990  -1.54643
 Alpha  occ. eigenvalues --   -1.44311  -1.36969  -1.33597  -1.09024  -1.04950
 Alpha  occ. eigenvalues --   -0.96959  -0.93201  -0.84253  -0.81922  -0.77658
 Alpha  occ. eigenvalues --   -0.75581  -0.74154  -0.71965  -0.68454  -0.67094
 Alpha  occ. eigenvalues --   -0.66541  -0.63524  -0.59891  -0.57377  -0.55851
 Alpha  occ. eigenvalues --   -0.53762  -0.53221  -0.52336  -0.51029  -0.50315
 Alpha  occ. eigenvalues --   -0.48440  -0.47587  -0.43104  -0.40678
 Alpha virt. eigenvalues --    0.02900   0.03608   0.04368   0.04854   0.06061
 Alpha virt. eigenvalues --    0.06414   0.06823   0.07466   0.07568   0.08461
 Alpha virt. eigenvalues --    0.09177   0.10100   0.11148   0.12719   0.13498

 Mulliken charges:
               1
     1  P    1.379899
     2  N    0.513196
     3  N   -0.032756
     4  O   -0.605546
     5  O   -0.618941
     6  O   -0.487334
     7  O   -0.479006
     8  C    0.101688
     9  C   -0.018005
    10  H   -0.114099
    11  H   -0.132467
    12  C    0.487782
    13  H   -0.118790
    14  H   -0.140019
    15  H   -0.079271
    16  H   -0.057070
    17  H   -0.067952
    18  H    0.213093
    19  H    0.255598
 Sum of Mulliken charges =  -0.00000

 Dipole moment (field-independent basis, Debye):
    X=              3.6460    Y=             -2.6775    Z=             -1.1597  Tot=              4.6699

 Test job not archived.
 1\1\GINC-SE043\SP\RHF\Aug-CC-pVDZ\C3H9N2O4P1\OHZDE\08-Apr-2025\0\\#t h
 f aug-cc-pvdz iop(5/13=1,5/36=2,99/5=2) pseudo=read geom=check guess=(
 read,tcheck) scf=(maxcycle=1)\\title\\0,1\P,0,-0.202652,0.06211,-0.865
 971\N,0,-1.299444,1.342536,0.035899\N,0,-0.626493,-1.397799,-0.065395\
 O,0,-1.092445,2.511785,-0.229222\O,0,-2.16147,0.934916,0.813268\O,0,-0
 .745167,-1.420032,1.330237\O,0,-1.787804,-1.954455,-0.661922\C,0,1.310
 565,0.500271,0.100849\C,0,2.531551,-0.32719,-0.331556\H,0,1.110373,0.3
 72735,1.167322\H,0,1.475081,1.564842,-0.093446\C,0,3.802364,0.097315,0

 Normal termination of Gaussian 16 at Tue Apr  8 23:36:54 2025.
