 Gaussian 16, Revision C.01,

 ----------------------------------------------------------------------
 #t hf aug-cc-pvdz symm=none int=(grid=ultrafine) guess=(read,tcheck) s
 table=(opt,rrhf)
 ----------------------------------------------------------------------
 -----
 title
 -----
 Symbolic Z-matrix:
 Charge =  0 Multiplicity = 1

 SCF Done:  E(RHF) =  -735.904464456     A.U. after   12 cycles
 Normal termination of Gaussian 16 at Tue Apr  8 22:38:24 2025.
 Gaussian 16:  ES64L-G16RevC.01  3-Jul-2019

 ----------------------------------------------------------------------
 #t hf aug-cc-pvdz iop(5/13=1,5/36=2,99/5=2) pseudo=read geom=check gue
 ss=(read,tcheck) scf=(maxcycle=1)
 ----------------------------------------------------------------------
 -----
 title
 -----
 Structure from the checkpoint file:  "BDE49_expt_129_mol1.chk"
 Charge =  0 Multiplicity = 1

                         Standard orientation:
 ---------------------------------------------------------------------
 Center     Atomic      Atomic             Coordinates (Angstroms)
 Number     Number       Type             X           Y           Z
 ---------------------------------------------------------------------
      1          6           0       -0.357411    0.005640    0.000000
      2          6           0       -0.818638    1.438155    0.000000
      3          9           0       -0.818638   -0.653639    1.087666
      4         17           0        1.447318   -0.131400    0.000000
      5          9           0       -0.818638   -0.653639   -1.087666
      6          1           0       -0.451028    1.946672    0.890162
      7          1           0       -1.910576    1.443185    0.000000
      8          1           0       -0.451028    1.946672   -0.890162
 ---------------------------------------------------------------------

 SCF Done:  E(RHF) =  -736.021236530     A.U. after    2 cycles

 The electronic state is 1-A'.
 Alpha  occ. eigenvalues -- -103.67880 -26.16401 -26.16391 -11.50249 -11.27395
 Alpha  occ. eigenvalues --  -10.71236  -8.36949  -8.36633  -8.36631  -1.73438
 Alpha  occ. eigenvalues --   -1.68568  -1.19214  -1.06123  -0.94061  -0.85002
 Alpha  occ. eigenvalues --   -0.81667  -0.80425  -0.75719  -0.72188  -0.66604
 Alpha  occ. eigenvalues --   -0.59864  -0.59758  -0.55191  -0.49233  -0.48534
 Alpha virt. eigenvalues --    0.03390   0.05612   0.05618   0.08010   0.09301
 Alpha virt. eigenvalues --    0.12019   0.12360   0.13080   0.14346   0.15142
 Alpha virt. eigenvalues --    0.16495   0.17621   0.18115   0.19642   0.22639

 Mulliken charges:
               1
     1  C    0.416928
     2  C    0.351746
     3  F   -0.323142
     4  Cl  -0.166733
     5  F   -0.323142
     6  H    0.017215
     7  H    0.009913
     8  H    0.017215
 Sum of Mulliken charges =   0.00000

 Dipole moment (field-independent basis, Debye):
    X=             -0.5820    Y=              2.5941    Z=              0.0000  Tot=              2.6586

 Test job not archived.
 1\1\GINC-SE361\SP\RHF\Aug-CC-pVDZ\C2H3Cl1F2\OHZDE\08-Apr-2025\0\\#t hf
  aug-cc-pvdz iop(5/13=1,5/36=2,99/5=2) pseudo=read geom=check guess=(r
 ead,tcheck) scf=(maxcycle=1)\\title\\0,1\C,0,-0.357411,0.00564,0.\C,0,
 -0.818638,1.438155,0.\F,0,-0.818638,-0.653639,1.087666\Cl,0,1.447318,-
 0.1314,0.\F,0,-0.818638,-0.653639,-1.087666\H,0,-0.451028,1.946672,0.8
 90162\H,0,-1.910576,1.443185,0.\H,0,-0.451028,1.946672,-0.890162\\Vers
 ion=ES64L-G16RevC.01\State=1-A'\HF=-736.0212365\RMSD=5.809e-03\Dipole=
 -0.2289908,1.0206107,0.\Quadrupole=0.2368967,1.2266631,-1.4635598,-1.7

 Normal termination of Gaussian 16 at Tue Apr  8 22:38:27 2025.
