 Gaussian 16, Revision C.01,

 ----------------------------------------------------------------------
 #t hf aug-cc-pvdz symm=none int=(grid=ultrafine) guess=(read,tcheck) s
 table=(opt,rrhf)
 ----------------------------------------------------------------------
 -----
 title
 -----
 Symbolic Z-matrix:
 Charge =  0 Multiplicity = 1

 SCF Done:  E(RHF) =  -1380.49677906     A.U. after   18 cycles
 Normal termination of Gaussian 16 at Tue Apr  8 23:26:22 2025.
 Gaussian 16:  ES64L-G16RevC.01  3-Jul-2019

 ----------------------------------------------------------------------
 #t hf aug-cc-pvdz iop(5/13=1,5/36=2,99/5=2) pseudo=read geom=check gue
 ss=(read,tcheck) scf=(maxcycle=1)
 ----------------------------------------------------------------------
 -----
 title
 -----
 Structure from the checkpoint file:  "BDE49_nonexpt_1265_mol1.chk"
 Charge =  0 Multiplicity = 1

                         Standard orientation:
 ---------------------------------------------------------------------
 Center     Atomic      Atomic             Coordinates (Angstroms)
 Number     Number       Type             X           Y           Z
 ---------------------------------------------------------------------
      1          6           0       -0.859672   -0.427732   -0.286886
      2          6           0       -1.834435   -0.140328   -1.249408
      3          1           0       -1.563533   -0.107307   -2.298794
      4          6           0       -3.150798    0.103822   -0.862744
      5          1           0       -3.900547    0.326291   -1.613153
      6          6           0       -3.500189    0.051686    0.483452
      7          1           0       -4.525052    0.236468    0.784729
      8          6           0       -2.533555   -0.240725    1.447019
      9          1           0       -2.806062   -0.280020    2.495386
     10          6           0       -1.217875   -0.475893    1.067216
     11          1           0       -0.471993   -0.706123    1.818917
     12         15           0        0.844636   -0.720683   -0.904168
     13         17           0        1.404762   -2.478354    0.082953
     14          6           0        1.768886    0.498750    0.229498
     15          8           0        2.621740    0.197612    1.017562
     16          6           0        1.441221    1.993391    0.010314
     17          9           0        0.861717    2.174821   -1.214576
     18          9           0        0.551878    2.392103    0.960547
     19          1           0        2.338915    2.611923    0.080234
 ---------------------------------------------------------------------

 SCF Done:  E(RHF) =  -1380.72089204     A.U. after    2 cycles

 The electronic state is 1-A.
 Alpha  occ. eigenvalues -- -103.66200 -81.33632 -26.16573 -26.16107 -20.61778
 Alpha  occ. eigenvalues --  -11.45293 -11.38407 -11.27650 -11.27396 -11.27169
 Alpha  occ. eigenvalues --  -11.27025 -11.26367 -11.26347 -10.69520  -8.35225
 Alpha  occ. eigenvalues --   -8.34939  -8.34932  -7.83469  -4.97402  -4.97319
 Alpha  occ. eigenvalues --   -4.97064  -1.72618  -1.68169  -1.40626  -1.16722
 Alpha  occ. eigenvalues --   -1.14302  -1.05390  -1.03590  -1.03299  -0.90885
 Alpha  occ. eigenvalues --   -0.85714  -0.85119  -0.84280  -0.83854  -0.80138
 Alpha  occ. eigenvalues --   -0.75956  -0.75028  -0.72429  -0.71912  -0.69571
 Alpha  occ. eigenvalues --   -0.66036  -0.65323  -0.63094  -0.62483  -0.61475
 Alpha  occ. eigenvalues --   -0.59072  -0.57274  -0.53362  -0.52186  -0.51457
 Alpha  occ. eigenvalues --   -0.49470  -0.48319  -0.44552  -0.38118  -0.36197
 Alpha  occ. eigenvalues --   -0.35816
 Alpha virt. eigenvalues --    0.03014   0.03889   0.04018   0.04909   0.05682
 Alpha virt. eigenvalues --    0.05856   0.06177   0.07135   0.08064   0.08923
 Alpha virt. eigenvalues --    0.09385   0.09848   0.10402   0.10717   0.11810

 Mulliken charges:
               1
     1  C    0.199400
     2  C    0.229262
     3  H   -0.564121
     4  C    0.486286
     5  H   -0.444268
     6  C    0.711825
     7  H   -0.431149
     8  C    0.456489
     9  H   -0.455762
    10  C    0.727149
    11  H   -0.640457
    12  P    0.400012
    13  Cl  -0.444075
    14  C    0.080223
    15  O   -0.472468
    16  C    1.051036
    17  F   -0.355310
    18  F   -0.370085
    19  H   -0.163986
 Sum of Mulliken charges =   0.00000

 Dipole moment (field-independent basis, Debye):
    X=             -2.5168    Y=              1.5672    Z=             -1.0051  Tot=              3.1306

 Test job not archived.
 1\1\GINC-SE332\SP\RHF\Aug-CC-pVDZ\C8H6Cl1F2O1P1\OHZDE\08-Apr-2025\0\\#
 t hf aug-cc-pvdz iop(5/13=1,5/36=2,99/5=2) pseudo=read geom=check gues
 s=(read,tcheck) scf=(maxcycle=1)\\title\\0,1\C,0,-0.859672,-0.427732,-
 0.286886\C,0,-1.834435,-0.140328,-1.249408\H,0,-1.563533,-0.107307,-2.
 298794\C,0,-3.150798,0.103822,-0.862744\H,0,-3.900547,0.326291,-1.6131
 53\C,0,-3.500189,0.051686,0.483452\H,0,-4.525052,0.236467,0.784729\C,0
 ,-2.533555,-0.240725,1.447019\H,0,-2.806062,-0.28002,2.495386\C,0,-1.2
 17875,-0.475893,1.067216\H,0,-0.471993,-0.706123,1.818917\P,0,0.844636

 Normal termination of Gaussian 16 at Tue Apr  8 23:26:35 2025.
