 Gaussian 16, Revision C.01,

 ----------------------------------------------------------------------
 #t hf aug-cc-pvdz symm=none int=(grid=ultrafine) guess=(read,tcheck) s
 table=(opt,rrhf)
 ----------------------------------------------------------------------
 -----
 title
 -----
 Symbolic Z-matrix:
 Charge =  0 Multiplicity = 1

 SCF Done:  E(RHF) =  -1732.58463120     A.U. after   14 cycles
 Normal termination of Gaussian 16 at Wed Apr  9 00:47:17 2025.
 Gaussian 16:  ES64L-G16RevC.01  3-Jul-2019

 ----------------------------------------------------------------------
 #t hf aug-cc-pvdz iop(5/13=1,5/36=2,99/5=2) pseudo=read geom=check gue
 ss=(read,tcheck) scf=(maxcycle=1)
 ----------------------------------------------------------------------
 -----
 title
 -----
 Structure from the checkpoint file:  "BDE49_nonexpt_862_mol1.chk"
 Charge =  0 Multiplicity = 1

                         Standard orientation:
 ---------------------------------------------------------------------
 Center     Atomic      Atomic             Coordinates (Angstroms)
 Number     Number       Type             X           Y           Z
 ---------------------------------------------------------------------
      1         16           0       -0.188517   -1.198744   -0.317625
      2          5           0       -1.555099   -0.007203   -0.060609
      3         16           0       -1.514222    1.769763   -0.374250
      4         16           0       -3.122808   -0.701214    0.556370
      5         16           0        1.467209   -0.107897   -1.048713
      6          6           0        2.544287    0.046833    0.381867
      7          6           0        3.800483   -0.375938    0.225844
      8          6           0        2.016784    0.731072    1.609197
      9          1           0        2.779939    0.756178    2.389726
     10          1           0        1.142358    0.206440    2.002961
     11          1           0        1.706421    1.755843    1.387004
     12          1           0        4.125355   -0.891022   -0.669370
     13          1           0        4.541752   -0.198147    0.998408
     14          1           0       -2.717288   -1.980325    0.661680
     15          1           0       -0.238946    1.784720   -0.821332
 ---------------------------------------------------------------------

 SCF Done:  E(RHF) =  -1732.70211953     A.U. after    2 cycles

 The electronic state is 1-A.
 Alpha  occ. eigenvalues --  -93.57908 -93.56842 -93.54856 -93.54427 -11.29891
 Alpha  occ. eigenvalues --  -11.26021 -11.25181  -8.87422  -8.86576  -8.84795
 Alpha  occ. eigenvalues --   -8.84422  -7.70390  -6.21555  -6.21304  -6.21003
 Alpha  occ. eigenvalues --   -6.20720  -6.20415  -6.20201  -6.18975  -6.18732
 Alpha  occ. eigenvalues --   -6.18591  -6.18473  -6.18382  -6.18121  -1.11413
 Alpha  occ. eigenvalues --   -1.03354  -0.98683  -0.95880  -0.95668  -0.88093
 Alpha  occ. eigenvalues --   -0.73709  -0.65866  -0.64023  -0.62225  -0.60228
 Alpha  occ. eigenvalues --   -0.57511  -0.54852  -0.53396  -0.52197  -0.49180
 Alpha  occ. eigenvalues --   -0.46293  -0.45199  -0.43794  -0.40768  -0.37710
 Alpha  occ. eigenvalues --   -0.37289  -0.35277
 Alpha virt. eigenvalues --    0.03297   0.04307   0.04737   0.05142   0.06104
 Alpha virt. eigenvalues --    0.06355   0.06405   0.07301   0.08152   0.08727
 Alpha virt. eigenvalues --    0.08844   0.09511   0.09862   0.10371   0.10985

 Mulliken charges:
               1
     1  S   -0.196566
     2  B    0.791080
     3  S   -0.214782
     4  S   -0.299533
     5  S   -0.049439
     6  C   -0.265956
     7  C    0.833254
     8  C    0.036263
     9  H   -0.148693
    10  H    0.035313
    11  H    0.035698
    12  H   -0.349244
    13  H   -0.286643
    14  H    0.002917
    15  H    0.076332
 Sum of Mulliken charges =  -0.00000

 Dipole moment (field-independent basis, Debye):
    X=              2.4498    Y=             -0.1501    Z=              1.1337  Tot=              2.7036

 Test job not archived.
 1\1\GINC-SE090\SP\RHF\Aug-CC-pVDZ\C3H7B1S4\OHZDE\09-Apr-2025\0\\#t hf
 aug-cc-pvdz iop(5/13=1,5/36=2,99/5=2) pseudo=read geom=check guess=(re
 ad,tcheck) scf=(maxcycle=1)\\title\\0,1\S,0,-0.188517,-1.198744,-0.317
 625\B,0,-1.555099,-0.007203,-0.060609\S,0,-1.514222,1.769763,-0.37425\
 S,0,-3.122808,-0.701214,0.55637\S,0,1.467209,-0.107897,-1.048713\C,0,2
 .544287,0.046833,0.381867\C,0,3.800483,-0.375938,0.225844\C,0,2.016784
 ,0.731072,1.609197\H,0,2.779939,0.756178,2.389726\H,0,1.142358,0.20644
 ,2.002961\H,0,1.706421,1.755843,1.387004\H,0,4.125355,-0.891022,-0.669

 Normal termination of Gaussian 16 at Wed Apr  9 00:47:25 2025.
