 Gaussian 16, Revision C.01,

 ----------------------------------------------------------------------
 #t hf aug-cc-pvdz symm=none int=(grid=ultrafine) guess=(read,tcheck) s
 table=(opt,rrhf)
 ----------------------------------------------------------------------
 -----
 title
 -----
 Symbolic Z-matrix:
 Charge =  0 Multiplicity = 1

 SCF Done:  E(RHF) =  -1052.24343566     A.U. after   16 cycles
 Normal termination of Gaussian 16 at Tue Apr  8 23:25:46 2025.
 Gaussian 16:  ES64L-G16RevC.01  3-Jul-2019

 ----------------------------------------------------------------------
 #t hf aug-cc-pvdz iop(5/13=1,5/36=2,99/5=2) pseudo=read geom=check gue
 ss=(read,tcheck) scf=(maxcycle=1)
 ----------------------------------------------------------------------
 -----
 title
 -----
 Structure from the checkpoint file:  "BDE49_nonexpt_1287_mol1.chk"
 Charge =  0 Multiplicity = 1

                         Standard orientation:
 ---------------------------------------------------------------------
 Center     Atomic      Atomic             Coordinates (Angstroms)
 Number     Number       Type             X           Y           Z
 ---------------------------------------------------------------------
      1          6           0       -0.408016    0.073740    0.455945
      2          7           0       -0.850478    1.386995   -0.214771
      3         15           0        1.360773   -0.372565   -0.028529
      4          7           0       -1.338025   -1.013612   -0.124665
      5          6           0       -0.575653    0.201555    1.958860
      6          8           0       -1.092767   -1.369664   -1.270312
      7          8           0        1.670106   -1.691920    0.506125
      8          8           0       -1.918807    1.418773   -0.778839
      9          8           0        2.223660    0.819143    0.544086
     10          8           0       -0.075573    2.326588   -0.082800
     11          8           0       -2.229598   -1.430621    0.574466
     12          1           0        0.061654    1.007134    2.321791
     13          1           0       -0.262743   -0.732131    2.425703
     14          1           0       -1.616134    0.401608    2.212838
     15          8           0        1.411510   -0.114161   -1.595558
     16          1           0        0.808045   -0.708161   -2.070006
     17          1           0        1.910863    1.689467    0.247487
 ---------------------------------------------------------------------

 SCF Done:  E(RHF) =  -1052.52869514     A.U. after    2 cycles

 The electronic state is 1-A.
 Alpha  occ. eigenvalues --  -81.46854 -20.68547 -20.67700 -20.67306 -20.66453
 Alpha  occ. eigenvalues --  -20.65161 -20.65147 -20.56440 -15.97783 -15.96845
 Alpha  occ. eigenvalues --  -11.43059 -11.30264  -7.95106  -5.09802  -5.09718
 Alpha  occ. eigenvalues --   -5.09492  -1.61792  -1.59978  -1.43329  -1.42554
 Alpha  occ. eigenvalues --   -1.41747  -1.38484  -1.30252  -1.19480  -1.01489
 Alpha  occ. eigenvalues --   -0.99257  -0.89251  -0.87709  -0.85323  -0.81561
 Alpha  occ. eigenvalues --   -0.81026  -0.79179  -0.78519  -0.78209  -0.74290
 Alpha  occ. eigenvalues --   -0.70646  -0.68179  -0.64837  -0.64153  -0.63363
 Alpha  occ. eigenvalues --   -0.62223  -0.61449  -0.58522  -0.57680  -0.56191
 Alpha  occ. eigenvalues --   -0.55830  -0.54192  -0.53489  -0.52937  -0.51599
 Alpha  occ. eigenvalues --   -0.50853
 Alpha virt. eigenvalues --    0.02434   0.02747   0.02939   0.04068   0.05088
 Alpha virt. eigenvalues --    0.06099   0.06617   0.08740   0.09466   0.10434
 Alpha virt. eigenvalues --    0.11504   0.12500   0.13112   0.13243   0.14240

 Mulliken charges:
               1
     1  C   -0.105802
     2  N    0.374455
     3  P    2.544755
     4  N    0.317332
     5  C    0.849471
     6  O   -0.592614
     7  O   -0.860928
     8  O   -0.521514
     9  O   -0.683457
    10  O   -0.614815
    11  O   -0.516698
    12  H    0.070364
    13  H    0.074356
    14  H    0.009794
    15  O   -0.725248
    16  H    0.184439
    17  H    0.196107
 Sum of Mulliken charges =   0.00000

 Dipole moment (field-independent basis, Debye):
    X=             -0.1158    Y=              2.6087    Z=              1.4109  Tot=              2.9680

 Test job not archived.
 1\1\GINC-SE367\SP\RHF\Aug-CC-pVDZ\C2H5N2O7P1\OHZDE\08-Apr-2025\0\\#t h
 f aug-cc-pvdz iop(5/13=1,5/36=2,99/5=2) pseudo=read geom=check guess=(
 read,tcheck) scf=(maxcycle=1)\\title\\0,1\C,0,-0.408016,0.07374,0.4559
 45\N,0,-0.850479,1.386995,-0.214771\P,0,1.360773,-0.372564,-0.028529\N
 ,0,-1.338024,-1.013613,-0.124665\C,0,-0.575653,0.201555,1.95886\O,0,-1
 .092766,-1.369665,-1.270312\O,0,1.670107,-1.691919,0.506125\O,0,-1.918
 808,1.418772,-0.778839\O,0,2.22366,0.819144,0.544086\O,0,-0.075574,2.3
 26588,-0.0828\O,0,-2.229597,-1.430622,0.574466\H,0,0.061653,1.007134,2

 Normal termination of Gaussian 16 at Tue Apr  8 23:25:56 2025.
