 Gaussian 16, Revision C.01,

 ----------------------------------------------------------------------
 #t hf aug-cc-pvdz symm=none int=(grid=ultrafine) guess=(read,tcheck) s
 table=opt
 ----------------------------------------------------------------------
 -----
 title
 -----
 Symbolic Z-matrix:
 Charge =  0 Multiplicity = 2

 SCF Done:  E(UHF) =  -527.457014253     A.U. after   15 cycles
 Normal termination of Gaussian 16 at Tue Apr  8 23:54:20 2025.
 Gaussian 16:  ES64L-G16RevC.01  3-Jul-2019

 ----------------------------------------------------------------------
 #t hf aug-cc-pvdz iop(5/13=1,5/36=2,99/5=2) pseudo=read geom=check gue
 ss=(read,tcheck) scf=(maxcycle=1)
 ----------------------------------------------------------------------
 -----
 title
 -----
 Structure from the checkpoint file:  "BDE49_nonexpt_1977_mol2.chk"
 Charge =  0 Multiplicity = 2

                         Standard orientation:
 ---------------------------------------------------------------------
 Center     Atomic      Atomic             Coordinates (Angstroms)
 Number     Number       Type             X           Y           Z
 ---------------------------------------------------------------------
      1         14           0       -0.717629   -0.574967    0.112843
      2          6           0        1.066362   -0.340401   -0.491980
      3          9           0       -1.544605    0.786854   -0.162343
      4          1           0        1.098756    0.059292   -1.509565
      5          1           0        1.606347   -1.292840   -0.472042
      6          9           0        1.730915    0.561973    0.359465
      7          1           0       -0.733256   -0.813941    1.579581
 ---------------------------------------------------------------------

 SCF Done:  E(UHF) =  -527.569936627     A.U. after    2 cycles

 The electronic state is 2-A.
 Alpha  occ. eigenvalues --  -69.13624 -26.11692 -26.11591 -11.32792  -6.88389
 Alpha  occ. eigenvalues --   -3.99645  -3.98941  -3.98750  -1.64498  -1.64288
 Alpha  occ. eigenvalues --   -0.97825  -0.81168  -0.75299  -0.75151  -0.73114
 Alpha  occ. eigenvalues --   -0.72943  -0.71626  -0.61750  -0.56698  -0.48835
 Alpha  occ. eigenvalues --   -0.36470
 Alpha virt. eigenvalues --    0.03371   0.04613   0.04954   0.06620   0.07627
 Alpha virt. eigenvalues --    0.07800   0.10077   0.13329   0.13711   0.15212
 Alpha virt. eigenvalues --    0.16703   0.17670   0.18985   0.20860   0.22744

  Beta  occ. eigenvalues --  -69.13069 -26.11397 -26.11380 -11.32580  -6.87521
  Beta  occ. eigenvalues --   -3.98595  -3.98409  -3.97574  -1.63837  -1.63461
  Beta  occ. eigenvalues --   -0.97064  -0.79780  -0.74927  -0.74128  -0.72595
  Beta  occ. eigenvalues --   -0.71224  -0.70896  -0.58839  -0.56303  -0.47192
  Beta virt. eigenvalues --    0.01557   0.04165   0.04795   0.05331   0.07774
  Beta virt. eigenvalues --    0.07926   0.08423   0.10565   0.14121   0.14707
  Beta virt. eigenvalues --    0.16059   0.17817   0.19405   0.21281   0.22020

 Mulliken charges and spin densities:
               1          2
     1  Si   1.206476   0.886322
     2  C    0.419513   0.046994
     3  F   -0.752248  -0.010178
     4  H   -0.165870  -0.001595
     5  H   -0.177452  -0.005407
     6  F   -0.465055   0.011400
     7  H   -0.065364   0.072465
 Sum of Mulliken charges =   0.00000   1.00000

 Dipole moment (field-independent basis, Debye):
    X=              0.0652    Y=             -2.7894    Z=             -1.1376  Tot=              3.0132
                          Isotropic Fermi Contact Couplings
        Atom                 a.u.       MegaHertz       Gauss      10(-4) cm-1
     1  Si(29)             0.64579    -573.93579    -204.79456    -191.44437
     2  C(13)              0.06708      75.40946      26.90797      25.15389
     3  F(19)              0.04722     198.66755      70.88952      66.26836
     4  H(1)              -0.00157      -7.00705      -2.50029      -2.33730
     5  H(1)              -0.00155      -6.92578      -2.47129      -2.31019
     6  F(19)              0.03442     144.83218      51.67972      48.31082
     7  H(1)               0.01745      77.99651      27.83109      26.01683
 --------------------------------------------------------

 Normal termination of Gaussian 16 at Tue Apr  8 23:54:22 2025.
