 Gaussian 16, Revision C.01,

 ----------------------------------------------------------------------
 #t hf aug-cc-pvdz symm=none int=(grid=ultrafine) guess=(read,tcheck) s
 table=(opt,rrhf)
 ----------------------------------------------------------------------
 -----
 title
 -----
 Symbolic Z-matrix:
 Charge =  0 Multiplicity = 1

 SCF Done:  E(RHF) =  -801.723384991     A.U. after   15 cycles
 Normal termination of Gaussian 16 at Tue Apr  8 23:18:18 2025.
 Gaussian 16:  ES64L-G16RevC.01  3-Jul-2019

 ----------------------------------------------------------------------
 #t hf aug-cc-pvdz iop(5/13=1,5/36=2,99/5=2) pseudo=read geom=check gue
 ss=(read,tcheck) scf=(maxcycle=1)
 ----------------------------------------------------------------------
 -----
 title
 -----
 Structure from the checkpoint file:  "BDE49_nonexpt_1074_mol1.chk"
 Charge =  0 Multiplicity = 1

                         Standard orientation:
 ---------------------------------------------------------------------
 Center     Atomic      Atomic             Coordinates (Angstroms)
 Number     Number       Type             X           Y           Z
 ---------------------------------------------------------------------
      1         17           0        2.144436   -0.561082    0.022206
      2          8           0        0.509622   -0.491837   -0.553300
      3          6           0       -0.396885    0.021932    0.463050
      4          8           0       -1.642521   -0.248980   -0.064027
      5          8           0       -0.235136    1.354838    0.695367
      6          6           0       -2.014317   -1.629897   -0.063365
      7          1           0       -3.055678   -1.663729   -0.378564
      8          1           0       -1.926669   -2.053193    0.944333
      9          1           0       -1.397247   -2.204827   -0.756237
     10          6           0       -0.478333    2.222644   -0.424565
     11          1           0       -0.185471    3.216181   -0.091179
     12          1           0       -1.535319    2.215885   -0.696144
     13          1           0        0.128190    1.925775   -1.282505
     14          1           0       -0.201725   -0.497948    1.407751
 ---------------------------------------------------------------------

 SCF Done:  E(RHF) =  -801.855006465     A.U. after    2 cycles

 The electronic state is 1-A.
 Alpha  occ. eigenvalues -- -103.71224 -20.65130 -20.60108 -20.59480 -11.42084
 Alpha  occ. eigenvalues --  -11.30077 -11.28767 -10.73905  -8.39667  -8.39261
 Alpha  occ. eigenvalues --   -8.39239  -1.43457  -1.33943  -1.33508  -1.10540
 Alpha  occ. eigenvalues --   -0.99278  -0.94956  -0.84530  -0.74704  -0.73051
 Alpha  occ. eigenvalues --   -0.72780  -0.65244  -0.63810  -0.60936  -0.60256
 Alpha  occ. eigenvalues --   -0.59092  -0.56252  -0.53340  -0.51469  -0.49431
 Alpha  occ. eigenvalues --   -0.47549  -0.46758  -0.45738
 Alpha virt. eigenvalues --    0.03497   0.04608   0.04999   0.05832   0.05890
 Alpha virt. eigenvalues --    0.06645   0.07139   0.07589   0.11037   0.11345
 Alpha virt. eigenvalues --    0.12699   0.13656   0.14734   0.15111   0.15793

 Mulliken charges:
               1
     1  Cl   0.215685
     2  O   -0.700737
     3  C    1.364756
     4  O   -0.613584
     5  O   -0.653385
     6  C    0.671563
     7  H   -0.240314
     8  H   -0.051794
     9  H   -0.045050
    10  C    0.672724
    11  H   -0.230684
    12  H   -0.059572
    13  H   -0.025953
    14  H   -0.303654
 Sum of Mulliken charges =  -0.00000

 Dipole moment (field-independent basis, Debye):
    X=             -1.1202    Y=             -0.8044    Z=              0.1714  Tot=              1.3897

 Test job not archived.
 1\1\GINC-SE102\SP\RHF\Aug-CC-pVDZ\C3H7Cl1O3\OHZDE\08-Apr-2025\0\\#t hf
  aug-cc-pvdz iop(5/13=1,5/36=2,99/5=2) pseudo=read geom=check guess=(r
 ead,tcheck) scf=(maxcycle=1)\\title\\0,1\Cl,0,2.144436,-0.561082,0.022
 206\O,0,0.509622,-0.491837,-0.5533\C,0,-0.396885,0.021932,0.46305\O,0,
 -1.642521,-0.24898,-0.064027\O,0,-0.235136,1.354838,0.695367\C,0,-2.01
 4317,-1.629897,-0.063365\H,0,-3.055678,-1.663729,-0.378564\H,0,-1.9266
 69,-2.053193,0.944333\H,0,-1.397247,-2.204827,-0.756237\C,0,-0.478333,
 2.222644,-0.424565\H,0,-0.185471,3.216181,-0.091179\H,0,-1.535319,2.21

 Normal termination of Gaussian 16 at Tue Apr  8 23:18:23 2025.
