 Gaussian 16, Revision C.01,

 ----------------------------------------------------------------------
 #t hf aug-cc-pvdz symm=none int=(grid=ultrafine) guess=(read,tcheck) s
 table=(opt,rrhf)
 ----------------------------------------------------------------------
 -----
 title
 -----
 Symbolic Z-matrix:
 Charge =  0 Multiplicity = 1

 SCF Done:  E(RHF) =  -918.036156706     A.U. after   13 cycles
 Normal termination of Gaussian 16 at Tue Apr  8 23:45:16 2025.
 Gaussian 16:  ES64L-G16RevC.01  3-Jul-2019

 ----------------------------------------------------------------------
 #t hf aug-cc-pvdz iop(5/13=1,5/36=2,99/5=2) pseudo=read geom=check gue
 ss=(read,tcheck) scf=(maxcycle=1)
 ----------------------------------------------------------------------
 -----
 title
 -----
 Structure from the checkpoint file:  "BDE49_nonexpt_1781_mol1.chk"
 Charge =  0 Multiplicity = 1

                         Standard orientation:
 ---------------------------------------------------------------------
 Center     Atomic      Atomic             Coordinates (Angstroms)
 Number     Number       Type             X           Y           Z
 ---------------------------------------------------------------------
      1         14           0       -0.315194   -0.886356   -0.000002
      2          6           0        1.331517    0.078797   -0.000032
      3         17           0       -1.985261    0.385059    0.000004
      4          7           0        1.366497    1.432986   -0.000005
      5          1           0        0.520643    1.979786    0.000006
      6          1           0        2.260591    1.904787    0.000012
      7          8           0        2.321638   -0.638785    0.000019
      8          1           0       -0.373369   -1.707495    1.219490
      9          1           0       -0.373392   -1.707506   -1.219484
 ---------------------------------------------------------------------

 SCF Done:  E(RHF) =  -918.131178450     A.U. after    2 cycles

 The electronic state is 1-A.
 Alpha  occ. eigenvalues -- -103.66703 -69.13269 -20.55907 -15.66970 -11.37137
 Alpha  occ. eigenvalues --  -10.70128  -8.35814  -8.35602  -8.35587  -6.88146
 Alpha  occ. eigenvalues --   -3.99002  -3.98848  -3.98814  -1.36019  -1.19452
 Alpha  occ. eigenvalues --   -1.14839  -0.84651  -0.76858  -0.71481  -0.66702
 Alpha  occ. eigenvalues --   -0.59896  -0.58941  -0.54325  -0.53705  -0.49961
 Alpha  occ. eigenvalues --   -0.47200  -0.43439  -0.42331
 Alpha virt. eigenvalues --    0.02980   0.04674   0.05177   0.05369   0.06511
 Alpha virt. eigenvalues --    0.07272   0.08707   0.11069   0.11464   0.12677
 Alpha virt. eigenvalues --    0.13000   0.13905   0.15058   0.16203   0.16733

 Mulliken charges:
               1
     1  Si   0.716006
     2  C    0.395292
     3  Cl  -0.512592
     4  N   -0.069923
     5  H    0.009663
     6  H   -0.018822
     7  O   -0.545870
     8  H    0.013119
     9  H    0.013126
 Sum of Mulliken charges =  -0.00000

 Dipole moment (field-independent basis, Debye):
    X=             -1.1949    Y=              2.2525    Z=             -0.0000  Tot=              2.5499

 Test job not archived.
 1\1\GINC-SE361\SP\RHF\Aug-CC-pVDZ\C1H4Cl1N1O1Si1\OHZDE\08-Apr-2025\0\\
 #t hf aug-cc-pvdz iop(5/13=1,5/36=2,99/5=2) pseudo=read geom=check gue
 ss=(read,tcheck) scf=(maxcycle=1)\\title\\0,1\Si,0,0.315194,-0.886356,
 0.000002\C,0,-1.331517,0.078797,0.000032\Cl,0,1.985261,0.385059,-0.000
 004\N,0,-1.366497,1.432986,0.000005\H,0,-0.520643,1.979786,-0.000006\H
 ,0,-2.260591,1.904787,-0.000012\O,0,-2.321638,-0.638785,-0.000019\H,0,
 0.373369,-1.707495,-1.21949\H,0,0.373392,-1.707506,1.219484\\Version=E
 S64L-G16RevC.01\State=1-A\HF=-918.1311785\RMSD=4.473e-03\Dipole=0.4701

 Normal termination of Gaussian 16 at Tue Apr  8 23:45:19 2025.
