 Gaussian 16, Revision C.01,

 ----------------------------------------------------------------------
 #t hf aug-cc-pvdz symm=none int=(grid=ultrafine) guess=(read,tcheck) s
 table=(opt,rrhf)
 ----------------------------------------------------------------------
 -----
 title
 -----
 Symbolic Z-matrix:
 Charge =  0 Multiplicity = 1

 SCF Done:  E(RHF) =  -663.077747062     A.U. after   13 cycles
 Normal termination of Gaussian 16 at Tue Apr  8 23:36:37 2025.
 Gaussian 16:  ES64L-G16RevC.01  3-Jul-2019

 ----------------------------------------------------------------------
 #t hf aug-cc-pvdz iop(5/13=1,5/36=2,99/5=2) pseudo=read geom=check gue
 ss=(read,tcheck) scf=(maxcycle=1)
 ----------------------------------------------------------------------
 -----
 title
 -----
 Structure from the checkpoint file:  "BDE49_nonexpt_1542_mol1.chk"
 Charge =  0 Multiplicity = 1

                         Standard orientation:
 ---------------------------------------------------------------------
 Center     Atomic      Atomic             Coordinates (Angstroms)
 Number     Number       Type             X           Y           Z
 ---------------------------------------------------------------------
      1          6           0        0.933456    0.260726    0.457013
      2          7           0       -1.799779   -0.030654   -0.141654
      3          8           0       -1.555603   -1.006361   -1.140078
      4          8           0       -1.803087   -0.702151    1.124793
      5          6           0        2.041891    0.124715   -0.280971
      6          6           0        3.279334   -0.612484    0.131912
      7          1           0        2.073217    0.592998   -1.264734
      8          1           0        3.173822   -1.061320    1.121424
      9          1           0        4.141939    0.062829    0.147141
     10          1           0        3.517913   -1.404119   -0.586778
     11          1           0       -0.702000   -1.416334   -0.913878
     12          1           0       -2.733711   -0.933071    1.237874
     13         15           0       -0.499694    1.187186   -0.195437
     14          1           0        0.872902   -0.198173    1.440794
     15          1           0       -0.908787    1.794331    1.015841
 ---------------------------------------------------------------------

 SCF Done:  E(RHF) =  -663.202902272     A.U. after    2 cycles

 The electronic state is 1-A.
 Alpha  occ. eigenvalues --  -81.28426 -20.61565 -20.61317 -15.73284 -11.27502
 Alpha  occ. eigenvalues --  -11.25015 -11.24684  -7.78481  -4.92575  -4.92412
 Alpha  occ. eigenvalues --   -4.92116  -1.41163  -1.30745  -1.08174  -1.00974
 Alpha  occ. eigenvalues --   -0.95190  -0.81053  -0.75633  -0.74239  -0.66256
 Alpha  occ. eigenvalues --   -0.65473  -0.64597  -0.61118  -0.59693  -0.58609
 Alpha  occ. eigenvalues --   -0.53380  -0.51662  -0.50762  -0.49035  -0.41288
 Alpha  occ. eigenvalues --   -0.38275  -0.36065
 Alpha virt. eigenvalues --    0.03138   0.04208   0.04895   0.05093   0.06059
 Alpha virt. eigenvalues --    0.06596   0.07439   0.07626   0.09664   0.10093
 Alpha virt. eigenvalues --    0.10650   0.12238   0.13386   0.14899   0.15467

 Mulliken charges:
               1
     1  C    0.294481
     2  N   -0.109665
     3  O   -0.438789
     4  O   -0.533604
     5  C    0.166631
     6  C    0.145743
     7  H   -0.361153
     8  H   -0.113980
     9  H    0.060534
    10  H    0.054849
    11  H    0.223239
    12  H    0.224746
    13  P    0.740929
    14  H   -0.467858
    15  H    0.113894
 Sum of Mulliken charges =  -0.00000

 Dipole moment (field-independent basis, Debye):
    X=              2.4451    Y=             -0.5790    Z=              1.3324  Tot=              2.8441

 Test job not archived.
 1\1\GINC-SE187\SP\RHF\Aug-CC-pVDZ\C3H8N1O2P1\OHZDE\08-Apr-2025\0\\#t h
 f aug-cc-pvdz iop(5/13=1,5/36=2,99/5=2) pseudo=read geom=check guess=(
 read,tcheck) scf=(maxcycle=1)\\title\\0,1\C,0,0.933456,0.260726,0.4570
 13\N,0,-1.799779,-0.030654,-0.141654\O,0,-1.555603,-1.006361,-1.140078
 \O,0,-1.803087,-0.702151,1.124793\C,0,2.041891,0.124715,-0.280971\C,0,
 3.279334,-0.612484,0.131912\H,0,2.073217,0.592998,-1.264734\H,0,3.1738
 22,-1.06132,1.121424\H,0,4.141939,0.062829,0.147141\H,0,3.517913,-1.40
 4119,-0.586778\H,0,-0.702,-1.416334,-0.913878\H,0,-2.733711,-0.933071,

 Normal termination of Gaussian 16 at Tue Apr  8 23:36:43 2025.
