 Gaussian 16, Revision C.01,

 ----------------------------------------------------------------------
 #t hf aug-cc-pvdz symm=none int=(grid=ultrafine) guess=(read,tcheck) s
 table=(opt,rrhf)
 ----------------------------------------------------------------------
 -----
 title
 -----
 Symbolic Z-matrix:
 Charge =  0 Multiplicity = 1

 SCF Done:  E(RHF) =  -291.243186758     A.U. after    8 cycles
 Normal termination of Gaussian 16 at Tue Apr  8 23:09:41 2025.
 Gaussian 16:  ES64L-G16RevC.01  3-Jul-2019

 ----------------------------------------------------------------------
 #t hf aug-cc-pvdz iop(5/13=1,5/36=2,99/5=2) pseudo=read geom=check gue
 ss=(read,tcheck) scf=(maxcycle=1)
 ----------------------------------------------------------------------
 -----
 title
 -----
 Structure from the checkpoint file:  "BDE49_expt_796_mol1.chk"
 Charge =  0 Multiplicity = 1

                         Standard orientation:
 ---------------------------------------------------------------------
 Center     Atomic      Atomic             Coordinates (Angstroms)
 Number     Number       Type             X           Y           Z
 ---------------------------------------------------------------------
      1         14           0        0.000000    0.000001   -0.000000
      2          1           0        1.215363    0.548937   -0.642233
      3          1           0       -0.680378   -0.921181   -0.937771
      4          1           0       -0.914830    1.108619    0.353485
      5          1           0        0.379843   -0.736384    1.226522
 ---------------------------------------------------------------------

 SCF Done:  E(RHF) =  -291.267392110     A.U. after    2 cycles

 The electronic state is 1-A.
 Alpha  occ. eigenvalues --  -69.06628  -6.81977  -3.92749  -3.92749  -3.92749
 Alpha  occ. eigenvalues --   -0.71648  -0.48535  -0.48535  -0.48535
 Alpha virt. eigenvalues --    0.03591   0.06143   0.06143   0.06143   0.09139
 Alpha virt. eigenvalues --    0.09139   0.09139   0.16379   0.18997   0.18997
 Alpha virt. eigenvalues --    0.18997   0.19712   0.19712   0.29085   0.36218

 Mulliken charges:
               1
     1  Si   0.512047
     2  H   -0.128011
     3  H   -0.128012
     4  H   -0.128012
     5  H   -0.128012
 Sum of Mulliken charges =  -0.00000

 Dipole moment (field-independent basis, Debye):
    X=              0.0000    Y=              0.0000    Z=             -0.0000  Tot=              0.0000

 Test job not archived.
 1\1\GINC-SE232\SP\RHF\Aug-CC-pVDZ\H4Si1\OHZDE\08-Apr-2025\0\\#t hf aug
 -cc-pvdz iop(5/13=1,5/36=2,99/5=2) pseudo=read geom=check guess=(read,
 tcheck) scf=(maxcycle=1)\\title\\0,1\Si,0,0.,0.000001,0.\H,0,-1.223554
 ,0.547858,0.62743\H,0,0.657673,-0.937836,0.93746\H,0,0.927723,1.107531
 ,-0.321882\H,0,-0.361839,-0.71756,-1.243012\\Version=ES64L-G16RevC.01\
 State=1-A\HF=-291.2673921\RMSD=6.761e-03\Dipole=-0.0000015,0.0000054,0
 .0000019\Quadrupole=0.0000014,-0.0000001,-0.0000013,0.0000004,-0.00000
 36,-0.0000001\PG=C01 [X(H4Si1)]\\@

 Normal termination of Gaussian 16 at Tue Apr  8 23:09:44 2025.
