 Gaussian 16, Revision C.01,

 ----------------------------------------------------------------------
 #t hf aug-cc-pvdz symm=none int=(grid=ultrafine) guess=(read,tcheck) s
 table=(opt,rrhf)
 ----------------------------------------------------------------------
 -----
 title
 -----
 Symbolic Z-matrix:
 Charge =  0 Multiplicity = 1

 SCF Done:  E(RHF) =  -606.362809327     A.U. after   15 cycles
 Normal termination of Gaussian 16 at Wed Apr  9 00:21:36 2025.
 Gaussian 16:  ES64L-G16RevC.01  3-Jul-2019

 ----------------------------------------------------------------------
 #t hf aug-cc-pvdz iop(5/13=1,5/36=2,99/5=2) pseudo=read geom=check gue
 ss=(read,tcheck) scf=(maxcycle=1)
 ----------------------------------------------------------------------
 -----
 title
 -----
 Structure from the checkpoint file:  "BDE49_nonexpt_2687_mol1.chk"
 Charge =  0 Multiplicity = 1

                         Standard orientation:
 ---------------------------------------------------------------------
 Center     Atomic      Atomic             Coordinates (Angstroms)
 Number     Number       Type             X           Y           Z
 ---------------------------------------------------------------------
      1          9           0       -1.508895    0.810484    0.000020
      2         16           0       -0.541638   -0.588518   -0.000001
      3          7           0        1.005820   -0.350881   -0.000007
      4          7           0        1.781599    0.620978   -0.000020
      5          1           0        2.734341    0.231250    0.000033
 ---------------------------------------------------------------------

 SCF Done:  E(RHF) =  -606.459303767     A.U. after    2 cycles

 The electronic state is 1-A.
 Alpha  occ. eigenvalues --  -93.68220 -26.13126 -15.77210 -15.72248  -8.96803
 Alpha  occ. eigenvalues --   -6.31078  -6.30542  -6.30114  -1.63813  -1.36436
 Alpha  occ. eigenvalues --   -1.11406  -0.86014  -0.76865  -0.73289  -0.72987
 Alpha  occ. eigenvalues --   -0.65512  -0.60466  -0.57765  -0.43020  -0.39609
 Alpha virt. eigenvalues --    0.03452   0.06202   0.06652   0.08859   0.10190
 Alpha virt. eigenvalues --    0.11790   0.13541   0.14755   0.17517   0.17602
 Alpha virt. eigenvalues --    0.20451   0.21694   0.22082   0.24929   0.27332

 Mulliken charges:
               1
     1  F   -0.595452
     2  S    1.027405
     3  N   -0.429044
     4  N   -0.095731
     5  H    0.092821
 Sum of Mulliken charges =  -0.00000

 Dipole moment (field-independent basis, Debye):
    X=              2.3614    Y=             -2.1123    Z=              0.0000  Tot=              3.1683

 Test job not archived.
 1\1\GINC-SE328\SP\RHF\Aug-CC-pVDZ\F1H1N2S1\OHZDE\09-Apr-2025\0\\#t hf
 aug-cc-pvdz iop(5/13=1,5/36=2,99/5=2) pseudo=read geom=check guess=(re
 ad,tcheck) scf=(maxcycle=1)\\title\\0,1\F,0,1.508895,0.810484,-0.00002
 \S,0,0.541638,-0.588518,0.000001\N,0,-1.00582,-0.350881,0.000007\N,0,-
 1.781599,0.620978,0.00002\H,0,-2.734341,0.231249,-0.000033\\Version=ES
 64L-G16RevC.01\State=1-A\HF=-606.4593038\RMSD=6.058e-03\Dipole=-0.9290
 48,-0.8310354,-0.0000115\Quadrupole=2.6328753,-2.0982409,-0.5346344,-0
 .9494033,0.000167,-0.0000208\PG=C01 [X(F1H1N2S1)]\\@

 Normal termination of Gaussian 16 at Wed Apr  9 00:21:37 2025.
