 Gaussian 16, Revision C.01,

 ----------------------------------------------------------------------
 #t hf aug-cc-pvdz symm=none int=(grid=ultrafine) guess=(read,tcheck) s
 table=(opt,rrhf)
 ----------------------------------------------------------------------
 -----
 title
 -----
 Symbolic Z-matrix:
 Charge =  0 Multiplicity = 1

 SCF Done:  E(RHF) =  -634.973380272     A.U. after   14 cycles
 Normal termination of Gaussian 16 at Wed Apr  9 00:04:49 2025.
 Gaussian 16:  ES64L-G16RevC.01  3-Jul-2019

 ----------------------------------------------------------------------
 #t hf aug-cc-pvdz iop(5/13=1,5/36=2,99/5=2) pseudo=read geom=check gue
 ss=(read,tcheck) scf=(maxcycle=1)
 ----------------------------------------------------------------------
 -----
 title
 -----
 Structure from the checkpoint file:  "BDE49_nonexpt_2222_mol1.chk"
 Charge =  0 Multiplicity = 1

                         Standard orientation:
 ---------------------------------------------------------------------
 Center     Atomic      Atomic             Coordinates (Angstroms)
 Number     Number       Type             X           Y           Z
 ---------------------------------------------------------------------
      1         14           0       -0.682229   -0.351417    0.694448
      2          8           0       -1.673215   -0.535861   -0.668682
      3          8           0       -2.808327    0.382367   -0.510071
      4          1           0       -2.786027    0.814313   -1.374140
      5          6           0        0.714781   -1.560118    0.377815
      6          6           0        1.738359   -0.998687   -0.637251
      7          1           0        0.325732   -2.526941    0.043899
      8          1           0        1.211691   -1.744534    1.339903
      9          6           0        0.100057    1.350304    0.762874
     10          6           0        1.202754    1.513730   -0.309213
     11          1           0        0.536483    1.476332    1.763195
     12          1           0       -0.661182    2.130519    0.664197
     13          6           0        2.268156    0.402598   -0.282221
     14          1           0        1.695387    2.484142   -0.183027
     15          1           0        0.743516    1.535100   -1.305286
     16          1           0        3.066868    0.663910   -0.984484
     17          1           0        2.734480    0.373019    0.711977
     18          1           0        1.277819   -0.961230   -1.631425
     19          1           0        2.584883   -1.689169   -0.720146
     20          1           0       -1.470756   -0.654632    1.911065
 ---------------------------------------------------------------------

 SCF Done:  E(RHF) =  -635.111122153     A.U. after    2 cycles

 The electronic state is 1-A.
 Alpha  occ. eigenvalues --  -69.07678 -20.64172 -20.61551 -11.23602 -11.23474
 Alpha  occ. eigenvalues --  -11.23097 -11.21616 -11.21600  -6.82656  -3.93552
 Alpha  occ. eigenvalues --   -3.93409  -3.93374  -1.40253  -1.17161  -1.07675
 Alpha  occ. eigenvalues --   -0.99653  -0.92866  -0.82841  -0.77894  -0.72689
 Alpha  occ. eigenvalues --   -0.70330  -0.64028  -0.63472  -0.61830  -0.59702
 Alpha  occ. eigenvalues --   -0.58360  -0.54571  -0.53971  -0.52041  -0.50203
 Alpha  occ. eigenvalues --   -0.50037  -0.48550  -0.47266  -0.46449  -0.42674
 Alpha  occ. eigenvalues --   -0.40073
 Alpha virt. eigenvalues --    0.03096   0.04103   0.04470   0.04511   0.06049
 Alpha virt. eigenvalues --    0.06234   0.06469   0.06829   0.06964   0.08590
 Alpha virt. eigenvalues --    0.08876   0.09060   0.09651   0.10655   0.11363

 Mulliken charges:
               1
     1  Si   1.339194
     2  O   -0.732743
     3  O   -0.334789
     4  H    0.232222
     5  C    0.212095
     6  C    0.112891
     7  H   -0.202476
     8  H   -0.155045
     9  C    0.234097
    10  C    0.105153
    11  H   -0.199399
    12  H   -0.194534
    13  C    0.264440
    14  H   -0.107106
    15  H   -0.147258
    16  H   -0.094461
    17  H   -0.109409
    18  H   -0.112405
    19  H   -0.114317
    20  H    0.003849
 Sum of Mulliken charges =  -0.00000

 Dipole moment (field-independent basis, Debye):
    X=              1.5723    Y=              1.1766    Z=             -0.4339  Tot=              2.0111

 Test job not archived.
 1\1\GINC-SE363\SP\RHF\Aug-CC-pVDZ\C5H12O2Si1\OHZDE\09-Apr-2025\0\\#t h
 f aug-cc-pvdz iop(5/13=1,5/36=2,99/5=2) pseudo=read geom=check guess=(
 read,tcheck) scf=(maxcycle=1)\\title\\0,1\Si,0,-0.682229,-0.351417,0.6
 94448\O,0,-1.673215,-0.535861,-0.668682\O,0,-2.808327,0.382367,-0.5100
 71\H,0,-2.786027,0.814313,-1.37414\C,0,0.714781,-1.560118,0.377815\C,0
 ,1.738359,-0.998687,-0.637251\H,0,0.325732,-2.526941,0.043899\H,0,1.21
 1691,-1.744534,1.339903\C,0,0.100057,1.350304,0.762874\C,0,1.202754,1.
 51373,-0.309213\H,0,0.536483,1.476332,1.763195\H,0,-0.661182,2.130519,

 Normal termination of Gaussian 16 at Wed Apr  9 00:05:00 2025.
