 Gaussian 16, Revision C.01,

 ----------------------------------------------------------------------
 #t hf aug-cc-pvdz symm=none int=(grid=ultrafine) guess=(read,tcheck) s
 table=(opt,rrhf)
 ----------------------------------------------------------------------
 -----
 title
 -----
 Symbolic Z-matrix:
 Charge =  0 Multiplicity = 1

 SCF Done:  E(RHF) =  -529.465004558     A.U. after   14 cycles
 Normal termination of Gaussian 16 at Tue Apr  8 22:39:24 2025.
 Gaussian 16:  ES64L-G16RevC.01  3-Jul-2019

 ----------------------------------------------------------------------
 #t hf aug-cc-pvdz iop(5/13=1,5/36=2,99/5=2) pseudo=read geom=check gue
 ss=(read,tcheck) scf=(maxcycle=1)
 ----------------------------------------------------------------------
 -----
 title
 -----
 Structure from the checkpoint file:  "BDE49_expt_1324_mol1.chk"
 Charge =  0 Multiplicity = 1

                         Standard orientation:
 ---------------------------------------------------------------------
 Center     Atomic      Atomic             Coordinates (Angstroms)
 Number     Number       Type             X           Y           Z
 ---------------------------------------------------------------------
      1          6           0        2.356701    0.135319    0.000010
      2          7           0        0.991859   -0.274000    0.000050
      3          1           0        2.573025    0.733098   -0.889938
      4          1           0        3.006144   -0.741209   -0.000664
      5          1           0        2.573308    0.731898    0.890685
      6          6           0       -0.178043   -0.092634   -0.000161
      7         16           0       -1.760465    0.058632    0.000030
 ---------------------------------------------------------------------

 SCF Done:  E(RHF) =  -529.527430964     A.U. after    2 cycles

 The electronic state is 1-A.
 Alpha  occ. eigenvalues --  -93.52292 -15.67953 -11.38574 -11.32138  -8.82208
 Alpha  occ. eigenvalues --   -6.16524  -6.15826  -6.15803  -1.26344  -1.05219
 Alpha  occ. eigenvalues --   -0.98276  -0.73749  -0.65440  -0.65361  -0.58383
 Alpha  occ. eigenvalues --   -0.52834  -0.52814  -0.35471  -0.34985
 Alpha virt. eigenvalues --    0.02558   0.05036   0.05115   0.06902   0.08997
 Alpha virt. eigenvalues --    0.11071   0.11843   0.12357   0.12565   0.13596
 Alpha virt. eigenvalues --    0.14903   0.15327   0.16162   0.17891   0.18760

 Mulliken charges:
               1
     1  C    0.843876
     2  N   -0.168531
     3  H   -0.078511
     4  H   -0.136316
     5  H   -0.078510
     6  C   -0.540157
     7  S    0.158148
 Sum of Mulliken charges =  -0.00000

 Dipole moment (field-independent basis, Debye):
    X=              4.0812    Y=              0.4644    Z=             -0.0001  Tot=              4.1076

 Test job not archived.
 1\1\GINC-SE048\SP\RHF\Aug-CC-pVDZ\C2H3N1S1\OHZDE\08-Apr-2025\0\\#t hf
 aug-cc-pvdz iop(5/13=1,5/36=2,99/5=2) pseudo=read geom=check guess=(re
 ad,tcheck) scf=(maxcycle=1)\\title\\0,1\C,0,2.356701,0.135319,0.00001\
 N,0,0.991859,-0.274,0.00005\H,0,2.573025,0.733098,-0.889938\H,0,3.0061
 44,-0.741209,-0.000664\H,0,2.573308,0.731898,0.890685\C,0,-0.178043,-0
 .092634,-0.000161\S,0,-1.760465,0.058632,0.00003\\Version=ES64L-G16Rev
 C.01\State=1-A\HF=-529.527431\RMSD=6.542e-03\Dipole=1.605677,0.1826972
 ,-0.0000539\Quadrupole=2.6729339,-1.3626159,-1.310318,0.5366267,-0.000

 Normal termination of Gaussian 16 at Tue Apr  8 22:39:26 2025.
