 Gaussian 16, Revision C.01,

 ----------------------------------------------------------------------
 #t hf aug-cc-pvdz symm=none int=(grid=ultrafine) guess=(read,tcheck) s
 table=(opt,rrhf)
 ----------------------------------------------------------------------
 -----
 title
 -----
 Symbolic Z-matrix:
 Charge =  0 Multiplicity = 1

 SCF Done:  E(RHF) =  -994.875752506     A.U. after   14 cycles
 Normal termination of Gaussian 16 at Wed Apr  9 00:13:31 2025.
 Gaussian 16:  ES64L-G16RevC.01  3-Jul-2019

 ----------------------------------------------------------------------
 #t hf aug-cc-pvdz iop(5/13=1,5/36=2,99/5=2) pseudo=read geom=check gue
 ss=(read,tcheck) scf=(maxcycle=1)
 ----------------------------------------------------------------------
 -----
 title
 -----
 Structure from the checkpoint file:  "BDE49_nonexpt_2412_mol1.chk"
 Charge =  0 Multiplicity = 1

                         Standard orientation:
 ---------------------------------------------------------------------
 Center     Atomic      Atomic             Coordinates (Angstroms)
 Number     Number       Type             X           Y           Z
 ---------------------------------------------------------------------
      1         14           0       -0.681314    1.596884   -0.410192
      2         14           0        1.568192    1.220948    0.222483
      3          6           0        2.024121   -0.631223    0.223575
      4          1           0        1.810276    1.699460    1.608412
      5          1           0        2.479968    1.966760   -0.677801
      6          7           0        1.819575   -1.369261   -0.799040
      7          8           0        1.286925   -0.610936   -1.866262
      8          1           0        1.068625   -1.276004   -2.527610
      9          6           0       -1.813283    0.232589    0.236564
     10          1           0       -0.817460    1.729068   -1.873769
     11          1           0       -1.109391    2.866287    0.238438
     12          7           0       -2.367860   -0.474059   -0.676922
     13          8           0       -3.193913   -1.481781   -0.134346
     14          1           0       -3.541336   -1.907421   -0.924650
     15          6           0        2.615228   -1.309722    1.432263
     16          1           0        1.958425   -1.200255    2.300864
     17          1           0        3.574936   -0.856266    1.699608
     18          1           0        2.768615   -2.371982    1.233528
     19          6           0       -2.030254    0.001354    1.712332
     20          1           0       -1.696642   -1.002732    1.990774
     21          1           0       -3.096487    0.056008    1.948845
     22          1           0       -1.496782    0.734430    2.319494
 ---------------------------------------------------------------------

 SCF Done:  E(RHF) =  -995.041894054     A.U. after    2 cycles

 The electronic state is 1-A.
 Alpha  occ. eigenvalues --  -69.06908 -69.06625 -20.61447 -20.60931 -15.69455
 Alpha  occ. eigenvalues --  -15.69192 -11.28026 -11.27695 -11.24696 -11.24482
 Alpha  occ. eigenvalues --   -6.82264  -6.81970  -3.93043  -3.93008  -3.92971
 Alpha  occ. eigenvalues --   -3.92742  -3.92706  -3.92667  -1.37946  -1.37396
 Alpha  occ. eigenvalues --   -1.14613  -1.13813  -0.97651  -0.97417  -0.79562
 Alpha  occ. eigenvalues --   -0.77236  -0.73953  -0.70501  -0.68855  -0.66846
 Alpha  occ. eigenvalues --   -0.63246  -0.62144  -0.61507  -0.60513  -0.57631
 Alpha  occ. eigenvalues --   -0.57195  -0.56250  -0.56024  -0.52187  -0.49523
 Alpha  occ. eigenvalues --   -0.49192  -0.47075  -0.43982  -0.41827  -0.40924
 Alpha  occ. eigenvalues --   -0.39737  -0.37125
 Alpha virt. eigenvalues --    0.03124   0.03840   0.04355   0.04580   0.05645
 Alpha virt. eigenvalues --    0.05848   0.06211   0.06475   0.07318   0.08038
 Alpha virt. eigenvalues --    0.08463   0.08637   0.08984   0.09933   0.10199

 Mulliken charges:
               1
     1  Si  -0.230750
     2  Si  -0.218164
     3  C    0.356062
     4  H    0.121611
     5  H    0.151728
     6  N   -0.342247
     7  O   -0.408981
     8  H    0.197698
     9  C    0.136504
    10  H    0.150639
    11  H    0.201996
    12  N   -0.250013
    13  O   -0.510455
    14  H    0.176196
    15  C    0.252175
    16  H   -0.015715
    17  H   -0.009947
    18  H   -0.053187
    19  C    0.412722
    20  H    0.045754
    21  H    0.004420
    22  H   -0.168047
 Sum of Mulliken charges =  -0.00000

 Dipole moment (field-independent basis, Debye):
    X=              0.2610    Y=             -0.2835    Z=              0.9721  Tot=              1.0457

 Test job not archived.
 1\1\GINC-SE150\SP\RHF\Aug-CC-pVDZ\C4H12N2O2Si2\OHZDE\09-Apr-2025\0\\#t
  hf aug-cc-pvdz iop(5/13=1,5/36=2,99/5=2) pseudo=read geom=check guess
 =(read,tcheck) scf=(maxcycle=1)\\title\\0,1\Si,0,0.681314,1.596884,0.4
 10192\Si,0,-1.568192,1.220948,-0.222483\C,0,-2.024121,-0.631223,-0.223
 575\H,0,-1.810276,1.69946,-1.608412\H,0,-2.479968,1.96676,0.677801\N,0
 ,-1.819575,-1.369261,0.79904\O,0,-1.286925,-0.610936,1.866262\H,0,-1.0
 68625,-1.276004,2.52761\C,0,1.813283,0.232589,-0.236564\H,0,0.81746,1.
 729068,1.873769\H,0,1.109391,2.866287,-0.238438\N,0,2.36786,-0.474059,

 Normal termination of Gaussian 16 at Wed Apr  9 00:13:48 2025.
