 Gaussian 16, Revision C.01,

 ----------------------------------------------------------------------
 #t hf aug-cc-pvdz symm=none int=(grid=ultrafine) guess=(read,tcheck) s
 table=(opt,rrhf)
 ----------------------------------------------------------------------
 -----
 title
 -----
 Symbolic Z-matrix:
 Charge =  0 Multiplicity = 1

 SCF Done:  E(RHF) =  -890.467245515     A.U. after   14 cycles
 Normal termination of Gaussian 16 at Tue Apr  8 23:29:30 2025.
 Gaussian 16:  ES64L-G16RevC.01  3-Jul-2019

 ----------------------------------------------------------------------
 #t hf aug-cc-pvdz iop(5/13=1,5/36=2,99/5=2) pseudo=read geom=check gue
 ss=(read,tcheck) scf=(maxcycle=1)
 ----------------------------------------------------------------------
 -----
 title
 -----
 Structure from the checkpoint file:  "BDE49_nonexpt_134_mol1.chk"
 Charge =  0 Multiplicity = 1

                         Standard orientation:
 ---------------------------------------------------------------------
 Center     Atomic      Atomic             Coordinates (Angstroms)
 Number     Number       Type             X           Y           Z
 ---------------------------------------------------------------------
      1          5           0       -0.737626    0.365774    1.154992
      2          5           0        0.737626   -0.365823    1.154979
      3         15           0        2.002924   -0.246981   -0.187961
      4         15           0       -2.002915    0.246974   -0.187959
      5          6           0        2.057876    1.418563   -0.989748
      6          1           0        2.463214    2.181620   -0.321153
      7          1           0        1.043464    1.701755   -1.275514
      8          1           0        2.670817    1.378005   -1.892712
      9          6           0        3.716617   -0.515854    0.455515
     10          1           0        3.725631   -1.431042    1.049980
     11          1           0        4.057124    0.313439    1.079599
     12          1           0        4.413101   -0.639735   -0.376632
     13          6           0       -3.716605    0.515890    0.455508
     14          1           0       -3.725598    1.431075    1.049978
     15          1           0       -4.057138   -0.313397    1.079585
     16          1           0       -4.413080    0.639795   -0.376643
     17          6           0       -2.057906   -1.418564   -0.989756
     18          1           0       -1.043499   -1.701782   -1.275515
     19          1           0       -2.670840   -1.377984   -1.892724
     20          1           0       -2.463270   -2.181613   -0.321168
     21          1           0       -1.000837    1.188109    1.986366
     22          1           0        1.000877   -1.188112    1.986388
 ---------------------------------------------------------------------

 SCF Done:  E(RHF) =  -890.578891774     A.U. after    2 cycles

 The electronic state is 1-A.
 Alpha  occ. eigenvalues --  -81.23225 -81.23225 -11.23791 -11.23791 -11.23531
 Alpha  occ. eigenvalues --  -11.23530  -7.73873  -7.73873  -7.59031  -7.58943
 Alpha  occ. eigenvalues --   -4.87962  -4.87950  -4.87935  -4.87930  -4.87634
 Alpha  occ. eigenvalues --   -4.87619  -0.97818  -0.97531  -0.93437  -0.93433
 Alpha  occ. eigenvalues --   -0.76871  -0.72165  -0.64034  -0.59757  -0.58486
 Alpha  occ. eigenvalues --   -0.58351  -0.57825  -0.56739  -0.56608  -0.55689
 Alpha  occ. eigenvalues --   -0.55685  -0.54971  -0.48551  -0.46338  -0.44875
 Alpha  occ. eigenvalues --   -0.42791  -0.40995  -0.31172  -0.29157
 Alpha virt. eigenvalues --    0.02993   0.03460   0.04652   0.04790   0.05584
 Alpha virt. eigenvalues --    0.05589   0.06166   0.06169   0.06590   0.06704
 Alpha virt. eigenvalues --    0.07894   0.08040   0.08269   0.08438   0.09518

 Mulliken charges:
               1
     1  B    0.118159
     2  B    0.118176
     3  P    0.410898
     4  P    0.410909
     5  C    0.218352
     6  H   -0.167168
     7  H   -0.220920
     8  H   -0.176001
     9  C    0.248386
    10  H   -0.232219
    11  H   -0.163034
    12  H   -0.177314
    13  C    0.248385
    14  H   -0.232218
    15  H   -0.163036
    16  H   -0.177312
    17  C    0.218349
    18  H   -0.220916
    19  H   -0.176002
    20  H   -0.167170
    21  H    0.140849
    22  H    0.140847
 Sum of Mulliken charges =  -0.00000

 Dipole moment (field-independent basis, Debye):
    X=             -0.0001    Y=              0.0000    Z=              0.0571  Tot=              0.0571

 Test job not archived.
 1\1\GINC-SE132\SP\RHF\Aug-CC-pVDZ\C4H14B2P2\OHZDE\08-Apr-2025\0\\#t hf
  aug-cc-pvdz iop(5/13=1,5/36=2,99/5=2) pseudo=read geom=check guess=(r
 ead,tcheck) scf=(maxcycle=1)\\title\\0,1\B,0,-0.737626,0.365774,1.1549
 92\B,0,0.737626,-0.365823,1.154979\P,0,2.002924,-0.246981,-0.187961\P,
 0,-2.002915,0.246974,-0.187959\C,0,2.057876,1.418563,-0.989748\H,0,2.4
 63214,2.18162,-0.321153\H,0,1.043464,1.701755,-1.275514\H,0,2.670817,1
 .378005,-1.892712\C,0,3.716617,-0.515854,0.455515\H,0,3.725631,-1.4310
 42,1.04998\H,0,4.057124,0.313439,1.079599\H,0,4.413101,-0.639735,-0.37

 Normal termination of Gaussian 16 at Tue Apr  8 23:29:42 2025.
