 Gaussian 16, Revision C.01,

 ----------------------------------------------------------------------
 #t hf aug-cc-pvdz symm=none int=(grid=ultrafine) guess=(read,tcheck) s
 table=(opt,rrhf)
 ----------------------------------------------------------------------
 -----
 title
 -----
 Symbolic Z-matrix:
 Charge =  0 Multiplicity = 1

 SCF Done:  E(RHF) =  -639.468118984     A.U. after   12 cycles
 Normal termination of Gaussian 16 at Wed Apr  9 00:09:04 2025.
 Gaussian 16:  ES64L-G16RevC.01  3-Jul-2019

 ----------------------------------------------------------------------
 #t hf aug-cc-pvdz iop(5/13=1,5/36=2,99/5=2) pseudo=read geom=check gue
 ss=(read,tcheck) scf=(maxcycle=1)
 ----------------------------------------------------------------------
 -----
 title
 -----
 Structure from the checkpoint file:  "BDE49_nonexpt_2286_mol1.chk"
 Charge =  0 Multiplicity = 1

                         Standard orientation:
 ---------------------------------------------------------------------
 Center     Atomic      Atomic             Coordinates (Angstroms)
 Number     Number       Type             X           Y           Z
 ---------------------------------------------------------------------
      1          8           0        0.250819    0.136118    0.539138
      2         14           0       -1.305718   -0.118600    0.016875
      3          6           0       -1.336396   -1.367470   -1.388850
      4          1           0       -0.902008   -2.323380   -1.082530
      5          1           0       -0.781839   -1.013869   -2.263586
      6          6           0       -2.209694   -0.780753    1.515088
      7          1           0       -3.258170   -0.992357    1.282716
      8          1           0       -2.186014   -0.058050    2.335516
      9          1           0       -1.750251   -1.706664    1.872078
     10          6           0       -2.099682    1.480357   -0.576814
     11          1           0       -1.583738    1.892249   -1.449840
     12          1           0       -2.094622    2.243313    0.207098
     13          1           0       -3.141614    1.307386   -0.866400
     14          1           0       -2.365686   -1.556187   -1.711490
     15          6           0        1.383856    0.609840   -0.196522
     16          6           0        2.612728   -0.197327    0.231802
     17          6           0        2.508450   -1.694099   -0.063516
     18          1           0        2.759298   -0.038691    1.306150
     19          1           0        3.490132    0.221888   -0.274162
     20          6           0        1.569463    2.106064    0.051064
     21          1           0        1.218918    0.443722   -1.272478
     22          1           0        1.724751    2.292000    1.117185
     23          1           0        0.689170    2.668033   -0.267793
     24          1           0        2.435615    2.486698   -0.498271
     25          1           0        1.655156   -2.132449    0.457416
     26          1           0        3.409368   -2.221740    0.260660
     27          1           0        2.382690   -1.880113   -1.135135
 ---------------------------------------------------------------------

 SCF Done:  E(RHF) =  -639.616074465     A.U. after    2 cycles

 The electronic state is 1-A.
 Alpha  occ. eigenvalues --  -69.06673 -20.54128 -11.29062 -11.22493 -11.22154
 Alpha  occ. eigenvalues --  -11.21827 -11.20540 -11.20516 -11.20231  -6.81467
 Alpha  occ. eigenvalues --   -3.92378  -3.92231  -3.92210  -1.28999  -1.04840
 Alpha  occ. eigenvalues --   -0.97738  -0.95374  -0.91664  -0.91549  -0.86261
 Alpha  occ. eigenvalues --   -0.78960  -0.70508  -0.62483  -0.60539  -0.59811
 Alpha  occ. eigenvalues --   -0.57919  -0.56511  -0.56160  -0.55942  -0.55187
 Alpha  occ. eigenvalues --   -0.53886  -0.53333  -0.52879  -0.52194  -0.51276
 Alpha  occ. eigenvalues --   -0.49928  -0.48373  -0.45608  -0.44825  -0.42158
 Alpha  occ. eigenvalues --   -0.41056
 Alpha virt. eigenvalues --    0.02987   0.04124   0.04323   0.04529   0.05655
 Alpha virt. eigenvalues --    0.05837   0.06068   0.06420   0.06498   0.07934
 Alpha virt. eigenvalues --    0.08089   0.08351   0.08570   0.09047   0.09230

 Mulliken charges:
               1
     1  O   -1.029410
     2  Si   1.744696
     3  C    0.584567
     4  H   -0.302109
     5  H   -0.315824
     6  C    0.468457
     7  H   -0.321474
     8  H   -0.318654
     9  H   -0.298832
    10  C    0.556679
    11  H   -0.317319
    12  H   -0.334234
    13  H   -0.318505
    14  H   -0.267405
    15  C   -0.323223
    16  C    0.419534
    17  C    0.588904
    18  H   -0.111890
    19  H   -0.076951
    20  C    0.608068
    21  H   -0.202323
    22  H   -0.010706
    23  H   -0.136465
    24  H   -0.019763
    25  H   -0.056973
    26  H   -0.108201
    27  H   -0.100642
 Sum of Mulliken charges =  -0.00000

 Dipole moment (field-independent basis, Debye):
    X=              0.1197    Y=              0.3259    Z=             -0.9821  Tot=              1.0417

 Test job not archived.
 1\1\GINC-SE366\SP\RHF\Aug-CC-pVDZ\C7H18O1Si1\OHZDE\09-Apr-2025\0\\#t h
 f aug-cc-pvdz iop(5/13=1,5/36=2,99/5=2) pseudo=read geom=check guess=(
 read,tcheck) scf=(maxcycle=1)\\title\\0,1\O,0,0.250819,0.136118,0.5391
 38\Si,0,-1.305718,-0.1186,0.016875\C,0,-1.336396,-1.36747,-1.38885\H,0
 ,-0.902008,-2.32338,-1.08253\H,0,-0.781839,-1.013869,-2.263586\C,0,-2.
 209694,-0.780753,1.515088\H,0,-3.25817,-0.992356,1.282716\H,0,-2.18601
 4,-0.05805,2.335516\H,0,-1.750251,-1.706664,1.872078\C,0,-2.099682,1.4
 80357,-0.576814\H,0,-1.583738,1.892249,-1.44984\H,0,-2.094622,2.243313

 Normal termination of Gaussian 16 at Wed Apr  9 00:09:20 2025.
