 Gaussian 16, Revision C.01,

 ----------------------------------------------------------------------
 #t hf aug-cc-pvdz symm=none int=(grid=ultrafine) guess=(read,tcheck) s
 table=opt
 ----------------------------------------------------------------------
 -----
 title
 -----
 Symbolic Z-matrix:
 Charge =  0 Multiplicity = 2

 SCF Done:  E(UHF) =  -1233.81681161     A.U. after   15 cycles
 Normal termination of Gaussian 16 at Tue Apr  8 23:43:12 2025.
 Gaussian 16:  ES64L-G16RevC.01  3-Jul-2019

 ----------------------------------------------------------------------
 #t hf aug-cc-pvdz iop(5/13=1,5/36=2,99/5=2) pseudo=read geom=check gue
 ss=(read,tcheck) scf=(maxcycle=1)
 ----------------------------------------------------------------------
 -----
 title
 -----
 Structure from the checkpoint file:  "BDE49_nonexpt_171_mol2.chk"
 Charge =  0 Multiplicity = 2

                         Standard orientation:
 ---------------------------------------------------------------------
 Center     Atomic      Atomic             Coordinates (Angstroms)
 Number     Number       Type             X           Y           Z
 ---------------------------------------------------------------------
      1         17           0       -2.342230   -0.411167    0.000005
      2          5           0       -1.169564    0.835961   -0.000006
      3         14           0        0.811544    0.972339   -0.000001
      4         17           0        1.875245   -0.837180   -0.000002
      5          1           0        1.212481    1.714669   -1.212488
      6          1           0        1.212475    1.714664    1.212492
 ---------------------------------------------------------------------

 SCF Done:  E(UHF) =  -1233.88143834     A.U. after    2 cycles

 The electronic state is 2-A.
 Alpha  occ. eigenvalues -- -103.69393-103.65432 -69.12060 -10.72876 -10.68857
 Alpha  occ. eigenvalues --   -8.38565  -8.38389  -8.38299  -8.34608  -8.34316
 Alpha  occ. eigenvalues --   -8.34303  -7.71037  -6.87034  -3.97825  -3.97745
 Alpha  occ. eigenvalues --   -3.97714  -1.19091  -1.13729  -0.75397  -0.66986
 Alpha  occ. eigenvalues --   -0.55720  -0.54623  -0.53875  -0.52025  -0.51656
 Alpha  occ. eigenvalues --   -0.46815  -0.46207  -0.33749
 Alpha virt. eigenvalues --    0.02296   0.03723   0.04607   0.05395   0.06636
 Alpha virt. eigenvalues --    0.07095   0.07470   0.07694   0.09364   0.11647
 Alpha virt. eigenvalues --    0.13109   0.14405   0.15176   0.15917   0.16908

  Beta  occ. eigenvalues -- -103.69335-103.65376 -69.12003 -10.72812 -10.68795
  Beta  occ. eigenvalues --   -8.38548  -8.38336  -8.38079  -8.34434  -8.34268
  Beta  occ. eigenvalues --   -8.34245  -7.69275  -6.86927  -3.97839  -3.97653
  Beta  occ. eigenvalues --   -3.97568  -1.18396  -1.13263  -0.73320  -0.64926
  Beta  occ. eigenvalues --   -0.53837  -0.53594  -0.53094  -0.52140  -0.49672
  Beta  occ. eigenvalues --   -0.46187  -0.45138
  Beta virt. eigenvalues --    0.02782   0.03891   0.04385   0.04679   0.07055
  Beta virt. eigenvalues --    0.07140   0.07350   0.07741   0.07996   0.09614
  Beta virt. eigenvalues --    0.12459   0.13530   0.15147   0.16061   0.16421

 Mulliken charges and spin densities:
               1          2
     1  Cl  -0.238206   0.007132
     2  B    0.126634   1.010048
     3  Si   0.619529  -0.029632
     4  Cl  -0.538518   0.023414
     5  H    0.015281  -0.005482
     6  H    0.015281  -0.005482
 Sum of Mulliken charges =  -0.00000   1.00000

 Dipole moment (field-independent basis, Debye):
    X=             -0.6634    Y=              1.3879    Z=             -0.0000  Tot=              1.5383
                          Isotropic Fermi Contact Couplings
        Atom                 a.u.       MegaHertz       Gauss      10(-4) cm-1
     1  Cl(35)             0.04203      18.42710       6.57525       6.14662
     2  B(11)              0.24758     355.12526     126.71752     118.45703
     3  Si(29)             0.11172     -99.28450     -35.42718     -33.11774
     4  Cl(35)             0.03423      15.00910       5.35562       5.00650
     5  H(1)              -0.00228     -10.17591      -3.63102      -3.39432
     6  H(1)              -0.00228     -10.17583      -3.63099      -3.39429
 --------------------------------------------------------
       Center         ----  Spin Dipole Couplings  ----

 Normal termination of Gaussian 16 at Tue Apr  8 23:43:15 2025.
