 Gaussian 16, Revision C.01,

 ----------------------------------------------------------------------
 #t hf aug-cc-pvdz symm=none int=(grid=ultrafine) guess=(read,tcheck) s
 table=(opt,rrhf)
 ----------------------------------------------------------------------
 -----
 title
 -----
 Symbolic Z-matrix:
 Charge =  0 Multiplicity = 1

 SCF Done:  E(RHF) =  -597.621501557     A.U. after   15 cycles
 Normal termination of Gaussian 16 at Wed Apr  9 00:40:28 2025.
 Gaussian 16:  ES64L-G16RevC.01  3-Jul-2019

 ----------------------------------------------------------------------
 #t hf aug-cc-pvdz iop(5/13=1,5/36=2,99/5=2) pseudo=read geom=check gue
 ss=(read,tcheck) scf=(maxcycle=1)
 ----------------------------------------------------------------------
 -----
 title
 -----
 Structure from the checkpoint file:  "BDE49_nonexpt_687_mol1.chk"
 Charge =  0 Multiplicity = 1

                         Standard orientation:
 ---------------------------------------------------------------------
 Center     Atomic      Atomic             Coordinates (Angstroms)
 Number     Number       Type             X           Y           Z
 ---------------------------------------------------------------------
      1          6           0        1.523103    0.198368   -0.002211
      2          5           0       -1.504023    0.042535    0.034697
      3          6           0       -2.671112   -0.918510    0.466406
      4          1           0       -3.653057   -0.519055    0.188924
      5          1           0       -2.666145   -0.955197    1.566364
      6          1           0       -2.596832   -1.950112    0.114161
      7          8           0        1.580572    1.401654   -0.101398
      8          6           0        2.635473   -0.620044    0.628420
      9          6           0       -1.656145    1.598649    0.094350
     10          1           0       -0.714043    2.138143    0.211005
     11          1           0       -2.371190    1.919217    0.859129
     12          1           0       -2.075457    1.922691   -0.870746
     13          1           0        2.933694   -1.441439   -0.028536
     14          1           0        2.285335   -1.061004    1.566374
     15          1           0        3.488108    0.030410    0.826216
     16         15           0        0.072524   -0.739174   -0.724951
     17          1           0        0.169356   -1.972735   -0.042718
 ---------------------------------------------------------------------

 SCF Done:  E(RHF) =  -597.721690565     A.U. after    2 cycles

 The electronic state is 1-A.
 Alpha  occ. eigenvalues --  -81.24524 -20.57057 -11.35620 -11.25234 -11.21606
 Alpha  occ. eigenvalues --  -11.20284  -7.75317  -7.62616  -4.89402  -4.89323
 Alpha  occ. eigenvalues --   -4.89025  -1.36158  -1.01291  -0.97067  -0.92373
 Alpha  occ. eigenvalues --   -0.83985  -0.73215  -0.65133  -0.64065  -0.61349
 Alpha  occ. eigenvalues --   -0.60058  -0.57520  -0.56543  -0.56337  -0.53993
 Alpha  occ. eigenvalues --   -0.53618  -0.51824  -0.47602  -0.45224  -0.39723
 Alpha  occ. eigenvalues --   -0.34365
 Alpha virt. eigenvalues --    0.02818   0.04168   0.04777   0.05028   0.06145
 Alpha virt. eigenvalues --    0.06232   0.06567   0.07183   0.07788   0.08259
 Alpha virt. eigenvalues --    0.08993   0.09346   0.09841   0.10243   0.11033

 Mulliken charges:
               1
     1  C   -0.061689
     2  B    0.608503
     3  C    0.496206
     4  H   -0.247048
     5  H   -0.097915
     6  H   -0.350188
     7  O   -0.522090
     8  C    0.226525
     9  C    0.511153
    10  H   -0.252902
    11  H   -0.255659
    12  H   -0.104477
    13  H    0.018355
    14  H    0.042631
    15  H   -0.062178
    16  P   -0.175658
    17  H    0.226432
 Sum of Mulliken charges =  -0.00000

 Dipole moment (field-independent basis, Debye):
    X=             -0.6459    Y=             -2.7369    Z=              1.3057  Tot=              3.1004

 Test job not archived.
 1\1\GINC-SE343\SP\RHF\Aug-CC-pVDZ\C4H10B1O1P1\OHZDE\09-Apr-2025\0\\#t
 hf aug-cc-pvdz iop(5/13=1,5/36=2,99/5=2) pseudo=read geom=check guess=
 (read,tcheck) scf=(maxcycle=1)\\title\\0,1\C,0,1.523103,0.198368,-0.00
 2211\B,0,-1.504023,0.042535,0.034697\C,0,-2.671112,-0.91851,0.466406\H
 ,0,-3.653057,-0.519055,0.188924\H,0,-2.666145,-0.955197,1.566364\H,0,-
 2.596832,-1.950112,0.114161\O,0,1.580572,1.401654,-0.101398\C,0,2.6354
 73,-0.620044,0.62842\C,0,-1.656145,1.598649,0.09435\H,0,-0.714043,2.13
 8143,0.211005\H,0,-2.37119,1.919217,0.859129\H,0,-2.075457,1.922691,-0

 Normal termination of Gaussian 16 at Wed Apr  9 00:40:35 2025.
