 Gaussian 16, Revision C.01,

 ----------------------------------------------------------------------
 #t hf aug-cc-pvdz symm=none int=(grid=ultrafine) guess=(read,tcheck) s
 table=(opt,rrhf)
 ----------------------------------------------------------------------
 -----
 title
 -----
 Symbolic Z-matrix:
 Charge =  0 Multiplicity = 1

 SCF Done:  E(RHF) =  -878.330273878     A.U. after   16 cycles
 Normal termination of Gaussian 16 at Tue Apr  8 23:19:04 2025.
 Gaussian 16:  ES64L-G16RevC.01  3-Jul-2019

 ----------------------------------------------------------------------
 #t hf aug-cc-pvdz iop(5/13=1,5/36=2,99/5=2) pseudo=read geom=check gue
 ss=(read,tcheck) scf=(maxcycle=1)
 ----------------------------------------------------------------------
 -----
 title
 -----
 Structure from the checkpoint file:  "BDE49_nonexpt_1087_mol1.chk"
 Charge =  0 Multiplicity = 1

                         Standard orientation:
 ---------------------------------------------------------------------
 Center     Atomic      Atomic             Coordinates (Angstroms)
 Number     Number       Type             X           Y           Z
 ---------------------------------------------------------------------
      1         17           0       -3.440728   -0.204595   -0.616017
      2          8           0       -2.271655   -0.047408    0.833534
      3          6           0       -0.975631    0.052203    0.469369
      4          6           0       -0.178234   -1.095688    0.411734
      5          6           0        1.187565   -0.993499    0.183730
      6          6           0        1.762097    0.270189   -0.018339
      7          6           0       -0.398973    1.314713    0.244662
      8          1           0       -1.034866    2.191185    0.272065
      9          6           0        0.956661    1.423085    0.014515
     10          1           0        1.430519    2.383608   -0.144829
     11          1           0       -0.644769   -2.061085    0.565936
     12          8           0        3.077403    0.485853   -0.252963
     13          6           0        3.961483   -0.629949   -0.311668
     14          1           0        3.980679   -1.172629    0.638961
     15          1           0        4.946995   -0.213599   -0.510037
     16          1           0        3.685808   -1.313676   -1.120934
     17          1           0        1.792212   -1.889571    0.162539
 ---------------------------------------------------------------------

 SCF Done:  E(RHF) =  -878.475200559     A.U. after    2 cycles

 The electronic state is 1-A.
 Alpha  occ. eigenvalues -- -103.69964 -20.66621 -20.61451 -11.33183 -11.30928
 Alpha  occ. eigenvalues --  -11.30686 -11.26788 -11.26575 -11.25710 -11.25287
 Alpha  occ. eigenvalues --  -10.72621  -8.38338  -8.37960  -8.37943  -1.38632
 Alpha  occ. eigenvalues --   -1.37267  -1.15340  -1.10811  -1.03689  -1.01398
 Alpha  occ. eigenvalues --   -0.94649  -0.86161  -0.82171  -0.74461  -0.71396
 Alpha  occ. eigenvalues --   -0.71043  -0.67952  -0.64011  -0.63010  -0.61656
 Alpha  occ. eigenvalues --   -0.61261  -0.58724  -0.56988  -0.54218  -0.53756
 Alpha  occ. eigenvalues --   -0.50245  -0.47834  -0.47495  -0.45832  -0.36314
 Alpha  occ. eigenvalues --   -0.32100
 Alpha virt. eigenvalues --    0.00927   0.02925   0.03980   0.04400   0.05356
 Alpha virt. eigenvalues --    0.05854   0.06063   0.08455   0.09088   0.09639
 Alpha virt. eigenvalues --    0.10562   0.10809   0.12588   0.12931   0.13645

 Mulliken charges:
               1
     1  Cl   0.092607
     2  O   -0.676105
     3  C    0.295795
     4  C    0.344209
     5  C    0.633640
     6  C    0.441545
     7  C    0.601574
     8  H   -0.468345
     9  C    0.800686
    10  H   -0.547418
    11  H   -0.478037
    12  O   -0.686276
    13  C    0.832281
    14  H   -0.086738
    15  H   -0.296370
    16  H   -0.088527
    17  H   -0.714522
 Sum of Mulliken charges =  -0.00000

 Dipole moment (field-independent basis, Debye):
    X=              3.4680    Y=             -1.1682    Z=             -0.5233  Tot=              3.6967

 Test job not archived.
 1\1\GINC-SE398\SP\RHF\Aug-CC-pVDZ\C7H7Cl1O2\OHZDE\08-Apr-2025\0\\#t hf
  aug-cc-pvdz iop(5/13=1,5/36=2,99/5=2) pseudo=read geom=check guess=(r
 ead,tcheck) scf=(maxcycle=1)\\title\\0,1\Cl,0,3.440728,-0.204595,0.616
 017\O,0,2.271655,-0.047408,-0.833534\C,0,0.975631,0.052203,-0.469369\C
 ,0,0.178234,-1.095688,-0.411734\C,0,-1.187565,-0.993499,-0.18373\C,0,-
 1.762097,0.270189,0.018339\C,0,0.398973,1.314713,-0.244662\H,0,1.03486
 6,2.191185,-0.272065\C,0,-0.956661,1.423085,-0.014515\H,0,-1.430519,2.
 383608,0.144829\H,0,0.644769,-2.061085,-0.565936\O,0,-3.077403,0.48585

 Normal termination of Gaussian 16 at Tue Apr  8 23:19:13 2025.
