 Gaussian 16, Revision C.01,

 ----------------------------------------------------------------------
 #t hf aug-cc-pvdz symm=none int=(grid=ultrafine) guess=(read,tcheck) s
 table=opt
 ----------------------------------------------------------------------
 -----
 title
 -----
 Symbolic Z-matrix:
 Charge =  0 Multiplicity = 2

 SCF Done:  E(UHF) =  -514.390471065     A.U. after   18 cycles
 Normal termination of Gaussian 16 at Tue Apr  8 23:06:34 2025.
 Gaussian 16:  ES64L-G16RevC.01  3-Jul-2019

 ----------------------------------------------------------------------
 #t hf aug-cc-pvdz iop(5/13=1,5/36=2,99/5=2) pseudo=read geom=check gue
 ss=(read,tcheck) scf=(maxcycle=1)
 ----------------------------------------------------------------------
 -----
 title
 -----
 Structure from the checkpoint file:  "BDE49_expt_350_mol2.chk"
 Charge =  0 Multiplicity = 2

                         Standard orientation:
 ---------------------------------------------------------------------
 Center     Atomic      Atomic             Coordinates (Angstroms)
 Number     Number       Type             X           Y           Z
 ---------------------------------------------------------------------
      1          6           0        0.207444    1.847315    0.726945
      2          6           0       -0.225232    0.581385    1.492674
      3          7           0        0.051499   -0.670541    0.805618
      4          1           0       -1.295999    0.626848    1.691434
      5          1           0        0.272814    0.579932    2.470788
      6          8           0       -0.115956    1.800647   -0.655807
      7          1           0        1.291155    1.967306    0.775277
      8          1           0       -0.250593    2.718931    1.214957
      9          1           0       -1.002549    1.406355   -0.770695
     10          6           0       -0.940529   -1.407946    0.185714
     11          6           0        1.430452   -1.138497    0.699363
     12          6           0        2.060755   -0.961084   -0.691788
     13          1           0        2.033302   -0.600413    1.435097
     14          1           0        1.461256   -2.205013    0.963334
     15          8           0        2.268151    0.383826   -1.062096
     16          1           0        1.444132   -1.494085   -1.430839
     17          1           0        3.044227   -1.441451   -0.680221
     18          1           0        1.402117    0.817438   -1.168448
     19          6           0       -2.300088   -0.904444   -0.076628
     20          1           0       -0.613345   -2.334881   -0.264608
     21          8           0       -2.376921    0.181138   -1.078958
     22          1           0       -2.787089   -0.455438    0.792658
     23          1           0       -2.930698   -1.733340   -0.408869
     24          1           0       -2.028226   -0.183655   -1.901994
 ---------------------------------------------------------------------

 SCF Done:  E(UHF) =  -514.550079840     A.U. after    2 cycles

 The electronic state is 2-A.
 Alpha  occ. eigenvalues --  -20.59212 -20.56549 -20.54785 -15.64334 -11.30547
 Alpha  occ. eigenvalues --  -11.28630 -11.28053 -11.27840 -11.27169 -11.26602
 Alpha  occ. eigenvalues --   -1.33567  -1.31827  -1.30005  -1.22859  -1.03111
 Alpha  occ. eigenvalues --   -1.02055  -0.95264  -0.87310  -0.86102  -0.78218
 Alpha  occ. eigenvalues --   -0.72523  -0.70442  -0.69094  -0.68423  -0.66328
 Alpha  occ. eigenvalues --   -0.63864  -0.62929  -0.62027  -0.61464  -0.59344
 Alpha  occ. eigenvalues --   -0.56688  -0.54476  -0.53946  -0.52744  -0.51417
 Alpha  occ. eigenvalues --   -0.50152  -0.48776  -0.46044  -0.45375  -0.43560
 Alpha  occ. eigenvalues --   -0.27477
 Alpha virt. eigenvalues --    0.03008   0.03524   0.03909   0.04634   0.05840
 Alpha virt. eigenvalues --    0.05990   0.06190   0.06858   0.07770   0.08482
 Alpha virt. eigenvalues --    0.08820   0.09132   0.09789   0.10864   0.11853

  Beta  occ. eigenvalues --  -20.58810 -20.56555 -20.54789 -15.63374 -11.30847
  Beta  occ. eigenvalues --  -11.28582 -11.28007 -11.27937 -11.27268 -11.24599
  Beta  occ. eigenvalues --   -1.32733  -1.31421  -1.29978  -1.20509  -1.02020
  Beta  occ. eigenvalues --   -1.00469  -0.94793  -0.86763  -0.85396  -0.76289
  Beta  occ. eigenvalues --   -0.72165  -0.70289  -0.68507  -0.67309  -0.65607
  Beta  occ. eigenvalues --   -0.63247  -0.61920  -0.61365  -0.60301  -0.58954
  Beta  occ. eigenvalues --   -0.56265  -0.53911  -0.53655  -0.51370  -0.50953
  Beta  occ. eigenvalues --   -0.49941  -0.47814  -0.45644  -0.44732  -0.36580
  Beta virt. eigenvalues --    0.03060   0.03443   0.03823   0.04556   0.05839
  Beta virt. eigenvalues --    0.05995   0.06087   0.06869   0.07761   0.08409
  Beta virt. eigenvalues --    0.08744   0.09112   0.09776   0.10375   0.11411

 Mulliken charges and spin densities:
               1          2
     1  C    0.894422   0.011398
     2  C    0.331719  -0.049967
     3  N   -0.058439   0.154235
     4  H   -0.291274   0.000812
     5  H   -0.193653   0.006543
     6  O   -0.582902   0.004740
     7  H   -0.167653   0.001502
     8  H   -0.188067   0.000430
     9  H    0.245699  -0.003654
    10  C    0.266345   1.167355
    11  C    0.421397  -0.062699
    12  C    0.829854   0.014871
    13  H   -0.209933   0.006465
    14  H   -0.154525   0.007184
    15  O   -0.542514  -0.000014
    16  H   -0.169329  -0.001692
    17  H   -0.186838  -0.002290
    18  H    0.239997   0.001003
    19  C    0.818539  -0.233311
    20  H   -0.567027  -0.092620
    21  O   -0.685877   0.060741
    22  H   -0.145324   0.003376
    23  H   -0.108240   0.012748
    24  H    0.203625  -0.007159
 Sum of Mulliken charges =  -0.00000   1.00000

 Dipole moment (field-independent basis, Debye):
    X=             -1.6944    Y=             -2.7435    Z=              2.0030  Tot=              3.7960
                          Isotropic Fermi Contact Couplings
        Atom                 a.u.       MegaHertz       Gauss      10(-4) cm-1
     1  C(13)              0.01193      13.41422       4.78653       4.47450
     2  C(13)             -0.01674     -18.82102      -6.71581      -6.27802
     3  N(14)              0.08977      29.00521      10.34978       9.67510
     4  H(1)               0.00069       3.07140       1.09595       1.02451
     5  H(1)               0.00248      11.08402       3.95505       3.69723
     6  O(17)             -0.00214       1.29649       0.46262       0.43246
     7  H(1)              -0.00028      -1.24915      -0.44573      -0.41667
     8  H(1)               0.00014       0.63709       0.22733       0.21251

 Normal termination of Gaussian 16 at Tue Apr  8 23:06:53 2025.
