 Gaussian 16, Revision C.01,

 ----------------------------------------------------------------------
 #t hf aug-cc-pvdz symm=none int=(grid=ultrafine) guess=(read,tcheck) s
 table=(opt,rrhf)
 ----------------------------------------------------------------------
 -----
 title
 -----
 Symbolic Z-matrix:
 Charge =  0 Multiplicity = 1

 SCF Done:  E(RHF) =  -233.331945331     A.U. after   13 cycles
 Normal termination of Gaussian 16 at Wed Apr  9 00:35:50 2025.
 Gaussian 16:  ES64L-G16RevC.01  3-Jul-2019

 ----------------------------------------------------------------------
 #t hf aug-cc-pvdz iop(5/13=1,5/36=2,99/5=2) pseudo=read geom=check gue
 ss=(read,tcheck) scf=(maxcycle=1)
 ----------------------------------------------------------------------
 -----
 title
 -----
 Structure from the checkpoint file:  "BDE49_nonexpt_560_mol1.chk"
 Charge =  0 Multiplicity = 1

                         Standard orientation:
 ---------------------------------------------------------------------
 Center     Atomic      Atomic             Coordinates (Angstroms)
 Number     Number       Type             X           Y           Z
 ---------------------------------------------------------------------
      1          7           0        0.016158   -0.217751   -0.000002
      2          5           0       -1.235756    0.438912   -0.000005
      3          8           0       -2.365253   -0.334607    0.000002
      4          6           0        1.268903    0.391810    0.000000
      5          6           0        2.446749   -0.236084    0.000002
      6          1           0        1.220352    1.476078   -0.000001
      7          1           0        2.523479   -1.318410    0.000003
      8          1           0        3.368163    0.329181    0.000003
      9          1           0       -3.172163    0.183345    0.000007
     10          1           0       -1.273682    1.632692    0.000000
     11          1           0        0.027638   -1.230692   -0.000001
 ---------------------------------------------------------------------

 SCF Done:  E(RHF) =  -233.411217706     A.U. after    2 cycles

 The electronic state is 1-A.
 Alpha  occ. eigenvalues --  -20.58360 -15.62809 -11.28537 -11.21863  -7.64412
 Alpha  occ. eigenvalues --   -1.32809  -1.18313  -0.99492  -0.81176  -0.76902
 Alpha  occ. eigenvalues --   -0.69860  -0.65106  -0.63166  -0.57823  -0.56990
 Alpha  occ. eigenvalues --   -0.52524  -0.50200  -0.49549  -0.32360
 Alpha virt. eigenvalues --    0.03325   0.04097   0.04491   0.05275   0.06494
 Alpha virt. eigenvalues --    0.06915   0.08875   0.09398   0.10673   0.11468
 Alpha virt. eigenvalues --    0.11661   0.14296   0.14912   0.16581   0.16815

 Mulliken charges:
               1
     1  N   -0.207832
     2  B    0.292635
     3  O   -0.481825
     4  C    0.805790
     5  C    0.529649
     6  H   -0.484393
     7  H   -0.359058
     8  H   -0.290920
     9  H    0.192627
    10  H    0.072084
    11  H   -0.068758
 Sum of Mulliken charges =   0.00000

 Dipole moment (field-independent basis, Debye):
    X=             -1.0068    Y=              0.7808    Z=             -0.0000  Tot=              1.2741

 Test job not archived.
 1\1\GINC-SE461\SP\RHF\Aug-CC-pVDZ\C2H6B1N1O1\OHZDE\09-Apr-2025\0\\#t h
 f aug-cc-pvdz iop(5/13=1,5/36=2,99/5=2) pseudo=read geom=check guess=(
 read,tcheck) scf=(maxcycle=1)\\title\\0,1\N,0,0.016158,-0.217751,-0.00
 0002\B,0,-1.235756,0.438912,-0.000005\O,0,-2.365253,-0.334607,0.000002
 \C,0,1.268903,0.39181,0.\C,0,2.446749,-0.236084,0.000002\H,0,1.220352,
 1.476078,-0.000001\H,0,2.523479,-1.31841,0.000003\H,0,3.368163,0.32918
 1,0.000003\H,0,-3.172163,0.183345,0.000007\H,0,-1.273682,1.632692,0.\H
 ,0,0.027638,-1.230692,-0.000001\\Version=ES64L-G16RevC.01\State=1-A\HF

 Normal termination of Gaussian 16 at Wed Apr  9 00:35:53 2025.
