 Gaussian 16, Revision C.01,

 ----------------------------------------------------------------------
 #t hf aug-cc-pvdz symm=none int=(grid=ultrafine) guess=(read,tcheck) s
 table=(opt,rrhf)
 ----------------------------------------------------------------------
 -----
 title
 -----
 Symbolic Z-matrix:
 Charge =  0 Multiplicity = 1

 SCF Done:  E(RHF) =  -1391.26557401     A.U. after   19 cycles

 1\1\GINC-SE461\Stability\RHF\Aug-CC-pVDZ\Cl2O1S1\OHZDE\08-Apr-2025\0\\
 #t hf aug-cc-pvdz symm=none int=(grid=ultrafine) guess=(read,tcheck) s
 table=(opt,rrhf)\\title\\0,1\O,0,-0.615361,0.68038,0.626933\S,0,0.5952
 44,0.889597,-0.256139\Cl,0,1.90377,-0.691024,0.050935\Cl,0,-2.174417,-
 0.466423,-0.104891\\Version=ES64L-G16RevC.01\HF=-1391.265574\RMSD=3.80
 2e-09\Dipole=0.4905398,0.4167333,-0.2642431\Quadrupole=-0.7877263,1.39
 45016,-0.6067753,0.477589,0.2120774,-0.6208916\PG=Unknown\\@
 The archive entry for this job was punched.

 Normal termination of Gaussian 16 at Tue Apr  8 23:20:50 2025.
 Gaussian 16:  ES64L-G16RevC.01  3-Jul-2019

 ----------------------------------------------------------------------
 #t hf aug-cc-pvdz iop(5/13=1,5/36=2,99/5=2) pseudo=read geom=check gue
 ss=(read,tcheck) scf=(maxcycle=1)
 ----------------------------------------------------------------------
 -----
 title
 -----
 Structure from the checkpoint file:  "BDE49_nonexpt_1207_mol1.chk"
 Charge =  0 Multiplicity = 1

                         Standard orientation:
 ---------------------------------------------------------------------
 Center     Atomic      Atomic             Coordinates (Angstroms)
 Number     Number       Type             X           Y           Z
 ---------------------------------------------------------------------
      1          8           0       -0.615361    0.680380    0.626933
      2         16           0        0.595244    0.889597   -0.256139
      3         17           0        1.903770   -0.691024    0.050935
      4         17           0       -2.174417   -0.466423   -0.104891
 ---------------------------------------------------------------------

 SCF Done:  E(RHF) =  -1391.35855831     A.U. after    2 cycles

 The electronic state is 1-A.
 Alpha  occ. eigenvalues -- -103.70693-103.70465 -93.70631 -20.73812 -10.73931
 Alpha  occ. eigenvalues --  -10.73131  -8.99377  -8.39647  -8.39298  -8.39270
 Alpha  occ. eigenvalues --   -8.38814  -8.38454  -8.38443  -6.33561  -6.33122
 Alpha  occ. eigenvalues --   -6.32747  -1.44174  -1.19134  -1.12072  -0.92372
 Alpha  occ. eigenvalues --   -0.71522  -0.69357  -0.65727  -0.53177  -0.52816
 Alpha  occ. eigenvalues --   -0.50916  -0.48860  -0.48332  -0.38334
 Alpha virt. eigenvalues --   -0.07010   0.02934   0.07704   0.09195   0.10231
 Alpha virt. eigenvalues --    0.10612   0.13045   0.14378   0.14765   0.14795
 Alpha virt. eigenvalues --    0.15567   0.17156   0.19949   0.24348   0.25129

 Mulliken charges:
               1
     1  O   -0.585068
     2  S    0.872084
     3  Cl  -0.276759
     4  Cl  -0.010257
 Sum of Mulliken charges =  -0.00000

 Dipole moment (field-independent basis, Debye):
    X=              1.3521    Y=              1.1222    Z=             -0.8503  Tot=              1.9520

 Test job not archived.
 1\1\GINC-SE461\SP\RHF\Aug-CC-pVDZ\Cl2O1S1\OHZDE\08-Apr-2025\0\\#t hf a
 ug-cc-pvdz iop(5/13=1,5/36=2,99/5=2) pseudo=read geom=check guess=(rea
 d,tcheck) scf=(maxcycle=1)\\title\\0,1\O,0,-0.615361,0.68038,0.626933\
 S,0,0.595244,0.889597,-0.256139\Cl,0,1.90377,-0.691024,0.050935\Cl,0,-
 2.174417,-0.466423,-0.104891\\Version=ES64L-G16RevC.01\State=1-A\HF=-1
 391.3585583\RMSD=3.364e-03\Dipole=0.5319431,0.4414909,-0.3345368\Quadr
 upole=-0.782348,1.4500518,-0.6677039,0.6504369,0.2479629,-0.7164967\PG
 =C01 [X(Cl2O1S1)]\\@

 Normal termination of Gaussian 16 at Tue Apr  8 23:20:52 2025.
