 Gaussian 16, Revision C.01,

 ----------------------------------------------------------------------
 #t hf aug-cc-pvdz symm=none int=(grid=ultrafine) guess=(read,tcheck) s
 table=opt
 ----------------------------------------------------------------------
 -----
 title
 -----
 Symbolic Z-matrix:
 Charge =  0 Multiplicity = 2

 SCF Done:  E(UHF) =  -562.742457714     A.U. after   15 cycles
 Normal termination of Gaussian 16 at Wed Apr  9 00:01:20 2025.
 Gaussian 16:  ES64L-G16RevC.01  3-Jul-2019

 ----------------------------------------------------------------------
 #t hf aug-cc-pvdz iop(5/13=1,5/36=2,99/5=2) pseudo=read geom=check gue
 ss=(read,tcheck) scf=(maxcycle=1)
 ----------------------------------------------------------------------
 -----
 title
 -----
 Structure from the checkpoint file:  "BDE49_nonexpt_2088_mol2.chk"
 Charge =  0 Multiplicity = 2

                         Standard orientation:
 ---------------------------------------------------------------------
 Center     Atomic      Atomic             Coordinates (Angstroms)
 Number     Number       Type             X           Y           Z
 ---------------------------------------------------------------------
      1          6           0        0.901894    1.382272   -0.133799
      2          6           0        2.286856    0.975750    0.390208
      3          6           0        2.714835   -0.395048   -0.150897
      4          6           0        1.654898   -1.465101    0.144113
      5          6           0        0.272143   -1.050754   -0.378744
      6          6           0       -1.548834    0.745178   -0.382484
      7          6           0       -0.173378    0.319081    0.165269
      8         14           0       -3.031040   -0.313071    0.147162
      9          1           0        0.953939    1.533972   -1.220702
     10          1           0        0.601768    2.342736    0.299358
     11          1           0        2.260805    0.938605    1.487017
     12          1           0        3.026511    1.737767    0.123733
     13          1           0        3.679042   -0.688103    0.276953
     14          1           0        2.863663   -0.324215   -1.236279
     15          1           0        1.596803   -1.626450    1.228312
     16          1           0        1.949345   -2.423207   -0.296205
     17          1           0       -0.470160   -1.815940   -0.123907
     18          1           0        0.298052   -1.001604   -1.476211
     19          1           0       -1.519956    0.781106   -1.478608
     20          1           0       -1.775813    1.769705   -0.054510
     21          1           0       -0.251388    0.232875    1.259116
     22          1           0       -4.296891    0.244674   -0.401573
     23          1           0       -3.131649   -0.387190    1.631234
 ---------------------------------------------------------------------

 SCF Done:  E(UHF) =  -562.844278433     A.U. after    2 cycles

 The electronic state is 2-A.
 Alpha  occ. eigenvalues --  -69.06200 -11.23812 -11.22643 -11.22590 -11.22576
 Alpha  occ. eigenvalues --  -11.22526 -11.22489 -11.22441  -6.81553  -3.92901
 Alpha  occ. eigenvalues --   -3.92012  -3.91996  -1.10986  -1.02428  -0.99557
 Alpha  occ. eigenvalues --   -0.91579  -0.83261  -0.80380  -0.75392  -0.68004
 Alpha  occ. eigenvalues --   -0.64678  -0.61258  -0.60579  -0.59598  -0.55908
 Alpha  occ. eigenvalues --   -0.53637  -0.52772  -0.51016  -0.48533  -0.48011
 Alpha  occ. eigenvalues --   -0.47285  -0.45631  -0.45114  -0.42987  -0.41647
 Alpha  occ. eigenvalues --   -0.31183
 Alpha virt. eigenvalues --    0.03377   0.04071   0.04189   0.04354   0.05515
 Alpha virt. eigenvalues --    0.06033   0.06162   0.06560   0.06650   0.08023
 Alpha virt. eigenvalues --    0.08437   0.08562   0.08993   0.09141   0.09704

  Beta  occ. eigenvalues --  -69.05642 -11.23820 -11.22627 -11.22584 -11.22573
  Beta  occ. eigenvalues --  -11.22524 -11.22488 -11.22388  -6.80718  -3.91626
  Beta  occ. eigenvalues --   -3.91613  -3.90748  -1.10956  -1.02325  -0.99530
  Beta  occ. eigenvalues --   -0.91238  -0.83212  -0.80190  -0.75370  -0.64780
  Beta  occ. eigenvalues --   -0.64293  -0.60963  -0.60475  -0.59185  -0.55534
  Beta  occ. eigenvalues --   -0.53469  -0.52717  -0.50757  -0.48516  -0.47824
  Beta  occ. eigenvalues --   -0.46570  -0.45465  -0.44904  -0.42916  -0.41008
  Beta virt. eigenvalues --    0.03253   0.03850   0.04114   0.04329   0.05041
  Beta virt. eigenvalues --    0.05620   0.06071   0.06443   0.06658   0.07220
  Beta virt. eigenvalues --    0.08152   0.08619   0.08806   0.09091   0.09639

 Mulliken charges and spin densities:
               1          2
     1  C    0.532799   0.007313
     2  C    0.332412  -0.000790
     3  C    0.261763  -0.001252
     4  C    0.325539  -0.004663
     5  C    0.378733   0.001878
     6  C    0.434442   0.002823
     7  C   -0.802264  -0.016929
     8  Si   0.023403   1.015716
     9  H   -0.071670  -0.000924
    10  H   -0.172582   0.000470
    11  H   -0.091766  -0.000031
    12  H   -0.104376  -0.000148
    13  H   -0.124270   0.000231
    14  H   -0.097607   0.000061
    15  H   -0.085607  -0.000768
    16  H   -0.099380  -0.000642
    17  H   -0.174907   0.000844
    18  H   -0.104830  -0.000407
    19  H   -0.111447  -0.001271
    20  H   -0.101808   0.001483
    21  H   -0.246494  -0.006624
    22  H    0.041181   0.011241
    23  H    0.058734  -0.007611
 Sum of Mulliken charges =  -0.00000   1.00000

 Dipole moment (field-independent basis, Debye):
    X=              0.9721    Y=              0.3709    Z=             -0.2203  Tot=              1.0635
                          Isotropic Fermi Contact Couplings
        Atom                 a.u.       MegaHertz       Gauss      10(-4) cm-1
     1  C(13)              0.00079       0.88829       0.31696       0.29630
     2  C(13)             -0.00016      -0.17748      -0.06333      -0.05920
     3  C(13)              0.00045       0.50858       0.18147       0.16964
     4  C(13)             -0.00032      -0.36125      -0.12890      -0.12050
     5  C(13)              0.00292       3.28651       1.17271       1.09626
     6  C(13)              0.00620       6.97026       2.48716       2.32503
     7  C(13)             -0.00164      -1.83860      -0.65606      -0.61329
     8  Si(29)             0.51466    -457.38938    -163.20791    -152.56868

 Normal termination of Gaussian 16 at Wed Apr  9 00:01:34 2025.
