 Gaussian 16, Revision C.01,

 ----------------------------------------------------------------------
 #t hf aug-cc-pvdz symm=none int=(grid=ultrafine) guess=(read,tcheck) s
 table=(opt,rrhf)
 ----------------------------------------------------------------------
 -----
 title
 -----
 Symbolic Z-matrix:
 Charge =  0 Multiplicity = 1

 SCF Done:  E(RHF) =  -569.135705945     A.U. after   14 cycles
 Normal termination of Gaussian 16 at Tue Apr  8 23:33:05 2025.
 Gaussian 16:  ES64L-G16RevC.01  3-Jul-2019

 ----------------------------------------------------------------------
 #t hf aug-cc-pvdz iop(5/13=1,5/36=2,99/5=2) pseudo=read geom=check gue
 ss=(read,tcheck) scf=(maxcycle=1)
 ----------------------------------------------------------------------
 -----
 title
 -----
 Structure from the checkpoint file:  "BDE49_nonexpt_1469_mol1.chk"
 Charge =  0 Multiplicity = 1

                         Standard orientation:
 ---------------------------------------------------------------------
 Center     Atomic      Atomic             Coordinates (Angstroms)
 Number     Number       Type             X           Y           Z
 ---------------------------------------------------------------------
      1          6           0        0.010521    0.319642    0.019047
      2         15           0        1.774306   -0.294777   -0.121880
      3          8           0       -0.856265   -0.712832    0.016688
      4          8           0       -0.308775    1.478513    0.007356
      5          6           0       -2.255911   -0.353984   -0.008326
      6          1           0       -2.480533    0.236287   -0.897520
      7          1           0       -2.515698    0.222038    0.880592
      8          1           0       -2.794280   -1.298328   -0.025462
      9          1           0        1.670529   -1.324906    0.842457
     10          1           0        2.298045    0.667166    0.771460
 ---------------------------------------------------------------------

 SCF Done:  E(RHF) =  -569.231307487     A.U. after    2 cycles

 The electronic state is 1-A.
 Alpha  occ. eigenvalues --  -81.28002 -20.62756 -20.57342 -11.40375 -11.30519
 Alpha  occ. eigenvalues --   -7.78446  -4.92425  -4.92351  -4.92050  -1.42737
 Alpha  occ. eigenvalues --   -1.33611  -0.99349  -0.85743  -0.78323  -0.70106
 Alpha  occ. eigenvalues --   -0.69127  -0.67975  -0.58953  -0.56983  -0.54775
 Alpha  occ. eigenvalues --   -0.52728  -0.48996  -0.46034  -0.38187
 Alpha virt. eigenvalues --    0.03315   0.04541   0.05755   0.06148   0.07342
 Alpha virt. eigenvalues --    0.07449   0.09414   0.10278   0.11636   0.12842
 Alpha virt. eigenvalues --    0.13329   0.14757   0.15607   0.16373   0.17097

 Mulliken charges:
               1
     1  C    0.215770
     2  P    0.091621
     3  O   -0.528174
     4  O   -0.438274
     5  C    0.755857
     6  H   -0.067877
     7  H   -0.070647
     8  H   -0.232641
     9  H    0.143880
    10  H    0.130486
 Sum of Mulliken charges =   0.00000

 Dipole moment (field-independent basis, Debye):
    X=             -0.5120    Y=             -1.9173    Z=              0.5919  Tot=              2.0709

 Test job not archived.
 1\1\GINC-SE219\SP\RHF\Aug-CC-pVDZ\C2H5O2P1\OHZDE\08-Apr-2025\0\\#t hf
 aug-cc-pvdz iop(5/13=1,5/36=2,99/5=2) pseudo=read geom=check guess=(re
 ad,tcheck) scf=(maxcycle=1)\\title\\0,1\C,0,0.010521,0.319642,0.019047
 \P,0,1.774306,-0.294777,-0.12188\O,0,-0.856265,-0.712832,0.016688\O,0,
 -0.308775,1.478513,0.007356\C,0,-2.255911,-0.353984,-0.008326\H,0,-2.4
 80533,0.236287,-0.89752\H,0,-2.515698,0.222038,0.880592\H,0,-2.79428,-
 1.298327,-0.025462\H,0,1.670529,-1.324906,0.842457\H,0,2.298045,0.6671
 66,0.77146\\Version=ES64L-G16RevC.01\State=1-A\HF=-569.2313075\RMSD=7.

 Normal termination of Gaussian 16 at Tue Apr  8 23:33:09 2025.
