 Gaussian 16, Revision C.01,

 ----------------------------------------------------------------------
 #t hf aug-cc-pvdz symm=none int=(grid=ultrafine) guess=(read,tcheck) s
 table=(opt,rrhf)
 ----------------------------------------------------------------------
 -----
 title
 -----
 Symbolic Z-matrix:
 Charge =  0 Multiplicity = 1

 SCF Done:  E(RHF) =  -295.335670431     A.U. after   14 cycles
 Normal termination of Gaussian 16 at Wed Apr  9 00:26:54 2025.
 Gaussian 16:  ES64L-G16RevC.01  3-Jul-2019

 ----------------------------------------------------------------------
 #t hf aug-cc-pvdz iop(5/13=1,5/36=2,99/5=2) pseudo=read geom=check gue
 ss=(read,tcheck) scf=(maxcycle=1)
 ----------------------------------------------------------------------
 -----
 title
 -----
 Structure from the checkpoint file:  "BDE49_nonexpt_316_mol1.chk"
 Charge =  0 Multiplicity = 1

                         Standard orientation:
 ---------------------------------------------------------------------
 Center     Atomic      Atomic             Coordinates (Angstroms)
 Number     Number       Type             X           Y           Z
 ---------------------------------------------------------------------
      1          6           0        0.296288   -0.009756    0.229039
      2          5           0       -1.256776    0.008460   -0.095986
      3          6           0       -1.994611   -1.366592   -0.263147
      4          1           0       -1.444213   -2.099255   -0.862368
      5          1           0       -3.014252   -1.280555   -0.647655
      6          1           0       -2.064669   -1.803720    0.744227
      7          8           0        0.518851   -0.099763    1.431379
      8          6           0        1.420459    0.069810   -0.788682
      9          6           0       -2.011245    1.383633   -0.117803
     10          1           0       -2.008849    1.733775   -1.162670
     11          1           0       -1.528018    2.167028    0.471682
     12          1           0       -3.062681    1.307361    0.174575
     13          6           0        2.821108    0.006565   -0.182798
     14          1           0        1.274212    0.997067   -1.360528
     15          1           0        1.261990   -0.737582   -1.516966
     16          1           0        2.975374    0.821735    0.526602
     17          1           0        3.584839    0.075360   -0.960890
     18          1           0        2.967344   -0.927366    0.363238
 ---------------------------------------------------------------------

 SCF Done:  E(RHF) =  -295.429139082     A.U. after    2 cycles

 The electronic state is 1-A.
 Alpha  occ. eigenvalues --  -20.55684 -11.31209 -11.24783 -11.22697 -11.21409
 Alpha  occ. eigenvalues --  -11.21329  -7.61539  -1.33665  -1.04201  -0.97328
 Alpha  occ. eigenvalues --   -0.92897  -0.89263  -0.76594  -0.68441  -0.63005
 Alpha  occ. eigenvalues --   -0.62419  -0.59328  -0.56586  -0.56095  -0.54843
 Alpha  occ. eigenvalues --   -0.53993  -0.52925  -0.52098  -0.50599  -0.49194
 Alpha  occ. eigenvalues --   -0.46180  -0.39070
 Alpha virt. eigenvalues --    0.02762   0.04173   0.04667   0.04772   0.05830
 Alpha virt. eigenvalues --    0.06267   0.06442   0.06938   0.08028   0.08708
 Alpha virt. eigenvalues --    0.08764   0.09629   0.10032   0.10344   0.11565

 Mulliken charges:
               1
     1  C    0.280751
     2  B    0.539611
     3  C    0.478168
     4  H   -0.250415
     5  H   -0.301319
     6  H   -0.077360
     7  O   -0.625826
     8  C   -0.217974
     9  C    0.537708
    10  H   -0.129263
    11  H   -0.281980
    12  H   -0.309756
    13  C    0.546027
    14  H   -0.015117
    15  H    0.000875
    16  H   -0.058413
    17  H   -0.056276
    18  H   -0.059439
 Sum of Mulliken charges =  -0.00000

 Dipole moment (field-independent basis, Debye):
    X=             -0.7362    Y=              0.2359    Z=             -3.2469  Tot=              3.3376

 Test job not archived.
 1\1\GINC-SE404\SP\RHF\Aug-CC-pVDZ\C5H11B1O1\OHZDE\09-Apr-2025\0\\#t hf
  aug-cc-pvdz iop(5/13=1,5/36=2,99/5=2) pseudo=read geom=check guess=(r
 ead,tcheck) scf=(maxcycle=1)\\title\\0,1\C,0,0.296288,-0.009756,0.2290
 39\B,0,-1.256776,0.00846,-0.095986\C,0,-1.994611,-1.366592,-0.263147\H
 ,0,-1.444213,-2.099255,-0.862368\H,0,-3.014252,-1.280555,-0.647655\H,0
 ,-2.064669,-1.80372,0.744227\O,0,0.518851,-0.099763,1.431379\C,0,1.420
 459,0.06981,-0.788682\C,0,-2.011245,1.383633,-0.117803\H,0,-2.008849,1
 .733775,-1.16267\H,0,-1.528018,2.167028,0.471682\H,0,-3.062681,1.30736

 Normal termination of Gaussian 16 at Wed Apr  9 00:27:01 2025.
