 Gaussian 16, Revision C.01,

 ----------------------------------------------------------------------
 #t hf aug-cc-pvdz symm=none int=(grid=ultrafine) guess=(read,tcheck) s
 table=opt
 ----------------------------------------------------------------------
 -----
 title
 -----
 Symbolic Z-matrix:
 Charge =  0 Multiplicity = 2

 SCF Done:  E(UHF) =  -764.212203089     A.U. after   19 cycles
 Normal termination of Gaussian 16 at Tue Apr  8 22:49:12 2025.
 Gaussian 16:  ES64L-G16RevC.01  3-Jul-2019

 ----------------------------------------------------------------------
 #t hf aug-cc-pvdz iop(5/13=1,5/36=2,99/5=2) pseudo=read geom=check gue
 ss=(read,tcheck) scf=(maxcycle=1)
 ----------------------------------------------------------------------
 -----
 title
 -----
 Structure from the checkpoint file:  "BDE49_expt_1718_mol2.chk"
 Charge =  0 Multiplicity = 2

                         Standard orientation:
 ---------------------------------------------------------------------
 Center     Atomic      Atomic             Coordinates (Angstroms)
 Number     Number       Type             X           Y           Z
 ---------------------------------------------------------------------
      1          6           0       -0.144027    0.931850   -0.000117
      2          8           0        0.251035    2.082504    0.000044
      3          6           0       -1.563312    0.625930    0.000015
      4          8           0        0.651991   -0.152049   -0.000075
      5         17           0       -2.200484   -0.954526    0.000028
      6          1           0       -2.275416    1.436938    0.000144
      7          6           0        2.076785    0.110048   -0.000010
      8          6           0        2.783128   -1.229451    0.000031
      9          1           0        2.322407    0.706113    0.882193
     10          1           0        2.322485    0.706101   -0.882200
     11          1           0        2.516809   -1.809833    0.885813
     12          1           0        3.865410   -1.076425    0.000078
     13          1           0        2.516888   -1.809845   -0.885768
 ---------------------------------------------------------------------

 SCF Done:  E(UHF) =  -764.329529839     A.U. after    2 cycles

 The electronic state is 2-A.
 Alpha  occ. eigenvalues -- -103.69081 -20.62180 -20.58593 -11.40437 -11.33996
 Alpha  occ. eigenvalues --  -11.30730 -11.24036 -10.72351  -8.37986  -8.37942
 Alpha  occ. eigenvalues --   -8.37748  -1.43154  -1.34451  -1.21778  -1.05325
 Alpha  occ. eigenvalues --   -0.99093  -0.87347  -0.79927  -0.72279  -0.71131
 Alpha  occ. eigenvalues --   -0.70505  -0.62679  -0.62648  -0.59565  -0.56022
 Alpha  occ. eigenvalues --   -0.55880  -0.54510  -0.52684  -0.51263  -0.48937
 Alpha  occ. eigenvalues --   -0.47391  -0.39557
 Alpha virt. eigenvalues --    0.03496   0.04330   0.05168   0.05192   0.06422
 Alpha virt. eigenvalues --    0.07873   0.08188   0.11172   0.11382   0.11519
 Alpha virt. eigenvalues --    0.12909   0.13919   0.14421   0.15775   0.16303

  Beta  occ. eigenvalues -- -103.69024 -20.62233 -20.57296 -11.41095 -11.31549
  Beta  occ. eigenvalues --  -11.30735 -11.24035 -10.72291  -8.38185  -8.37712
  Beta  occ. eigenvalues --   -8.37492  -1.42535  -1.32518  -1.19887  -1.04901
  Beta  occ. eigenvalues --   -0.95016  -0.86077  -0.79395  -0.71082  -0.69978
  Beta  occ. eigenvalues --   -0.69890  -0.61591  -0.59694  -0.59126  -0.55807
  Beta  occ. eigenvalues --   -0.52657  -0.51894  -0.50232  -0.49814  -0.46778
  Beta  occ. eigenvalues --   -0.46307
  Beta virt. eigenvalues --    0.03501   0.03629   0.04369   0.05177   0.05230
  Beta virt. eigenvalues --    0.06434   0.07886   0.08366   0.11212   0.11471
  Beta virt. eigenvalues --    0.12158   0.12930   0.14010   0.14843   0.15843

 Mulliken charges and spin densities:
               1          2
     1  C    0.196729  -0.359133
     2  O   -0.402294   0.293357
     3  C    0.676655   1.146254
     4  O   -0.456942   0.000234
     5  Cl  -0.228586   0.012760
     6  H   -0.297392  -0.086843
     7  C    0.640861  -0.005950
     8  C    0.261656  -0.000657
     9  H   -0.152851  -0.000044
    10  H   -0.152859  -0.000042
    11  H   -0.036503   0.000043
    12  H   -0.011975  -0.000023
    13  H   -0.036500   0.000043
 Sum of Mulliken charges =  -0.00000   1.00000

 Dipole moment (field-independent basis, Debye):
    X=              0.7110    Y=             -1.0904    Z=             -0.0001  Tot=              1.3018
                          Isotropic Fermi Contact Couplings
        Atom                 a.u.       MegaHertz       Gauss      10(-4) cm-1
     1  C(13)             -0.09393    -105.59467     -37.67880     -35.22259
     2  O(17)              0.10986     -66.59815     -23.76388     -22.21475
     3  C(13)              0.22254     250.17534      89.26878      83.44951
     4  O(17)             -0.01465       8.88078       3.16888       2.96231
     5  Cl(35)             0.03503      15.36014       5.48088       5.12359
     6  H(1)              -0.02425    -108.40615     -38.68201     -36.16040
     7  C(13)             -0.00120      -1.34460      -0.47979      -0.44851
     8  C(13)              0.00027       0.29911       0.10673       0.09977

 Normal termination of Gaussian 16 at Tue Apr  8 22:49:18 2025.
