 Gaussian 16, Revision C.01,

 ----------------------------------------------------------------------
 #t hf aug-cc-pvdz symm=none int=(grid=ultrafine) guess=(read,tcheck) s
 table=(opt,rrhf)
 ----------------------------------------------------------------------
 -----
 title
 -----
 Symbolic Z-matrix:
 Charge =  0 Multiplicity = 1

 SCF Done:  E(RHF) =  -737.506233407     A.U. after   11 cycles
 Normal termination of Gaussian 16 at Wed Apr  9 00:08:15 2025.
 Gaussian 16:  ES64L-G16RevC.01  3-Jul-2019

 ----------------------------------------------------------------------
 #t hf aug-cc-pvdz iop(5/13=1,5/36=2,99/5=2) pseudo=read geom=check gue
 ss=(read,tcheck) scf=(maxcycle=1)
 ----------------------------------------------------------------------
 -----
 title
 -----
 Structure from the checkpoint file:  "BDE49_nonexpt_2302_mol1.chk"
 Charge =  0 Multiplicity = 1

                         Standard orientation:
 ---------------------------------------------------------------------
 Center     Atomic      Atomic             Coordinates (Angstroms)
 Number     Number       Type             X           Y           Z
 ---------------------------------------------------------------------
      1         14           0       -1.014743   -1.006244   -0.521684
      2         14           0        1.054298   -0.899652    0.622947
      3          6           0        2.374536    0.159544   -0.234761
      4          1           0        1.563869   -2.291733    0.748764
      5          1           0        0.839840   -0.386255    2.003734
      6          6           0       -2.014168    0.606531   -0.553955
      7          1           0       -1.835058   -2.067969    0.122591
      8          1           0       -0.754323   -1.441712   -1.921293
      9          6           0       -2.444236    1.130774    0.826628
     10          1           0       -1.430750    1.368821   -1.082278
     11          1           0       -2.898638    0.424578   -1.175652
     12          1           0       -1.581801    1.363321    1.457486
     13          1           0       -3.050545    0.394356    1.361907
     14          1           0       -3.040522    2.043609    0.737248
     15          6           0        2.058230    1.662066   -0.322360
     16          1           0        2.542564   -0.249669   -1.237442
     17          1           0        3.313455    0.008872    0.310605
     18          1           0        1.154886    1.852154   -0.909176
     19          1           0        2.875171    2.213860   -0.796622
     20          1           0        1.901917    2.096832    0.669143
 ---------------------------------------------------------------------

 SCF Done:  E(RHF) =  -737.601006158     A.U. after    2 cycles

 The electronic state is 1-A.
 Alpha  occ. eigenvalues --  -69.04895 -69.04886 -11.23399 -11.23184 -11.22480
 Alpha  occ. eigenvalues --  -11.22469  -6.80263  -6.80251  -3.91026  -3.91020
 Alpha  occ. eigenvalues --   -3.91018  -3.91002  -3.90998  -3.90928  -1.01571
 Alpha  occ. eigenvalues --   -1.01242  -0.84699  -0.84433  -0.70297  -0.64049
 Alpha  occ. eigenvalues --   -0.61324  -0.60393  -0.57784  -0.57248  -0.52316
 Alpha  occ. eigenvalues --   -0.51905  -0.50127  -0.49924  -0.46690  -0.46218
 Alpha  occ. eigenvalues --   -0.43189  -0.42270  -0.37321
 Alpha virt. eigenvalues --    0.03247   0.04105   0.04662   0.04798   0.05988
 Alpha virt. eigenvalues --    0.06147   0.06265   0.06608   0.07138   0.08230
 Alpha virt. eigenvalues --    0.08360   0.09088   0.09341   0.09678   0.09997

 Mulliken charges:
               1
     1  Si   0.044979
     2  Si   0.064140
     3  C    0.169656
     4  H    0.044622
     5  H    0.167266
     6  C    0.322059
     7  H    0.150492
     8  H    0.065190
     9  C    0.216069
    10  H   -0.186286
    11  H   -0.232314
    12  H   -0.149520
    13  H   -0.103291
    14  H   -0.098666
    15  C    0.309372
    16  H   -0.170856
    17  H   -0.214337
    18  H   -0.208405
    19  H   -0.083429
    20  H   -0.106741
 Sum of Mulliken charges =  -0.00000

 Dipole moment (field-independent basis, Debye):
    X=              0.1514    Y=              1.1491    Z=             -0.3641  Tot=              1.2148

 Test job not archived.
 1\1\GINC-SE179\SP\RHF\Aug-CC-pVDZ\C4H14Si2\OHZDE\09-Apr-2025\0\\#t hf
 aug-cc-pvdz iop(5/13=1,5/36=2,99/5=2) pseudo=read geom=check guess=(re
 ad,tcheck) scf=(maxcycle=1)\\title\\0,1\Si,0,-1.014743,-1.006244,-0.52
 1684\Si,0,1.054298,-0.899652,0.622947\C,0,2.374536,0.159544,-0.234761\
 H,0,1.563869,-2.291733,0.748764\H,0,0.83984,-0.386255,2.003734\C,0,-2.
 014168,0.606531,-0.553955\H,0,-1.835058,-2.067969,0.122591\H,0,-0.7543
 23,-1.441712,-1.921293\C,0,-2.444236,1.130774,0.826628\H,0,-1.43075,1.
 368821,-1.082278\H,0,-2.898638,0.424579,-1.175652\H,0,-1.581801,1.3633

 Normal termination of Gaussian 16 at Wed Apr  9 00:08:24 2025.
