 Gaussian 16, Revision C.01,

 ----------------------------------------------------------------------
 #t hf aug-cc-pvdz symm=none int=(grid=ultrafine) guess=(read,tcheck) s
 table=opt
 ----------------------------------------------------------------------
 -----
 title
 -----
 Symbolic Z-matrix:
 Charge =  0 Multiplicity = 2

 SCF Done:  E(UHF) =  -428.525053469     A.U. after   14 cycles
 Normal termination of Gaussian 16 at Tue Apr  8 23:55:18 2025.
 Gaussian 16:  ES64L-G16RevC.01  3-Jul-2019

 ----------------------------------------------------------------------
 #t hf aug-cc-pvdz iop(5/13=1,5/36=2,99/5=2) pseudo=read geom=check gue
 ss=(read,tcheck) scf=(maxcycle=1)
 ----------------------------------------------------------------------
 -----
 title
 -----
 Structure from the checkpoint file:  "BDE49_nonexpt_2016_mol2.chk"
 Charge =  0 Multiplicity = 2

                         Standard orientation:
 ---------------------------------------------------------------------
 Center     Atomic      Atomic             Coordinates (Angstroms)
 Number     Number       Type             X           Y           Z
 ---------------------------------------------------------------------
      1         14           0       -1.133423   -0.139679   -0.100838
      2          6           0        0.612578    0.594527    0.099901
      3          9           0        1.571992   -0.417373   -0.066912
      4          1           0        0.743607    1.020778    1.101780
      5          1           0        0.809604    1.382156   -0.633604
      6          1           0       -1.369553   -1.204629    0.906299
      7          1           0       -2.139130    0.946402    0.040066
 ---------------------------------------------------------------------

 SCF Done:  E(UHF) =  -428.594186238     A.U. after    2 cycles

 The electronic state is 2-A.
 Alpha  occ. eigenvalues --  -69.08253 -26.10696 -11.31849  -6.83669  -3.95001
 Alpha  occ. eigenvalues --   -3.94118  -3.94098  -1.63404  -0.96568  -0.75069
 Alpha  occ. eigenvalues --   -0.74187  -0.72456  -0.66277  -0.56316  -0.49567
 Alpha  occ. eigenvalues --   -0.47243  -0.33677
 Alpha virt. eigenvalues --    0.03399   0.04688   0.05084   0.06540   0.07610
 Alpha virt. eigenvalues --    0.08550   0.08966   0.10745   0.14067   0.15372
 Alpha virt. eigenvalues --    0.15789   0.16581   0.18080   0.19117   0.21587

  Beta  occ. eigenvalues --  -69.07674 -26.10720 -11.31824  -6.82795  -3.93710
  Beta  occ. eigenvalues --   -3.93699  -3.92809  -1.63459  -0.96162  -0.74315
  Beta  occ. eigenvalues --   -0.74045  -0.71707  -0.63520  -0.55760  -0.48653
  Beta  occ. eigenvalues --   -0.46493
  Beta virt. eigenvalues --    0.02592   0.03664   0.04890   0.05670   0.07114
  Beta virt. eigenvalues --    0.07788   0.09244   0.10005   0.11138   0.14981
  Beta virt. eigenvalues --    0.16208   0.16640   0.17019   0.20271   0.20966

 Mulliken charges and spin densities:
               1          2
     1  Si   0.548934   0.973025
     2  C    0.371813   0.003153
     3  F   -0.435047  -0.007727
     4  H   -0.179549   0.006221
     5  H   -0.169469   0.003184
     6  H   -0.070390   0.016216
     7  H   -0.066293   0.005928
 Sum of Mulliken charges =  -0.00000   1.00000

 Dipole moment (field-independent basis, Debye):
    X=             -1.2924    Y=              1.6487    Z=              0.2503  Tot=              2.1098
                          Isotropic Fermi Contact Couplings
        Atom                 a.u.       MegaHertz       Gauss      10(-4) cm-1
     1  Si(29)             0.56392    -501.17212    -178.83068    -167.17303
     2  C(13)             -0.00119      -1.33244      -0.47545      -0.44445
     3  F(19)             -0.00136      -5.73207      -2.04535      -1.91201
     4  H(1)               0.00799      35.73411      12.75082      11.91962
     5  H(1)               0.00039       1.75399       0.62587       0.58507
     6  H(1)               0.00462      20.66993       7.37554       6.89475
     7  H(1)               0.00150       6.70566       2.39275       2.23677
 --------------------------------------------------------

 Normal termination of Gaussian 16 at Tue Apr  8 23:55:20 2025.
