 Gaussian 16, Revision C.01,

 ----------------------------------------------------------------------
 #t hf aug-cc-pvdz symm=none int=(grid=ultrafine) guess=(read,tcheck) s
 table=(opt,rrhf)
 ----------------------------------------------------------------------
 -----
 title
 -----
 Symbolic Z-matrix:
 Charge =  0 Multiplicity = 1

 SCF Done:  E(RHF) =  -1187.61205467     A.U. after   15 cycles

 1\1\GINC-SE339\Stability\RHF\Aug-CC-pVDZ\C7H6Cl2\OHZDE\08-Apr-2025\0\\
 #t hf aug-cc-pvdz symm=none int=(grid=ultrafine) guess=(read,tcheck) s
 table=(opt,rrhf)\\title\\0,1\C,0,1.210887,1.438013,0.\C,0,1.473715,0.0
 73766,0.\C,0,0.440118,-0.854762,0.\C,0,-0.870917,-0.390409,0.\C,0,-1.1
 89481,0.973418,0.\C,0,-0.112679,1.866233,0.\H,0,0.647056,-1.915605,0.\
 C,0,-2.611305,1.46708,0.\H,0,-3.155369,1.108812,0.878364\H,0,-3.155368
 ,1.108812,-0.878364\H,0,-2.639366,2.557521,0.000001\H,0,-0.32003,2.930
 634,0.\H,0,2.025216,2.150308,0.\Cl,0,-2.159579,-1.586386,0.\Cl,0,3.133

 Normal termination of Gaussian 16 at Tue Apr  8 23:13:43 2025.
 Gaussian 16:  ES64L-G16RevC.01  3-Jul-2019

 ----------------------------------------------------------------------
 #t hf aug-cc-pvdz iop(5/13=1,5/36=2,99/5=2) pseudo=read geom=check gue
 ss=(read,tcheck) scf=(maxcycle=1)
 ----------------------------------------------------------------------
 -----
 title
 -----
 Structure from the checkpoint file:  "BDE49_expt_91_mol1.chk"
 Charge =  0 Multiplicity = 1

                         Standard orientation:
 ---------------------------------------------------------------------
 Center     Atomic      Atomic             Coordinates (Angstroms)
 Number     Number       Type             X           Y           Z
 ---------------------------------------------------------------------
      1          6           0       -1.210887    1.438013    0.000000
      2          6           0       -1.473715    0.073766    0.000000
      3          6           0       -0.440118   -0.854762    0.000000
      4          6           0        0.870917   -0.390409    0.000000
      5          6           0        1.189481    0.973418    0.000000
      6          6           0        0.112679    1.866233    0.000000
      7          1           0       -0.647056   -1.915605    0.000000
      8          6           0        2.611305    1.467080    0.000000
      9          1           0        3.155369    1.108812   -0.878364
     10          1           0        3.155368    1.108812    0.878364
     11          1           0        2.639366    2.557521   -0.000001
     12          1           0        0.320030    2.930634    0.000000
     13          1           0       -2.025216    2.150308    0.000000
     14         17           0        2.159579   -1.586386    0.000000
     15         17           0       -3.133452   -0.494821    0.000000
 ---------------------------------------------------------------------

 SCF Done:  E(RHF) =  -1187.72801926     A.U. after    2 cycles

 The electronic state is 1-A.
 Alpha  occ. eigenvalues -- -103.67396-103.67306 -11.32434 -11.32334 -11.27894
 Alpha  occ. eigenvalues --  -11.27454 -11.26983 -11.26825 -11.24932 -10.70670
 Alpha  occ. eigenvalues --  -10.70571  -8.36403  -8.36308  -8.36106  -8.36085
 Alpha  occ. eigenvalues --   -8.36000  -8.35982  -1.21918  -1.18944  -1.13101
 Alpha  occ. eigenvalues --   -1.05059  -1.02185  -0.94005  -0.85662  -0.81427
 Alpha  occ. eigenvalues --   -0.70085  -0.69108  -0.65013  -0.61193  -0.60291
 Alpha  occ. eigenvalues --   -0.58957  -0.56842  -0.55561  -0.53321  -0.52343
 Alpha  occ. eigenvalues --   -0.51545  -0.47826  -0.47162  -0.46702  -0.36037
 Alpha  occ. eigenvalues --   -0.34297
 Alpha virt. eigenvalues --    0.03196   0.04105   0.04653   0.05797   0.05891
 Alpha virt. eigenvalues --    0.07186   0.08449   0.09116   0.09131   0.09653
 Alpha virt. eigenvalues --    0.10277   0.12132   0.12877   0.12969   0.13205

 Mulliken charges:
               1
     1  C    0.373678
     2  C   -0.420290
     3  C    1.132540
     4  C   -0.395592
     5  C   -0.015059
     6  C    0.963262
     7  H   -0.381458
     8  C    0.652289
     9  H    0.074675
    10  H    0.074674
    11  H   -0.185729
    12  H   -0.593123
    13  H   -0.445549
    14  Cl  -0.464363
    15  Cl  -0.369955
 Sum of Mulliken charges =  -0.00000

 Dipole moment (field-independent basis, Debye):
    X=              1.0032    Y=              2.1554    Z=             -0.0000  Tot=              2.3774

 Test job not archived.
 1\1\GINC-SE339\SP\RHF\Aug-CC-pVDZ\C7H6Cl2\OHZDE\08-Apr-2025\0\\#t hf a
 ug-cc-pvdz iop(5/13=1,5/36=2,99/5=2) pseudo=read geom=check guess=(rea
 d,tcheck) scf=(maxcycle=1)\\title\\0,1\C,0,1.210887,1.438013,0.\C,0,1.
 473715,0.073766,0.\C,0,0.440118,-0.854762,0.\C,0,-0.870917,-0.390409,0
 .\C,0,-1.189481,0.973418,0.\C,0,-0.112679,1.866233,0.\H,0,0.647056,-1.
 915605,0.\C,0,-2.611305,1.46708,0.\H,0,-3.155369,1.108812,0.878364\H,0
 ,-3.155368,1.108812,-0.878364\H,0,-2.639366,2.557521,0.000001\H,0,-0.3
 2003,2.930634,0.\H,0,2.025216,2.150308,0.\Cl,0,-2.159579,-1.586386,0.\

 Normal termination of Gaussian 16 at Tue Apr  8 23:13:50 2025.
