 Gaussian 16, Revision C.01,

 ----------------------------------------------------------------------
 #t hf aug-cc-pvdz symm=none int=(grid=ultrafine) guess=(read,tcheck) s
 table=(opt,rrhf)
 ----------------------------------------------------------------------
 -----
 title
 -----
 Symbolic Z-matrix:
 Charge =  0 Multiplicity = 1

 SCF Done:  E(RHF) =  -803.546067176     A.U. after   15 cycles
 Normal termination of Gaussian 16 at Tue Apr  8 22:41:19 2025.
 Gaussian 16:  ES64L-G16RevC.01  3-Jul-2019

 ----------------------------------------------------------------------
 #t hf aug-cc-pvdz iop(5/13=1,5/36=2,99/5=2) pseudo=read geom=check gue
 ss=(read,tcheck) scf=(maxcycle=1)
 ----------------------------------------------------------------------
 -----
 title
 -----
 Structure from the checkpoint file:  "BDE49_expt_1401_mol1.chk"
 Charge =  0 Multiplicity = 1

                         Standard orientation:
 ---------------------------------------------------------------------
 Center     Atomic      Atomic             Coordinates (Angstroms)
 Number     Number       Type             X           Y           Z
 ---------------------------------------------------------------------
      1          6           0        1.361789    1.344779   -0.000001
      2          6           0        1.146528   -0.024893   -0.000001
      3          6           0       -0.132703   -0.578530    0.000000
      4          6           0        0.245686    2.184911    0.000000
      5          6           0       -1.040379    1.668573    0.000000
      6          6           0       -1.234871    0.280754    0.000000
      7          1           0        2.367240    1.742850   -0.000001
      8         17           0        2.527954   -1.113900   -0.000001
      9          1           0       -0.245836   -1.652392    0.000000
     10          1           0        0.390134    3.259152   -0.000001
     11          1           0       -1.911347    2.311596    0.000000
     12          8           0       -2.528859   -0.137778    0.000001
     13          6           0       -2.794256   -1.534510    0.000002
     14          1           0       -3.878635   -1.629598    0.000003
     15          1           0       -2.388328   -2.019787    0.894449
     16          1           0       -2.388330   -2.019788   -0.894444
 ---------------------------------------------------------------------

 SCF Done:  E(RHF) =  -803.670033237     A.U. after    2 cycles

 The electronic state is 1-A.
 Alpha  occ. eigenvalues -- -103.66674 -20.61020 -11.32717 -11.31925 -11.30514
 Alpha  occ. eigenvalues --  -11.26308 -11.25612 -11.25117 -11.24750 -10.69941
 Alpha  occ. eigenvalues --   -8.35677  -8.35374  -8.35356  -1.38067  -1.19751
 Alpha  occ. eigenvalues --   -1.13116  -1.02883  -1.01432  -0.95158  -0.84022
 Alpha  occ. eigenvalues --   -0.82530  -0.73183  -0.69143  -0.68521  -0.67540
 Alpha  occ. eigenvalues --   -0.63240  -0.60456  -0.59648  -0.55544  -0.54534
 Alpha  occ. eigenvalues --   -0.54045  -0.51933  -0.50451  -0.46892  -0.46334
 Alpha  occ. eigenvalues --   -0.35245  -0.32843
 Alpha virt. eigenvalues --    0.03274   0.03833   0.04662   0.05591   0.05739
 Alpha virt. eigenvalues --    0.06160   0.08310   0.09349   0.09418   0.10524
 Alpha virt. eigenvalues --    0.10944   0.12433   0.12442   0.13390   0.13684

 Mulliken charges:
               1
     1  C    0.457106
     2  C   -0.198919
     3  C    0.617662
     4  C    0.829569
     5  C    0.362518
     6  C    0.728352
     7  H   -0.427483
     8  Cl  -0.395178
     9  H   -0.642705
    10  H   -0.421403
    11  H   -0.539452
    12  O   -0.700502
    13  C    0.782968
    14  H   -0.309919
    15  H   -0.071306
    16  H   -0.071310
 Sum of Mulliken charges =  -0.00000

 Dipole moment (field-independent basis, Debye):
    X=             -1.5513    Y=             -0.1602    Z=              0.0000  Tot=              1.5595

 Test job not archived.
 1\1\GINC-SE453\SP\RHF\Aug-CC-pVDZ\C7H7Cl1O1\OHZDE\08-Apr-2025\0\\#t hf
  aug-cc-pvdz iop(5/13=1,5/36=2,99/5=2) pseudo=read geom=check guess=(r
 ead,tcheck) scf=(maxcycle=1)\\title\\0,1\C,0,1.361789,1.344779,-0.0000
 01\C,0,1.146528,-0.024893,-0.000001\C,0,-0.132703,-0.57853,0.\C,0,0.24
 5686,2.184911,0.\C,0,-1.040379,1.668573,0.\C,0,-1.234871,0.280754,0.\H
 ,0,2.36724,1.74285,-0.000001\Cl,0,2.527954,-1.1139,-0.000001\H,0,-0.24
 5836,-1.652392,0.\H,0,0.390134,3.259152,-0.000001\H,0,-1.911347,2.3115
 96,0.\O,0,-2.528859,-0.137778,0.000001\C,0,-2.794256,-1.53451,0.000002

 Normal termination of Gaussian 16 at Tue Apr  8 22:41:26 2025.
