 Gaussian 16, Revision C.01,

 ----------------------------------------------------------------------
 #t hf aug-cc-pvdz symm=none int=(grid=ultrafine) guess=(read,tcheck) s
 table=(opt,rrhf)
 ----------------------------------------------------------------------
 -----
 title
 -----
 Symbolic Z-matrix:
 Charge =  0 Multiplicity = 1

 SCF Done:  E(RHF) =  -106.743032251     A.U. after   12 cycles
 Normal termination of Gaussian 16 at Wed Apr  9 00:37:19 2025.
 Gaussian 16:  ES64L-G16RevC.01  3-Jul-2019

 ----------------------------------------------------------------------
 #t hf aug-cc-pvdz iop(5/13=1,5/36=2,99/5=2) pseudo=read geom=check gue
 ss=(read,tcheck) scf=(maxcycle=1)
 ----------------------------------------------------------------------
 -----
 title
 -----
 Structure from the checkpoint file:  "BDE49_nonexpt_60_mol1.chk"
 Charge =  0 Multiplicity = 1

                         Standard orientation:
 ---------------------------------------------------------------------
 Center     Atomic      Atomic             Coordinates (Angstroms)
 Number     Number       Type             X           Y           Z
 ---------------------------------------------------------------------
      1          5           0        1.543862   -0.161885    0.000001
      2          5           0       -0.000697    0.460011   -0.000004
      3          7           0       -1.221039   -0.214007   -0.000003
      4          1           0       -1.311460   -1.218203   -0.000010
      5          1           0       -2.109097    0.263541    0.000008
      6          1           0       -0.061767    1.665349    0.000030
      7          1           0        2.156873   -0.351668   -1.011236
      8          1           0        2.156900   -0.351596    1.011237
 ---------------------------------------------------------------------

 SCF Done:  E(RHF) =  -106.779757665     A.U. after    2 cycles

 The electronic state is 1-A.
 Alpha  occ. eigenvalues --  -15.62068  -7.59428  -7.58517  -1.12219  -0.72784
 Alpha  occ. eigenvalues --   -0.68335  -0.64857  -0.52832  -0.48441  -0.42725
 Alpha  occ. eigenvalues --   -0.41161
 Alpha virt. eigenvalues --    0.03149   0.04098   0.04782   0.05596   0.06284
 Alpha virt. eigenvalues --    0.06955   0.07221   0.08273   0.10344   0.11556
 Alpha virt. eigenvalues --    0.12367   0.13968   0.14298   0.15255   0.16022

 Mulliken charges:
               1
     1  B   -0.412729
     2  B    0.089182
     3  N   -0.154379
     4  H    0.019233
     5  H   -0.045872
     6  H    0.119445
     7  H    0.192559
     8  H    0.192562
 Sum of Mulliken charges =   0.00000

 Dipole moment (field-independent basis, Debye):
    X=             -1.5661    Y=             -0.8476    Z=             -0.0000  Tot=              1.7807

 Test job not archived.
 1\1\GINC-SE184\SP\RHF\Aug-CC-pVDZ\B2H5N1\OHZDE\09-Apr-2025\0\\#t hf au
 g-cc-pvdz iop(5/13=1,5/36=2,99/5=2) pseudo=read geom=check guess=(read
 ,tcheck) scf=(maxcycle=1)\\title\\0,1\B,0,-1.543862,-0.161885,-0.00000
 1\B,0,0.000697,0.460011,0.000004\N,0,1.221039,-0.214007,0.000003\H,0,1
 .31146,-1.218203,0.00001\H,0,2.109097,0.263541,-0.000008\H,0,0.061767,
 1.665349,-0.00003\H,0,-2.156873,-0.351668,1.011236\H,0,-2.1569,-0.3515
 96,-1.011237\\Version=ES64L-G16RevC.01\State=1-A\HF=-106.7797577\RMSD=
 3.744e-03\Dipole=0.6161329,-0.3334585,0.0000054\Quadrupole=0.6622449,0

 Normal termination of Gaussian 16 at Wed Apr  9 00:37:21 2025.
