 Gaussian 16, Revision C.01,

 ----------------------------------------------------------------------
 #t hf aug-cc-pvdz symm=none int=(grid=ultrafine) guess=(read,tcheck) s
 table=(opt,rrhf)
 ----------------------------------------------------------------------
 -----
 title
 -----
 Symbolic Z-matrix:
 Charge =  0 Multiplicity = 1

 SCF Done:  E(RHF) =  -1467.50845642     A.U. after   12 cycles
 Normal termination of Gaussian 16 at Wed Apr  9 00:24:00 2025.
 Gaussian 16:  ES64L-G16RevC.01  3-Jul-2019

 ----------------------------------------------------------------------
 #t hf aug-cc-pvdz iop(5/13=1,5/36=2,99/5=2) pseudo=read geom=check gue
 ss=(read,tcheck) scf=(maxcycle=1)
 ----------------------------------------------------------------------
 -----
 title
 -----
 Structure from the checkpoint file:  "BDE49_nonexpt_2738_mol1.chk"
 Charge =  0 Multiplicity = 1

                         Standard orientation:
 ---------------------------------------------------------------------
 Center     Atomic      Atomic             Coordinates (Angstroms)
 Number     Number       Type             X           Y           Z
 ---------------------------------------------------------------------
      1          6           0        0.990654    1.663139    0.234709
      2         16           0        0.990654    0.289161   -0.992260
      3          9           0        2.234355    2.169304    0.208321
      4          9           0        0.720920    1.259575    1.477889
      5          9           0        0.127143    2.633430   -0.078665
      6         16           0       -0.990654   -0.289161   -0.992260
      7          6           0       -0.990654   -1.663139    0.234709
      8          9           0       -2.234355   -2.169304    0.208321
      9          9           0       -0.720920   -1.259575    1.477889
     10          9           0       -0.127143   -2.633430   -0.078665
 ---------------------------------------------------------------------

 SCF Done:  E(RHF) =  -1467.79653441     A.U. after    2 cycles

 The electronic state is 1-A.
 Alpha  occ. eigenvalues --  -93.62498 -93.62495 -26.19628 -26.19628 -26.19330
 Alpha  occ. eigenvalues --  -26.19330 -26.19200 -26.19200 -11.57541 -11.57540
 Alpha  occ. eigenvalues --   -8.92136  -8.92119  -6.26279  -6.26169  -6.25979
 Alpha  occ. eigenvalues --   -6.25942  -6.25596  -6.25591  -1.79196  -1.79136
 Alpha  occ. eigenvalues --   -1.72192  -1.72165  -1.71975  -1.71912  -1.13497
 Alpha  occ. eigenvalues --   -1.07874  -1.02352  -0.95466  -0.91169  -0.90951
 Alpha  occ. eigenvalues --   -0.90937  -0.90782  -0.86785  -0.80537  -0.80040
 Alpha  occ. eigenvalues --   -0.79889  -0.79664  -0.79359  -0.76105  -0.75703
 Alpha  occ. eigenvalues --   -0.75645  -0.75149  -0.74378  -0.74326  -0.60899
 Alpha  occ. eigenvalues --   -0.57310  -0.52001  -0.43571  -0.43261
 Alpha virt. eigenvalues --    0.04752   0.06231   0.07719   0.08186   0.08594
 Alpha virt. eigenvalues --    0.10117   0.10512   0.10757   0.11205   0.12596
 Alpha virt. eigenvalues --    0.12988   0.13586   0.14928   0.15473   0.18336

 Mulliken charges:
               1
     1  C    0.679725
     2  S    0.154885
     3  F   -0.273792
     4  F   -0.285133
     5  F   -0.275685
     6  S    0.154885
     7  C    0.679725
     8  F   -0.273792
     9  F   -0.285133
    10  F   -0.275685
 Sum of Mulliken charges =  -0.00000

 Dipole moment (field-independent basis, Debye):
    X=              0.0000    Y=             -0.0000    Z=             -1.5936  Tot=              1.5936

 Test job not archived.
 1\1\GINC-SE177\SP\RHF\Aug-CC-pVDZ\C2F6S2\OHZDE\09-Apr-2025\0\\#t hf au
 g-cc-pvdz iop(5/13=1,5/36=2,99/5=2) pseudo=read geom=check guess=(read
 ,tcheck) scf=(maxcycle=1)\\title\\0,1\C,0,0.990654,1.663139,0.234709\S
 ,0,0.990654,0.289161,-0.99226\F,0,2.234355,2.169304,0.208321\F,0,0.720
 92,1.259575,1.477889\F,0,0.127143,2.63343,-0.078665\S,0,-0.990654,-0.2
 89161,-0.99226\C,0,-0.990654,-1.663139,0.234709\F,0,-2.234355,-2.16930
 4,0.208321\F,0,-0.72092,-1.259575,1.477889\F,0,-0.127143,-2.63343,-0.0
 78665\\Version=ES64L-G16RevC.01\State=1-A\HF=-1467.7965344\RMSD=5.189e

 Normal termination of Gaussian 16 at Wed Apr  9 00:24:06 2025.
