 Gaussian 16, Revision C.01,

 ----------------------------------------------------------------------
 #t hf aug-cc-pvdz symm=none int=(grid=ultrafine) guess=(read,tcheck) s
 table=(opt,rrhf)
 ----------------------------------------------------------------------
 -----
 title
 -----
 Symbolic Z-matrix:
 Charge =  0 Multiplicity = 1

 SCF Done:  E(RHF) =  -707.765238862     A.U. after   14 cycles
 Normal termination of Gaussian 16 at Tue Apr  8 23:22:19 2025.
 Gaussian 16:  ES64L-G16RevC.01  3-Jul-2019

 ----------------------------------------------------------------------
 #t hf aug-cc-pvdz iop(5/13=1,5/36=2,99/5=2) pseudo=read geom=check gue
 ss=(read,tcheck) scf=(maxcycle=1)
 ----------------------------------------------------------------------
 -----
 title
 -----
 Structure from the checkpoint file:  "BDE49_nonexpt_1213_mol1.chk"
 Charge =  0 Multiplicity = 1

                         Standard orientation:
 ---------------------------------------------------------------------
 Center     Atomic      Atomic             Coordinates (Angstroms)
 Number     Number       Type             X           Y           Z
 ---------------------------------------------------------------------
      1          6           0        1.803588    0.067022    0.378807
      2          8           0        0.775749    0.194828   -0.643238
      3         16           0       -0.546884   -0.846579   -0.508592
      4          6           0       -1.739299    0.217437    0.402882
      5          6           0        2.600178    1.362917    0.312057
      6          6           0       -2.983125   -0.643022    0.645989
      7          1           0        1.957769    2.223377    0.509086
      8          1           0        3.042039    1.483680   -0.680292
      9          1           0       -2.751464   -1.536613    1.230550
     10          1           0       -3.435133   -0.957640   -0.299385
     11          6           0        2.655850   -1.171132    0.129045
     12          1           0        2.041157   -2.073657    0.149876
     13          1           0        3.427489   -1.268568    0.898181
     14          1           0        3.143503   -1.103635   -0.847180
     15          6           0       -2.042224    1.502173   -0.364226
     16          1           0       -1.119931    2.028609   -0.614289
     17          1           0       -2.668322    2.168334    0.239418
     18          1           0       -2.570033    1.280153   -1.295573
     19          1           0       -1.278079    0.458594    1.365468
     20          1           0       -3.731059   -0.063943    1.194693
     21          1           0        1.310335   -0.017107    1.354709
     22          1           0        3.406081    1.352690    1.050788
 ---------------------------------------------------------------------

 SCF Done:  E(RHF) =  -707.888640680     A.U. after    2 cycles

 The electronic state is 1-A.
 Alpha  occ. eigenvalues --  -93.56561 -20.58798 -11.29548 -11.27339 -11.23862
 Alpha  occ. eigenvalues --  -11.22749 -11.22689 -11.22410  -8.85683  -6.19939
 Alpha  occ. eigenvalues --   -6.19564  -6.19235  -1.32097  -1.08253  -1.04041
 Alpha  occ. eigenvalues --   -0.93833  -0.93741  -0.90254  -0.80738  -0.76500
 Alpha  occ. eigenvalues --   -0.66816  -0.64094  -0.62895  -0.61981  -0.57642
 Alpha  occ. eigenvalues --   -0.57491  -0.55434  -0.54778  -0.54488  -0.52682
 Alpha  occ. eigenvalues --   -0.51986  -0.50021  -0.49484  -0.47793  -0.46740
 Alpha  occ. eigenvalues --   -0.40792  -0.34108
 Alpha virt. eigenvalues --    0.03394   0.04154   0.04611   0.04866   0.05831
 Alpha virt. eigenvalues --    0.06055   0.06119   0.07020   0.07287   0.08196
 Alpha virt. eigenvalues --    0.08405   0.08821   0.09392   0.10209   0.12083

 Mulliken charges:
               1
     1  C   -0.127034
     2  O   -0.919163
     3  S    0.679144
     4  C   -0.936762
     5  C    0.465284
     6  C    0.778951
     7  H   -0.093257
     8  H   -0.013816
     9  H   -0.094443
    10  H   -0.031595
    11  C    0.481167
    12  H   -0.083688
    13  H   -0.011091
    14  H    0.037942
    15  C    0.455588
    16  H   -0.119366
    17  H   -0.049121
    18  H   -0.026710
    19  H   -0.165763
    20  H   -0.029853
    21  H   -0.168118
    22  H   -0.028297
 Sum of Mulliken charges =  -0.00000

 Dipole moment (field-independent basis, Debye):
    X=             -0.2782    Y=              0.5079    Z=              2.0890  Tot=              2.1678

 Test job not archived.
 1\1\GINC-SE073\SP\RHF\Aug-CC-pVDZ\C6H14O1S1\OHZDE\08-Apr-2025\0\\#t hf
  aug-cc-pvdz iop(5/13=1,5/36=2,99/5=2) pseudo=read geom=check guess=(r
 ead,tcheck) scf=(maxcycle=1)\\title\\0,1\C,0,1.803588,0.067022,0.37880
 7\O,0,0.775749,0.194828,-0.643238\S,0,-0.546884,-0.846579,-0.508592\C,
 0,-1.739299,0.217437,0.402882\C,0,2.600178,1.362917,0.312057\C,0,-2.98
 3125,-0.643022,0.645989\H,0,1.957769,2.223377,0.509086\H,0,3.042039,1.
 48368,-0.680292\H,0,-2.751464,-1.536613,1.23055\H,0,-3.435133,-0.95764
 ,-0.299385\C,0,2.65585,-1.171132,0.129045\H,0,2.041157,-2.073657,0.149

 Normal termination of Gaussian 16 at Tue Apr  8 23:22:30 2025.
