 Gaussian 16, Revision C.01,

 ----------------------------------------------------------------------
 #t hf aug-cc-pvdz symm=none int=(grid=ultrafine) guess=(read,tcheck) s
 table=(opt,rrhf)
 ----------------------------------------------------------------------
 -----
 title
 -----
 Symbolic Z-matrix:
 Charge =  0 Multiplicity = 1

 SCF Done:  E(RHF) =  -916.529023355     A.U. after   13 cycles
 Normal termination of Gaussian 16 at Tue Apr  8 23:51:41 2025.
 Gaussian 16:  ES64L-G16RevC.01  3-Jul-2019

 ----------------------------------------------------------------------
 #t hf aug-cc-pvdz iop(5/13=1,5/36=2,99/5=2) pseudo=read geom=check gue
 ss=(read,tcheck) scf=(maxcycle=1)
 ----------------------------------------------------------------------
 -----
 title
 -----
 Structure from the checkpoint file:  "BDE49_nonexpt_1931_mol1.chk"
 Charge =  0 Multiplicity = 1

                         Standard orientation:
 ---------------------------------------------------------------------
 Center     Atomic      Atomic             Coordinates (Angstroms)
 Number     Number       Type             X           Y           Z
 ---------------------------------------------------------------------
      1         14           0        2.291202    0.031763    0.023033
      2          6           0        0.624827    0.927417   -0.236386
      3          1           0        2.557761   -0.124591    1.465169
      4          1           0        3.321518    0.911493   -0.575614
      5          1           0        2.292971   -1.273387   -0.662934
      6         16           0       -0.769187   -0.181890   -0.006283
      7          8           0       -0.925386   -0.962624   -1.217132
      8          6           0       -2.196584    0.905009    0.128700
      9          1           0       -2.086265    1.537708    1.008388
     10          1           0       -3.058611    0.246802    0.242027
     11          1           0       -2.289762    1.494064   -0.782978
     12          8           0       -0.595546   -0.837027    1.277175
     13          1           0        0.553684    1.340476   -1.244343
     14          1           0        0.536858    1.735645    0.494131
 ---------------------------------------------------------------------

 SCF Done:  E(RHF) =  -916.699268337     A.U. after    2 cycles

 The electronic state is 1-A.
 Alpha  occ. eigenvalues --  -93.78194 -69.08259 -20.55546 -20.55471 -11.28980
 Alpha  occ. eigenvalues --  -11.27891  -9.04926  -6.83516  -6.39574  -6.39344
 Alpha  occ. eigenvalues --   -6.39268  -3.94325  -3.94285  -3.94267  -1.41825
 Alpha  occ. eigenvalues --   -1.30334  -1.05753  -0.99866  -0.81584  -0.71537
 Alpha  occ. eigenvalues --   -0.69743  -0.67598  -0.66690  -0.62324  -0.61103
 Alpha  occ. eigenvalues --   -0.60607  -0.51798  -0.51671  -0.50007  -0.49063
 Alpha  occ. eigenvalues --   -0.48681  -0.48648  -0.44789
 Alpha virt. eigenvalues --    0.02636   0.03927   0.04517   0.04835   0.06327
 Alpha virt. eigenvalues --    0.06396   0.07556   0.08607   0.08693   0.09516
 Alpha virt. eigenvalues --    0.10229   0.10991   0.13227   0.14002   0.14762

 Mulliken charges:
               1
     1  Si   0.362435
     2  C   -0.314744
     3  H    0.062709
     4  H   -0.010530
     5  H    0.012988
     6  S    2.188975
     7  O   -1.089669
     8  C    0.075143
     9  H    0.011192
    10  H    0.047040
    11  H   -0.000771
    12  O   -1.113042
    13  H   -0.100872
    14  H   -0.130855
 Sum of Mulliken charges =  -0.00000

 Dipole moment (field-independent basis, Debye):
    X=             -0.1332    Y=              5.1782    Z=             -0.1901  Tot=              5.1834

 Test job not archived.
 1\1\GINC-SE345\SP\RHF\Aug-CC-pVDZ\C2H8O2S1Si1\OHZDE\08-Apr-2025\0\\#t
 hf aug-cc-pvdz iop(5/13=1,5/36=2,99/5=2) pseudo=read geom=check guess=
 (read,tcheck) scf=(maxcycle=1)\\title\\0,1\Si,0,2.291202,0.031763,0.02
 3033\C,0,0.624827,0.927417,-0.236386\H,0,2.557761,-0.124591,1.465169\H
 ,0,3.321518,0.911493,-0.575614\H,0,2.292971,-1.273387,-0.662934\S,0,-0
 .769187,-0.18189,-0.006283\O,0,-0.925386,-0.962624,-1.217132\C,0,-2.19
 6584,0.905009,0.1287\H,0,-2.086265,1.537708,1.008388\H,0,-3.058611,0.2
 46802,0.242027\H,0,-2.289762,1.494064,-0.782978\O,0,-0.595546,-0.83702

 Normal termination of Gaussian 16 at Tue Apr  8 23:51:46 2025.
