 Gaussian 16, Revision C.01,

 ----------------------------------------------------------------------
 #t hf aug-cc-pvdz symm=none int=(grid=ultrafine) guess=(read,tcheck) s
 table=(opt,rrhf)
 ----------------------------------------------------------------------
 -----
 title
 -----
 Symbolic Z-matrix:
 Charge =  0 Multiplicity = 1

 SCF Done:  E(RHF) =  -552.566298852     A.U. after   12 cycles
 Normal termination of Gaussian 16 at Wed Apr  9 00:18:33 2025.
 Gaussian 16:  ES64L-G16RevC.01  3-Jul-2019

 ----------------------------------------------------------------------
 #t hf aug-cc-pvdz iop(5/13=1,5/36=2,99/5=2) pseudo=read geom=check gue
 ss=(read,tcheck) scf=(maxcycle=1)
 ----------------------------------------------------------------------
 -----
 title
 -----
 Structure from the checkpoint file:  "BDE49_nonexpt_2619_mol1.chk"
 Charge =  0 Multiplicity = 1

                         Standard orientation:
 ---------------------------------------------------------------------
 Center     Atomic      Atomic             Coordinates (Angstroms)
 Number     Number       Type             X           Y           Z
 ---------------------------------------------------------------------
      1          9           0        1.339373    0.519256   -0.000001
      2          7           0       -1.310394    0.372982    0.000017
      3         16           0        0.018236   -0.560608   -0.000007
      4          1           0       -1.586677    0.842766   -0.852926
      5          1           0       -1.586699    0.842792    0.852937
 ---------------------------------------------------------------------

 SCF Done:  E(RHF) =  -552.648252864     A.U. after    2 cycles

 The electronic state is 1-A.
 Alpha  occ. eigenvalues --  -93.64429 -26.10225 -15.68248  -8.92927  -6.27104
 Alpha  occ. eigenvalues --   -6.26762  -6.26254  -1.61043  -1.20887  -0.92360
 Alpha  occ. eigenvalues --   -0.73224  -0.72590  -0.70114  -0.69845  -0.54806
 Alpha  occ. eigenvalues --   -0.47489  -0.38372
 Alpha virt. eigenvalues --    0.03157   0.04902   0.08123   0.08661   0.13693
 Alpha virt. eigenvalues --    0.13876   0.15169   0.16914   0.19023   0.19715
 Alpha virt. eigenvalues --    0.23466   0.25435   0.27293   0.29050   0.31314

 Mulliken charges:
               1
     1  F   -0.614753
     2  N   -0.483272
     3  S    0.999860
     4  H    0.049084
     5  H    0.049081
 Sum of Mulliken charges =  -0.00000

 Dipole moment (field-independent basis, Debye):
    X=             -3.2686    Y=              0.5032    Z=             -0.0000  Tot=              3.3071

 Test job not archived.
 1\1\GINC-SE460\SP\RHF\Aug-CC-pVDZ\F1H2N1S1\OHZDE\09-Apr-2025\0\\#t hf
 aug-cc-pvdz iop(5/13=1,5/36=2,99/5=2) pseudo=read geom=check guess=(re
 ad,tcheck) scf=(maxcycle=1)\\title\\0,1\F,0,1.339373,-0.519256,0.00000
 1\N,0,-1.310394,-0.372982,-0.000017\S,0,0.018236,0.560608,0.000007\H,0
 ,-1.586677,-0.842766,0.852926\H,0,-1.586699,-0.842792,-0.852937\\Versi
 on=ES64L-G16RevC.01\State=1-A\HF=-552.6482529\RMSD=4.141e-03\Dipole=-1
 .2859796,-0.1979787,0.0000014\Quadrupole=-0.6166381,0.347852,0.2687862
 ,3.1532079,0.0000473,0.0000673\PG=C01 [X(F1H2N1S1)]\\@

 Normal termination of Gaussian 16 at Wed Apr  9 00:18:34 2025.
