 Gaussian 16, Revision C.01,

 ----------------------------------------------------------------------
 #t hf aug-cc-pvdz symm=none int=(grid=ultrafine) guess=(read,tcheck) s
 table=(opt,rrhf)
 ----------------------------------------------------------------------
 -----
 title
 -----
 Symbolic Z-matrix:
 Charge =  0 Multiplicity = 1

 SCF Done:  E(RHF) =  -838.660405047     A.U. after   16 cycles
 Normal termination of Gaussian 16 at Wed Apr  9 00:10:53 2025.
 Gaussian 16:  ES64L-G16RevC.01  3-Jul-2019

 ----------------------------------------------------------------------
 #t hf aug-cc-pvdz iop(5/13=1,5/36=2,99/5=2) pseudo=read geom=check gue
 ss=(read,tcheck) scf=(maxcycle=1)
 ----------------------------------------------------------------------
 -----
 title
 -----
 Structure from the checkpoint file:  "BDE49_nonexpt_2406_mol1.chk"
 Charge =  0 Multiplicity = 1

                         Standard orientation:
 ---------------------------------------------------------------------
 Center     Atomic      Atomic             Coordinates (Angstroms)
 Number     Number       Type             X           Y           Z
 ---------------------------------------------------------------------
      1         14           0       -1.047846   -0.867599   -0.548459
      2         14           0        1.047845   -0.867599    0.548459
      3          7           0        2.016558    0.673708    0.051093
      4          8           0        1.550633    1.284003   -0.883917
      5          1           0        1.929098   -1.975403    0.105686
      6          1           0        0.984223   -0.866194    2.026088
      7          7           0       -2.016558    0.673709   -0.051094
      8          1           0       -1.929099   -1.975403   -0.105685
      9          1           0       -0.984224   -0.866195   -2.026088
     10          8           0       -1.550632    1.284003    0.883917
 ---------------------------------------------------------------------

 SCF Done:  E(RHF) =  -838.781639915     A.U. after    2 cycles

 The electronic state is 1-A.
 Alpha  occ. eigenvalues --  -69.11480 -69.11480 -20.66241 -20.66241 -15.75484
 Alpha  occ. eigenvalues --  -15.75484  -6.86692  -6.86682  -3.97475  -3.97464
 Alpha  occ. eigenvalues --   -3.97405  -3.97393  -3.97384  -3.97329  -1.46785
 Alpha  occ. eigenvalues --   -1.46668  -0.94271  -0.93943  -0.78045  -0.73882
 Alpha  occ. eigenvalues --   -0.68003  -0.67726  -0.65109  -0.61759  -0.60846
 Alpha  occ. eigenvalues --   -0.60263  -0.51983  -0.50987  -0.45466  -0.38665
 Alpha  occ. eigenvalues --   -0.37477
 Alpha virt. eigenvalues --    0.03150   0.03711   0.04934   0.05016   0.05780
 Alpha virt. eigenvalues --    0.05975   0.06531   0.06829   0.07206   0.08557
 Alpha virt. eigenvalues --    0.09440   0.09507   0.10261   0.11998   0.13489

 Mulliken charges:
               1
     1  Si   0.683712
     2  Si   0.683712
     3  N   -0.333191
     4  O   -0.315955
     5  H   -0.052554
     6  H    0.017988
     7  N   -0.333190
     8  H   -0.052554
     9  H    0.017988
    10  O   -0.315956
 Sum of Mulliken charges =  -0.00000

 Dipole moment (field-independent basis, Debye):
    X=             -0.0000    Y=             -4.3416    Z=             -0.0000  Tot=              4.3416

 Test job not archived.
 1\1\GINC-SE455\SP\RHF\Aug-CC-pVDZ\H4N2O2Si2\OHZDE\09-Apr-2025\0\\#t hf
  aug-cc-pvdz iop(5/13=1,5/36=2,99/5=2) pseudo=read geom=check guess=(r
 ead,tcheck) scf=(maxcycle=1)\\title\\0,1\Si,0,1.047846,-0.867599,0.548
 459\Si,0,-1.047845,-0.867599,-0.548459\N,0,-2.016558,0.673708,-0.05109
 3\O,0,-1.550633,1.284003,0.883917\H,0,-1.929098,-1.975403,-0.105686\H,
 0,-0.984223,-0.866194,-2.026088\N,0,2.016558,0.673709,0.051094\H,0,1.9
 29099,-1.975403,0.105685\H,0,0.984224,-0.866195,2.026088\O,0,1.550632,
 1.284003,-0.883917\\Version=ES64L-G16RevC.01\State=1-A\HF=-838.7816399

 Normal termination of Gaussian 16 at Wed Apr  9 00:10:57 2025.
