 Gaussian 16, Revision C.01,

 ----------------------------------------------------------------------
 #t hf aug-cc-pvdz symm=none int=(grid=ultrafine) guess=(read,tcheck) s
 table=(opt,rrhf)
 ----------------------------------------------------------------------
 -----
 title
 -----
 Symbolic Z-matrix:
 Charge =  0 Multiplicity = 1

 SCF Done:  E(RHF) =  -1445.97743548     A.U. after   11 cycles
 Normal termination of Gaussian 16 at Tue Apr  8 23:48:19 2025.
 Gaussian 16:  ES64L-G16RevC.01  3-Jul-2019

 ----------------------------------------------------------------------
 #t hf aug-cc-pvdz iop(5/13=1,5/36=2,99/5=2) pseudo=read geom=check gue
 ss=(read,tcheck) scf=(maxcycle=1)
 ----------------------------------------------------------------------
 -----
 title
 -----
 Structure from the checkpoint file:  "BDE49_nonexpt_1853_mol1.chk"
 Charge =  0 Multiplicity = 1

                         Standard orientation:
 ---------------------------------------------------------------------
 Center     Atomic      Atomic             Coordinates (Angstroms)
 Number     Number       Type             X           Y           Z
 ---------------------------------------------------------------------
      1          6           0       -1.431796   -0.000001   -0.396089
      2         14           0        0.280938    0.000000    0.450930
      3         17           0        1.298075    1.687466   -0.144604
      4         17           0        1.298078   -1.687464   -0.144605
      5          1           0        0.136477    0.000000    1.910194
      6          9           0       -2.121244   -1.110567    0.031064
      7          9           0       -2.121246    1.110563    0.031063
      8          1           0       -1.431021   -0.000002   -1.489273
 ---------------------------------------------------------------------

 SCF Done:  E(RHF) =  -1446.12501964     A.U. after    2 cycles

 The electronic state is 1-A.
 Alpha  occ. eigenvalues -- -103.68263-103.68262 -69.18444 -26.15375 -26.15368
 Alpha  occ. eigenvalues --  -11.43028 -10.71725 -10.71713  -8.37415  -8.37408
 Alpha  occ. eigenvalues --   -8.37175  -8.37174  -8.37171  -8.37168  -6.92881
 Alpha  occ. eigenvalues --   -4.03751  -4.03655  -4.03539  -1.71135  -1.66926
 Alpha  occ. eigenvalues --   -1.17949  -1.15693  -1.00934  -0.83287  -0.82483
 Alpha  occ. eigenvalues --   -0.82150  -0.74720  -0.71797  -0.71225  -0.65769
 Alpha  occ. eigenvalues --   -0.58103  -0.57924  -0.55100  -0.50795  -0.50596
 Alpha  occ. eigenvalues --   -0.49130  -0.47664
 Alpha virt. eigenvalues --    0.03934   0.05018   0.05515   0.05584   0.07892
 Alpha virt. eigenvalues --    0.09136   0.10725   0.11387   0.12589   0.13451
 Alpha virt. eigenvalues --    0.13798   0.14163   0.15559   0.16191   0.16459

 Mulliken charges:
               1
     1  C    0.691221
     2  Si   1.316352
     3  Cl  -0.474577
     4  Cl  -0.474577
     5  H   -0.043281
     6  F   -0.398910
     7  F   -0.398910
     8  H   -0.217319
 Sum of Mulliken charges =  -0.00000

 Dipole moment (field-independent basis, Debye):
    X=              0.8409    Y=              0.0000    Z=             -0.4334  Tot=              0.9460

 Test job not archived.
 1\1\GINC-SE367\SP\RHF\Aug-CC-pVDZ\C1H2Cl2F2Si1\OHZDE\08-Apr-2025\0\\#t
  hf aug-cc-pvdz iop(5/13=1,5/36=2,99/5=2) pseudo=read geom=check guess
 =(read,tcheck) scf=(maxcycle=1)\\title\\0,1\C,0,1.431796,0.,-0.396089\
 Si,0,-0.280938,0.,0.45093\Cl,0,-1.298076,-1.687465,-0.144604\Cl,0,-1.2
 98077,1.687465,-0.144605\H,0,-0.136477,0.,1.910194\F,0,2.121245,1.1105
 65,0.031064\F,0,2.121245,-1.110565,0.031063\H,0,1.431021,0.000001,-1.4
 89273\\Version=ES64L-G16RevC.01\State=1-A\HF=-1446.1250196\RMSD=4.623e
 -03\Dipole=-0.3308241,-0.0000011,-0.1704992\Quadrupole=-3.0251762,-1.4

 Normal termination of Gaussian 16 at Tue Apr  8 23:48:22 2025.
