 Gaussian 16, Revision C.01,

 ----------------------------------------------------------------------
 #t hf aug-cc-pvdz symm=none int=(grid=ultrafine) guess=(read,tcheck) s
 table=(opt,rrhf)
 ----------------------------------------------------------------------
 -----
 title
 -----
 Symbolic Z-matrix:
 Charge =  0 Multiplicity = 1

 SCF Done:  E(RHF) =  -1025.79441756     A.U. after   15 cycles
 Normal termination of Gaussian 16 at Tue Apr  8 22:58:14 2025.
 Gaussian 16:  ES64L-G16RevC.01  3-Jul-2019

 ----------------------------------------------------------------------
 #t hf aug-cc-pvdz iop(5/13=1,5/36=2,99/5=2) pseudo=read geom=check gue
 ss=(read,tcheck) scf=(maxcycle=1)
 ----------------------------------------------------------------------
 -----
 title
 -----
 Structure from the checkpoint file:  "BDE49_expt_1955_mol1.chk"
 Charge =  0 Multiplicity = 1

                         Standard orientation:
 ---------------------------------------------------------------------
 Center     Atomic      Atomic             Coordinates (Angstroms)
 Number     Number       Type             X           Y           Z
 ---------------------------------------------------------------------
      1          6           0        2.923397    0.119681   -0.388091
      2          6           0        2.202048    1.264728   -0.051149
      3          6           0        0.867885    1.163034    0.330910
      4          6           0        2.308677   -1.129886   -0.343824
      5          6           0        0.971145   -1.237042    0.030132
      6          6           0        0.246625   -0.089338    0.365213
      7          1           0        3.963826    0.201747   -0.681342
      8          1           0        2.680685    2.237003   -0.079974
      9          1           0        0.303950    2.047039    0.602494
     10          1           0        2.868441   -2.021684   -0.601947
     11          1           0        0.485791   -2.205068    0.065325
     12         16           0       -1.451689   -0.248473    0.920389
     13         16           0       -2.597298    0.257880   -0.770927
     14          1           0       -2.637576   -0.956608   -1.355091
 ---------------------------------------------------------------------

 SCF Done:  E(RHF) =  -1025.90191772     A.U. after    2 cycles

 The electronic state is 1-A.
 Alpha  occ. eigenvalues --  -93.56839 -93.56466 -11.28398 -11.26257 -11.26159
 Alpha  occ. eigenvalues --  -11.26104 -11.25762 -11.25730  -8.86311  -8.86032
 Alpha  occ. eigenvalues --   -6.20465  -6.20206  -6.20143  -6.19915  -6.19877
 Alpha  occ. eigenvalues --   -6.19568  -1.16161  -1.06133  -1.02553  -0.99491
 Alpha  occ. eigenvalues --   -0.88282  -0.84430  -0.80174  -0.71078  -0.64890
 Alpha  occ. eigenvalues --   -0.64484  -0.60695  -0.58826  -0.55323  -0.52948
 Alpha  occ. eigenvalues --   -0.51450  -0.49868  -0.46440  -0.37808  -0.36956
 Alpha  occ. eigenvalues --   -0.35374  -0.34679
 Alpha virt. eigenvalues --    0.03246   0.03966   0.04365   0.05181   0.05960
 Alpha virt. eigenvalues --    0.06482   0.07235   0.08974   0.09553   0.10477
 Alpha virt. eigenvalues --    0.11180   0.11473   0.12360   0.13520   0.13681

 Mulliken charges:
               1
     1  C    0.269211
     2  C    0.653842
     3  C   -0.156319
     4  C    0.662894
     5  C   -0.013530
     6  C    0.796618
     7  H   -0.432737
     8  H   -0.427777
     9  H   -0.443339
    10  H   -0.426561
    11  H   -0.448579
    12  S   -0.087677
    13  S   -0.058609
    14  H    0.112562
 Sum of Mulliken charges =  -0.00000

 Dipole moment (field-independent basis, Debye):
    X=              2.0225    Y=             -0.5602    Z=             -0.9550  Tot=              2.3057

 Test job not archived.
 1\1\GINC-SE250\SP\RHF\Aug-CC-pVDZ\C6H6S2\OHZDE\08-Apr-2025\0\\#t hf au
 g-cc-pvdz iop(5/13=1,5/36=2,99/5=2) pseudo=read geom=check guess=(read
 ,tcheck) scf=(maxcycle=1)\\title\\0,1\C,0,-2.923397,-0.119681,-0.38809
 1\C,0,-2.202048,-1.264728,-0.051149\C,0,-0.867885,-1.163034,0.33091\C,
 0,-2.308677,1.129886,-0.343824\C,0,-0.971145,1.237042,0.030132\C,0,-0.
 246625,0.089338,0.365213\H,0,-3.963826,-0.201747,-0.681342\H,0,-2.6806
 85,-2.237003,-0.079974\H,0,-0.30395,-2.047039,0.602494\H,0,-2.868441,2
 .021684,-0.601947\H,0,-0.485791,2.205068,0.065325\S,0,1.451689,0.24847

 Normal termination of Gaussian 16 at Tue Apr  8 22:58:19 2025.
