 Gaussian 16, Revision C.01,

 ----------------------------------------------------------------------
 #t hf aug-cc-pvdz symm=none int=(grid=ultrafine) guess=(read,tcheck) s
 table=opt
 ----------------------------------------------------------------------
 -----
 title
 -----
 Symbolic Z-matrix:
 Charge =  0 Multiplicity = 2

 SCF Done:  E(UHF) =  -947.403273330     A.U. after   21 cycles
 Normal termination of Gaussian 16 at Tue Apr  8 23:16:55 2025.
 Gaussian 16:  ES64L-G16RevC.01  3-Jul-2019

 ----------------------------------------------------------------------
 #t hf aug-cc-pvdz iop(5/13=1,5/36=2,99/5=2) pseudo=read geom=check gue
 ss=(read,tcheck) scf=(maxcycle=1)
 ----------------------------------------------------------------------
 -----
 title
 -----
 Structure from the checkpoint file:  "BDE49_nonexpt_1061_mol2.chk"
 Charge =  0 Multiplicity = 2

                         Standard orientation:
 ---------------------------------------------------------------------
 Center     Atomic      Atomic             Coordinates (Angstroms)
 Number     Number       Type             X           Y           Z
 ---------------------------------------------------------------------
      1          8           0        1.264628    1.524170   -0.000246
      2          6           0        0.548344    0.547937    0.000360
      3         16           0        1.396420   -0.998750   -0.000133
      4         16           0       -1.219344    0.686898    0.000111
      5          6           0       -1.757626   -1.055371    0.000024
      6          1           0       -2.847602   -1.013187   -0.000122
      7          1           0       -1.423594   -1.572978    0.898326
      8          1           0       -1.423359   -1.572967   -0.898198
 ---------------------------------------------------------------------

 SCF Done:  E(UHF) =  -947.490273080     A.U. after    2 cycles

 The electronic state is 2-A.
 Alpha  occ. eigenvalues --  -93.59584 -93.57766 -20.58931 -11.41428 -11.29838
 Alpha  occ. eigenvalues --   -8.89428  -8.87579  -6.24800  -6.23079  -6.22602
 Alpha  occ. eigenvalues --   -6.21695  -6.21480  -6.21130  -1.39033  -1.08878
 Alpha  occ. eigenvalues --   -1.02276  -0.92399  -0.74427  -0.67376  -0.64513
 Alpha  occ. eigenvalues --   -0.63228  -0.59618  -0.59594  -0.51241  -0.46870
 Alpha  occ. eigenvalues --   -0.43538  -0.41954  -0.39059
 Alpha virt. eigenvalues --    0.02910   0.05073   0.05448   0.06991   0.08128
 Alpha virt. eigenvalues --    0.09592   0.10010   0.11704   0.12785   0.13015
 Alpha virt. eigenvalues --    0.13943   0.14124   0.14955   0.16194   0.17117

  Beta  occ. eigenvalues --  -93.58647 -93.57770 -20.58690 -11.41552 -11.29810
  Beta  occ. eigenvalues --   -8.88382  -8.87584  -6.22552  -6.22005  -6.21707
  Beta  occ. eigenvalues --   -6.21470  -6.21140  -6.20703  -1.38371  -1.08123
  Beta  occ. eigenvalues --   -0.96957  -0.90862  -0.72946  -0.65965  -0.63140
  Beta  occ. eigenvalues --   -0.62488  -0.59403  -0.59101  -0.50116  -0.42359
  Beta  occ. eigenvalues --   -0.39926  -0.38745
  Beta virt. eigenvalues --   -0.01206   0.03091   0.05149   0.05462   0.07172
  Beta virt. eigenvalues --    0.08214   0.09506   0.10595   0.11750   0.12887
  Beta virt. eigenvalues --    0.13147   0.13944   0.14885   0.15195   0.16809

 Mulliken charges and spin densities:
               1          2
     1  O   -0.447322   0.026240
     2  C   -0.215102  -0.103921
     3  S    0.270898   1.080687
     4  S    0.489069  -0.000039
     5  C    0.086447  -0.011483
     6  H   -0.121307   0.003201
     7  H   -0.031381   0.002664
     8  H   -0.031302   0.002651
 Sum of Mulliken charges =  -0.00000   1.00000

 Dipole moment (field-independent basis, Debye):
    X=             -2.7203    Y=             -3.6754    Z=              0.0007  Tot=              4.5726
                          Isotropic Fermi Contact Couplings
        Atom                 a.u.       MegaHertz       Gauss      10(-4) cm-1
     1  O(17)              0.03363     -20.38400      -7.27352      -6.79937
     2  C(13)             -0.02280     -25.63392      -9.14682      -8.55056
     3  S(33)              0.22143      76.05532      27.13843      25.36932
     4  S(33)             -0.00861      -2.95895      -1.05583      -0.98700
     5  C(13)              0.00901      10.13193       3.61533       3.37965
     6  H(1)               0.00145       6.48927       2.31553       2.16459
     7  H(1)               0.00031       1.39450       0.49759       0.46516
     8  H(1)               0.00031       1.39588       0.49809       0.46562

 Normal termination of Gaussian 16 at Tue Apr  8 23:16:59 2025.
