 Gaussian 16, Revision C.01,

 ----------------------------------------------------------------------
 #t hf aug-cc-pvdz symm=none int=(grid=ultrafine) guess=(read,tcheck) s
 table=(opt,rrhf)
 ----------------------------------------------------------------------
 -----
 title
 -----
 Symbolic Z-matrix:
 Charge =  0 Multiplicity = 1

 SCF Done:  E(RHF) =  -1094.74018252     A.U. after   13 cycles
 Normal termination of Gaussian 16 at Tue Apr  8 22:40:26 2025.
 Gaussian 16:  ES64L-G16RevC.01  3-Jul-2019

 ----------------------------------------------------------------------
 #t hf aug-cc-pvdz iop(5/13=1,5/36=2,99/5=2) pseudo=read geom=check gue
 ss=(read,tcheck) scf=(maxcycle=1)
 ----------------------------------------------------------------------
 -----
 title
 -----
 Structure from the checkpoint file:  "BDE49_expt_140_mol1.chk"
 Charge =  0 Multiplicity = 1

                         Standard orientation:
 ---------------------------------------------------------------------
 Center     Atomic      Atomic             Coordinates (Angstroms)
 Number     Number       Type             X           Y           Z
 ---------------------------------------------------------------------
      1          6           0       -1.087694    0.029844    0.000000
      2          6           0        0.000000    0.791917   -0.000000
      3          9           0       -0.113234    2.122400   -0.000000
      4         17           0       -1.065249   -1.695713    0.000000
      5          1           0       -2.066441    0.486553    0.000000
      6         17           0        1.630644    0.253436   -0.000000
 ---------------------------------------------------------------------

 SCF Done:  E(RHF) =  -1094.84035090     A.U. after    2 cycles

 The electronic state is 1-A'.
 Alpha  occ. eigenvalues -- -103.70443-103.69142 -26.17868 -11.42536 -11.33300
 Alpha  occ. eigenvalues --  -10.73742 -10.72398  -8.39485  -8.39138  -8.39130
 Alpha  occ. eigenvalues --   -8.38142  -8.37806  -8.37797  -1.72162  -1.23667
 Alpha  occ. eigenvalues --   -1.19429  -1.04631  -0.88377  -0.79514  -0.79402
 Alpha  occ. eigenvalues --   -0.75551  -0.62900  -0.61147  -0.56608  -0.51718
 Alpha  occ. eigenvalues --   -0.51328  -0.48632  -0.38832
 Alpha virt. eigenvalues --    0.03778   0.07068   0.07616   0.09435   0.10087
 Alpha virt. eigenvalues --    0.12014   0.13143   0.14530   0.14740   0.15115
 Alpha virt. eigenvalues --    0.15502   0.16115   0.16753   0.18943   0.19713

 Mulliken charges:
               1
     1  C    0.348063
     2  C    0.478944
     3  F   -0.326381
     4  Cl  -0.184504
     5  H   -0.246996
     6  Cl  -0.069125
 Sum of Mulliken charges =  -0.00000

 Dipole moment (field-independent basis, Debye):
    X=             -0.8164    Y=             -0.1013    Z=             -0.0000  Tot=              0.8227

 Test job not archived.
 1\1\GINC-SE082\SP\RHF\Aug-CC-pVDZ\C2H1Cl2F1\OHZDE\08-Apr-2025\0\\#t hf
  aug-cc-pvdz iop(5/13=1,5/36=2,99/5=2) pseudo=read geom=check guess=(r
 ead,tcheck) scf=(maxcycle=1)\\title\\0,1\C,0,-1.087694,0.029844,0.\C,0
 ,0.,0.791917,0.\F,0,-0.113234,2.1224,0.\Cl,0,-1.065249,-1.695713,0.\H,
 0,-2.066441,0.486553,0.\Cl,0,1.630644,0.253436,0.\\Version=ES64L-G16Re
 vC.01\State=1-A'\HF=-1094.8403509\RMSD=7.225e-03\Dipole=-0.3211941,-0.
 0398722,0.\Quadrupole=2.6756097,-2.2117889,-0.4638208,-1.244287,0.,0.\
 PG=CS [SG(C2H1Cl2F1)]\\@

 Normal termination of Gaussian 16 at Tue Apr  8 22:40:28 2025.
