 Gaussian 16, Revision C.01,

 ----------------------------------------------------------------------
 #t hf aug-cc-pvdz symm=none int=(grid=ultrafine) guess=(read,tcheck) s
 table=(opt,rrhf)
 ----------------------------------------------------------------------
 -----
 title
 -----
 Symbolic Z-matrix:
 Charge =  0 Multiplicity = 1

 SCF Done:  E(RHF) =  -1199.38827604     A.U. after   15 cycles
 Normal termination of Gaussian 16 at Tue Apr  8 23:07:50 2025.
 Gaussian 16:  ES64L-G16RevC.01  3-Jul-2019

 ----------------------------------------------------------------------
 #t hf aug-cc-pvdz iop(5/13=1,5/36=2,99/5=2) pseudo=read geom=check gue
 ss=(read,tcheck) scf=(maxcycle=1)
 ----------------------------------------------------------------------
 -----
 title
 -----
 Structure from the checkpoint file:  "BDE49_expt_645_mol1.chk"
 Charge =  0 Multiplicity = 1

                         Standard orientation:
 ---------------------------------------------------------------------
 Center     Atomic      Atomic             Coordinates (Angstroms)
 Number     Number       Type             X           Y           Z
 ---------------------------------------------------------------------
      1          8           0       -0.517922   -0.157335    1.308962
      2          8           0       -1.948348   -0.046130    1.115770
      3          1           0       -2.194144   -0.982535    1.038933
      4          6           0        0.103401    0.042958    0.083370
      5          6           0       -0.304281    1.279927   -0.582909
      6          7           0       -0.604284    2.262256   -1.102536
      7         17           0        1.838843    0.099448    0.485877
      8         17           0       -0.229457   -1.344322   -1.057748
 ---------------------------------------------------------------------

 SCF Done:  E(RHF) =  -1199.51047082     A.U. after    2 cycles

 The electronic state is 1-A.
 Alpha  occ. eigenvalues -- -103.71771-103.71165 -20.71966 -20.70137 -15.68540
 Alpha  occ. eigenvalues --  -11.50916 -11.32798 -10.75047 -10.74426  -8.40773
 Alpha  occ. eigenvalues --   -8.40417  -8.40412  -8.40137  -8.39814  -8.39806
 Alpha  occ. eigenvalues --   -1.51052  -1.31488  -1.23264  -1.21042  -1.18134
 Alpha  occ. eigenvalues --   -0.98560  -0.83545  -0.76630  -0.73939  -0.71089
 Alpha  occ. eigenvalues --   -0.62631  -0.59409  -0.58291  -0.56669  -0.53364
 Alpha  occ. eigenvalues --   -0.53110  -0.52351  -0.49853  -0.49750  -0.48852
 Alpha virt. eigenvalues --    0.03204   0.05722   0.06650   0.07739   0.08536
 Alpha virt. eigenvalues --    0.09805   0.11179   0.11769   0.12186   0.12972
 Alpha virt. eigenvalues --    0.14143   0.14600   0.15296   0.16240   0.17944

 Mulliken charges:
               1
     1  O   -0.448690
     2  O   -0.230383
     3  H    0.250959
     4  C    0.620071
     5  C   -0.089049
     6  N   -0.072949
     7  Cl   0.003597
     8  Cl  -0.033557
 Sum of Mulliken charges =  -0.00000

 Dipole moment (field-independent basis, Debye):
    X=             -0.2480    Y=             -3.0591    Z=              0.6962  Tot=              3.1471

 Test job not archived.
 1\1\GINC-SE435\SP\RHF\Aug-CC-pVDZ\C2H1Cl2N1O2\OHZDE\08-Apr-2025\0\\#t
 hf aug-cc-pvdz iop(5/13=1,5/36=2,99/5=2) pseudo=read geom=check guess=
 (read,tcheck) scf=(maxcycle=1)\\title\\0,1\O,0,-0.517922,-0.157335,1.3
 08962\O,0,-1.948348,-0.046131,1.11577\H,0,-2.194144,-0.982536,1.038933
 \C,0,0.103401,0.042958,0.08337\C,0,-0.304281,1.279927,-0.582909\N,0,-0
 .604285,2.262256,-1.102536\Cl,0,1.838843,0.099449,0.485877\Cl,0,-0.229
 456,-1.344322,-1.057748\\Version=ES64L-G16RevC.01\State=1-A\HF=-1199.5
 104708\RMSD=6.404e-03\Dipole=-0.0975852,-1.203526,0.2738951\Quadrupole

 Normal termination of Gaussian 16 at Tue Apr  8 23:07:53 2025.
