 Gaussian 16, Revision C.01,

 ----------------------------------------------------------------------
 #t hf aug-cc-pvdz symm=none int=(grid=ultrafine) guess=(read,tcheck) s
 table=opt
 ----------------------------------------------------------------------
 -----
 title
 -----
 Symbolic Z-matrix:
 Charge =  0 Multiplicity = 2

 SCF Done:  E(UHF) =  -457.788201252     A.U. after   17 cycles
 Normal termination of Gaussian 16 at Wed Apr  9 00:40:55 2025.
 Gaussian 16:  ES64L-G16RevC.01  3-Jul-2019

 ----------------------------------------------------------------------
 #t hf aug-cc-pvdz iop(5/13=1,5/36=2,99/5=2) pseudo=read geom=check gue
 ss=(read,tcheck) scf=(maxcycle=1)
 ----------------------------------------------------------------------
 -----
 title
 -----
 Structure from the checkpoint file:  "BDE49_nonexpt_719_mol2.chk"
 Charge =  0 Multiplicity = 2

                         Standard orientation:
 ---------------------------------------------------------------------
 Center     Atomic      Atomic             Coordinates (Angstroms)
 Number     Number       Type             X           Y           Z
 ---------------------------------------------------------------------
      1          6           0        0.216805   -0.056289    0.548008
      2          6           0        1.347682    0.749595   -0.069961
      3          6           0        1.335450   -0.732622   -0.254042
      4          1           0        1.083297   -1.126226   -1.231474
      5          1           0        2.038009   -1.336859    0.307831
      6          1           0        2.072066    1.184530    0.608574
      7          1           0        1.108654    1.370068   -0.926747
      8         15           0       -1.456470    0.064559   -0.173454
      9          1           0        0.273316   -0.203873    1.620427
     10          1           0       -2.127915   -0.620123    0.879169
 ---------------------------------------------------------------------

 SCF Done:  E(UHF) =  -457.843342094     A.U. after    2 cycles

 The electronic state is 2-A.
 Alpha  occ. eigenvalues --  -81.25751 -11.25079 -11.25017 -11.24791  -7.76205
 Alpha  occ. eigenvalues --   -4.90908  -4.89893  -4.89550  -1.13702  -0.86052
 Alpha  occ. eigenvalues --   -0.83225  -0.74062  -0.67278  -0.61059  -0.52822
 Alpha  occ. eigenvalues --   -0.51132  -0.45931  -0.42975  -0.38905  -0.32206
 Alpha virt. eigenvalues --    0.03507   0.04909   0.05082   0.05263   0.07154
 Alpha virt. eigenvalues --    0.07317   0.09307   0.10367   0.11348   0.12241
 Alpha virt. eigenvalues --    0.13284   0.14369   0.15396   0.16050   0.16392

  Beta  occ. eigenvalues --  -81.25069 -11.25249 -11.24809 -11.24720  -7.75387
  Beta  occ. eigenvalues --   -4.89410  -4.89194  -4.87801  -1.13241  -0.84348
  Beta  occ. eigenvalues --   -0.82716  -0.70946  -0.66574  -0.60111  -0.52636
  Beta  occ. eigenvalues --   -0.50776  -0.43426  -0.42446  -0.36515
  Beta virt. eigenvalues --    0.03541   0.03807   0.04928   0.05246   0.06044
  Beta virt. eigenvalues --    0.07219   0.07683   0.09387   0.10561   0.12409
  Beta virt. eigenvalues --    0.13131   0.13530   0.14520   0.16130   0.16273

 Mulliken charges and spin densities:
               1          2
     1  C    0.139027  -0.184274
     2  C    0.691983   0.036279
     3  C    0.676405   0.078699
     4  H   -0.318112  -0.007424
     5  H   -0.297300  -0.001580
     6  H   -0.303007  -0.000709
     7  H   -0.330292  -0.006885
     8  P    0.163263   1.261404
     9  H   -0.406971  -0.001981
    10  H   -0.014995  -0.173529
 Sum of Mulliken charges =  -0.00000   1.00000

 Dipole moment (field-independent basis, Debye):
    X=              1.1758    Y=             -0.3056    Z=              0.7957  Tot=              1.4522
                          Isotropic Fermi Contact Couplings
        Atom                 a.u.       MegaHertz       Gauss      10(-4) cm-1
     1  C(13)             -0.03829     -43.04009     -15.35778     -14.35663
     2  C(13)              0.00988      11.10537       3.96267       3.70435
     3  C(13)              0.03849      43.27016      15.43987      14.43337
     4  H(1)              -0.00150      -6.70138      -2.39122      -2.23534
     5  H(1)               0.00041       1.83881       0.65613       0.61336
     6  H(1)               0.00036       1.59114       0.56776       0.53075
     7  H(1)              -0.00057      -2.56508      -0.91529      -0.85562
     8  P(31)              0.23260     421.25716     150.31503     140.51626

 Normal termination of Gaussian 16 at Wed Apr  9 00:40:58 2025.
