 Gaussian 16, Revision C.01,

 ----------------------------------------------------------------------
 #t hf aug-cc-pvdz symm=none int=(grid=ultrafine) guess=(read,tcheck) s
 table=(opt,rrhf)
 ----------------------------------------------------------------------
 -----
 title
 -----
 Symbolic Z-matrix:
 Charge =  0 Multiplicity = 1

 SCF Done:  E(RHF) =  -1187.91709565     A.U. after   17 cycles
 Normal termination of Gaussian 16 at Tue Apr  8 23:43:33 2025.
 Gaussian 16:  ES64L-G16RevC.01  3-Jul-2019

 ----------------------------------------------------------------------
 #t hf aug-cc-pvdz iop(5/13=1,5/36=2,99/5=2) pseudo=read geom=check gue
 ss=(read,tcheck) scf=(maxcycle=1)
 ----------------------------------------------------------------------
 -----
 title
 -----
 Structure from the checkpoint file:  "BDE49_nonexpt_1605_mol1.chk"
 Charge =  0 Multiplicity = 1

                         Standard orientation:
 ---------------------------------------------------------------------
 Center     Atomic      Atomic             Coordinates (Angstroms)
 Number     Number       Type             X           Y           Z
 ---------------------------------------------------------------------
      1          6           0       -3.124504   -0.079880   -0.000921
      2          6           0       -2.246607   -1.156754   -0.033662
      3          6           0       -0.881344   -0.901648   -0.040866
      4          6           0       -2.688497    1.240385    0.024692
      5          6           0       -1.323073    1.486238    0.015919
      6          6           0       -0.418178    0.418590   -0.017138
      7          1           0       -2.638816   -2.163596   -0.051942
      8          1           0       -0.173355   -1.718252   -0.065883
      9          1           0       -3.413465    2.041406    0.050805
     10          1           0       -0.941687    2.498747    0.035570
     11          6           0        1.032252    0.739530   -0.024869
     12          8           0        1.818485   -0.365220   -0.068718
     13         15           0        3.472726   -0.318843    0.125425
     14          8           0        3.856725   -0.432423    1.525945
     15          8           0        1.477757    1.866575   -0.004893
     16          7           0       -4.585831   -0.349923    0.007198
     17          8           0       -4.941107   -1.518705   -0.016329
     18          8           0       -5.334680    0.614969    0.036466
     19          8           0        3.897311   -1.513997   -0.819907
     20          1           0        4.275811   -2.246279   -0.318885
     21          8           0        3.909522    0.930030   -0.726181
     22          1           0        3.329033    1.691478   -0.531423
 ---------------------------------------------------------------------

 SCF Done:  E(RHF) =  -1188.25138121     A.U. after    2 cycles

 The electronic state is 1-A.
 Alpha  occ. eigenvalues --  -81.47890 -20.66396 -20.64543 -20.63807 -20.63792
 Alpha  occ. eigenvalues --  -20.63289 -20.61761 -20.55216 -15.94014 -11.46134
 Alpha  occ. eigenvalues --  -11.35103 -11.31469 -11.30632 -11.30493 -11.30488
 Alpha  occ. eigenvalues --  -11.30353  -7.95742  -5.10401  -5.10357  -5.10330
 Alpha  occ. eigenvalues --   -1.57070  -1.47397  -1.41129  -1.38704  -1.37669
 Alpha  occ. eigenvalues --   -1.37290  -1.28947  -1.21737  -1.12060  -1.07325
 Alpha  occ. eigenvalues --   -1.00827  -0.93459  -0.89521  -0.87520  -0.84289
 Alpha  occ. eigenvalues --   -0.81058  -0.78655  -0.77260  -0.76146  -0.75618
 Alpha  occ. eigenvalues --   -0.74661  -0.71676  -0.70770  -0.69436  -0.68738
 Alpha  occ. eigenvalues --   -0.67785  -0.65529  -0.64290  -0.62287  -0.61289
 Alpha  occ. eigenvalues --   -0.61001  -0.58256  -0.57364  -0.55824  -0.55455
 Alpha  occ. eigenvalues --   -0.53543  -0.53165  -0.52818  -0.51566  -0.51215
 Alpha  occ. eigenvalues --   -0.49281  -0.41064  -0.39443
 Alpha virt. eigenvalues --   -0.00657   0.02401   0.03236   0.03878   0.04970
 Alpha virt. eigenvalues --    0.06253   0.06807   0.06946   0.07702   0.08159
 Alpha virt. eigenvalues --    0.08364   0.09540   0.09852   0.10645   0.11517

 Mulliken charges:
               1
     1  C    0.877206
     2  C    0.462462
     3  C    0.336295
     4  C    0.592709
     5  C    0.259353
     6  C    1.288030
     7  H   -0.466915
     8  H   -0.602868
     9  H   -0.452452
    10  H   -0.641858
    11  C    0.235364
    12  O   -1.165897
    13  P    2.362112
    14  O   -0.800034
    15  O   -0.479144
    16  N    0.115266
    17  O   -0.542992
    18  O   -0.540448
    19  O   -0.601001
    20  H    0.159624
    21  O   -0.651821
    22  H    0.257009
 Sum of Mulliken charges =  -0.00000

 Dipole moment (field-independent basis, Debye):
    X=              1.1293    Y=             -0.8424    Z=             -1.6951  Tot=              2.2041

 Test job not archived.
 1\1\GINC-SE419\SP\RHF\Aug-CC-pVDZ\C7H6N1O7P1\OHZDE\08-Apr-2025\0\\#t h
 f aug-cc-pvdz iop(5/13=1,5/36=2,99/5=2) pseudo=read geom=check guess=(
 read,tcheck) scf=(maxcycle=1)\\title\\0,1\C,0,-3.124504,-0.07988,-0.00
 0921\C,0,-2.246607,-1.156754,-0.033662\C,0,-0.881344,-0.901648,-0.0408
 66\C,0,-2.688497,1.240385,0.024692\C,0,-1.323073,1.486238,0.015919\C,0
 ,-0.418178,0.41859,-0.017138\H,0,-2.638816,-2.163596,-0.051942\H,0,-0.
 173355,-1.718252,-0.065883\H,0,-3.413465,2.041406,0.050805\H,0,-0.9416
 87,2.498747,0.03557\C,0,1.032252,0.73953,-0.024869\O,0,1.818485,-0.365

 Normal termination of Gaussian 16 at Tue Apr  8 23:43:54 2025.
