 Gaussian 16, Revision C.01,

 ----------------------------------------------------------------------
 #t hf aug-cc-pvdz symm=none int=(grid=ultrafine) guess=(read,tcheck) s
 table=(opt,rrhf)
 ----------------------------------------------------------------------
 -----
 title
 -----
 Symbolic Z-matrix:
 Charge =  0 Multiplicity = 1

 SCF Done:  E(RHF) =  -480.645842529     A.U. after   15 cycles
 Normal termination of Gaussian 16 at Tue Apr  8 23:20:40 2025.
 Gaussian 16:  ES64L-G16RevC.01  3-Jul-2019

 ----------------------------------------------------------------------
 #t hf aug-cc-pvdz iop(5/13=1,5/36=2,99/5=2) pseudo=read geom=check gue
 ss=(read,tcheck) scf=(maxcycle=1)
 ----------------------------------------------------------------------
 -----
 title
 -----
 Structure from the checkpoint file:  "BDE49_nonexpt_1163_mol1.chk"
 Charge =  0 Multiplicity = 1

                         Standard orientation:
 ---------------------------------------------------------------------
 Center     Atomic      Atomic             Coordinates (Angstroms)
 Number     Number       Type             X           Y           Z
 ---------------------------------------------------------------------
      1          9           0        1.123605    1.826194   -0.600418
      2          8           0        0.219731    0.744763   -0.936197
      3          6           0       -0.057932    0.006198    0.296052
      4          8           0        1.042639   -0.682136    0.730917
      5          8           0       -1.006567   -0.894710   -0.188918
      6          6           0        1.613807   -1.631470   -0.181892
      7          1           0        2.531387   -1.972366    0.294065
      8          1           0        1.846469   -1.157887   -1.137400
      9          1           0        0.939165   -2.474626   -0.338946
     10          6           0       -2.323072   -0.410165   -0.474742
     11          1           0       -2.826083   -1.220845   -0.999717
     12          1           0       -2.294058    0.473048   -1.115635
     13          1           0       -2.870366   -0.186741    0.445668
     14          6           0       -0.509312    0.924215    1.416052
     15          1           0        0.334309    1.531429    1.736035
     16          1           0       -0.848349    0.313836    2.254018
     17          1           0       -1.312290    1.582407    1.086447
 ---------------------------------------------------------------------

 SCF Done:  E(RHF) =  -480.805198109     A.U. after    2 cycles

 The electronic state is 1-A.
 Alpha  occ. eigenvalues --  -26.15216 -20.69279 -20.60315 -20.59344 -11.42929
 Alpha  occ. eigenvalues --  -11.30270 -11.28578 -11.24350  -1.65507  -1.42618
 Alpha  occ. eigenvalues --   -1.33318  -1.28190  -1.03736  -0.96870  -0.93429
 Alpha  occ. eigenvalues --   -0.83175  -0.76835  -0.76708  -0.74177  -0.71177
 Alpha  occ. eigenvalues --   -0.69330  -0.65516  -0.64358  -0.62721  -0.60864
 Alpha  occ. eigenvalues --   -0.57676  -0.57370  -0.55748  -0.54015  -0.52073
 Alpha  occ. eigenvalues --   -0.51485  -0.48233  -0.47410
 Alpha virt. eigenvalues --    0.03336   0.04470   0.04665   0.05334   0.06069
 Alpha virt. eigenvalues --    0.06595   0.07017   0.07224   0.09162   0.10455
 Alpha virt. eigenvalues --    0.11876   0.13293   0.13720   0.14322   0.15061

 Mulliken charges:
               1
     1  F   -0.403327
     2  O   -0.255137
     3  C    0.768267
     4  O   -0.682874
     5  O   -0.694975
     6  C    0.663407
     7  H   -0.246596
     8  H   -0.016685
     9  H   -0.074658
    10  C    0.810750
    11  H   -0.258984
    12  H   -0.049922
    13  H   -0.119490
    14  C    0.560459
    15  H   -0.053738
    16  H    0.062934
    17  H   -0.009432
 Sum of Mulliken charges =  -0.00000

 Dipole moment (field-independent basis, Debye):
    X=             -2.3883    Y=             -1.1603    Z=              0.5101  Tot=              2.7038

 Test job not archived.
 1\1\GINC-SE252\SP\RHF\Aug-CC-pVDZ\C4H9F1O3\OHZDE\08-Apr-2025\0\\#t hf
 aug-cc-pvdz iop(5/13=1,5/36=2,99/5=2) pseudo=read geom=check guess=(re
 ad,tcheck) scf=(maxcycle=1)\\title\\0,1\F,0,1.123605,1.826194,-0.60041
 8\O,0,0.219731,0.744763,-0.936197\C,0,-0.057932,0.006198,0.296052\O,0,
 1.042639,-0.682136,0.730917\O,0,-1.006567,-0.89471,-0.188918\C,0,1.613
 807,-1.63147,-0.181892\H,0,2.531387,-1.972366,0.294065\H,0,1.846469,-1
 .157887,-1.1374\H,0,0.939165,-2.474626,-0.338946\C,0,-2.323072,-0.4101
 65,-0.474742\H,0,-2.826083,-1.220845,-0.999717\H,0,-2.294058,0.473048,

 Normal termination of Gaussian 16 at Tue Apr  8 23:20:46 2025.
