 Gaussian 16, Revision C.01,

 ----------------------------------------------------------------------
 #t hf aug-cc-pvdz symm=none int=(grid=ultrafine) guess=(read,tcheck) s
 table=(opt,rrhf)
 ----------------------------------------------------------------------
 -----
 title
 -----
 Symbolic Z-matrix:
 Charge =  0 Multiplicity = 1

 SCF Done:  E(RHF) =  -1078.66917104     A.U. after   14 cycles
 Normal termination of Gaussian 16 at Tue Apr  8 23:46:06 2025.
 Gaussian 16:  ES64L-G16RevC.01  3-Jul-2019

 ----------------------------------------------------------------------
 #t hf aug-cc-pvdz iop(5/13=1,5/36=2,99/5=2) pseudo=read geom=check gue
 ss=(read,tcheck) scf=(maxcycle=1)
 ----------------------------------------------------------------------
 -----
 title
 -----
 Structure from the checkpoint file:  "BDE49_nonexpt_1770_mol1.chk"
 Charge =  0 Multiplicity = 1

                         Standard orientation:
 ---------------------------------------------------------------------
 Center     Atomic      Atomic             Coordinates (Angstroms)
 Number     Number       Type             X           Y           Z
 ---------------------------------------------------------------------
      1          6           0       -0.468139    1.555817    0.067657
      2          6           0       -1.802018    1.730820   -0.293663
      3          6           0       -2.663783    0.638460   -0.354109
      4          6           0       -2.163181   -0.618175   -0.046981
      5          6           0       -0.840971   -0.818434    0.314684
      6          6           0        0.030236    0.279807    0.374182
      7          1           0        0.186397    2.419443    0.112066
      8          1           0       -2.176193    2.720597   -0.528185
      9         14           0        1.816917    0.043522    0.849912
     10          9           0       -2.994401   -1.681705   -0.099110
     11          1           0       -3.705508    0.745154   -0.630000
     12          1           0       -0.511629   -1.825397    0.544908
     13         17           0        2.990905   -0.371422   -0.828223
     14          1           0        1.964377   -1.109446    1.758077
     15          1           0        2.357088    1.280099    1.445533
 ---------------------------------------------------------------------

 SCF Done:  E(RHF) =  -1078.81416715     A.U. after    2 cycles

 The electronic state is 1-A.
 Alpha  occ. eigenvalues -- -103.65003 -69.12041 -26.14353 -11.35197 -11.27204
 Alpha  occ. eigenvalues --  -11.27184 -11.27056 -11.26851 -11.26160 -10.68433
 Alpha  occ. eigenvalues --   -8.34125  -8.33902  -8.33900  -6.86930  -3.97735
 Alpha  occ. eigenvalues --   -3.97629  -3.97620  -1.68208  -1.16962  -1.13278
 Alpha  occ. eigenvalues --   -1.03974  -1.03653  -0.87566  -0.87394  -0.78212
 Alpha  occ. eigenvalues --   -0.75829  -0.75179  -0.71258  -0.69724  -0.63873
 Alpha  occ. eigenvalues --   -0.62706  -0.58607  -0.54559  -0.54385  -0.53042
 Alpha  occ. eigenvalues --   -0.51764  -0.50389  -0.45804  -0.45522  -0.36837
 Alpha  occ. eigenvalues --   -0.35921
 Alpha virt. eigenvalues --    0.03000   0.03920   0.04363   0.05205   0.05667
 Alpha virt. eigenvalues --    0.06090   0.07058   0.08181   0.08733   0.09029
 Alpha virt. eigenvalues --    0.09986   0.10276   0.11156   0.12600   0.13269

 Mulliken charges:
               1
     1  C    0.519259
     2  C    0.698552
     3  C    0.637015
     4  C    0.423128
     5  C    0.518857
     6  C   -0.655987
     7  H   -0.586315
     8  H   -0.427033
     9  Si   0.766969
    10  F   -0.341019
    11  H   -0.420659
    12  H   -0.545181
    13  Cl  -0.569378
    14  H   -0.007060
    15  H   -0.011146
 Sum of Mulliken charges =  -0.00000

 Dipole moment (field-independent basis, Debye):
    X=             -0.8718    Y=              2.1393    Z=              1.1463  Tot=              2.5789

 Test job not archived.
 1\1\GINC-SE105\SP\RHF\Aug-CC-pVDZ\C6H6Cl1F1Si1\OHZDE\08-Apr-2025\0\\#t
  hf aug-cc-pvdz iop(5/13=1,5/36=2,99/5=2) pseudo=read geom=check guess
 =(read,tcheck) scf=(maxcycle=1)\\title\\0,1\C,0,-0.468139,1.555817,0.0
 67657\C,0,-1.802018,1.73082,-0.293663\C,0,-2.663783,0.63846,-0.354109\
 C,0,-2.163181,-0.618175,-0.046981\C,0,-0.840971,-0.818434,0.314684\C,0
 ,0.030236,0.279807,0.374182\H,0,0.186397,2.419443,0.112066\H,0,-2.1761
 93,2.720597,-0.528185\Si,0,1.816917,0.043522,0.849912\F,0,-2.994401,-1
 .681705,-0.09911\H,0,-3.705508,0.745154,-0.63\H,0,-0.511629,-1.825397,

 Normal termination of Gaussian 16 at Tue Apr  8 23:46:14 2025.
