 Gaussian 16, Revision C.01,

 ----------------------------------------------------------------------
 #t hf aug-cc-pvdz symm=none int=(grid=ultrafine) guess=(read,tcheck) s
 table=(opt,rrhf)
 ----------------------------------------------------------------------
 -----
 title
 -----
 Symbolic Z-matrix:
 Charge =  0 Multiplicity = 1

 SCF Done:  E(RHF) =  -316.481427577     A.U. after   11 cycles

 1\1\GINC-SE322\Stability\RHF\Aug-CC-pVDZ\B1H5Si1\OHZDE\09-Apr-2025\0\\
 #t hf aug-cc-pvdz symm=none int=(grid=ultrafine) guess=(read,tcheck) s
 table=(opt,rrhf)\\title\\0,1\H,0,-2.060018,1.01863,0.002473\H,0,-2.060
 017,-1.01863,0.002473\B,0,-1.441752,0.,-0.020345\Si,0,0.573087,0.,-0.0
 05001\H,0,0.966288,-0.000006,1.433142\H,0,1.169643,-1.204573,-0.633177
 \H,0,1.169644,1.204577,-0.633168\\Version=ES64L-G16RevC.01\HF=-316.481
 4276\RMSD=3.133e-09\Dipole=-0.1821113,0.0000004,-0.059215\Quadrupole=-
 0.7605792,-0.4112855,1.1718647,0.0000011,0.0980104,-0.0000001\PG=Unkno

 Normal termination of Gaussian 16 at Wed Apr  9 00:33:44 2025.
 Gaussian 16:  ES64L-G16RevC.01  3-Jul-2019

 ----------------------------------------------------------------------
 #t hf aug-cc-pvdz iop(5/13=1,5/36=2,99/5=2) pseudo=read geom=check gue
 ss=(read,tcheck) scf=(maxcycle=1)
 ----------------------------------------------------------------------
 -----
 title
 -----
 Structure from the checkpoint file:  "BDE49_nonexpt_459_mol1.chk"
 Charge =  0 Multiplicity = 1

                         Standard orientation:
 ---------------------------------------------------------------------
 Center     Atomic      Atomic             Coordinates (Angstroms)
 Number     Number       Type             X           Y           Z
 ---------------------------------------------------------------------
      1          1           0       -2.060018    1.018630    0.002473
      2          1           0       -2.060017   -1.018630    0.002473
      3          5           0       -1.441752    0.000000   -0.020345
      4         14           0        0.573087    0.000000   -0.005001
      5          1           0        0.966288   -0.000006    1.433142
      6          1           0        1.169643   -1.204573   -0.633177
      7          1           0        1.169644    1.204577   -0.633168
 ---------------------------------------------------------------------

 SCF Done:  E(RHF) =  -316.512019142     A.U. after    2 cycles

 The electronic state is 1-A.
 Alpha  occ. eigenvalues --  -69.05031  -7.63058  -6.80559  -3.91342  -3.91318
 Alpha  occ. eigenvalues --   -3.91282  -0.73661  -0.64814  -0.51417  -0.47830
 Alpha  occ. eigenvalues --   -0.46692  -0.41708
 Alpha virt. eigenvalues --    0.02835   0.03916   0.04480   0.05442   0.07424
 Alpha virt. eigenvalues --    0.07436   0.07713   0.08284   0.09391   0.09955
 Alpha virt. eigenvalues --    0.11363   0.13224   0.14355   0.17106   0.19096

 Mulliken charges:
               1
     1  H    0.300649
     2  H    0.300650
     3  B   -0.520056
     4  Si   0.014916
     5  H   -0.033125
     6  H   -0.031518
     7  H   -0.031518
 Sum of Mulliken charges =   0.00000

 Dipole moment (field-independent basis, Debye):
    X=             -0.4775    Y=              0.0000    Z=             -0.1634  Tot=              0.5047

 Test job not archived.
 1\1\GINC-SE322\SP\RHF\Aug-CC-pVDZ\B1H5Si1\OHZDE\09-Apr-2025\0\\#t hf a
 ug-cc-pvdz iop(5/13=1,5/36=2,99/5=2) pseudo=read geom=check guess=(rea
 d,tcheck) scf=(maxcycle=1)\\title\\0,1\H,0,-2.060018,1.01863,0.002473\
 H,0,-2.060017,-1.01863,0.002473\B,0,-1.441752,0.,-0.020345\Si,0,0.5730
 87,0.,-0.005001\H,0,0.966288,-0.000006,1.433142\H,0,1.169643,-1.204573
 ,-0.633177\H,0,1.169644,1.204577,-0.633168\\Version=ES64L-G16RevC.01\S
 tate=1-A\HF=-316.5120191\RMSD=6.495e-03\Dipole=-0.1878681,0.0000004,-0
 .0642855\Quadrupole=-0.7763294,-0.4077252,1.1840546,0.0000011,0.099257

 Normal termination of Gaussian 16 at Wed Apr  9 00:33:46 2025.
