 Gaussian 16, Revision C.01,

 ----------------------------------------------------------------------
 #t hf aug-cc-pvdz symm=none int=(grid=ultrafine) guess=(read,tcheck) s
 table=(opt,rrhf)
 ----------------------------------------------------------------------
 -----
 title
 -----
 Symbolic Z-matrix:
 Charge =  0 Multiplicity = 1

 SCF Done:  E(RHF) =  -589.429862866     A.U. after   13 cycles
 Normal termination of Gaussian 16 at Tue Apr  8 22:38:27 2025.
 Gaussian 16:  ES64L-G16RevC.01  3-Jul-2019

 ----------------------------------------------------------------------
 #t hf aug-cc-pvdz iop(5/13=1,5/36=2,99/5=2) pseudo=read geom=check gue
 ss=(read,tcheck) scf=(maxcycle=1)
 ----------------------------------------------------------------------
 -----
 title
 -----
 Structure from the checkpoint file:  "BDE49_expt_1275_mol1.chk"
 Charge =  0 Multiplicity = 1

                         Standard orientation:
 ---------------------------------------------------------------------
 Center     Atomic      Atomic             Coordinates (Angstroms)
 Number     Number       Type             X           Y           Z
 ---------------------------------------------------------------------
      1          6           0        0.104572   -0.585043    0.000000
      2          7           0       -0.715545    0.662708   -0.000000
      3          9           0        1.409044   -0.349530    0.000000
      4          9           0       -0.230556   -1.264344    1.087269
      5          9           0       -0.230556   -1.264344   -1.087269
      6          9           0       -0.230556    1.376404    1.092095
      7          9           0       -0.230556    1.376404   -1.092095
 ---------------------------------------------------------------------

 SCF Done:  E(RHF) =  -589.641350009     A.U. after    2 cycles

 The electronic state is 1-A'.
 Alpha  occ. eigenvalues --  -26.21590 -26.21580 -26.21360 -26.21065 -26.21059
 Alpha  occ. eigenvalues --  -15.89225 -11.60798  -1.82158  -1.76227  -1.74722
 Alpha  occ. eigenvalues --   -1.74371  -1.70295  -1.22268  -1.04823  -0.94275
 Alpha  occ. eigenvalues --   -0.94072  -0.93426  -0.85601  -0.85497  -0.81297
 Alpha  occ. eigenvalues --   -0.81205  -0.80885  -0.79156  -0.77529  -0.77270
 Alpha  occ. eigenvalues --   -0.76425  -0.74282  -0.69513  -0.55542
 Alpha virt. eigenvalues --    0.07735   0.08196   0.08372   0.09276   0.14050
 Alpha virt. eigenvalues --    0.14193   0.15156   0.20050   0.20729   0.21644
 Alpha virt. eigenvalues --    0.22469   0.27123   0.28750   0.29862   0.29960

 Mulliken charges:
               1
     1  C    1.286728
     2  N    0.061292
     3  F   -0.232586
     4  F   -0.221230
     5  F   -0.221230
     6  F   -0.336486
     7  F   -0.336486
 Sum of Mulliken charges =   0.00000

 Dipole moment (field-independent basis, Debye):
    X=             -0.3020    Y=             -0.7176    Z=             -0.0000  Tot=              0.7785

 Test job not archived.
 1\1\GINC-SE195\SP\RHF\Aug-CC-pVDZ\C1F5N1\OHZDE\08-Apr-2025\0\\#t hf au
 g-cc-pvdz iop(5/13=1,5/36=2,99/5=2) pseudo=read geom=check guess=(read
 ,tcheck) scf=(maxcycle=1)\\title\\0,1\C,0,0.104572,-0.585043,0.\N,0,-0
 .715545,0.662708,0.\F,0,1.409044,-0.34953,0.\F,0,-0.230556,-1.264344,1
 .087269\F,0,-0.230556,-1.264344,-1.087269\F,0,-0.230556,1.376404,1.092
 095\F,0,-0.230556,1.376404,-1.092095\\Version=ES64L-G16RevC.01\State=1
 -A'\HF=-589.64135\RMSD=6.451e-03\Dipole=-0.1188253,-0.2823118,0.\Quadr
 upole=0.5814539,-0.2840112,-0.2974426,-0.1311621,0.,0.\PG=CS [SG(C1F1N

 Normal termination of Gaussian 16 at Tue Apr  8 22:38:30 2025.
