 Gaussian 16, Revision C.01,

 ----------------------------------------------------------------------
 #t hf aug-cc-pvdz symm=none int=(grid=ultrafine) guess=(read,tcheck) s
 table=(opt,rrhf)
 ----------------------------------------------------------------------
 -----
 title
 -----
 Symbolic Z-matrix:
 Charge =  0 Multiplicity = 1

 SCF Done:  E(RHF) =  -350.090932817     A.U. after   15 cycles
 Normal termination of Gaussian 16 at Wed Apr  9 00:39:04 2025.
 Gaussian 16:  ES64L-G16RevC.01  3-Jul-2019

 ----------------------------------------------------------------------
 #t hf aug-cc-pvdz iop(5/13=1,5/36=2,99/5=2) pseudo=read geom=check gue
 ss=(read,tcheck) scf=(maxcycle=1)
 ----------------------------------------------------------------------
 -----
 title
 -----
 Structure from the checkpoint file:  "BDE49_nonexpt_620_mol1.chk"
 Charge =  0 Multiplicity = 1

                         Standard orientation:
 ---------------------------------------------------------------------
 Center     Atomic      Atomic             Coordinates (Angstroms)
 Number     Number       Type             X           Y           Z
 ---------------------------------------------------------------------
      1          6           0        0.230895    0.061266   -0.019712
      2          6           0       -0.431683   -1.148599   -0.258307
      3          6           0       -1.823517   -1.206272   -0.249278
      4          6           0       -2.577607   -0.064155    0.000790
      5          6           0       -1.922381    1.140244    0.250769
      6          6           0       -0.533614    1.203324    0.250118
      7          5           0        2.364182    1.241161   -0.534149
      8          1           0       -2.316529   -2.152323   -0.443415
      9          1           0       -3.660209   -0.112121    0.009309
     10          1           0       -2.494406    2.036652    0.462781
     11          1           0       -0.032296    2.136957    0.469189
     12          1           0        0.132591   -2.047813   -0.468712
     13          7           0        1.659958    0.138154   -0.034628
     14          6           0        2.374715   -1.047723    0.459973
     15          1           0        2.314819   -1.882734   -0.244343
     16          1           0        1.960085   -1.374213    1.417388
     17          1           0        3.423597   -0.791062    0.591950
     18          1           0        1.776348    2.161007   -1.003511
     19          1           0        3.554532    1.224259   -0.483619
 ---------------------------------------------------------------------

 SCF Done:  E(RHF) =  -350.198178041     A.U. after    2 cycles

 The electronic state is 1-A.
 Alpha  occ. eigenvalues --  -15.63916 -11.28908 -11.27072 -11.24842 -11.24760
 Alpha  occ. eigenvalues --  -11.24291 -11.24092 -11.24021  -7.60011  -1.20750
 Alpha  occ. eigenvalues --   -1.12790  -1.01384  -1.00372  -0.91997  -0.83664
 Alpha  occ. eigenvalues --   -0.81544  -0.73262  -0.69054  -0.65046  -0.62867
 Alpha  occ. eigenvalues --   -0.62136  -0.60465  -0.59053  -0.56451  -0.54501
 Alpha  occ. eigenvalues --   -0.51774  -0.50836  -0.49662  -0.46587  -0.42369
 Alpha  occ. eigenvalues --   -0.34316  -0.31409
 Alpha virt. eigenvalues --    0.03206   0.03837   0.03912   0.04600   0.05450
 Alpha virt. eigenvalues --    0.05560   0.06740   0.07426   0.07635   0.07696
 Alpha virt. eigenvalues --    0.08897   0.10479   0.10836   0.11254   0.11770

 Mulliken charges:
               1
     1  C    0.414535
     2  C    0.442214
     3  C    0.540664
     4  C    0.582331
     5  C    0.501963
     6  C    0.699936
     7  B   -0.877832
     8  H   -0.454786
     9  H   -0.454760
    10  H   -0.438494
    11  H   -0.652154
    12  H   -0.616573
    13  N   -0.675977
    14  C    0.818229
    15  H   -0.097624
    16  H   -0.112747
    17  H   -0.363393
    18  H    0.369417
    19  H    0.375051
 Sum of Mulliken charges =  -0.00000

 Dipole moment (field-independent basis, Debye):
    X=             -0.1221    Y=             -1.1379    Z=              0.5216  Tot=              1.2577

 Test job not archived.
 1\1\GINC-SE322\SP\RHF\Aug-CC-pVDZ\C7H10B1N1\OHZDE\09-Apr-2025\0\\#t hf
  aug-cc-pvdz iop(5/13=1,5/36=2,99/5=2) pseudo=read geom=check guess=(r
 ead,tcheck) scf=(maxcycle=1)\\title\\0,1\C,0,0.230895,0.061266,-0.0197
 12\C,0,-0.431683,-1.148599,-0.258307\C,0,-1.823517,-1.206272,-0.249278
 \C,0,-2.577607,-0.064155,0.00079\C,0,-1.922381,1.140244,0.250769\C,0,-
 0.533614,1.203324,0.250118\B,0,2.364182,1.241161,-0.534149\H,0,-2.3165
 29,-2.152323,-0.443415\H,0,-3.660209,-0.112121,0.009309\H,0,-2.494406,
 2.036652,0.462781\H,0,-0.032296,2.136957,0.469189\H,0,0.132591,-2.0478

 Normal termination of Gaussian 16 at Wed Apr  9 00:39:15 2025.
