 Gaussian 16, Revision C.01,

 ----------------------------------------------------------------------
 #t hf aug-cc-pvdz symm=none int=(grid=ultrafine) guess=(read,tcheck) s
 table=opt
 ----------------------------------------------------------------------
 -----
 title
 -----
 Symbolic Z-matrix:
 Charge =  0 Multiplicity = 2

 SCF Done:  E(UHF) =  -523.701309899     A.U. after   15 cycles
 Normal termination of Gaussian 16 at Wed Apr  9 00:45:32 2025.
 Gaussian 16:  ES64L-G16RevC.01  3-Jul-2019

 ----------------------------------------------------------------------
 #t hf aug-cc-pvdz iop(5/13=1,5/36=2,99/5=2) pseudo=read geom=check gue
 ss=(read,tcheck) scf=(maxcycle=1)
 ----------------------------------------------------------------------
 -----
 title
 -----
 Structure from the checkpoint file:  "BDE49_nonexpt_808_mol2.chk"
 Charge =  0 Multiplicity = 2

                         Standard orientation:
 ---------------------------------------------------------------------
 Center     Atomic      Atomic             Coordinates (Angstroms)
 Number     Number       Type             X           Y           Z
 ---------------------------------------------------------------------
      1          6           0        0.640483   -0.040736   -0.385878
      2          6           0       -0.109697   -1.293825    0.117148
      3          6           0       -1.610640   -1.235114   -0.209258
      4          6           0       -2.259062    0.048311    0.326817
      5          6           0       -1.526505    1.298674   -0.177325
      6          6           0       -0.024808    1.249726    0.154886
      7          1           0        0.015875   -1.378375    1.204931
      8          1           0        0.330109   -2.198333   -0.315362
      9          1           0       -2.115886   -2.115585    0.201455
     10          1           0       -1.742224   -1.279154   -1.298149
     11          1           0       -2.234132    0.033981    1.424305
     12          1           0       -3.315120    0.087228    0.040775
     13          1           0       -1.971806    2.201091    0.254894
     14          1           0       -1.650312    1.378306   -1.264957
     15          1           0        0.475086    2.134825   -0.251053
     16          1           0        0.101301    1.293122    1.244597
     17         14           0        2.496879   -0.088670    0.021670
     18          1           0        0.569320   -0.019940   -1.483029
     19          1           0        2.725074   -0.169957    1.491530
     20          1           0        3.197787    1.111964   -0.511664
 ---------------------------------------------------------------------

 SCF Done:  E(UHF) =  -523.791117242     A.U. after    2 cycles

 The electronic state is 2-A.
 Alpha  occ. eigenvalues --  -69.06052 -11.23358 -11.23262 -11.22834 -11.22776
 Alpha  occ. eigenvalues --  -11.22731 -11.22645  -6.81443  -3.92783  -3.91887
 Alpha  occ. eigenvalues --   -3.91871  -1.10355  -0.99783  -0.99587  -0.83334
 Alpha  occ. eigenvalues --   -0.83014  -0.75580  -0.68934  -0.63904  -0.60702
 Alpha  occ. eigenvalues --   -0.60300  -0.58569  -0.53191  -0.52644  -0.50336
 Alpha  occ. eigenvalues --   -0.48865  -0.48764  -0.46841  -0.45523  -0.43496
 Alpha  occ. eigenvalues --   -0.40445  -0.31282
 Alpha virt. eigenvalues --    0.03390   0.04231   0.04329   0.04396   0.05759
 Alpha virt. eigenvalues --    0.06240   0.06537   0.06690   0.06950   0.08091
 Alpha virt. eigenvalues --    0.08758   0.09000   0.09290   0.09465   0.11048

  Beta  occ. eigenvalues --  -69.05496 -11.23280 -11.23259 -11.22787 -11.22744
  Beta  occ. eigenvalues --  -11.22733 -11.22645  -6.80613  -3.91502  -3.91490
  Beta  occ. eigenvalues --   -3.90634  -1.10234  -0.99695  -0.99374  -0.83210
  Beta  occ. eigenvalues --   -0.82690  -0.75481  -0.66286  -0.63052  -0.60646
  Beta  occ. eigenvalues --   -0.60242  -0.57911  -0.53064  -0.52308  -0.50039
  Beta  occ. eigenvalues --   -0.48752  -0.48542  -0.46201  -0.45448  -0.43356
  Beta  occ. eigenvalues --   -0.39585
  Beta virt. eigenvalues --    0.03150   0.03782   0.04302   0.04398   0.05188
  Beta virt. eigenvalues --    0.05882   0.06312   0.06696   0.06825   0.08064
  Beta virt. eigenvalues --    0.08431   0.08879   0.09080   0.09425   0.09964

 Mulliken charges and spin densities:
               1          2
     1  C    0.018057  -0.082172
     2  C    0.105090   0.068878
     3  C    0.310452  -0.001807
     4  C    0.254222   0.000932
     5  C    0.280611   0.009178
     6  C    0.251181  -0.019064
     7  H   -0.096485  -0.002648
     8  H   -0.168085  -0.002854
     9  H   -0.110808  -0.000898
    10  H   -0.091111   0.002070
    11  H   -0.091794   0.000391
    12  H   -0.109040  -0.000517
    13  H   -0.104155   0.000718
    14  H   -0.085874   0.000427
    15  H   -0.177419  -0.008189
    16  H   -0.115581  -0.008821
    17  Si  -0.197212   1.028535
    18  H   -0.105772  -0.010116
    19  H    0.120320   0.008795
    20  H    0.113404   0.017163
 Sum of Mulliken charges =  -0.00000   1.00000

 Dipole moment (field-independent basis, Debye):
    X=             -1.0611    Y=              0.0096    Z=             -0.2337  Tot=              1.0865
                          Isotropic Fermi Contact Couplings
        Atom                 a.u.       MegaHertz       Gauss      10(-4) cm-1
     1  C(13)              0.00977      10.98462       3.91959       3.66408
     2  C(13)              0.00101       1.13471       0.40489       0.37850
     3  C(13)             -0.00121      -1.36514      -0.48711      -0.45536
     4  C(13)             -0.00025      -0.28566      -0.10193      -0.09529
     5  C(13)              0.00697       7.83512       2.79576       2.61351
     6  C(13)              0.02012      22.62414       8.07286       7.54660
     7  H(1)              -0.00011      -0.49490      -0.17659      -0.16508
     8  H(1)              -0.00026      -1.16496      -0.41569      -0.38859

 Normal termination of Gaussian 16 at Wed Apr  9 00:45:43 2025.
