 Gaussian 16, Revision C.01,

 ----------------------------------------------------------------------
 #t hf aug-cc-pvdz symm=none int=(grid=ultrafine) guess=(read,tcheck) s
 table=(opt,rrhf)
 ----------------------------------------------------------------------
 -----
 title
 -----
 Symbolic Z-matrix:
 Charge =  0 Multiplicity = 1

 SCF Done:  E(RHF) =  -774.640605217     A.U. after   15 cycles
 Normal termination of Gaussian 16 at Tue Apr  8 23:34:56 2025.
 Gaussian 16:  ES64L-G16RevC.01  3-Jul-2019

 ----------------------------------------------------------------------
 #t hf aug-cc-pvdz iop(5/13=1,5/36=2,99/5=2) pseudo=read geom=check gue
 ss=(read,tcheck) scf=(maxcycle=1)
 ----------------------------------------------------------------------
 -----
 title
 -----
 Structure from the checkpoint file:  "BDE49_nonexpt_1505_mol1.chk"
 Charge =  0 Multiplicity = 1

                         Standard orientation:
 ---------------------------------------------------------------------
 Center     Atomic      Atomic             Coordinates (Angstroms)
 Number     Number       Type             X           Y           Z
 ---------------------------------------------------------------------
      1          8           0       -1.613210   -1.013278    0.286516
      2          6           0       -2.713216   -0.261222    0.511444
      3          6           0       -0.690520   -0.212472   -0.362790
      4          6           0       -2.539441    1.004902    0.039739
      5          6           0       -1.230521    1.036781   -0.524470
      6          1           0       -3.254661    1.810656    0.086779
      7          1           0       -3.529981   -0.757683    1.008787
      8          1           0       -0.731495    1.873146   -0.985397
      9          7           0        2.085262   -0.019965    0.117342
     10          8           0        1.886719   -0.153427    1.511701
     11          8           0        1.926670    1.364215   -0.211985
     12          1           0        2.826143    1.705580   -0.126723
     13          1           0        1.004459    0.217517    1.691682
     14         15           0        0.893607   -1.021632   -0.746071
     15          1           0        1.125352   -0.372987   -1.978864
 ---------------------------------------------------------------------

 SCF Done:  E(RHF) =  -774.798424530     A.U. after    2 cycles

 The electronic state is 1-A.
 Alpha  occ. eigenvalues --  -81.29821 -20.65038 -20.62233 -20.61924 -15.74051
 Alpha  occ. eigenvalues --  -11.31835 -11.30511 -11.26168 -11.25271  -7.79840
 Alpha  occ. eigenvalues --   -4.93953  -4.93793  -4.93489  -1.42997  -1.41901
 Alpha  occ. eigenvalues --   -1.31403  -1.09149  -1.03070  -1.00562  -0.83400
 Alpha  occ. eigenvalues --   -0.82553  -0.77994  -0.75658  -0.72560  -0.67023
 Alpha  occ. eigenvalues --   -0.66343  -0.64802  -0.64499  -0.60316  -0.58925
 Alpha  occ. eigenvalues --   -0.57222  -0.54283  -0.52246  -0.50610  -0.42176
 Alpha  occ. eigenvalues --   -0.41654  -0.37455  -0.33704
 Alpha virt. eigenvalues --    0.03020   0.03942   0.04542   0.05513   0.06148
 Alpha virt. eigenvalues --    0.06393   0.07291   0.08651   0.10281   0.11335
 Alpha virt. eigenvalues --    0.11999   0.12536   0.13146   0.14015   0.14175

 Mulliken charges:
               1
     1  O   -0.517786
     2  C    0.592955
     3  C   -0.240234
     4  C    0.407538
     5  C    0.642208
     6  H   -0.306569
     7  H   -0.325898
     8  H   -0.380142
     9  N   -0.040306
    10  O   -0.471069
    11  O   -0.543253
    12  H    0.237378
    13  H    0.214466
    14  P    0.582950
    15  H    0.147764
 Sum of Mulliken charges =   0.00000

 Dipole moment (field-independent basis, Debye):
    X=             -1.9227    Y=              2.3705    Z=             -0.7847  Tot=              3.1515

 Test job not archived.
 1\1\GINC-SE073\SP\RHF\Aug-CC-pVDZ\C4H6N1O3P1\OHZDE\08-Apr-2025\0\\#t h
 f aug-cc-pvdz iop(5/13=1,5/36=2,99/5=2) pseudo=read geom=check guess=(
 read,tcheck) scf=(maxcycle=1)\\title\\0,1\O,0,-1.61321,-1.013278,0.286
 516\C,0,-2.713216,-0.261222,0.511444\C,0,-0.69052,-0.212472,-0.36279\C
 ,0,-2.539441,1.004902,0.039739\C,0,-1.230521,1.036781,-0.52447\H,0,-3.
 254661,1.810656,0.086779\H,0,-3.529981,-0.757683,1.008787\H,0,-0.73149
 5,1.873146,-0.985397\N,0,2.085262,-0.019965,0.117342\O,0,1.886719,-0.1
 53427,1.511701\O,0,1.92667,1.364215,-0.211985\H,0,2.826143,1.70558,-0.

 Normal termination of Gaussian 16 at Tue Apr  8 23:35:02 2025.
