 Gaussian 16, Revision C.01,

 ----------------------------------------------------------------------
 #t hf aug-cc-pvdz symm=none int=(grid=ultrafine) guess=(read,tcheck) s
 table=(opt,rrhf)
 ----------------------------------------------------------------------
 -----
 title
 -----
 Symbolic Z-matrix:
 Charge =  0 Multiplicity = 1

 SCF Done:  E(RHF) =  -152.938821506     A.U. after   12 cycles
 Normal termination of Gaussian 16 at Tue Apr  8 22:59:36 2025.
 Gaussian 16:  ES64L-G16RevC.01  3-Jul-2019

 ----------------------------------------------------------------------
 #t hf aug-cc-pvdz iop(5/13=1,5/36=2,99/5=2) pseudo=read geom=check gue
 ss=(read,tcheck) scf=(maxcycle=1)
 ----------------------------------------------------------------------
 -----
 title
 -----
 Structure from the checkpoint file:  "BDE49_expt_203_mol1.chk"
 Charge =  0 Multiplicity = 1

                         Standard orientation:
 ---------------------------------------------------------------------
 Center     Atomic      Atomic             Coordinates (Angstroms)
 Number     Number       Type             X           Y           Z
 ---------------------------------------------------------------------
      1          6           0       -0.235515    0.397239   -0.000006
      2          8           0       -1.233093   -0.276593   -0.000000
      3          6           0        1.168546   -0.147779    0.000002
      4          1           0       -0.304875    1.508935    0.000015
      5          1           0        1.155793   -1.237611   -0.000008
      6          1           0        1.707815    0.222321    0.878897
      7          1           0        1.707831    0.222337   -0.878877
 ---------------------------------------------------------------------

 SCF Done:  E(RHF) =  -152.989419797     A.U. after    2 cycles

 The electronic state is 1-A.
 Alpha  occ. eigenvalues --  -20.57629 -11.35021 -11.25414  -1.36408  -1.01603
 Alpha  occ. eigenvalues --   -0.80407  -0.68727  -0.63853  -0.61026  -0.56643
 Alpha  occ. eigenvalues --   -0.52022  -0.43961
 Alpha virt. eigenvalues --    0.03182   0.04704   0.05294   0.06548   0.10071
 Alpha virt. eigenvalues --    0.10515   0.11809   0.14369   0.15294   0.15416
 Alpha virt. eigenvalues --    0.15489   0.16305   0.20274   0.25275   0.25373

 Mulliken charges:
               1
     1  C    0.441783
     2  O   -0.436202
     3  C    0.121451
     4  H   -0.088678
     5  H   -0.046100
     6  H    0.003873
     7  H    0.003874
 Sum of Mulliken charges =  -0.00000

 Dipole moment (field-independent basis, Debye):
    X=              3.0806    Y=              1.5090    Z=              0.0000  Tot=              3.4303

 Test job not archived.
 1\1\GINC-SE036\SP\RHF\Aug-CC-pVDZ\C2H4O1\OHZDE\08-Apr-2025\0\\#t hf au
 g-cc-pvdz iop(5/13=1,5/36=2,99/5=2) pseudo=read geom=check guess=(read
 ,tcheck) scf=(maxcycle=1)\\title\\0,1\C,0,-0.235515,0.397239,-0.000006
 \O,0,-1.233093,-0.276593,0.\C,0,1.168546,-0.147779,0.000002\H,0,-0.304
 875,1.508935,0.000015\H,0,1.155793,-1.237611,-0.000008\H,0,1.707815,0.
 222321,0.878897\H,0,1.707831,0.222337,-0.878877\\Version=ES64L-G16RevC
 .01\State=1-A\HF=-152.9894198\RMSD=3.421e-03\Dipole=1.2120004,0.593702
 2,0.0000007\Quadrupole=-1.880142,1.0124039,0.8677382,-0.9534368,0.0000

 Normal termination of Gaussian 16 at Tue Apr  8 22:59:37 2025.
