 Gaussian 16, Revision C.01,

 ----------------------------------------------------------------------
 #t hf aug-cc-pvdz symm=none int=(grid=ultrafine) guess=(read,tcheck) s
 table=opt
 ----------------------------------------------------------------------
 -----
 title
 -----
 Symbolic Z-matrix:
 Charge =  0 Multiplicity = 2

 SCF Done:  E(UHF) =  -429.872389963     A.U. after   16 cycles
 Normal termination of Gaussian 16 at Tue Apr  8 23:53:24 2025.
 Gaussian 16:  ES64L-G16RevC.01  3-Jul-2019

 ----------------------------------------------------------------------
 #t hf aug-cc-pvdz iop(5/13=1,5/36=2,99/5=2) pseudo=read geom=check gue
 ss=(read,tcheck) scf=(maxcycle=1)
 ----------------------------------------------------------------------
 -----
 title
 -----
 Structure from the checkpoint file:  "BDE49_nonexpt_1963_mol2.chk"
 Charge =  0 Multiplicity = 2

                         Standard orientation:
 ---------------------------------------------------------------------
 Center     Atomic      Atomic             Coordinates (Angstroms)
 Number     Number       Type             X           Y           Z
 ---------------------------------------------------------------------
      1         14           0       -1.507551   -0.124251   -0.059398
      2          5           0        0.481580    0.108115    0.001832
      3          1           0       -2.410579    0.971353    0.363372
      4          1           0       -2.084255   -1.447158    0.281012
      5          8           0        0.912351    1.401825    0.007228
      6          6           0        1.474896   -1.117513    0.006328
      7          1           0        1.547772   -1.526507    1.022476
      8          1           0        2.491710   -0.850859   -0.308892
      9          1           0        1.131593   -1.941055   -0.626465
     10          1           0        1.873385    1.483649   -0.004884
 ---------------------------------------------------------------------

 SCF Done:  E(UHF) =  -429.937897190     A.U. after    2 cycles

 The electronic state is 2-A.
 Alpha  occ. eigenvalues --  -69.04696 -20.59365 -11.21740  -7.64475  -6.80367
 Alpha  occ. eigenvalues --   -3.91790  -3.90866  -3.90797  -1.33568  -0.95247
 Alpha  occ. eigenvalues --   -0.78299  -0.68791  -0.64305  -0.58347  -0.56970
 Alpha  occ. eigenvalues --   -0.54365  -0.52066  -0.47417  -0.41275  -0.29349
 Alpha virt. eigenvalues --    0.03030   0.04436   0.05417   0.05482   0.06706
 Alpha virt. eigenvalues --    0.07490   0.07892   0.08641   0.09414   0.09796
 Alpha virt. eigenvalues --    0.10135   0.10209   0.11186   0.13627   0.15827

  Beta  occ. eigenvalues --  -69.04177 -20.59255 -11.21748  -7.64546  -6.79647
  Beta  occ. eigenvalues --   -3.90475  -3.90436  -3.89623  -1.33289  -0.95200
  Beta  occ. eigenvalues --   -0.77863  -0.64935  -0.64107  -0.57670  -0.56756
  Beta  occ. eigenvalues --   -0.53863  -0.51957  -0.47302  -0.40588
  Beta virt. eigenvalues --    0.03076   0.03227   0.04601   0.05512   0.05913
  Beta virt. eigenvalues --    0.06807   0.07588   0.08080   0.09738   0.09811
  Beta virt. eigenvalues --    0.10118   0.10565   0.10970   0.11704   0.15787

 Mulliken charges and spin densities:
               1          2
     1  Si  -0.067541   1.087615
     2  B    0.671740  -0.008909
     3  H   -0.044183  -0.052980
     4  H   -0.012661  -0.065329
     5  O   -0.466652   0.047379
     6  C    0.459221  -0.003550
     7  H   -0.151637  -0.000335
     8  H   -0.332857   0.003307
     9  H   -0.236518  -0.005519
    10  H    0.181088  -0.001679
 Sum of Mulliken charges =  -0.00000   1.00000

 Dipole moment (field-independent basis, Debye):
    X=              2.1727    Y=             -0.6564    Z=              0.1683  Tot=              2.2759
                          Isotropic Fermi Contact Couplings
        Atom                 a.u.       MegaHertz       Gauss      10(-4) cm-1
     1  Si(29)             0.31222    -277.47609     -99.01037     -92.55606
     2  B(11)             -0.01494     -21.42583      -7.64527      -7.14689
     3  H(1)              -0.01134     -50.67679     -18.08274     -16.90396
     4  H(1)              -0.01181     -52.77441     -18.83122     -17.60365
     5  O(17)              0.00727      -4.40418      -1.57152      -1.46908
     6  C(13)             -0.00273      -3.06817      -1.09480      -1.02343
     7  H(1)               0.00136       6.09703       2.17557       2.03375
     8  H(1)               0.00060       2.69961       0.96329       0.90049

 1\1\GINC-SE339\SP\UHF\Aug-CC-pVDZ\C1H6B1O1Si1(2)\OHZDE\08-Apr-2025\0\\
 #t hf aug-cc-pvdz iop(5/13=1,5/36=2,99/5=2) pseudo=read geom=check gue
 ss=(read,tcheck) scf=(maxcycle=1)\\title\\0,2\Si,0,-1.507551,-0.124251
 ,-0.059398\B,0,0.48158,0.108115,0.001832\H,0,-2.410579,0.971353,0.3633
 72\H,0,-2.084255,-1.447158,0.281012\O,0,0.912351,1.401825,0.007228\C,0
 ,1.474896,-1.117513,0.006328\H,0,1.547772,-1.526507,1.022476\H,0,2.491
 71,-0.850859,-0.308892\H,0,1.131593,-1.941055,-0.626465\H,0,1.873385,1
 .483649,-0.004884\\Version=ES64L-G16RevC.01\State=2-A\HF=-429.9378972\

 Normal termination of Gaussian 16 at Tue Apr  8 23:53:27 2025.
