 Gaussian 16, Revision C.01,

 ----------------------------------------------------------------------
 #t hf aug-cc-pvdz symm=none int=(grid=ultrafine) guess=(read,tcheck) s
 table=(opt,rrhf)
 ----------------------------------------------------------------------
 -----
 title
 -----
 Symbolic Z-matrix:
 Charge =  0 Multiplicity = 1

 SCF Done:  E(RHF) =  -554.949605875     A.U. after   12 cycles
 Normal termination of Gaussian 16 at Tue Apr  8 23:49:04 2025.
 Gaussian 16:  ES64L-G16RevC.01  3-Jul-2019

 ----------------------------------------------------------------------
 #t hf aug-cc-pvdz iop(5/13=1,5/36=2,99/5=2) pseudo=read geom=check gue
 ss=(read,tcheck) scf=(maxcycle=1)
 ----------------------------------------------------------------------
 -----
 title
 -----
 Structure from the checkpoint file:  "BDE49_nonexpt_1866_mol1.chk"
 Charge =  0 Multiplicity = 1

                         Standard orientation:
 ---------------------------------------------------------------------
 Center     Atomic      Atomic             Coordinates (Angstroms)
 Number     Number       Type             X           Y           Z
 ---------------------------------------------------------------------
      1          6           0        0.839727    0.082736    0.371294
      2         14           0       -0.856901   -0.653156   -0.090942
      3          8           0        0.859230    1.370075   -0.242643
      4          1           0        1.618115    1.872437    0.075214
      5          8           0       -2.008700    0.509459    0.131492
      6          1           0       -1.203749   -1.768179    0.812308
      7          1           0       -0.773143   -1.122785   -1.491573
      8          1           0       -1.753421    1.392033   -0.154013
      9          8           0        1.830013   -0.791486   -0.134447
     10          1           0        2.669094   -0.624867    0.308465
     11          1           0        0.957015    0.194739    1.459804
 ---------------------------------------------------------------------

 SCF Done:  E(RHF) =  -555.067201227     A.U. after    2 cycles

 The electronic state is 1-A.
 Alpha  occ. eigenvalues --  -69.08726 -20.59490 -20.59405 -20.56538 -11.33890
 Alpha  occ. eigenvalues --   -6.83624  -3.94549  -3.94423  -3.94369  -1.37273
 Alpha  occ. eigenvalues --   -1.30937  -1.29539  -0.91698  -0.74863  -0.74045
 Alpha  occ. eigenvalues --   -0.73792  -0.67032  -0.60588  -0.59698  -0.56242
 Alpha  occ. eigenvalues --   -0.55347  -0.51356  -0.50364  -0.46416  -0.43836
 Alpha virt. eigenvalues --    0.02406   0.04548   0.04848   0.05343   0.06867
 Alpha virt. eigenvalues --    0.07799   0.07923   0.08691   0.10203   0.12330
 Alpha virt. eigenvalues --    0.13346   0.15392   0.15979   0.17557   0.19200

 Mulliken charges:
               1
     1  C    0.812913
     2  Si   0.990686
     3  O   -0.575567
     4  H    0.126406
     5  O   -0.797419
     6  H   -0.039985
     7  H   -0.020378
     8  H    0.179992
     9  O   -0.547986
    10  H    0.146846
    11  H   -0.275509
 Sum of Mulliken charges =  -0.00000

 Dipole moment (field-independent basis, Debye):
    X=              2.8948    Y=              1.5140    Z=              1.8203  Tot=              3.7397

 Test job not archived.
 1\1\GINC-SE094\SP\RHF\Aug-CC-pVDZ\C1H6O3Si1\OHZDE\08-Apr-2025\0\\#t hf
  aug-cc-pvdz iop(5/13=1,5/36=2,99/5=2) pseudo=read geom=check guess=(r
 ead,tcheck) scf=(maxcycle=1)\\title\\0,1\C,0,0.839727,0.082736,0.37129
 4\Si,0,-0.856901,-0.653156,-0.090942\O,0,0.85923,1.370075,-0.242643\H,
 0,1.618115,1.872437,0.075214\O,0,-2.0087,0.509459,0.131492\H,0,-1.2037
 49,-1.768179,0.812308\H,0,-0.773143,-1.122785,-1.491573\H,0,-1.753421,
 1.392033,-0.154013\O,0,1.830013,-0.791486,-0.134447\H,0,2.669094,-0.62
 4867,0.308465\H,0,0.957015,0.194739,1.459804\\Version=ES64L-G16RevC.01

 Normal termination of Gaussian 16 at Tue Apr  8 23:49:07 2025.
