 Gaussian 16, Revision C.01,

 ----------------------------------------------------------------------
 #t hf aug-cc-pvdz symm=none int=(grid=ultrafine) guess=(read,tcheck) s
 table=(opt,rrhf)
 ----------------------------------------------------------------------
 -----
 title
 -----
 Symbolic Z-matrix:
 Charge =  0 Multiplicity = 1

 SCF Done:  E(RHF) =  -685.936073706     A.U. after   16 cycles
 Normal termination of Gaussian 16 at Tue Apr  8 23:32:00 2025.
 Gaussian 16:  ES64L-G16RevC.01  3-Jul-2019

 ----------------------------------------------------------------------
 #t hf aug-cc-pvdz iop(5/13=1,5/36=2,99/5=2) pseudo=read geom=check gue
 ss=(read,tcheck) scf=(maxcycle=1)
 ----------------------------------------------------------------------
 -----
 title
 -----
 Structure from the checkpoint file:  "BDE49_nonexpt_1431_mol1.chk"
 Charge =  0 Multiplicity = 1

                         Standard orientation:
 ---------------------------------------------------------------------
 Center     Atomic      Atomic             Coordinates (Angstroms)
 Number     Number       Type             X           Y           Z
 ---------------------------------------------------------------------
      1          6           0       -0.564610    1.403942    0.000002
      2          6           0        0.810557    1.254028    0.000003
      3          6           0        1.404077   -0.020953    0.000000
      4          6           0       -1.399006    0.275664    0.000000
      5          6           0       -0.830856   -0.998866   -0.000003
      6          6           0        0.559691   -1.131845   -0.000004
      7          1           0       -1.025976    2.384226    0.000004
      8          1           0        1.435532    2.140100    0.000005
      9         15           0        3.224466   -0.315278    0.000000
     10          1           0        0.987956   -2.128561   -0.000007
     11          1           0       -1.448008   -1.887106   -0.000006
     12          8           0       -2.735138    0.531261    0.000000
     13          6           0       -3.636839   -0.566953   -0.000003
     14          1           0       -3.512921   -1.188009   -0.894101
     15          1           0       -4.634765   -0.131832   -0.000003
     16          1           0       -3.512922   -1.188013    0.894092
     17          1           0        3.583564    0.594062    1.030367
     18          1           0        3.583570    0.594109   -1.030322
 ---------------------------------------------------------------------

 SCF Done:  E(RHF) =  -686.062273366     A.U. after    2 cycles

 The electronic state is 1-A.
 Alpha  occ. eigenvalues --  -81.25482 -20.60622 -11.32011 -11.30220 -11.25710
 Alpha  occ. eigenvalues --  -11.25640 -11.24568 -11.24489 -11.24257  -7.75812
 Alpha  occ. eigenvalues --   -4.89869  -4.89720  -4.89543  -1.37645  -1.14461
 Alpha  occ. eigenvalues --   -1.02726  -1.01731  -0.94952  -0.84488  -0.82853
 Alpha  occ. eigenvalues --   -0.77058  -0.73078  -0.68089  -0.67146  -0.64010
 Alpha  occ. eigenvalues --   -0.61958  -0.59743  -0.59156  -0.54282  -0.53599
 Alpha  occ. eigenvalues --   -0.51992  -0.49337  -0.48087  -0.47191  -0.35519
 Alpha  occ. eigenvalues --   -0.35006  -0.32238
 Alpha virt. eigenvalues --    0.03171   0.03962   0.04290   0.05592   0.05613
 Alpha virt. eigenvalues --    0.06078   0.07197   0.07326   0.08566   0.08895
 Alpha virt. eigenvalues --    0.09178   0.10180   0.11189   0.11705   0.12272

 Mulliken charges:
               1
     1  C    0.557274
     2  C    1.117045
     3  C   -0.385238
     4  C    0.441467
     5  C    0.593254
     6  C    0.270656
     7  H   -0.575480
     8  H   -0.516079
     9  P   -0.187250
    10  H   -0.494414
    11  H   -0.730173
    12  O   -0.687470
    13  C    0.852506
    14  H   -0.087012
    15  H   -0.301222
    16  H   -0.087013
    17  H    0.109577
    18  H    0.109573
 Sum of Mulliken charges =   0.00000

 Dipole moment (field-independent basis, Debye):
    X=             -1.7552    Y=             -0.5985    Z=              0.0000  Tot=              1.8545

 Test job not archived.
 1\1\GINC-SE398\SP\RHF\Aug-CC-pVDZ\C7H9O1P1\OHZDE\08-Apr-2025\0\\#t hf
 aug-cc-pvdz iop(5/13=1,5/36=2,99/5=2) pseudo=read geom=check guess=(re
 ad,tcheck) scf=(maxcycle=1)\\title\\0,1\C,0,-0.56461,1.403942,0.000002
 \C,0,0.810557,1.254028,0.000003\C,0,1.404077,-0.020953,0.\C,0,-1.39900
 6,0.275664,0.\C,0,-0.830856,-0.998866,-0.000003\C,0,0.559691,-1.131845
 ,-0.000004\H,0,-1.025976,2.384226,0.000004\H,0,1.435532,2.1401,0.00000
 5\P,0,3.224466,-0.315278,0.\H,0,0.987956,-2.128561,-0.000007\H,0,-1.44
 8008,-1.887106,-0.000006\O,0,-2.735138,0.531261,0.\C,0,-3.636839,-0.56

 Normal termination of Gaussian 16 at Tue Apr  8 23:32:09 2025.
