 Gaussian 16, Revision C.01,

 ----------------------------------------------------------------------
 #t hf aug-cc-pvdz symm=none int=(grid=ultrafine) guess=(read,tcheck) s
 table=(opt,rrhf)
 ----------------------------------------------------------------------
 -----
 title
 -----
 Symbolic Z-matrix:
 Charge =  0 Multiplicity = 1

 SCF Done:  E(RHF) =  -348.457870598     A.U. after   12 cycles
 Normal termination of Gaussian 16 at Wed Apr  9 00:47:55 2025.
 Gaussian 16:  ES64L-G16RevC.01  3-Jul-2019

 ----------------------------------------------------------------------
 #t hf aug-cc-pvdz iop(5/13=1,5/36=2,99/5=2) pseudo=read geom=check gue
 ss=(read,tcheck) scf=(maxcycle=1)
 ----------------------------------------------------------------------
 -----
 title
 -----
 Structure from the checkpoint file:  "BDE49_nonexpt_8_mol1.chk"
 Charge =  0 Multiplicity = 1

                         Standard orientation:
 ---------------------------------------------------------------------
 Center     Atomic      Atomic             Coordinates (Angstroms)
 Number     Number       Type             X           Y           Z
 ---------------------------------------------------------------------
      1          5           0        1.084936   -0.000559    0.550190
      2          5           0       -0.561591   -0.000043    0.089221
      3          9           0        2.033746    0.000106   -0.382019
      4          9           0       -1.242954    1.126839   -0.080157
      5          9           0       -1.243556   -1.126505   -0.080529
      6          1           0        1.458153   -0.000953    1.687295
 ---------------------------------------------------------------------

 SCF Done:  E(RHF) =  -348.599853534     A.U. after    2 cycles

 The electronic state is 1-A.
 Alpha  occ. eigenvalues --  -26.14861 -26.14854 -26.14585  -7.74296  -7.69912
 Alpha  occ. eigenvalues --   -1.70161  -1.68366  -1.67822  -0.89026  -0.85716
 Alpha  occ. eigenvalues --   -0.82838  -0.80018  -0.77906  -0.76801  -0.74648
 Alpha  occ. eigenvalues --   -0.72992  -0.72438  -0.63311  -0.48867
 Alpha virt. eigenvalues --    0.03967   0.04298   0.04661   0.05051   0.07254
 Alpha virt. eigenvalues --    0.07550   0.07799   0.10246   0.11042   0.12189
 Alpha virt. eigenvalues --    0.14822   0.21760   0.23985   0.24584   0.25251

 Mulliken charges:
               1
     1  B    0.439959
     2  B    0.905519
     3  F   -0.468810
     4  F   -0.464363
     5  F   -0.464284
     6  H    0.051978
 Sum of Mulliken charges =  -0.00000

 Dipole moment (field-independent basis, Debye):
    X=              0.5627    Y=             -0.0015    Z=              1.2174  Tot=              1.3412

 Test job not archived.
 1\1\GINC-SE329\SP\RHF\Aug-CC-pVDZ\B2F3H1\OHZDE\09-Apr-2025\0\\#t hf au
 g-cc-pvdz iop(5/13=1,5/36=2,99/5=2) pseudo=read geom=check guess=(read
 ,tcheck) scf=(maxcycle=1)\\title\\0,1\B,0,-1.084936,0.000559,0.55019\B
 ,0,0.561591,0.000043,0.089221\F,0,-2.033746,-0.000106,-0.382019\F,0,1.
 242954,-1.126839,-0.080157\F,0,1.243556,1.126505,-0.080529\H,0,-1.4581
 53,0.000953,1.687295\\Version=ES64L-G16RevC.01\State=1-A\HF=-348.59985
 35\RMSD=8.506e-03\Dipole=-0.2213726,0.0005783,0.4789662\Quadrupole=-2.
 8961631,0.3996047,2.4965584,-0.0014141,-0.6062931,-0.0000488\PG=C01 [X

 Normal termination of Gaussian 16 at Wed Apr  9 00:47:56 2025.
