 Gaussian 16, Revision C.01,

 ----------------------------------------------------------------------
 #t hf aug-cc-pvdz symm=none int=(grid=ultrafine) guess=(read,tcheck) s
 table=(opt,rrhf)
 ----------------------------------------------------------------------
 -----
 title
 -----
 Symbolic Z-matrix:
 Charge =  0 Multiplicity = 1

 SCF Done:  E(RHF) =  -827.556739804     A.U. after   15 cycles
 Normal termination of Gaussian 16 at Tue Apr  8 22:48:18 2025.
 Gaussian 16:  ES64L-G16RevC.01  3-Jul-2019

 ----------------------------------------------------------------------
 #t hf aug-cc-pvdz iop(5/13=1,5/36=2,99/5=2) pseudo=read geom=check gue
 ss=(read,tcheck) scf=(maxcycle=1)
 ----------------------------------------------------------------------
 -----
 title
 -----
 Structure from the checkpoint file:  "BDE49_expt_1688_mol1.chk"
 Charge =  0 Multiplicity = 1

                         Standard orientation:
 ---------------------------------------------------------------------
 Center     Atomic      Atomic             Coordinates (Angstroms)
 Number     Number       Type             X           Y           Z
 ---------------------------------------------------------------------
      1          6           0        0.212676   -1.204279    0.335523
      2          6           0        1.566308   -1.213643    0.016559
      3          6           0        2.219721   -0.000002   -0.137673
      4          6           0        1.566312    1.213642    0.016552
      5          6           0        0.212680    1.204285    0.335515
      6          6           0       -0.479336    0.000004    0.500053
      7          1           0       -0.312309   -2.145730    0.454134
      8          1           0        2.116128   -2.137471   -0.111509
      9          6           0       -1.933689    0.000008    0.847472
     10          1           0        2.116135    2.137468   -0.111522
     11          9           0        3.534576   -0.000005   -0.443704
     12          1           0       -0.312303    2.145738    0.454121
     13          1           0       -2.223919   -0.889012    1.402400
     14         17           0       -3.009354   -0.000005   -0.645922
     15          1           0       -2.223918    0.889037    1.402385
 ---------------------------------------------------------------------

 SCF Done:  E(RHF) =  -827.689411022     A.U. after    2 cycles

 The electronic state is 1-A.
 Alpha  occ. eigenvalues -- -103.64984 -26.14299 -11.35201 -11.31998 -11.27234
 Alpha  occ. eigenvalues --  -11.27194 -11.27048 -11.26484 -11.26483 -10.68225
 Alpha  occ. eigenvalues --   -8.33936  -8.33652  -8.33646  -1.68163  -1.18219
 Alpha  occ. eigenvalues --   -1.14935  -1.05242  -1.04030  -0.93968  -0.87775
 Alpha  occ. eigenvalues --   -0.84717  -0.77887  -0.75741  -0.75573  -0.68807
 Alpha  occ. eigenvalues --   -0.65933  -0.63913  -0.62083  -0.59501  -0.58357
 Alpha  occ. eigenvalues --   -0.55207  -0.52194  -0.51371  -0.45159  -0.44918
 Alpha  occ. eigenvalues --   -0.36613  -0.35187
 Alpha virt. eigenvalues --    0.03239   0.03750   0.04066   0.05594   0.05900
 Alpha virt. eigenvalues --    0.07777   0.08025   0.08494   0.09033   0.09780
 Alpha virt. eigenvalues --    0.11474   0.12484   0.12597   0.13804   0.14225

 Mulliken charges:
               1
     1  C    0.300537
     2  C    0.355887
     3  C    0.214662
     4  C    0.355888
     5  C    0.300544
     6  C    0.885475
     7  H   -0.538221
     8  H   -0.411453
     9  C    0.244892
    10  H   -0.411452
    11  F   -0.331360
    12  H   -0.538221
    13  H   -0.132017
    14  Cl  -0.163141
    15  H   -0.132021
 Sum of Mulliken charges =  -0.00000

 Dipole moment (field-independent basis, Debye):
    X=             -0.1606    Y=              0.0000    Z=              2.1646  Tot=              2.1706

 Test job not archived.
 1\1\GINC-SE339\SP\RHF\Aug-CC-pVDZ\C7H6Cl1F1\OHZDE\08-Apr-2025\0\\#t hf
  aug-cc-pvdz iop(5/13=1,5/36=2,99/5=2) pseudo=read geom=check guess=(r
 ead,tcheck) scf=(maxcycle=1)\\title\\0,1\C,0,0.212676,-1.204279,0.3355
 23\C,0,1.566308,-1.213643,0.016559\C,0,2.219721,-0.000002,-0.137673\C,
 0,1.566312,1.213642,0.016552\C,0,0.21268,1.204285,0.335515\C,0,-0.4793
 36,0.000004,0.500053\H,0,-0.312309,-2.14573,0.454134\H,0,2.116128,-2.1
 37471,-0.111509\C,0,-1.933689,0.000008,0.847472\H,0,2.116135,2.137468,
 -0.111522\F,0,3.534576,-0.000005,-0.443704\H,0,-0.312303,2.145738,0.45

 Normal termination of Gaussian 16 at Tue Apr  8 22:48:25 2025.
