 Gaussian 16, Revision C.01,

 ----------------------------------------------------------------------
 #t hf aug-cc-pvdz symm=none int=(grid=ultrafine) guess=(read,tcheck) s
 table=(opt,rrhf)
 ----------------------------------------------------------------------
 -----
 title
 -----
 Symbolic Z-matrix:
 Charge =  0 Multiplicity = 1

 SCF Done:  E(RHF) =  -159.613366333     A.U. after   11 cycles
 Normal termination of Gaussian 16 at Wed Apr  9 00:24:43 2025.
 Gaussian 16:  ES64L-G16RevC.01  3-Jul-2019

 ----------------------------------------------------------------------
 #t hf aug-cc-pvdz iop(5/13=1,5/36=2,99/5=2) pseudo=read geom=check gue
 ss=(read,tcheck) scf=(maxcycle=1)
 ----------------------------------------------------------------------
 -----
 title
 -----
 Structure from the checkpoint file:  "BDE49_nonexpt_284_mol1.chk"
 Charge =  0 Multiplicity = 1

                         Standard orientation:
 ---------------------------------------------------------------------
 Center     Atomic      Atomic             Coordinates (Angstroms)
 Number     Number       Type             X           Y           Z
 ---------------------------------------------------------------------
      1          5           0       -0.000000    0.054288   -0.000011
      2          7           0       -0.000000    1.455537    0.000001
      3          6           0        1.378041   -0.729515   -0.000005
      4          6           0       -1.378041   -0.729516    0.000007
      5          1           0       -2.261811   -0.083244    0.000044
      6          1           0       -1.450260   -1.388412    0.873592
      7          1           0       -1.450299   -1.388365   -0.873610
      8          1           0        2.261811   -0.083243   -0.000028
      9          1           0        1.450272   -1.388411   -0.873589
     10          1           0        1.450287   -1.388365    0.873613
     11          1           0        0.844377    2.007012   -0.000000
     12          1           0       -0.844377    2.007012    0.000015
 ---------------------------------------------------------------------

 SCF Done:  E(RHF) =  -159.667200553     A.U. after    2 cycles

 The electronic state is 1-A.
 Alpha  occ. eigenvalues --  -15.60639 -11.19268 -11.19260  -7.58866  -1.11500
 Alpha  occ. eigenvalues --   -0.93957  -0.90685  -0.67725  -0.66846  -0.56876
 Alpha  occ. eigenvalues --   -0.55156  -0.52217  -0.51934  -0.48835  -0.43813
 Alpha  occ. eigenvalues --   -0.41627
 Alpha virt. eigenvalues --    0.02973   0.04728   0.04879   0.04998   0.06997
 Alpha virt. eigenvalues --    0.07169   0.08344   0.08452   0.08947   0.09506
 Alpha virt. eigenvalues --    0.10547   0.11123   0.15874   0.17159   0.17284

 Mulliken charges:
               1
     1  B    0.547139
     2  N   -0.201160
     3  C    0.490675
     4  C    0.490677
     5  H   -0.366762
     6  H   -0.132708
     7  H   -0.132685
     8  H   -0.366762
     9  H   -0.132703
    10  H   -0.132689
    11  H   -0.031511
    12  H   -0.031511
 Sum of Mulliken charges =  -0.00000

 Dipole moment (field-independent basis, Debye):
    X=             -0.0000    Y=              1.1417    Z=              0.0000  Tot=              1.1417

 Test job not archived.
 1\1\GINC-SE177\SP\RHF\Aug-CC-pVDZ\C2H8B1N1\OHZDE\09-Apr-2025\0\\#t hf
 aug-cc-pvdz iop(5/13=1,5/36=2,99/5=2) pseudo=read geom=check guess=(re
 ad,tcheck) scf=(maxcycle=1)\\title\\0,1\B,0,0.,0.054288,0.000011\N,0,0
 .,1.455537,-0.000001\C,0,-1.378041,-0.729515,0.000005\C,0,1.378041,-0.
 729515,-0.000007\H,0,2.261811,-0.083243,-0.000044\H,0,1.45026,-1.38841
 1,-0.873592\H,0,1.450299,-1.388364,0.87361\H,0,-2.261811,-0.083243,0.0
 00028\H,0,-1.450272,-1.388411,0.873589\H,0,-1.450287,-1.388365,-0.8736
 13\H,0,-0.844377,2.007012,0.\H,0,0.844377,2.007012,-0.000015\\Version=

 Normal termination of Gaussian 16 at Wed Apr  9 00:24:46 2025.
