 Gaussian 16, Revision C.01,

 ----------------------------------------------------------------------
 #t hf aug-cc-pvdz symm=none int=(grid=ultrafine) guess=(read,tcheck) s
 table=(opt,rrhf)
 ----------------------------------------------------------------------
 -----
 title
 -----
 Symbolic Z-matrix:
 Charge =  0 Multiplicity = 1

 SCF Done:  E(RHF) =  -922.856750281     A.U. after   13 cycles
 Normal termination of Gaussian 16 at Tue Apr  8 23:54:16 2025.
 Gaussian 16:  ES64L-G16RevC.01  3-Jul-2019

 ----------------------------------------------------------------------
 #t hf aug-cc-pvdz iop(5/13=1,5/36=2,99/5=2) pseudo=read geom=check gue
 ss=(read,tcheck) scf=(maxcycle=1)
 ----------------------------------------------------------------------
 -----
 title
 -----
 Structure from the checkpoint file:  "BDE49_nonexpt_1982_mol1.chk"
 Charge =  0 Multiplicity = 1

                         Standard orientation:
 ---------------------------------------------------------------------
 Center     Atomic      Atomic             Coordinates (Angstroms)
 Number     Number       Type             X           Y           Z
 ---------------------------------------------------------------------
      1         14           0       -0.000000    0.489168    0.000000
      2          9           0        1.572211    0.647597    0.000000
      3          8           0       -1.015212    1.602134    0.000000
      4         17           0       -0.354600   -1.499636    0.000000
 ---------------------------------------------------------------------

 SCF Done:  E(RHF) =  -922.982916383     A.U. after    2 cycles

 The electronic state is 1-A'.
 Alpha  occ. eigenvalues -- -103.72146 -69.22715 -26.18204 -20.55672 -10.75579
 Alpha  occ. eigenvalues --   -8.41271  -8.41023  -8.41002  -6.96885  -4.07800
 Alpha  occ. eigenvalues --   -4.07741  -4.07664  -1.71029  -1.24751  -1.20280
 Alpha  occ. eigenvalues --   -0.86186  -0.79229  -0.78670  -0.66124  -0.57592
 Alpha  occ. eigenvalues --   -0.55595  -0.54955  -0.50619  -0.50310
 Alpha virt. eigenvalues --    0.01664   0.04407   0.05930   0.06653   0.08932
 Alpha virt. eigenvalues --    0.10831   0.11723   0.14345   0.14512   0.20292
 Alpha virt. eigenvalues --    0.22723   0.23356   0.23616   0.24015   0.26571

 Mulliken charges:
               1
     1  Si   1.922237
     2  F   -0.728850
     3  O   -0.886085
     4  Cl  -0.307301
 Sum of Mulliken charges =  -0.00000

 Dipole moment (field-independent basis, Debye):
    X=              1.5896    Y=             -2.9067    Z=              0.0000  Tot=              3.3130

 Test job not archived.
 1\1\GINC-SE284\SP\RHF\Aug-CC-pVDZ\Cl1F1O1Si1\OHZDE\08-Apr-2025\0\\#t h
 f aug-cc-pvdz iop(5/13=1,5/36=2,99/5=2) pseudo=read geom=check guess=(
 read,tcheck) scf=(maxcycle=1)\\title\\0,1\Si,0,0.,0.489168,0.\F,0,1.57
 2211,0.647597,0.\O,0,-1.015212,1.602134,0.\Cl,0,-0.3546,-1.499636,0.\\
 Version=ES64L-G16RevC.01\State=1-A'\HF=-922.9829164\RMSD=4.903e-03\Dip
 ole=0.6254081,-1.1436004,0.\Quadrupole=-2.1753202,-2.3758405,4.5511608
 ,3.2998631,0.,0.\PG=CS [SG(Cl1F1O1Si1)]\\@

 Normal termination of Gaussian 16 at Tue Apr  8 23:54:17 2025.
