 Gaussian 16, Revision C.01,

 ----------------------------------------------------------------------
 #t hf aug-cc-pvdz symm=none int=(grid=ultrafine) guess=(read,tcheck) s
 table=(opt,rrhf)
 ----------------------------------------------------------------------
 -----
 title
 -----
 Symbolic Z-matrix:
 Charge =  0 Multiplicity = 1

 SCF Done:  E(RHF) =  -576.158665034     A.U. after   14 cycles
 Normal termination of Gaussian 16 at Tue Apr  8 23:51:05 2025.
 Gaussian 16:  ES64L-G16RevC.01  3-Jul-2019

 ----------------------------------------------------------------------
 #t hf aug-cc-pvdz iop(5/13=1,5/36=2,99/5=2) pseudo=read geom=check gue
 ss=(read,tcheck) scf=(maxcycle=1)
 ----------------------------------------------------------------------
 -----
 title
 -----
 Structure from the checkpoint file:  "BDE49_nonexpt_1896_mol1.chk"
 Charge =  0 Multiplicity = 1

                         Standard orientation:
 ---------------------------------------------------------------------
 Center     Atomic      Atomic             Coordinates (Angstroms)
 Number     Number       Type             X           Y           Z
 ---------------------------------------------------------------------
      1         14           0       -2.599175    0.027966    0.000001
      2          6           0       -0.875010    0.819609   -0.000001
      3          6           0        0.186682   -0.273324   -0.000002
      4          8           0       -0.160930   -1.450611   -0.000000
      5          7           0        1.508156    0.087761   -0.000001
      6          1           0       -2.829593   -0.774963   -1.217928
      7          6           0        2.528925   -0.952565    0.000001
      8          1           0        2.036059   -1.920878   -0.000000
      9          1           0        3.163811   -0.865151    0.888733
     10          1           0        3.163815   -0.865151   -0.888728
     11          1           0       -3.577747    1.148309    0.000003
     12          1           0       -2.829590   -0.774964    1.217930
     13          6           0        2.007642    1.451989   -0.000000
     14          1           0        1.192393    2.169503   -0.000003
     15          1           0        2.626940    1.634241   -0.886326
     16          1           0        2.626933    1.634242    0.886331
     17          1           0       -0.771828    1.469796    0.875702
     18          1           0       -0.771831    1.469796   -0.875705
 ---------------------------------------------------------------------

 SCF Done:  E(RHF) =  -576.273220834     A.U. after    2 cycles

 The electronic state is 1-A.
 Alpha  occ. eigenvalues --  -69.05549 -20.53296 -15.65471 -11.36760 -11.28474
 Alpha  occ. eigenvalues --  -11.26671 -11.24009  -6.80793  -3.91578  -3.91557
 Alpha  occ. eigenvalues --   -3.91547  -1.34614  -1.21383  -1.00885  -0.97060
 Alpha  occ. eigenvalues --   -0.91558  -0.74473  -0.69740  -0.68212  -0.66452
 Alpha  occ. eigenvalues --   -0.65360  -0.60103  -0.58729  -0.56809  -0.56506
 Alpha  occ. eigenvalues --   -0.53972  -0.52059  -0.46714  -0.46248  -0.45578
 Alpha  occ. eigenvalues --   -0.43970  -0.37690
 Alpha virt. eigenvalues --    0.02732   0.03857   0.04154   0.04491   0.05955
 Alpha virt. eigenvalues --    0.06290   0.07037   0.07484   0.07490   0.08946
 Alpha virt. eigenvalues --    0.09747   0.10203   0.10585   0.10611   0.11757

 Mulliken charges:
               1
     1  Si   0.151916
     2  C   -0.118601
     3  C    0.143235
     4  O   -0.538412
     5  N   -0.319943
     6  H    0.049231
     7  C    0.727753
     8  H   -0.245849
     9  H   -0.089040
    10  H   -0.089041
    11  H   -0.008422
    12  H    0.049231
    13  C    0.826027
    14  H   -0.322023
    15  H   -0.086210
    16  H   -0.086209
    17  H   -0.021823
    18  H   -0.021821
 Sum of Mulliken charges =  -0.00000

 Dipole moment (field-independent basis, Debye):
    X=              2.8265    Y=              3.6023    Z=             -0.0000  Tot=              4.5788

 Test job not archived.
 1\1\GINC-SE329\SP\RHF\Aug-CC-pVDZ\C4H11N1O1Si1\OHZDE\08-Apr-2025\0\\#t
  hf aug-cc-pvdz iop(5/13=1,5/36=2,99/5=2) pseudo=read geom=check guess
 =(read,tcheck) scf=(maxcycle=1)\\title\\0,1\Si,0,-2.599175,0.027966,0.
 000001\C,0,-0.87501,0.819609,-0.000001\C,0,0.186682,-0.273324,-0.00000
 2\O,0,-0.16093,-1.450611,0.\N,0,1.508156,0.087761,-0.000001\H,0,-2.829
 593,-0.774963,-1.217928\C,0,2.528925,-0.952565,0.000001\H,0,2.036059,-
 1.920878,0.\H,0,3.163811,-0.865151,0.888733\H,0,3.163815,-0.865151,-0.
 888728\H,0,-3.577747,1.148309,0.000003\H,0,-2.82959,-0.774964,1.21793\

 Normal termination of Gaussian 16 at Tue Apr  8 23:51:12 2025.
