 Gaussian 16, Revision C.01,

 ----------------------------------------------------------------------
 #t hf aug-cc-pvdz symm=none int=(grid=ultrafine) guess=(read,tcheck) s
 table=(opt,rrhf)
 ----------------------------------------------------------------------
 -----
 title
 -----
 Symbolic Z-matrix:
 Charge =  0 Multiplicity = 1

 SCF Done:  E(RHF) =  -303.495832918     A.U. after   15 cycles
 Normal termination of Gaussian 16 at Tue Apr  8 22:59:41 2025.
 Gaussian 16:  ES64L-G16RevC.01  3-Jul-2019

 ----------------------------------------------------------------------
 #t hf aug-cc-pvdz iop(5/13=1,5/36=2,99/5=2) pseudo=read geom=check gue
 ss=(read,tcheck) scf=(maxcycle=1)
 ----------------------------------------------------------------------
 -----
 title
 -----
 Structure from the checkpoint file:  "BDE49_expt_23_mol1.chk"
 Charge =  0 Multiplicity = 1

                         Standard orientation:
 ---------------------------------------------------------------------
 Center     Atomic      Atomic             Coordinates (Angstroms)
 Number     Number       Type             X           Y           Z
 ---------------------------------------------------------------------
      1          6           0        1.462124   -0.122895   -0.000002
      2          6           0        2.628104   -0.409988   -0.000009
      3          1           0        3.658882   -0.670575   -0.000022
      4          6           0        0.077728    0.306498    0.000002
      5          8           0       -0.272413    1.459657    0.000007
      6          8           0       -0.753642   -0.749739   -0.000001
      7          6           0       -2.158738   -0.427426    0.000003
      8          1           0       -2.416801    0.149893   -0.888885
      9          1           0       -2.416797    0.149886    0.888897
     10          1           0       -2.672147   -1.385684   -0.000000
 ---------------------------------------------------------------------

 SCF Done:  E(RHF) =  -303.595255754     A.U. after    2 cycles

 The electronic state is 1-A.
 Alpha  occ. eigenvalues --  -20.63383 -20.58046 -11.43002 -11.30799 -11.28183
 Alpha  occ. eigenvalues --  -11.27334  -1.43808  -1.34356  -1.06966  -0.99582
 Alpha  occ. eigenvalues --   -0.87030  -0.77962  -0.73417  -0.70662  -0.69788
 Alpha  occ. eigenvalues --   -0.62330  -0.57942  -0.55517  -0.50588  -0.49354
 Alpha  occ. eigenvalues --   -0.43244  -0.43192
 Alpha virt. eigenvalues --    0.03251   0.03766   0.05854   0.06126   0.07602
 Alpha virt. eigenvalues --    0.08157   0.09863   0.11178   0.11271   0.12405
 Alpha virt. eigenvalues --    0.13806   0.13883   0.15689   0.15789   0.16914

 Mulliken charges:
               1
     1  C   -0.171181
     2  C    0.987359
     3  H   -0.452543
     4  C    0.175236
     5  O   -0.415707
     6  O   -0.542280
     7  C    0.730599
     8  H   -0.044302
     9  H   -0.044301
    10  H   -0.222880
 Sum of Mulliken charges =  -0.00000

 Dipole moment (field-independent basis, Debye):
    X=              0.0490    Y=             -2.0934    Z=             -0.0000  Tot=              2.0939

 Test job not archived.
 1\1\GINC-SE404\SP\RHF\Aug-CC-pVDZ\C4H4O2\OHZDE\08-Apr-2025\0\\#t hf au
 g-cc-pvdz iop(5/13=1,5/36=2,99/5=2) pseudo=read geom=check guess=(read
 ,tcheck) scf=(maxcycle=1)\\title\\0,1\C,0,1.462124,-0.122895,-0.000002
 \C,0,2.628104,-0.409988,-0.000009\H,0,3.658882,-0.670575,-0.000022\C,0
 ,0.077728,0.306498,0.000002\O,0,-0.272413,1.459657,0.000007\O,0,-0.753
 642,-0.749739,-0.000001\C,0,-2.158738,-0.427426,0.000003\H,0,-2.416801
 ,0.149893,-0.888885\H,0,-2.416797,0.149886,0.888897\H,0,-2.672147,-1.3
 85684,0.\\Version=ES64L-G16RevC.01\State=1-A\HF=-303.5952558\RMSD=7.00

 Normal termination of Gaussian 16 at Tue Apr  8 22:59:44 2025.
