 Gaussian 16, Revision C.01,

 ----------------------------------------------------------------------
 #t hf aug-cc-pvdz symm=none int=(grid=ultrafine) guess=(read,tcheck) s
 table=(opt,rrhf)
 ----------------------------------------------------------------------
 -----
 title
 -----
 Symbolic Z-matrix:
 Charge =  0 Multiplicity = 1

 SCF Done:  E(RHF) =  -621.855966576     A.U. after   12 cycles
 Normal termination of Gaussian 16 at Wed Apr  9 00:27:55 2025.
 Gaussian 16:  ES64L-G16RevC.01  3-Jul-2019

 ----------------------------------------------------------------------
 #t hf aug-cc-pvdz iop(5/13=1,5/36=2,99/5=2) pseudo=read geom=check gue
 ss=(read,tcheck) scf=(maxcycle=1)
 ----------------------------------------------------------------------
 -----
 title
 -----
 Structure from the checkpoint file:  "BDE49_nonexpt_348_mol1.chk"
 Charge =  0 Multiplicity = 1

                         Standard orientation:
 ---------------------------------------------------------------------
 Center     Atomic      Atomic             Coordinates (Angstroms)
 Number     Number       Type             X           Y           Z
 ---------------------------------------------------------------------
      1          9           0       -1.120044    1.153987    0.000000
      2          9           0       -1.171151   -1.120445    0.000003
      3         16           0        1.339586   -0.096283   -0.000001
      4          5           0       -0.468607    0.000922   -0.000004
      5          1           0        1.530415    1.234031    0.000003
 ---------------------------------------------------------------------

 SCF Done:  E(RHF) =  -621.968238904     A.U. after    2 cycles

 The electronic state is 1-A.
 Alpha  occ. eigenvalues --  -93.56258 -26.15556 -26.15321  -8.86250  -7.78197
 Alpha  occ. eigenvalues --   -6.20421  -6.20199  -6.19907  -1.70755  -1.68670
 Alpha  occ. eigenvalues --   -1.00147  -0.88763  -0.83898  -0.78725  -0.78580
 Alpha  occ. eigenvalues --   -0.73870  -0.73340  -0.58819  -0.50022  -0.41546
 Alpha virt. eigenvalues --    0.03687   0.05871   0.05879   0.06092   0.08666
 Alpha virt. eigenvalues --    0.10598   0.12343   0.13563   0.15996   0.17812
 Alpha virt. eigenvalues --    0.21542   0.23426   0.24820   0.25077   0.26276

 Mulliken charges:
               1
     1  F   -0.419804
     2  F   -0.383807
     3  S   -0.203347
     4  B    0.988408
     5  H    0.018551
 Sum of Mulliken charges =  -0.00000

 Dipole moment (field-independent basis, Debye):
    X=              1.2531    Y=              0.8535    Z=             -0.0000  Tot=              1.5162

 Test job not archived.
 1\1\GINC-SE054\SP\RHF\Aug-CC-pVDZ\B1F2H1S1\OHZDE\09-Apr-2025\0\\#t hf
 aug-cc-pvdz iop(5/13=1,5/36=2,99/5=2) pseudo=read geom=check guess=(re
 ad,tcheck) scf=(maxcycle=1)\\title\\0,1\F,0,1.120044,1.153987,0.\F,0,1
 .17115,-1.120445,-0.000003\S,0,-1.339586,-0.096282,0.000001\B,0,0.4686
 07,0.000922,0.000004\H,0,-1.530415,1.234032,-0.000003\\Version=ES64L-G
 16RevC.01\State=1-A\HF=-621.9682389\RMSD=6.980e-03\Dipole=-0.4930183,0
 .3357952,0.0000066\Quadrupole=-0.4693923,-0.2406012,0.7099936,-1.39465
 12,0.0000258,-0.0000121\PG=C01 [X(B1F2H1S1)]\\@

 Normal termination of Gaussian 16 at Wed Apr  9 00:27:57 2025.
