 Gaussian 16, Revision C.01,

 ----------------------------------------------------------------------
 #t hf aug-cc-pvdz symm=none int=(grid=ultrafine) guess=(read,tcheck) s
 table=(opt,rrhf)
 ----------------------------------------------------------------------
 -----
 title
 -----
 Symbolic Z-matrix:
 Charge =  0 Multiplicity = 1

 SCF Done:  E(RHF) =  -705.863842876     A.U. after   14 cycles
 Normal termination of Gaussian 16 at Tue Apr  8 22:37:30 2025.
 Gaussian 16:  ES64L-G16RevC.01  3-Jul-2019

 ----------------------------------------------------------------------
 #t hf aug-cc-pvdz iop(5/13=1,5/36=2,99/5=2) pseudo=read geom=check gue
 ss=(read,tcheck) scf=(maxcycle=1)
 ----------------------------------------------------------------------
 -----
 title
 -----
 Structure from the checkpoint file:  "BDE49_expt_1233_mol1.chk"
 Charge =  0 Multiplicity = 1

                         Standard orientation:
 ---------------------------------------------------------------------
 Center     Atomic      Atomic             Coordinates (Angstroms)
 Number     Number       Type             X           Y           Z
 ---------------------------------------------------------------------
      1          6           0        0.252350   -0.347447    0.000007
      2          7           0       -1.193817   -0.812576   -0.000042
      3          8           0       -2.036004    0.028981   -0.000065
      4          6           0        0.866448   -0.916003   -1.277327
      5          1           0        0.395068   -0.478916   -2.158760
      6          1           0        0.724338   -1.998986   -1.300525
      7          6           0        0.866364   -0.916011    1.277377
      8         17           0        0.389803    1.463604    0.000017
      9          1           0        0.724253   -1.998994    1.300559
     10          1           0        0.394927   -0.478930    2.158783
     11          1           0        1.934226   -0.696251    1.303657
     12          1           0        1.934312   -0.696243   -1.303534
 ---------------------------------------------------------------------

 SCF Done:  E(RHF) =  -705.956934327     A.U. after    2 cycles

 The electronic state is 1-A.
 Alpha  occ. eigenvalues -- -103.65835 -20.66334 -15.78339 -11.36049 -11.26224
 Alpha  occ. eigenvalues --  -11.26215 -10.69119  -8.34832  -8.34546  -8.34542
 Alpha  occ. eigenvalues --   -1.49540  -1.19175  -1.07849  -0.97371  -0.95165
 Alpha  occ. eigenvalues --   -0.79819  -0.70841  -0.70183  -0.65365  -0.62915
 Alpha  occ. eigenvalues --   -0.59276  -0.57812  -0.56963  -0.53389  -0.52172
 Alpha  occ. eigenvalues --   -0.46765  -0.45744  -0.41227
 Alpha virt. eigenvalues --    0.03211   0.04313   0.05196   0.05939   0.07105
 Alpha virt. eigenvalues --    0.07362   0.08599   0.09207   0.11013   0.12605
 Alpha virt. eigenvalues --    0.13352   0.14241   0.15469   0.16162   0.16347

 Mulliken charges:
               1
     1  C   -0.926314
     2  N   -0.208130
     3  O   -0.358069
     4  C    0.795634
     5  H   -0.042163
     6  H    0.055889
     7  C    0.795636
     8  Cl  -0.154783
     9  H    0.055888
    10  H   -0.042162
    11  H    0.014286
    12  H    0.014287
 Sum of Mulliken charges =  -0.00000

 Dipole moment (field-independent basis, Debye):
    X=              2.5713    Y=             -2.3019    Z=              0.0001  Tot=              3.4511

 Test job not archived.
 1\1\GINC-SE342\SP\RHF\Aug-CC-pVDZ\C3H6Cl1N1O1\OHZDE\08-Apr-2025\0\\#t
 hf aug-cc-pvdz iop(5/13=1,5/36=2,99/5=2) pseudo=read geom=check guess=
 (read,tcheck) scf=(maxcycle=1)\\title\\0,1\C,0,0.252349,-0.347448,0.00
 0007\N,0,-1.193819,-0.812573,-0.000042\O,0,-2.036004,0.028986,-0.00006
 5\C,0,0.866446,-0.916005,-1.277327\H,0,0.395067,-0.478917,-2.15876\H,0
 ,0.724333,-1.998988,-1.300525\C,0,0.866362,-0.916013,1.277377\Cl,0,0.3
 89806,1.463603,0.000017\H,0,0.724248,-1.998996,1.300559\H,0,0.394926,-
 0.478931,2.158783\H,0,1.934224,-0.696256,1.303657\H,0,1.93431,-0.69624

 Normal termination of Gaussian 16 at Tue Apr  8 22:37:35 2025.
