 Gaussian 16, Revision C.01,

 ----------------------------------------------------------------------
 #t hf aug-cc-pvdz symm=none int=(grid=ultrafine) guess=(read,tcheck) s
 table=(opt,rrhf)
 ----------------------------------------------------------------------
 -----
 title
 -----
 Symbolic Z-matrix:
 Charge =  0 Multiplicity = 1

 SCF Done:  E(RHF) =  -664.457170021     A.U. after   16 cycles
 Normal termination of Gaussian 16 at Wed Apr  9 00:39:18 2025.
 Gaussian 16:  ES64L-G16RevC.01  3-Jul-2019

 ----------------------------------------------------------------------
 #t hf aug-cc-pvdz iop(5/13=1,5/36=2,99/5=2) pseudo=read geom=check gue
 ss=(read,tcheck) scf=(maxcycle=1)
 ----------------------------------------------------------------------
 -----
 title
 -----
 Structure from the checkpoint file:  "BDE49_nonexpt_598_mol1.chk"
 Charge =  0 Multiplicity = 1

                         Standard orientation:
 ---------------------------------------------------------------------
 Center     Atomic      Atomic             Coordinates (Angstroms)
 Number     Number       Type             X           Y           Z
 ---------------------------------------------------------------------
      1          6           0       -1.020899    1.062046    0.000140
      2          6           0        0.348305    0.852041    0.000093
      3          6           0       -1.890883   -0.024929    0.000161
      4          6           0       -1.406675   -1.329824    0.000122
      5          6           0       -0.039290   -1.538182    0.000075
      6          6           0        0.863707   -0.457483    0.000060
      7          1           0        0.344209   -2.553599    0.000050
      8          1           0       -1.429835    2.062823    0.000167
      9          1           0        1.026068    1.691815    0.000082
     10          5           0        3.380774    0.134899   -0.000015
     11          8           0        4.658737   -0.370109   -0.000064
     12          8           0        3.229583    1.492501    0.000007
     13          7           0       -3.338560    0.205380    0.000213
     14          8           0       -3.733649    1.366556   -0.000321
     15          8           0       -4.073952   -0.777069   -0.000339
     16          1           0       -2.104560   -2.155218    0.000134
     17          1           0        4.081984    1.938593   -0.000016
     18          1           0        4.735795   -1.326434   -0.000079
     19          7           0        2.231647   -0.731860    0.000012
     20          1           0        2.419509   -1.724155   -0.000006
 ---------------------------------------------------------------------

 SCF Done:  E(RHF) =  -664.663233427     A.U. after    2 cycles

 The electronic state is 1-A.
 Alpha  occ. eigenvalues --  -20.60645 -20.60607 -20.60561 -20.59822 -15.91060
 Alpha  occ. eigenvalues --  -15.65849 -11.33048 -11.30217 -11.28266 -11.28004
 Alpha  occ. eigenvalues --  -11.26520 -11.25634  -7.70050  -1.53737  -1.36901
 Alpha  occ. eigenvalues --   -1.35236  -1.33026  -1.22878  -1.16412  -1.05726
 Alpha  occ. eigenvalues --   -1.04225  -0.93646  -0.87403  -0.82895  -0.80722
 Alpha  occ. eigenvalues --   -0.78317  -0.77724  -0.73847  -0.73056  -0.71611
 Alpha  occ. eigenvalues --   -0.69549  -0.65102  -0.63535  -0.62543  -0.62521
 Alpha  occ. eigenvalues --   -0.61683  -0.59614  -0.57653  -0.55992  -0.54648
 Alpha  occ. eigenvalues --   -0.52154  -0.50390  -0.50331  -0.48074  -0.46584
 Alpha  occ. eigenvalues --   -0.37040  -0.33413
 Alpha virt. eigenvalues --    0.01445   0.03127   0.04045   0.04197   0.04974
 Alpha virt. eigenvalues --    0.05222   0.05928   0.07005   0.08042   0.08275
 Alpha virt. eigenvalues --    0.09142   0.09708   0.10476   0.11501   0.12303

 Mulliken charges:
               1
     1  C   -0.048266
     2  C    1.032192
     3  C    1.311595
     4  C    0.303286
     5  C    0.887853
     6  C    0.180467
     7  H   -0.713953
     8  H   -0.463420
     9  H   -0.689780
    10  B    0.706347
    11  O   -0.525940
    12  O   -0.542845
    13  N    0.116957
    14  O   -0.573581
    15  O   -0.585484
    16  H   -0.457959
    17  H    0.199376
    18  H    0.155667
    19  N   -0.209576
    20  H   -0.082935
 Sum of Mulliken charges =  -0.00000

 Dipole moment (field-independent basis, Debye):
    X=              7.5346    Y=             -2.7100    Z=              0.0015  Tot=              8.0072

 Test job not archived.
 1\1\GINC-SE455\SP\RHF\Aug-CC-pVDZ\C6H7B1N2O4\OHZDE\09-Apr-2025\0\\#t h
 f aug-cc-pvdz iop(5/13=1,5/36=2,99/5=2) pseudo=read geom=check guess=(
 read,tcheck) scf=(maxcycle=1)\\title\\0,1\C,0,1.020899,1.062046,-0.000
 14\C,0,-0.348305,0.852041,-0.000093\C,0,1.890883,-0.024929,-0.000161\C
 ,0,1.406675,-1.329824,-0.000122\C,0,0.03929,-1.538182,-0.000075\C,0,-0
 .863707,-0.457483,-0.00006\H,0,-0.344209,-2.553599,-0.00005\H,0,1.4298
 35,2.062823,-0.000167\H,0,-1.026068,1.691815,-0.000082\B,0,-3.380774,0
 .134899,0.000015\O,0,-4.658737,-0.370109,0.000064\O,0,-3.229583,1.4925

 Normal termination of Gaussian 16 at Wed Apr  9 00:39:31 2025.
