 Gaussian 16, Revision C.01,

 ----------------------------------------------------------------------
 #t hf aug-cc-pvdz symm=none int=(grid=ultrafine) guess=(read,tcheck) s
 table=(opt,rrhf)
 ----------------------------------------------------------------------
 -----
 title
 -----
 Symbolic Z-matrix:
 Charge =  0 Multiplicity = 1

 SCF Done:  E(RHF) =  -561.356122984     A.U. after   12 cycles
 Normal termination of Gaussian 16 at Wed Apr  9 00:04:56 2025.
 Gaussian 16:  ES64L-G16RevC.01  3-Jul-2019

 ----------------------------------------------------------------------
 #t hf aug-cc-pvdz iop(5/13=1,5/36=2,99/5=2) pseudo=read geom=check gue
 ss=(read,tcheck) scf=(maxcycle=1)
 ----------------------------------------------------------------------
 -----
 title
 -----
 Structure from the checkpoint file:  "BDE49_nonexpt_2231_mol1.chk"
 Charge =  0 Multiplicity = 1

                         Standard orientation:
 ---------------------------------------------------------------------
 Center     Atomic      Atomic             Coordinates (Angstroms)
 Number     Number       Type             X           Y           Z
 ---------------------------------------------------------------------
      1          8           0       -0.302313   -0.346377   -0.176191
      2         14           0        1.172301   -0.991713    0.201296
      3          6           0        2.487442    0.165540   -0.456705
      4          6           0       -1.565278   -0.922246    0.160615
      5          6           0       -2.688030   -0.055395   -0.394661
      6          6           0       -2.716942    1.356198    0.194855
      7          1           0       -3.637133   -0.567583   -0.196627
      8          1           0       -2.576695   -0.004898   -1.482953
      9          1           0       -2.868147    1.328365    1.278847
     10          1           0       -3.526640    1.948206   -0.239578
     11          1           0       -1.775571    1.873343    0.000573
     12          6           0        2.461592    1.582488    0.143549
     13          1           0        2.381402    0.212699   -1.546658
     14          1           0        3.459488   -0.309011   -0.270048
     15          1           0        1.508577    2.077495   -0.057174
     16          1           0        3.256166    2.207490   -0.274099
     17          1           0        2.597920    1.558653    1.228731
     18          1           0       -1.655894   -1.002634    1.253319
     19          1           0       -1.634097   -1.935848   -0.255923
     20          1           0        1.309263   -2.341680   -0.409716
     21          1           0        1.294948   -1.149106    1.676767
 ---------------------------------------------------------------------

 SCF Done:  E(RHF) =  -561.477965660     A.U. after    2 cycles

 The electronic state is 1-A.
 Alpha  occ. eigenvalues --  -69.07723 -20.55399 -11.29004 -11.23008 -11.22746
 Alpha  occ. eigenvalues --  -11.21962 -11.21820  -6.82595  -3.93498  -3.93356
 Alpha  occ. eigenvalues --   -3.93340  -1.29971  -1.04084  -1.00983  -0.91879
 Alpha  occ. eigenvalues --   -0.84308  -0.80236  -0.71621  -0.65430  -0.62470
 Alpha  occ. eigenvalues --   -0.61178  -0.59432  -0.57711  -0.57394  -0.53270
 Alpha  occ. eigenvalues --   -0.52296  -0.50868  -0.49326  -0.48672  -0.47058
 Alpha  occ. eigenvalues --   -0.46124  -0.43504  -0.42429
 Alpha virt. eigenvalues --    0.03356   0.04223   0.04619   0.04779   0.05664
 Alpha virt. eigenvalues --    0.05926   0.06187   0.06750   0.07237   0.08346
 Alpha virt. eigenvalues --    0.08469   0.08667   0.09731   0.10686   0.10889

 Mulliken charges:
               1
     1  O   -0.948810
     2  Si   0.819735
     3  C    0.138621
     4  C    0.729015
     5  C    0.127503
     6  C    0.379398
     7  H   -0.061148
     8  H   -0.087409
     9  H   -0.080759
    10  H   -0.084648
    11  H   -0.114354
    12  C    0.255720
    13  H   -0.157904
    14  H   -0.213989
    15  H   -0.145319
    16  H   -0.091009
    17  H   -0.111601
    18  H   -0.240635
    19  H   -0.204748
    20  H    0.015141
    21  H    0.077200
 Sum of Mulliken charges =  -0.00000

 Dipole moment (field-independent basis, Debye):
    X=             -0.3248    Y=             -0.3124    Z=              0.1168  Tot=              0.4656

 Test job not archived.
 1\1\GINC-SE094\SP\RHF\Aug-CC-pVDZ\C5H14O1Si1\OHZDE\09-Apr-2025\0\\#t h
 f aug-cc-pvdz iop(5/13=1,5/36=2,99/5=2) pseudo=read geom=check guess=(
 read,tcheck) scf=(maxcycle=1)\\title\\0,1\O,0,-0.302313,-0.346377,-0.1
 76191\Si,0,1.172301,-0.991713,0.201296\C,0,2.487442,0.16554,-0.456705\
 C,0,-1.565278,-0.922246,0.160615\C,0,-2.68803,-0.055395,-0.394661\C,0,
 -2.716942,1.356198,0.194855\H,0,-3.637133,-0.567583,-0.196627\H,0,-2.5
 76695,-0.004898,-1.482953\H,0,-2.868147,1.328365,1.278847\H,0,-3.52664
 ,1.948206,-0.239578\H,0,-1.775571,1.873343,0.000573\C,0,2.461592,1.582

 Normal termination of Gaussian 16 at Wed Apr  9 00:05:06 2025.
