 Gaussian 16, Revision C.01,

 ----------------------------------------------------------------------
 #t hf aug-cc-pvdz symm=none int=(grid=ultrafine) guess=(read,tcheck) s
 table=(opt,rrhf)
 ----------------------------------------------------------------------
 -----
 title
 -----
 Symbolic Z-matrix:
 Charge =  0 Multiplicity = 1

 SCF Done:  E(RHF) =  -458.384253055     A.U. after   12 cycles
 Normal termination of Gaussian 16 at Tue Apr  8 23:24:58 2025.
 Gaussian 16:  ES64L-G16RevC.01  3-Jul-2019

 ----------------------------------------------------------------------
 #t hf aug-cc-pvdz iop(5/13=1,5/36=2,99/5=2) pseudo=read geom=check gue
 ss=(read,tcheck) scf=(maxcycle=1)
 ----------------------------------------------------------------------
 -----
 title
 -----
 Structure from the checkpoint file:  "BDE49_nonexpt_1299_mol1.chk"
 Charge =  0 Multiplicity = 1

                         Standard orientation:
 ---------------------------------------------------------------------
 Center     Atomic      Atomic             Coordinates (Angstroms)
 Number     Number       Type             X           Y           Z
 ---------------------------------------------------------------------
      1         15           0       -1.466495   -0.095779   -0.013659
      2          6           0        0.283554    0.035347    0.555636
      3          6           0        1.377878    0.752187   -0.196542
      4          6           0        1.368097   -0.754303   -0.145983
      5          1           0        0.356610    0.057049    1.638962
      6          1           0        1.104603   -1.290822   -1.050476
      7          1           0        2.108309   -1.255811    0.466087
      8          1           0        2.129437    1.277387    0.382343
      9          1           0        1.119149    1.232230   -1.132899
     10          1           0       -1.191874   -0.067525   -1.406820
     11          1           0       -1.805987    1.284781    0.029028
 ---------------------------------------------------------------------

 SCF Done:  E(RHF) =  -458.443182704     A.U. after    2 cycles

 The electronic state is 1-A.
 Alpha  occ. eigenvalues --  -81.25338 -11.24986 -11.24537 -11.24358  -7.75682
 Alpha  occ. eigenvalues --   -4.89661  -4.89618  -4.89313  -1.13327  -0.85368
 Alpha  occ. eigenvalues --   -0.82843  -0.75255  -0.66572  -0.61815  -0.52753
 Alpha  occ. eigenvalues --   -0.51418  -0.47660  -0.45469  -0.42051  -0.34251
 Alpha virt. eigenvalues --    0.03576   0.04690   0.05028   0.05281   0.06922
 Alpha virt. eigenvalues --    0.07221   0.08340   0.09726   0.10807   0.11893
 Alpha virt. eigenvalues --    0.13151   0.13697   0.14101   0.15434   0.16273

 Mulliken charges:
               1
     1  P    0.039554
     2  C    0.163737
     3  C    0.630534
     4  C    0.655567
     5  H   -0.381368
     6  H   -0.340043
     7  H   -0.316470
     8  H   -0.308408
     9  H   -0.329850
    10  H    0.053424
    11  H    0.133323
 Sum of Mulliken charges =   0.00000

 Dipole moment (field-independent basis, Debye):
    X=              1.1638    Y=              0.4821    Z=             -0.0356  Tot=              1.2602

 Test job not archived.
 1\1\GINC-SE336\SP\RHF\Aug-CC-pVDZ\C3H7P1\OHZDE\08-Apr-2025\0\\#t hf au
 g-cc-pvdz iop(5/13=1,5/36=2,99/5=2) pseudo=read geom=check guess=(read
 ,tcheck) scf=(maxcycle=1)\\title\\0,1\P,0,-1.466495,-0.095778,-0.01365
 9\C,0,0.283554,0.035347,0.555636\C,0,1.377878,0.752187,-0.196542\C,0,1
 .368097,-0.754303,-0.145983\H,0,0.35661,0.057049,1.638962\H,0,1.104603
 ,-1.290822,-1.050476\H,0,2.108309,-1.255811,0.466087\H,0,2.129437,1.27
 7387,0.382343\H,0,1.119149,1.23223,-1.132899\H,0,-1.191874,-0.067525,-
 1.40682\H,0,-1.805987,1.284782,0.029028\\Version=ES64L-G16RevC.01\Stat

 Normal termination of Gaussian 16 at Tue Apr  8 23:25:01 2025.
