 Gaussian 16, Revision C.01,

 ----------------------------------------------------------------------
 #t hf aug-cc-pvdz symm=none int=(grid=ultrafine) guess=(read,tcheck) s
 table=opt
 ----------------------------------------------------------------------
 -----
 title
 -----
 Symbolic Z-matrix:
 Charge =  0 Multiplicity = 2

 SCF Done:  E(UHF) =  -550.735167017     A.U. after   21 cycles
 Normal termination of Gaussian 16 at Tue Apr  8 23:11:21 2025.
 Gaussian 16:  ES64L-G16RevC.01  3-Jul-2019

 ----------------------------------------------------------------------
 #t hf aug-cc-pvdz iop(5/13=1,5/36=2,99/5=2) pseudo=read geom=check gue
 ss=(read,tcheck) scf=(maxcycle=1)
 ----------------------------------------------------------------------
 -----
 title
 -----
 Structure from the checkpoint file:  "BDE49_expt_819_mol2.chk"
 Charge =  0 Multiplicity = 2

                         Standard orientation:
 ---------------------------------------------------------------------
 Center     Atomic      Atomic             Coordinates (Angstroms)
 Number     Number       Type             X           Y           Z
 ---------------------------------------------------------------------
      1         15           0        2.557425   -0.287838   -0.021462
      2          6           0        0.761168   -0.157426    0.469922
      3          1           0        2.299184   -0.555718   -1.397785
      4          6           0       -0.049800    0.871392   -0.331439
      5          1           0        0.739132    0.092215    1.535814
      6          1           0        0.307995   -1.150383    0.367827
      7          6           0       -1.513926    1.003524    0.146172
      8          1           0       -0.043597    0.604033   -1.391678
      9          1           0        0.412774    1.859275   -0.250507
     10          6           0       -2.278056   -0.232704   -0.008557
     11          1           0       -2.021115    1.792116   -0.417968
     12          1           0       -1.544457    1.296940    1.200501
     13          7           0       -2.861087   -1.218517   -0.140124
 ---------------------------------------------------------------------

 SCF Done:  E(UHF) =  -550.816071001     A.U. after    2 cycles

 The electronic state is 2-A.
 Alpha  occ. eigenvalues --  -81.27060 -15.64117 -11.29987 -11.29092 -11.27497
 Alpha  occ. eigenvalues --  -11.26039  -7.77475  -4.92219  -4.91095  -4.90812
 Alpha  occ. eigenvalues --   -1.19809  -1.10016  -0.99470  -0.86858  -0.76304
 Alpha  occ. eigenvalues --   -0.71276  -0.65308  -0.62819  -0.59612  -0.55356
 Alpha  occ. eigenvalues --   -0.53946  -0.52461  -0.48682  -0.46152  -0.45996
 Alpha  occ. eigenvalues --   -0.39798  -0.35102
 Alpha virt. eigenvalues --    0.02709   0.04143   0.04362   0.05564   0.06499
 Alpha virt. eigenvalues --    0.06970   0.07213   0.08969   0.09745   0.10769
 Alpha virt. eigenvalues --    0.11875   0.12241   0.13228   0.14151   0.14654

  Beta  occ. eigenvalues --  -81.26367 -15.64094 -11.29977 -11.29109 -11.27406
  Beta  occ. eigenvalues --  -11.26182  -7.76644  -4.90600  -4.90451  -4.89051
  Beta  occ. eigenvalues --   -1.19780  -1.09854  -0.99065  -0.86206  -0.71404
  Beta  occ. eigenvalues --   -0.71145  -0.64853  -0.62470  -0.59119  -0.55082
  Beta  occ. eigenvalues --   -0.53568  -0.52159  -0.48308  -0.46023  -0.45776
  Beta  occ. eigenvalues --   -0.37515
  Beta virt. eigenvalues --    0.02474   0.03347   0.04216   0.04482   0.06081
  Beta virt. eigenvalues --    0.06560   0.07247   0.07536   0.09264   0.09881
  Beta virt. eigenvalues --    0.10933   0.11994   0.12798   0.13571   0.14504

 Mulliken charges and spin densities:
               1          2
     1  P    0.348577   1.277525
     2  C    0.034609  -0.135910
     3  H    0.005756  -0.172136
     4  C    0.082081   0.029592
     5  H   -0.135189  -0.002649
     6  H   -0.153797   0.009249
     7  C    0.386126   0.004224
     8  H   -0.146185  -0.003434
     9  H   -0.054063  -0.005270
    10  C   -0.187807  -0.009478
    11  H    0.032938  -0.000237
    12  H    0.010127   0.000091
    13  N   -0.223173   0.008432
 Sum of Mulliken charges =  -0.00000   1.00000

 Dipole moment (field-independent basis, Debye):
    X=              1.2442    Y=              3.3382    Z=              0.2414  Tot=              3.5707
                          Isotropic Fermi Contact Couplings
        Atom                 a.u.       MegaHertz       Gauss      10(-4) cm-1
     1  P(31)              0.22644     410.10340     146.33509     136.79577
     2  C(13)             -0.02876     -32.32716     -11.53514     -10.78318
     3  H(1)              -0.01480     -66.14961     -23.60382     -22.06513
     4  C(13)              0.02428      27.29398       9.73917       9.10429
     5  H(1)               0.00048       2.14687       0.76606       0.71612
     6  H(1)               0.01083      48.39929      17.27007      16.14427
     7  C(13)              0.00129       1.45087       0.51771       0.48396
     8  H(1)              -0.00048      -2.16274      -0.77172      -0.72141

 Normal termination of Gaussian 16 at Tue Apr  8 23:11:25 2025.
