 Gaussian 16, Revision C.01,

 ----------------------------------------------------------------------
 #t hf aug-cc-pvdz symm=none int=(grid=ultrafine) guess=(read,tcheck) s
 table=(opt,rrhf)
 ----------------------------------------------------------------------
 -----
 title
 -----
 Symbolic Z-matrix:
 Charge =  0 Multiplicity = 1

 SCF Done:  E(RHF) =  -1341.93231507     A.U. after   12 cycles
 Normal termination of Gaussian 16 at Tue Apr  8 23:38:06 2025.
 Gaussian 16:  ES64L-G16RevC.01  3-Jul-2019

 ----------------------------------------------------------------------
 #t hf aug-cc-pvdz iop(5/13=1,5/36=2,99/5=2) pseudo=read geom=check gue
 ss=(read,tcheck) scf=(maxcycle=1)
 ----------------------------------------------------------------------
 -----
 title
 -----
 Structure from the checkpoint file:  "BDE49_nonexpt_160_mol1.chk"
 Charge =  0 Multiplicity = 1

                         Standard orientation:
 ---------------------------------------------------------------------
 Center     Atomic      Atomic             Coordinates (Angstroms)
 Number     Number       Type             X           Y           Z
 ---------------------------------------------------------------------
      1         17           0        1.662176    0.595641    0.000000
      2         17           0       -1.329538    1.169743    0.000000
      3         16           0       -0.253559   -1.770385    0.000000
      4          5           0        0.000000    0.010866    0.000000
      5          1           0       -1.597916   -1.739706    0.000000
 ---------------------------------------------------------------------

 SCF Done:  E(RHF) =  -1341.99395456     A.U. after    2 cycles

 The electronic state is 1-A'.
 Alpha  occ. eigenvalues -- -103.68188-103.67878 -93.56636 -10.71671 -10.71363
 Alpha  occ. eigenvalues --   -8.86631  -8.37365  -8.37127  -8.37103  -8.37060
 Alpha  occ. eigenvalues --   -8.36821  -8.36797  -7.76555  -6.20787  -6.20547
 Alpha  occ. eigenvalues --   -6.20293  -1.19369  -1.15708  -0.99598  -0.70039
 Alpha  occ. eigenvalues --   -0.62457  -0.58662  -0.54386  -0.52869  -0.49176
 Alpha  occ. eigenvalues --   -0.47928  -0.46593  -0.41108
 Alpha virt. eigenvalues --    0.03854   0.05713   0.05866   0.05905   0.07623
 Alpha virt. eigenvalues --    0.08056   0.10586   0.12650   0.13544   0.13681
 Alpha virt. eigenvalues --    0.15001   0.16102   0.17376   0.18531   0.18754

 Mulliken charges:
               1
     1  Cl  -0.285876
     2  Cl  -0.277618
     3  S   -0.138569
     4  B    0.654884
     5  H    0.047179
 Sum of Mulliken charges =  -0.00000

 Dipole moment (field-independent basis, Debye):
    X=             -1.0524    Y=             -0.8646    Z=              0.0000  Tot=              1.3620

 Test job not archived.
 1\1\GINC-SE423\SP\RHF\Aug-CC-pVDZ\B1Cl2H1S1\OHZDE\08-Apr-2025\0\\#t hf
  aug-cc-pvdz iop(5/13=1,5/36=2,99/5=2) pseudo=read geom=check guess=(r
 ead,tcheck) scf=(maxcycle=1)\\title\\0,1\Cl,0,-1.662158,0.595693,0.\Cl
 ,0,1.329574,1.169702,0.\S,0,0.253503,-1.770393,0.\B,0,0.,0.010866,0.\H
 ,0,1.597861,-1.739756,0.\\Version=ES64L-G16RevC.01\State=1-A'\HF=-1341
 .9939546\RMSD=5.019e-03\Dipole=0.4140417,-0.3401734,0.\Quadrupole=0.82
 11143,-0.3718276,-0.4492867,-1.6531203,0.,0.\PG=CS [SG(B1Cl2H1S1)]\\@

 Normal termination of Gaussian 16 at Tue Apr  8 23:38:08 2025.
