 Gaussian 16, Revision C.01,

 ----------------------------------------------------------------------
 #t hf aug-cc-pvdz symm=none int=(grid=ultrafine) guess=(read,tcheck) s
 table=(opt,rrhf)
 ----------------------------------------------------------------------
 -----
 title
 -----
 Symbolic Z-matrix:
 Charge =  0 Multiplicity = 1

 SCF Done:  E(RHF) =  -827.204246226     A.U. after   13 cycles
 Normal termination of Gaussian 16 at Wed Apr  9 00:10:15 2025.
 Gaussian 16:  ES64L-G16RevC.01  3-Jul-2019

 ----------------------------------------------------------------------
 #t hf aug-cc-pvdz iop(5/13=1,5/36=2,99/5=2) pseudo=read geom=check gue
 ss=(read,tcheck) scf=(maxcycle=1)
 ----------------------------------------------------------------------
 -----
 title
 -----
 Structure from the checkpoint file:  "BDE49_nonexpt_2373_mol1.chk"
 Charge =  0 Multiplicity = 1

                         Standard orientation:
 ---------------------------------------------------------------------
 Center     Atomic      Atomic             Coordinates (Angstroms)
 Number     Number       Type             X           Y           Z
 ---------------------------------------------------------------------
      1         14           0        2.879018   -0.306527    0.000004
      2         14           0        0.906501    0.972136   -0.000001
      3          6           0       -0.508878   -0.348562   -0.000008
      4          1           0        0.806552    1.856704   -1.191597
      5          1           0        0.806545    1.856701    1.191596
      6          8           0       -0.126915   -1.518794   -0.000001
      7          7           0       -1.833545   -0.010794   -0.000002
      8          1           0        2.946018   -1.150240    1.213614
      9          6           0       -2.318128    1.356607    0.000002
     10          1           0       -1.486116    2.059581    0.000002
     11          1           0       -2.929930    1.552600    0.887924
     12          1           0       -2.929935    1.552604   -0.887915
     13          1           0        4.051014    0.606711    0.000009
     14          1           0        2.946026   -1.150236   -1.213609
     15          6           0       -2.847904   -1.058350   -0.000001
     16          1           0       -2.343340   -2.021619   -0.000003
     17          1           0       -3.482250   -0.976790   -0.889220
     18          1           0       -3.482245   -0.976792    0.889222
 ---------------------------------------------------------------------

 SCF Done:  E(RHF) =  -827.324029916     A.U. after    2 cycles

 The electronic state is 1-A.
 Alpha  occ. eigenvalues --  -69.07230 -69.05628 -20.53834 -15.65765 -11.35037
 Alpha  occ. eigenvalues --  -11.28783 -11.26891  -6.82647  -6.80994  -3.93399
 Alpha  occ. eigenvalues --   -3.93364  -3.93327  -3.91753  -3.91748  -3.91738
 Alpha  occ. eigenvalues --   -1.34060  -1.21500  -0.98003  -0.93856  -0.78086
 Alpha  occ. eigenvalues --   -0.73008  -0.68512  -0.66571  -0.65944  -0.63186
 Alpha  occ. eigenvalues --   -0.57393  -0.56852  -0.55571  -0.54723  -0.54109
 Alpha  occ. eigenvalues --   -0.49282  -0.47252  -0.47034  -0.40791  -0.39903
 Alpha  occ. eigenvalues --   -0.37775
 Alpha virt. eigenvalues --    0.02929   0.04153   0.04316   0.04618   0.05623
 Alpha virt. eigenvalues --    0.06713   0.06905   0.07079   0.07512   0.08562
 Alpha virt. eigenvalues --    0.08645   0.09272   0.09883   0.09980   0.10444

 Mulliken charges:
               1
     1  Si  -0.277369
     2  Si  -0.122466
     3  C   -0.045337
     4  H    0.168236
     5  H    0.168236
     6  O   -0.547374
     7  N   -0.247084
     8  H    0.111302
     9  C    0.858468
    10  H   -0.362511
    11  H   -0.098993
    12  H   -0.098995
    13  H    0.026865
    14  H    0.111302
    15  C    0.790097
    16  H   -0.242328
    17  H   -0.096024
    18  H   -0.096025
 Sum of Mulliken charges =  -0.00000

 Dipole moment (field-independent basis, Debye):
    X=             -2.6631    Y=              3.0493    Z=             -0.0000  Tot=              4.0485

 Test job not archived.
 1\1\GINC-SE424\SP\RHF\Aug-CC-pVDZ\C3H11N1O1Si2\OHZDE\09-Apr-2025\0\\#t
  hf aug-cc-pvdz iop(5/13=1,5/36=2,99/5=2) pseudo=read geom=check guess
 =(read,tcheck) scf=(maxcycle=1)\\title\\0,1\Si,0,-2.879018,-0.306527,-
 0.000004\Si,0,-0.906501,0.972136,0.000001\C,0,0.508878,-0.348562,0.000
 008\H,0,-0.806552,1.856704,1.191597\H,0,-0.806545,1.856701,-1.191596\O
 ,0,0.126915,-1.518794,0.000001\N,0,1.833545,-0.010794,0.000002\H,0,-2.
 946018,-1.15024,-1.213614\C,0,2.318128,1.356607,-0.000002\H,0,1.486116
 ,2.059581,-0.000002\H,0,2.92993,1.5526,-0.887924\H,0,2.929935,1.552604

 Normal termination of Gaussian 16 at Wed Apr  9 00:10:23 2025.
