 Gaussian 16, Revision C.01,

 ----------------------------------------------------------------------
 #t hf aug-cc-pvdz symm=none int=(grid=ultrafine) guess=(read,tcheck) s
 table=(opt,rrhf)
 ----------------------------------------------------------------------
 -----
 title
 -----
 Symbolic Z-matrix:
 Charge =  0 Multiplicity = 1

 SCF Done:  E(RHF) =  -840.563637087     A.U. after   14 cycles
 Normal termination of Gaussian 16 at Tue Apr  8 23:52:22 2025.
 Gaussian 16:  ES64L-G16RevC.01  3-Jul-2019

 ----------------------------------------------------------------------
 #t hf aug-cc-pvdz iop(5/13=1,5/36=2,99/5=2) pseudo=read geom=check gue
 ss=(read,tcheck) scf=(maxcycle=1)
 ----------------------------------------------------------------------
 -----
 title
 -----
 Structure from the checkpoint file:  "BDE49_nonexpt_1943_mol1.chk"
 Charge =  0 Multiplicity = 1

                         Standard orientation:
 ---------------------------------------------------------------------
 Center     Atomic      Atomic             Coordinates (Angstroms)
 Number     Number       Type             X           Y           Z
 ---------------------------------------------------------------------
      1         14           0       -2.053265   -0.296524   -0.263347
      2          6           0       -0.572484   -0.011450    0.908446
      3          6           0        0.694597    0.333997    0.181603
      4         16           0        1.899876   -0.721119   -0.140598
      5          8           0        0.776652    1.606786   -0.255867
      6          1           0       -2.327649    0.953583   -1.011246
      7          1           0       -3.234447   -0.637399    0.560227
      8          1           0       -0.007874    2.105991    0.008814
      9          1           0       -1.751235   -1.389145   -1.208208
     10          1           0       -0.427737   -0.923359    1.486772
     11          1           0       -0.849258    0.789995    1.606714
 ---------------------------------------------------------------------

 SCF Done:  E(RHF) =  -840.652888981     A.U. after    2 cycles

 The electronic state is 1-A.
 Alpha  occ. eigenvalues --  -93.50001 -69.09188 -20.64772 -11.39975 -11.26891
 Alpha  occ. eigenvalues --   -8.79972  -6.84453  -6.14193  -6.13727  -6.13541
 Alpha  occ. eigenvalues --   -3.95243  -3.95219  -3.95203  -1.41512  -1.07115
 Alpha  occ. eigenvalues --   -0.96791  -0.82323  -0.74170  -0.71144  -0.65109
 Alpha  occ. eigenvalues --   -0.62800  -0.58113  -0.52767  -0.50025  -0.49647
 Alpha  occ. eigenvalues --   -0.49350  -0.36554  -0.33897
 Alpha virt. eigenvalues --    0.02296   0.03906   0.04622   0.05240   0.06367
 Alpha virt. eigenvalues --    0.07016   0.07626   0.08448   0.08770   0.09211
 Alpha virt. eigenvalues --    0.10433   0.12226   0.13786   0.14546   0.14772

 Mulliken charges:
               1
     1  Si   0.320462
     2  C   -0.041320
     3  C    0.247417
     4  S    0.023771
     5  O   -0.533030
     6  H   -0.003368
     7  H    0.023806
     8  H    0.164272
     9  H    0.054466
    10  H   -0.124278
    11  H   -0.132199
 Sum of Mulliken charges =  -0.00000

 Dipole moment (field-independent basis, Debye):
    X=             -4.2035    Y=              1.5083    Z=              1.7184  Tot=              4.7851

 Test job not archived.
 1\1\GINC-SE250\SP\RHF\Aug-CC-pVDZ\C2H6O1S1Si1\OHZDE\08-Apr-2025\0\\#t
 hf aug-cc-pvdz iop(5/13=1,5/36=2,99/5=2) pseudo=read geom=check guess=
 (read,tcheck) scf=(maxcycle=1)\\title\\0,1\Si,0,-2.053265,-0.296524,-0
 .263347\C,0,-0.572484,-0.01145,0.908446\C,0,0.694597,0.333997,0.181603
 \S,0,1.899876,-0.721119,-0.140598\O,0,0.776652,1.606786,-0.255867\H,0,
 -2.327649,0.953583,-1.011246\H,0,-3.234447,-0.6374,0.560227\H,0,-0.007
 874,2.105991,0.008814\H,0,-1.751235,-1.389145,-1.208208\H,0,-0.427737,
 -0.923359,1.486772\H,0,-0.849258,0.789995,1.606714\\Version=ES64L-G16R

 Normal termination of Gaussian 16 at Tue Apr  8 23:52:26 2025.
