 Gaussian 16, Revision C.01,

 ----------------------------------------------------------------------
 #t hf aug-cc-pvdz symm=none int=(grid=ultrafine) guess=(read,tcheck) s
 table=opt
 ----------------------------------------------------------------------
 -----
 title
 -----
 Symbolic Z-matrix:
 Charge =  0 Multiplicity = 2

 SCF Done:  E(UHF) =  -435.969095396     A.U. after   16 cycles
 Normal termination of Gaussian 16 at Tue Apr  8 23:33:02 2025.
 Gaussian 16:  ES64L-G16RevC.01  3-Jul-2019

 ----------------------------------------------------------------------
 #t hf aug-cc-pvdz iop(5/13=1,5/36=2,99/5=2) pseudo=read geom=check gue
 ss=(read,tcheck) scf=(maxcycle=1)
 ----------------------------------------------------------------------
 -----
 title
 -----
 Structure from the checkpoint file:  "BDE49_nonexpt_1467_mol2.chk"
 Charge =  0 Multiplicity = 2

                         Standard orientation:
 ---------------------------------------------------------------------
 Center     Atomic      Atomic             Coordinates (Angstroms)
 Number     Number       Type             X           Y           Z
 ---------------------------------------------------------------------
      1          6           0        1.402026    0.432627    0.011144
      2         15           0       -0.084052   -0.673531   -0.016432
      3          1           0        1.425598    1.035829    0.923897
      4          1           0        1.427735    1.102921   -0.855171
      5          1           0        2.299542   -0.189156   -0.015763
      6          7           0       -1.279419    0.548205    0.070142
      7          1           0       -1.109320    1.466133   -0.320391
      8          1           0       -2.238994    0.254036   -0.043953
 ---------------------------------------------------------------------

 SCF Done:  E(UHF) =  -436.024859334     A.U. after    2 cycles

 The electronic state is 2-A.
 Alpha  occ. eigenvalues --  -81.26686 -15.62458 -11.23644  -7.76825  -4.91399
 Alpha  occ. eigenvalues --   -4.90581  -4.90181  -1.12836  -0.95835  -0.73654
 Alpha  occ. eigenvalues --   -0.67366  -0.58368  -0.57779  -0.51884  -0.47325
 Alpha  occ. eigenvalues --   -0.38844  -0.28240
 Alpha virt. eigenvalues --    0.03500   0.04376   0.05510   0.06001   0.07794
 Alpha virt. eigenvalues --    0.09063   0.11565   0.12177   0.12796   0.15559
 Alpha virt. eigenvalues --    0.16589   0.17321   0.18836   0.19524   0.21847

  Beta  occ. eigenvalues --  -81.26050 -15.61903 -11.23775  -7.76060  -4.90206
  Beta  occ. eigenvalues --   -4.89881  -4.88412  -1.11265  -0.95303  -0.69869
  Beta  occ. eigenvalues --   -0.66993  -0.57257  -0.56632  -0.50598  -0.41832
  Beta  occ. eigenvalues --   -0.35944
  Beta virt. eigenvalues --    0.03512   0.04409   0.05553   0.05931   0.07697
  Beta virt. eigenvalues --    0.07805   0.09271   0.11715   0.13080   0.14286
  Beta virt. eigenvalues --    0.16632   0.17309   0.17794   0.19023   0.19781

 Mulliken charges and spin densities:
               1          2
     1  C    0.154190  -0.093404
     2  P    0.789126   1.018785
     3  H   -0.130177   0.016114
     4  H   -0.157305   0.014249
     5  H   -0.203826  -0.002831
     6  N   -0.444073   0.073501
     7  H    0.001612  -0.013598
     8  H   -0.009547  -0.012817
 Sum of Mulliken charges =  -0.00000   1.00000

 Dipole moment (field-independent basis, Debye):
    X=             -0.2192    Y=              1.6038    Z=             -0.7106  Tot=              1.7679
                          Isotropic Fermi Contact Couplings
        Atom                 a.u.       MegaHertz       Gauss      10(-4) cm-1
     1  C(13)             -0.02374     -26.68760      -9.52280      -8.90203
     2  P(31)              0.24549     444.61119     158.64833     148.30633
     3  H(1)               0.01030      46.04193      16.42891      15.35794
     4  H(1)               0.00965      43.11666      15.38510      14.38217
     5  H(1)               0.00004       0.16918       0.06037       0.05643
     6  N(14)              0.05946      19.21144       6.85512       6.40825
     7  H(1)              -0.00010      -0.42846      -0.15289      -0.14292
     8  H(1)              -0.00329     -14.69208      -5.24250      -4.90075

 Normal termination of Gaussian 16 at Tue Apr  8 23:33:04 2025.
