 Gaussian 16, Revision C.01,

 ----------------------------------------------------------------------
 #t hf aug-cc-pvdz symm=none int=(grid=ultrafine) guess=(read,tcheck) s
 table=(opt,rrhf)
 ----------------------------------------------------------------------
 -----
 title
 -----
 Symbolic Z-matrix:
 Charge =  0 Multiplicity = 1

 SCF Done:  E(RHF) =  -995.802262890     A.U. after   14 cycles
 Normal termination of Gaussian 16 at Tue Apr  8 23:46:52 2025.
 Gaussian 16:  ES64L-G16RevC.01  3-Jul-2019

 ----------------------------------------------------------------------
 #t hf aug-cc-pvdz iop(5/13=1,5/36=2,99/5=2) pseudo=read geom=check gue
 ss=(read,tcheck) scf=(maxcycle=1)
 ----------------------------------------------------------------------
 -----
 title
 -----
 Structure from the checkpoint file:  "BDE49_nonexpt_1794_mol1.chk"
 Charge =  0 Multiplicity = 1

                         Standard orientation:
 ---------------------------------------------------------------------
 Center     Atomic      Atomic             Coordinates (Angstroms)
 Number     Number       Type             X           Y           Z
 ---------------------------------------------------------------------
      1          6           0       -2.300750    1.233632    0.019837
      2          6           0       -0.961995    1.141329    0.377844
      3          6           0       -2.964416    0.071861   -0.371962
      4          7           0       -2.384163   -1.130265   -0.421099
      5          6           0       -1.096328   -1.201376   -0.074893
      6          6           0       -0.320379   -0.105451    0.334042
      7          1           0       -2.824809    2.181737    0.042918
      8          1           0       -0.422366    2.030622    0.688055
      9          1           0       -0.656189   -2.194505   -0.124639
     10         14           0        1.470272   -0.319589    0.800969
     11         17           0        2.724124    0.272085   -0.761607
     12          1           0       -4.011909    0.107362   -0.658688
     13          1           0        1.756601   -1.740241    1.072740
     14          1           0        1.817100    0.535704    1.951855
 ---------------------------------------------------------------------

 SCF Done:  E(RHF) =  -995.914815160     A.U. after    2 cycles

 The electronic state is 1-A.
 Alpha  occ. eigenvalues -- -103.65071 -69.12105 -15.64212 -11.30358 -11.30213
 Alpha  occ. eigenvalues --  -11.28679 -11.26310 -11.25374 -10.68506  -8.34197
 Alpha  occ. eigenvalues --   -8.33975  -8.33972  -6.86984  -3.97794  -3.97689
 Alpha  occ. eigenvalues --   -3.97672  -1.24328  -1.13426  -1.08811  -1.03931
 Alpha  occ. eigenvalues --   -0.86950  -0.86772  -0.74542  -0.70518  -0.68014
 Alpha  occ. eigenvalues --   -0.64071  -0.58977  -0.57860  -0.56049  -0.53288
 Alpha  occ. eigenvalues --   -0.53011  -0.51195  -0.46456  -0.45907  -0.41896
 Alpha  occ. eigenvalues --   -0.39629  -0.36371
 Alpha virt. eigenvalues --    0.02922   0.03760   0.04417   0.05110   0.05663
 Alpha virt. eigenvalues --    0.06134   0.07072   0.07937   0.08443   0.09152
 Alpha virt. eigenvalues --    0.09943   0.10282   0.10422   0.12665   0.13084

 Mulliken charges:
               1
     1  C    0.780013
     2  C    0.159096
     3  C    0.552675
     4  N   -0.473991
     5  C    0.767175
     6  C   -0.253742
     7  H   -0.391504
     8  H   -0.564224
     9  H   -0.468944
    10  Si   0.808885
    11  Cl  -0.568424
    12  H   -0.336831
    13  H   -0.011989
    14  H    0.001805
 Sum of Mulliken charges =  -0.00000

 Dipole moment (field-independent basis, Debye):
    X=             -1.0944    Y=              1.4351    Z=              1.6100  Tot=              2.4186

 Test job not archived.
 1\1\GINC-SE108\SP\RHF\Aug-CC-pVDZ\C5H6Cl1N1Si1\OHZDE\08-Apr-2025\0\\#t
  hf aug-cc-pvdz iop(5/13=1,5/36=2,99/5=2) pseudo=read geom=check guess
 =(read,tcheck) scf=(maxcycle=1)\\title\\0,1\C,0,-2.30075,1.233632,0.01
 9837\C,0,-0.961995,1.141329,0.377844\C,0,-2.964416,0.071861,-0.371962\
 N,0,-2.384163,-1.130265,-0.421099\C,0,-1.096328,-1.201376,-0.074893\C,
 0,-0.320379,-0.105451,0.334042\H,0,-2.824809,2.181737,0.042918\H,0,-0.
 422366,2.030622,0.688055\H,0,-0.656189,-2.194505,-0.124639\Si,0,1.4702
 72,-0.319589,0.800969\Cl,0,2.724124,0.272085,-0.761607\H,0,-4.011909,0

 Normal termination of Gaussian 16 at Tue Apr  8 23:46:59 2025.
