 Gaussian 16, Revision C.01,

 ----------------------------------------------------------------------
 #t hf aug-cc-pvdz symm=none int=(grid=ultrafine) guess=(read,tcheck) s
 table=(opt,rrhf)
 ----------------------------------------------------------------------
 -----
 title
 -----
 Symbolic Z-matrix:
 Charge =  0 Multiplicity = 1

 SCF Done:  E(RHF) =  -289.270428762     A.U. after   12 cycles

 1\1\GINC-SE338\Stability\RHF\Aug-CC-pVDZ\C6H13N1\OHZDE\08-Apr-2025\0\\
 #t hf aug-cc-pvdz symm=none int=(grid=ultrafine) guess=(read,tcheck) s
 table=(opt,rrhf)\\title\\0,1\C,0,-1.031195,0.,0.317439\C,0,-0.311645,-
 1.260575,-0.180419\C,0,1.172362,-1.268052,0.212364\C,0,1.888091,0.,-0.
 275066\C,0,1.172362,1.268052,0.212364\C,0,-0.311646,1.260575,-0.180418
 \N,0,-2.415163,0.,-0.17444\H,0,-2.909985,-0.813893,0.180375\H,0,-2.909
 984,0.813893,0.180374\H,0,-0.414669,-1.299973,-1.271376\H,0,-0.812734,
 -2.152128,0.215707\H,0,1.661487,-2.159547,-0.192857\H,0,1.261002,-1.33

 Normal termination of Gaussian 16 at Tue Apr  8 22:39:09 2025.
 Gaussian 16:  ES64L-G16RevC.01  3-Jul-2019

 ----------------------------------------------------------------------
 #t hf aug-cc-pvdz iop(5/13=1,5/36=2,99/5=2) pseudo=read geom=check gue
 ss=(read,tcheck) scf=(maxcycle=1)
 ----------------------------------------------------------------------
 -----
 title
 -----
 Structure from the checkpoint file:  "BDE49_expt_1291_mol1.chk"
 Charge =  0 Multiplicity = 1

                         Standard orientation:
 ---------------------------------------------------------------------
 Center     Atomic      Atomic             Coordinates (Angstroms)
 Number     Number       Type             X           Y           Z
 ---------------------------------------------------------------------
      1          6           0       -1.031195   -0.000000    0.317439
      2          6           0       -0.311645   -1.260575   -0.180419
      3          6           0        1.172362   -1.268052    0.212364
      4          6           0        1.888091    0.000000   -0.275066
      5          6           0        1.172362    1.268052    0.212364
      6          6           0       -0.311646    1.260575   -0.180418
      7          7           0       -2.415163   -0.000000   -0.174440
      8          1           0       -2.909985   -0.813893    0.180375
      9          1           0       -2.909984    0.813893    0.180374
     10          1           0       -0.414669   -1.299973   -1.271376
     11          1           0       -0.812734   -2.152128    0.215707
     12          1           0        1.661487   -2.159547   -0.192857
     13          1           0        1.261002   -1.335130    1.304471
     14          1           0        1.912632    0.000000   -1.372300
     15          1           0        2.930085    0.000000    0.061192
     16          1           0        1.661486    2.159547   -0.192857
     17          1           0        1.261002    1.335130    1.304471
     18          1           0       -0.812734    2.152128    0.215707
     19          1           0       -0.414669    1.299973   -1.271376
     20          1           0       -0.976752   -0.000000    1.421966
 ---------------------------------------------------------------------

 SCF Done:  E(RHF) =  -289.357585645     A.U. after    2 cycles

 The electronic state is 1-A.
 Alpha  occ. eigenvalues --  -15.60073 -11.25644 -11.22443 -11.22438 -11.22309
 Alpha  occ. eigenvalues --  -11.22087 -11.22077  -1.15546  -1.07794  -0.99336
 Alpha  occ. eigenvalues --   -0.96316  -0.83246  -0.80999  -0.74945  -0.64305
 Alpha  occ. eigenvalues --   -0.63950  -0.62946  -0.60474  -0.59222  -0.53283
 Alpha  occ. eigenvalues --   -0.52596  -0.50202  -0.49749  -0.48233  -0.45655
 Alpha  occ. eigenvalues --   -0.43982  -0.42739  -0.38167
 Alpha virt. eigenvalues --    0.03481   0.04086   0.04145   0.04661   0.06117
 Alpha virt. eigenvalues --    0.06193   0.06779   0.07095   0.07135   0.08972
 Alpha virt. eigenvalues --    0.09304   0.09355   0.09383   0.13264   0.14050

 Mulliken charges:
               1
     1  C   -0.049729
     2  C    0.349672
     3  C    0.207701
     4  C    0.299116
     5  C    0.207701
     6  C    0.349672
     7  N   -0.311444
     8  H   -0.018917
     9  H   -0.018918
    10  H   -0.007234
    11  H   -0.134153
    12  H   -0.112036
    13  H   -0.068636
    14  H   -0.086104
    15  H   -0.116025
    16  H   -0.112037
    17  H   -0.068636
    18  H   -0.134157
    19  H   -0.007231
    20  H   -0.168605
 Sum of Mulliken charges =  -0.00000

 Dipole moment (field-independent basis, Debye):
    X=              0.0804    Y=              0.0000    Z=              1.2789  Tot=              1.2814

 Test job not archived.
 1\1\GINC-SE338\SP\RHF\Aug-CC-pVDZ\C6H13N1\OHZDE\08-Apr-2025\0\\#t hf a
 ug-cc-pvdz iop(5/13=1,5/36=2,99/5=2) pseudo=read geom=check guess=(rea
 d,tcheck) scf=(maxcycle=1)\\title\\0,1\C,0,-1.031195,0.,0.317439\C,0,-
 0.311645,-1.260575,-0.180419\C,0,1.172362,-1.268052,0.212364\C,0,1.888
 091,0.,-0.275066\C,0,1.172362,1.268052,0.212364\C,0,-0.311646,1.260575
 ,-0.180418\N,0,-2.415163,0.,-0.17444\H,0,-2.909985,-0.813893,0.180375\
 H,0,-2.909984,0.813893,0.180374\H,0,-0.414669,-1.299973,-1.271376\H,0,
 -0.812734,-2.152128,0.215707\H,0,1.661487,-2.159547,-0.192857\H,0,1.26

 Normal termination of Gaussian 16 at Tue Apr  8 22:39:16 2025.
