 Gaussian 16, Revision C.01,

 ----------------------------------------------------------------------
 #t hf aug-cc-pvdz symm=none int=(grid=ultrafine) guess=(read,tcheck) s
 table=(opt,rrhf)
 ----------------------------------------------------------------------
 -----
 title
 -----
 Symbolic Z-matrix:
 Charge =  0 Multiplicity = 1

 SCF Done:  E(RHF) =  -733.358840192     A.U. after   12 cycles
 Normal termination of Gaussian 16 at Tue Apr  8 22:47:54 2025.
 Gaussian 16:  ES64L-G16RevC.01  3-Jul-2019

 ----------------------------------------------------------------------
 #t hf aug-cc-pvdz iop(5/13=1,5/36=2,99/5=2) pseudo=read geom=check gue
 ss=(read,tcheck) scf=(maxcycle=1)
 ----------------------------------------------------------------------
 -----
 title
 -----
 Structure from the checkpoint file:  "BDE49_expt_1662_mol1.chk"
 Charge =  0 Multiplicity = 1

                         Standard orientation:
 ---------------------------------------------------------------------
 Center     Atomic      Atomic             Coordinates (Angstroms)
 Number     Number       Type             X           Y           Z
 ---------------------------------------------------------------------
      1          6           0       -2.868895    0.702504    0.395243
      2          6           0       -1.508026    1.075400   -0.171927
      3          1           0       -3.641300    1.403574    0.084358
      4          1           0       -2.855707    0.639924    1.483163
      5         17           0       -3.443901   -0.931288   -0.181841
      6          6           0       -0.345986    0.206275    0.318556
      7          1           0       -1.327549    2.120924    0.113271
      8          1           0       -1.558421    1.056549   -1.265567
      9          6           0        1.008310    0.638208   -0.255079
     10          1           0       -0.538394   -0.838077    0.052651
     11          1           0       -0.305822    0.243822    1.414855
     12          6           0        2.178903   -0.223066    0.231866
     13          1           0        1.198097    1.687432    0.006401
     14          1           0        0.964056    0.601079   -1.351030
     15          6           0        3.534893    0.201956   -0.343180
     16          1           0        1.988949   -1.272090   -0.028813
     17          1           0        2.224620   -0.186513    1.328061
     18          6           0        4.698668   -0.663441    0.148535
     19          1           0        3.724334    1.250509   -0.083091
     20          1           0        3.489412    0.164364   -1.438308
     21          1           0        4.792112   -0.618693    1.238129
     22          1           0        5.649648   -0.335123   -0.279644
     23          1           0        4.555070   -1.712798   -0.127227
 ---------------------------------------------------------------------

 SCF Done:  E(RHF) =  -733.463572252     A.U. after    2 cycles

 The electronic state is 1-A.
 Alpha  occ. eigenvalues -- -103.64166 -11.30407 -11.24672 -11.23228 -11.23012
 Alpha  occ. eigenvalues --  -11.22842 -11.22700 -11.22266 -10.67440  -8.33154
 Alpha  occ. eigenvalues --   -8.32882  -8.32872  -1.15481  -1.08133  -1.04325
 Alpha  occ. eigenvalues --   -0.98618  -0.91489  -0.84098  -0.79724  -0.79032
 Alpha  occ. eigenvalues --   -0.66436  -0.64012  -0.62751  -0.60144  -0.58670
 Alpha  occ. eigenvalues --   -0.57075  -0.54276  -0.53636  -0.52254  -0.49873
 Alpha  occ. eigenvalues --   -0.48976  -0.47513  -0.46751  -0.46507  -0.45659
 Alpha  occ. eigenvalues --   -0.43900  -0.43434
 Alpha virt. eigenvalues --    0.03353   0.03653   0.04266   0.04761   0.05330
 Alpha virt. eigenvalues --    0.05676   0.06292   0.06969   0.07704   0.07925
 Alpha virt. eigenvalues --    0.08455   0.09255   0.10315   0.10788   0.11086

 Mulliken charges:
               1
     1  C    0.451471
     2  C    0.281687
     3  H    0.003314
     4  H   -0.027553
     5  Cl  -0.164827
     6  C    0.224341
     7  H   -0.099418
     8  H   -0.167652
     9  C    0.013339
    10  H   -0.173972
    11  H   -0.172303
    12  C    0.136956
    13  H   -0.202914
    14  H   -0.186260
    15  C    0.404456
    16  H   -0.179900
    17  H   -0.182323
    18  C    0.603121
    19  H   -0.156193
    20  H   -0.157610
    21  H   -0.091624
    22  H   -0.066310
    23  H   -0.089825
 Sum of Mulliken charges =  -0.00000

 Dipole moment (field-independent basis, Debye):
    X=              1.1954    Y=              2.1397    Z=              0.6155  Tot=              2.5271

 Test job not archived.
 1\1\GINC-SE461\SP\RHF\Aug-CC-pVDZ\C7H15Cl1\OHZDE\08-Apr-2025\0\\#t hf
 aug-cc-pvdz iop(5/13=1,5/36=2,99/5=2) pseudo=read geom=check guess=(re
 ad,tcheck) scf=(maxcycle=1)\\title\\0,1\C,0,-2.868895,0.702504,0.39524
 3\C,0,-1.508026,1.0754,-0.171927\H,0,-3.6413,1.403574,0.084358\H,0,-2.
 855707,0.639924,1.483163\Cl,0,-3.443901,-0.931288,-0.181841\C,0,-0.345
 986,0.206275,0.318556\H,0,-1.327549,2.120924,0.113271\H,0,-1.558421,1.
 056549,-1.265567\C,0,1.00831,0.638208,-0.255079\H,0,-0.538394,-0.83807
 7,0.052651\H,0,-0.305822,0.243822,1.414855\C,0,2.178903,-0.223066,0.23

 Normal termination of Gaussian 16 at Tue Apr  8 22:48:06 2025.
