 Gaussian 16, Revision C.01,

 ----------------------------------------------------------------------
 #t hf aug-cc-pvdz symm=none int=(grid=ultrafine) guess=(read,tcheck) s
 table=(opt,rrhf)
 ----------------------------------------------------------------------
 -----
 title
 -----
 Symbolic Z-matrix:
 Charge =  0 Multiplicity = 1

 SCF Done:  E(RHF) =  -624.167680949     A.U. after   14 cycles
 Normal termination of Gaussian 16 at Wed Apr  9 00:45:57 2025.
 Gaussian 16:  ES64L-G16RevC.01  3-Jul-2019

 ----------------------------------------------------------------------
 #t hf aug-cc-pvdz iop(5/13=1,5/36=2,99/5=2) pseudo=read geom=check gue
 ss=(read,tcheck) scf=(maxcycle=1)
 ----------------------------------------------------------------------
 -----
 title
 -----
 Structure from the checkpoint file:  "BDE49_nonexpt_805_mol1.chk"
 Charge =  0 Multiplicity = 1

                         Standard orientation:
 ---------------------------------------------------------------------
 Center     Atomic      Atomic             Coordinates (Angstroms)
 Number     Number       Type             X           Y           Z
 ---------------------------------------------------------------------
      1          5           0        2.508913    0.273429   -0.196188
      2          6           0        3.959765   -0.317245   -0.293987
      3          6           0       -0.718088   -0.382287    0.304217
      4          6           0        2.201415    1.709004   -0.744328
      5          1           0        2.923303    2.071163   -1.484292
      6          1           0        2.292165    2.383889    0.124403
      7          1           0        1.185262    1.851770   -1.121133
      8          1           0        4.219902   -1.065577    0.459805
      9          1           0        4.747539    0.442687   -0.339794
     10          1           0        3.991362   -0.845584   -1.262418
     11          6           0       -1.306790    0.762278    0.867377
     12          6           0       -1.490165   -1.139082   -0.591244
     13          6           0       -2.794247   -0.768128   -0.914881
     14          6           0       -3.356754    0.371770   -0.345631
     15          6           0       -2.609797    1.136872    0.548580
     16          1           0       -3.043917    2.022589    0.999832
     17          1           0       -0.745421    1.368307    1.572632
     18          1           0       -3.371729   -1.371035   -1.607407
     19          1           0       -4.372079    0.660791   -0.593731
     20          1           0       -1.071752   -2.035779   -1.037941
     21         14           0        1.063103   -0.860209    0.698090
     22          1           0        1.235137   -2.296522    0.345131
     23          1           0        1.270192   -0.750006    2.171972
 ---------------------------------------------------------------------

 SCF Done:  E(RHF) =  -624.288572436     A.U. after    2 cycles

 The electronic state is 1-A.
 Alpha  occ. eigenvalues --  -69.03998 -11.24687 -11.24663 -11.24620 -11.24429
 Alpha  occ. eigenvalues --  -11.24382 -11.23133 -11.20840 -11.20617  -7.60576
 Alpha  occ. eigenvalues --   -6.79501  -3.90255  -3.90246  -3.90145  -1.13813
 Alpha  occ. eigenvalues --   -1.00817  -1.00524  -0.96421  -0.92047  -0.82459
 Alpha  occ. eigenvalues --   -0.82197  -0.72225  -0.67710  -0.62961  -0.62656
 Alpha  occ. eigenvalues --   -0.60073  -0.58989  -0.57440  -0.55990  -0.55187
 Alpha  occ. eigenvalues --   -0.53894  -0.53134  -0.50499  -0.49478  -0.46660
 Alpha  occ. eigenvalues --   -0.46232  -0.44073  -0.38769  -0.33964  -0.33021
 Alpha virt. eigenvalues --    0.03025   0.03839   0.04114   0.04717   0.05204
 Alpha virt. eigenvalues --    0.05375   0.06350   0.06704   0.06866   0.07125
 Alpha virt. eigenvalues --    0.07493   0.08051   0.08582   0.09303   0.09571

 Mulliken charges:
               1
     1  B    0.622019
     2  C    0.510417
     3  C   -0.544873
     4  C    0.579268
     5  H   -0.315450
     6  H   -0.131402
     7  H   -0.319892
     8  H   -0.301110
     9  H   -0.328672
    10  H   -0.091343
    11  C    0.541592
    12  C    0.692136
    13  C    0.677093
    14  C    0.717297
    15  C    0.528975
    16  H   -0.466044
    17  H   -0.649921
    18  H   -0.457956
    19  H   -0.443977
    20  H   -0.629891
    21  Si  -0.494855
    22  H    0.081676
    23  H    0.224913
 Sum of Mulliken charges =   0.00000

 Dipole moment (field-independent basis, Debye):
    X=              0.1746    Y=              0.7909    Z=             -0.7101  Tot=              1.0771

 Test job not archived.
 1\1\GINC-SE455\SP\RHF\Aug-CC-pVDZ\C8H13B1Si1\OHZDE\09-Apr-2025\0\\#t h
 f aug-cc-pvdz iop(5/13=1,5/36=2,99/5=2) pseudo=read geom=check guess=(
 read,tcheck) scf=(maxcycle=1)\\title\\0,1\B,0,2.508913,0.273429,-0.196
 188\C,0,3.959765,-0.317245,-0.293987\C,0,-0.718088,-0.382287,0.304217\
 C,0,2.201415,1.709004,-0.744328\H,0,2.923303,2.071163,-1.484292\H,0,2.
 292165,2.383889,0.124403\H,0,1.185262,1.85177,-1.121133\H,0,4.219902,-
 1.065577,0.459805\H,0,4.747539,0.442687,-0.339794\H,0,3.991362,-0.8455
 84,-1.262418\C,0,-1.30679,0.762278,0.867377\C,0,-1.490165,-1.139082,-0

 Normal termination of Gaussian 16 at Wed Apr  9 00:46:12 2025.
