 Gaussian 16, Revision C.01,

 ----------------------------------------------------------------------
 #t hf aug-cc-pvdz symm=none int=(grid=ultrafine) guess=(read,tcheck) s
 table=(opt,rrhf)
 ----------------------------------------------------------------------
 -----
 title
 -----
 Symbolic Z-matrix:
 Charge =  0 Multiplicity = 1

 SCF Done:  E(RHF) =  -744.692590400     A.U. after   14 cycles
 Normal termination of Gaussian 16 at Tue Apr  8 23:06:18 2025.
 Gaussian 16:  ES64L-G16RevC.01  3-Jul-2019

 ----------------------------------------------------------------------
 #t hf aug-cc-pvdz iop(5/13=1,5/36=2,99/5=2) pseudo=read geom=check gue
 ss=(read,tcheck) scf=(maxcycle=1)
 ----------------------------------------------------------------------
 -----
 title
 -----
 Structure from the checkpoint file:  "BDE49_expt_459_mol1.chk"
 Charge =  0 Multiplicity = 1

                         Standard orientation:
 ---------------------------------------------------------------------
 Center     Atomic      Atomic             Coordinates (Angstroms)
 Number     Number       Type             X           Y           Z
 ---------------------------------------------------------------------
      1          6           0        0.283101    1.206462   -0.002436
      2          6           0       -1.106369    1.204455   -0.005284
      3          6           0       -1.827056    0.000000   -0.005466
      4          6           0        0.974128    0.000000   -0.000886
      5          6           0        0.283101   -1.206462   -0.002436
      6          6           0       -1.106369   -1.204455   -0.005284
      7          1           0        0.827276    2.142303   -0.000496
      8          1           0       -1.640056    2.149169   -0.011867
      9          7           0       -3.218435    0.000000   -0.068176
     10          1           0       -3.669843   -0.837753    0.267074
     11          1           0       -3.669843    0.837752    0.267074
     12          1           0       -1.640056   -2.149169   -0.011867
     13         17           0        2.734769   -0.000000    0.005798
     14          1           0        0.827276   -2.142303   -0.000496
 ---------------------------------------------------------------------

 SCF Done:  E(RHF) =  -744.795272547     A.U. after    2 cycles

 The electronic state is 1-A.
 Alpha  occ. eigenvalues -- -103.65770 -15.64121 -11.30247 -11.29789 -11.26178
 Alpha  occ. eigenvalues --  -11.26172 -11.24936 -11.24935 -10.69027  -8.34763
 Alpha  occ. eigenvalues --   -8.34466  -8.34443  -1.21145  -1.18100  -1.10811
 Alpha  occ. eigenvalues --   -1.02563  -0.97565  -0.85579  -0.81810  -0.71798
 Alpha  occ. eigenvalues --   -0.70642  -0.65596  -0.62118  -0.61313  -0.60361
 Alpha  occ. eigenvalues --   -0.55750  -0.53042  -0.51536  -0.50717  -0.46026
 Alpha  occ. eigenvalues --   -0.43815  -0.35656  -0.30211
 Alpha virt. eigenvalues --    0.02789   0.03574   0.04459   0.05724   0.06362
 Alpha virt. eigenvalues --    0.08773   0.09585   0.09621   0.10031   0.11434
 Alpha virt. eigenvalues --    0.12784   0.13436   0.13653   0.14187   0.14301

 Mulliken charges:
               1
     1  C    0.511775
     2  C    1.043187
     3  C   -0.028174
     4  C   -0.341339
     5  C    0.511775
     6  C    1.043186
     7  H   -0.423072
     8  H   -0.573990
     9  N   -0.286246
    10  H   -0.038087
    11  H   -0.038088
    12  H   -0.573990
    13  Cl  -0.383866
    14  H   -0.423072
 Sum of Mulliken charges =  -0.00000

 Dipole moment (field-independent basis, Debye):
    X=             -3.4531    Y=             -0.0000    Z=              0.9537  Tot=              3.5824

 Test job not archived.
 1\1\GINC-SE058\SP\RHF\Aug-CC-pVDZ\C6H6Cl1N1\OHZDE\08-Apr-2025\0\\#t hf
  aug-cc-pvdz iop(5/13=1,5/36=2,99/5=2) pseudo=read geom=check guess=(r
 ead,tcheck) scf=(maxcycle=1)\\title\\0,1\C,0,0.283101,1.206462,-0.0024
 36\C,0,-1.106369,1.204455,-0.005284\C,0,-1.827056,0.,-0.005466\C,0,0.9
 74128,0.,-0.000886\C,0,0.283101,-1.206462,-0.002436\C,0,-1.106369,-1.2
 04455,-0.005284\H,0,0.827276,2.142303,-0.000496\H,0,-1.640056,2.149169
 ,-0.011867\N,0,-3.218435,0.,-0.068176\H,0,-3.669843,-0.837753,0.267074
 \H,0,-3.669843,0.837752,0.267074\H,0,-1.640056,-2.149169,-0.011867\Cl,

 Normal termination of Gaussian 16 at Tue Apr  8 23:06:24 2025.
