 Gaussian 16, Revision C.01,

 ----------------------------------------------------------------------
 #t hf aug-cc-pvdz symm=none int=(grid=ultrafine) guess=(read,tcheck) s
 table=opt
 ----------------------------------------------------------------------
 -----
 title
 -----
 Symbolic Z-matrix:
 Charge =  0 Multiplicity = 2

 SCF Done:  E(UHF) =  -291.342846958     A.U. after   20 cycles
 Normal termination of Gaussian 16 at Wed Apr  9 00:32:15 2025.
 Gaussian 16:  ES64L-G16RevC.01  3-Jul-2019

 ----------------------------------------------------------------------
 #t hf aug-cc-pvdz iop(5/13=1,5/36=2,99/5=2) pseudo=read geom=check gue
 ss=(read,tcheck) scf=(maxcycle=1)
 ----------------------------------------------------------------------
 -----
 title
 -----
 Structure from the checkpoint file:  "BDE49_nonexpt_409_mol2.chk"
 Charge =  0 Multiplicity = 2

                         Standard orientation:
 ---------------------------------------------------------------------
 Center     Atomic      Atomic             Coordinates (Angstroms)
 Number     Number       Type             X           Y           Z
 ---------------------------------------------------------------------
      1          9           0       -2.206798   -0.225292    0.000000
      2          5           0       -0.953196   -0.581543    0.000000
      3          6           0        1.277408    0.194003   -0.000000
      4          7           0        2.423244    0.060125   -0.000000
      5          8           0       -0.000000    0.418806    0.000000
 ---------------------------------------------------------------------

 SCF Done:  E(UHF) =  -291.450821749     A.U. after    2 cycles

 The electronic state is 2-A'.
 Alpha  occ. eigenvalues --  -26.18902 -20.71242 -15.66169 -11.38036  -7.80348
 Alpha  occ. eigenvalues --   -1.73713  -1.48592  -1.21410  -0.96268  -0.88104
 Alpha  occ. eigenvalues --   -0.80472  -0.79821  -0.76192  -0.71300  -0.57334
 Alpha  occ. eigenvalues --   -0.49085  -0.47698  -0.44761
 Alpha virt. eigenvalues --    0.03443   0.04620   0.04833   0.05492   0.09417
 Alpha virt. eigenvalues --    0.10466   0.10861   0.11282   0.14109   0.17990
 Alpha virt. eigenvalues --    0.18494   0.20544   0.21054   0.22171   0.22576

  Beta  occ. eigenvalues --  -26.18587 -20.70928 -15.66263 -11.37972  -7.78032
  Beta  occ. eigenvalues --   -1.72698  -1.47546  -1.21507  -0.95376  -0.86325
  Beta  occ. eigenvalues --   -0.79804  -0.77907  -0.74087  -0.71440  -0.57480
  Beta  occ. eigenvalues --   -0.48556  -0.47824
  Beta virt. eigenvalues --    0.00777   0.04319   0.04789   0.05297   0.08833
  Beta virt. eigenvalues --    0.10891   0.11214   0.11752   0.14011   0.15154
  Beta virt. eigenvalues --    0.18378   0.18583   0.21086   0.21765   0.22483

 Mulliken charges and spin densities:
               1          2
     1  F   -0.405019  -0.056345
     2  B    0.581221   1.048906
     3  C    0.079598   0.002506
     4  N   -0.059037  -0.017947
     5  O   -0.196763   0.022880
 Sum of Mulliken charges =  -0.00000   1.00000

 Dipole moment (field-independent basis, Debye):
    X=             -2.3907    Y=             -0.5849    Z=             -0.0000  Tot=              2.4613
                          Isotropic Fermi Contact Couplings
        Atom                 a.u.       MegaHertz       Gauss      10(-4) cm-1
     1  F(19)              0.08828     371.43113     132.53586     123.89609
     2  B(11)              0.51020     731.81528     261.12989     244.10730
     3  C(13)              0.00560       6.29860       2.24750       2.10099
     4  N(14)             -0.00716      -2.31471      -0.82595      -0.77210
     5  O(17)              0.05962     -36.14164     -12.89623     -12.05555
 --------------------------------------------------------
       Center         ----  Spin Dipole Couplings  ----
                      3XX-RR        3YY-RR        3ZZ-RR

 Normal termination of Gaussian 16 at Wed Apr  9 00:32:18 2025.
