 Gaussian 16, Revision C.01,

 ----------------------------------------------------------------------
 #t hf aug-cc-pvdz symm=none int=(grid=ultrafine) guess=(read,tcheck) s
 table=(opt,rrhf)
 ----------------------------------------------------------------------
 -----
 title
 -----
 Symbolic Z-matrix:
 Charge =  0 Multiplicity = 1

 SCF Done:  E(RHF) =  -536.493055861     A.U. after   12 cycles

 1\1\GINC-SE039\Stability\RHF\Aug-CC-pVDZ\C5H11P1\OHZDE\08-Apr-2025\0\\
 #t hf aug-cc-pvdz symm=none int=(grid=ultrafine) guess=(read,tcheck) s
 table=(opt,rrhf)\\title\\0,1\P,0,-1.87765,-0.108821,-0.333595\C,0,-0.3
 7392,0.007864,0.793754\C,0,0.564014,1.21228,0.571143\C,0,0.575205,-1.1
 95439,0.593985\C,0,1.508884,-0.77888,-0.565848\H,0,0.052063,-2.13565,0
 .402234\H,0,1.158606,-1.334771,1.51057\C,0,1.530887,0.777693,-0.557442
 \H,0,1.122266,-1.148942,-1.51877\H,0,2.506596,-1.20686,-0.447434\H,0,2
 .535128,1.171543,-0.387002\H,0,1.201857,1.170012,-1.522271\H,0,1.12893

 Normal termination of Gaussian 16 at Tue Apr  8 23:25:32 2025.
 Gaussian 16:  ES64L-G16RevC.01  3-Jul-2019

 ----------------------------------------------------------------------
 #t hf aug-cc-pvdz iop(5/13=1,5/36=2,99/5=2) pseudo=read geom=check gue
 ss=(read,tcheck) scf=(maxcycle=1)
 ----------------------------------------------------------------------
 -----
 title
 -----
 Structure from the checkpoint file:  "BDE49_nonexpt_1297_mol1.chk"
 Charge =  0 Multiplicity = 1

                         Standard orientation:
 ---------------------------------------------------------------------
 Center     Atomic      Atomic             Coordinates (Angstroms)
 Number     Number       Type             X           Y           Z
 ---------------------------------------------------------------------
      1         15           0       -1.877650   -0.108821   -0.333595
      2          6           0       -0.373920    0.007864    0.793754
      3          6           0        0.564014    1.212280    0.571143
      4          6           0        0.575205   -1.195439    0.593985
      5          6           0        1.508884   -0.778880   -0.565848
      6          1           0        0.052063   -2.135650    0.402234
      7          1           0        1.158606   -1.334771    1.510570
      8          6           0        1.530887    0.777693   -0.557442
      9          1           0        1.122266   -1.148942   -1.518770
     10          1           0        2.506596   -1.206860   -0.447434
     11          1           0        2.535128    1.171543   -0.387002
     12          1           0        1.201857    1.170012   -1.522271
     13          1           0        1.128936    1.386931    1.494520
     14          1           0        0.032270    2.137771    0.341678
     15          1           0       -0.794556    0.009314    1.804054
     16          1           0       -1.247496    0.231140   -1.560242
     17          1           0       -2.361339    1.210718   -0.126962
 ---------------------------------------------------------------------

 SCF Done:  E(RHF) =  -536.572265429     A.U. after    2 cycles

 The electronic state is 1-A.
 Alpha  occ. eigenvalues --  -81.24666 -11.24388 -11.23275 -11.23188 -11.22881
 Alpha  occ. eigenvalues --  -11.22815  -7.75032  -4.89028  -4.88986  -4.88698
 Alpha  occ. eigenvalues --   -1.10982  -0.96251  -0.95990  -0.81369  -0.77763
 Alpha  occ. eigenvalues --   -0.73007  -0.65949  -0.64337  -0.58321  -0.55446
 Alpha  occ. eigenvalues --   -0.51662  -0.48848  -0.48333  -0.47595  -0.46828
 Alpha  occ. eigenvalues --   -0.45890  -0.43021  -0.34321
 Alpha virt. eigenvalues --    0.03382   0.04608   0.04677   0.04954   0.06607
 Alpha virt. eigenvalues --    0.06696   0.06822   0.06939   0.07204   0.09133
 Alpha virt. eigenvalues --    0.09996   0.10859   0.12369   0.12549   0.13754

 Mulliken charges:
               1
     1  P    0.032129
     2  C   -0.502064
     3  C    0.485846
     4  C    0.521678
     5  C    0.254526
     6  H   -0.165425
     7  H   -0.116302
     8  C    0.243402
     9  H   -0.158989
    10  H   -0.114790
    11  H   -0.106230
    12  H   -0.160773
    13  H   -0.105714
    14  H   -0.167753
    15  H   -0.195641
    16  H    0.143261
    17  H    0.112837
 Sum of Mulliken charges =  -0.00000

 Dipole moment (field-independent basis, Debye):
    X=              1.1863    Y=              0.5249    Z=              0.4474  Tot=              1.3722

 Test job not archived.
 1\1\GINC-SE039\SP\RHF\Aug-CC-pVDZ\C5H11P1\OHZDE\08-Apr-2025\0\\#t hf a
 ug-cc-pvdz iop(5/13=1,5/36=2,99/5=2) pseudo=read geom=check guess=(rea
 d,tcheck) scf=(maxcycle=1)\\title\\0,1\P,0,-1.87765,-0.108821,-0.33359
 5\C,0,-0.37392,0.007864,0.793754\C,0,0.564014,1.21228,0.571143\C,0,0.5
 75205,-1.195439,0.593985\C,0,1.508884,-0.77888,-0.565848\H,0,0.052063,
 -2.13565,0.402234\H,0,1.158606,-1.334771,1.51057\C,0,1.530887,0.777693
 ,-0.557442\H,0,1.122266,-1.148942,-1.51877\H,0,2.506596,-1.20686,-0.44
 7434\H,0,2.535128,1.171543,-0.387002\H,0,1.201857,1.170012,-1.522271\H

 Normal termination of Gaussian 16 at Tue Apr  8 23:25:42 2025.
