 Gaussian 16, Revision C.01,

 ----------------------------------------------------------------------
 #t hf aug-cc-pvdz symm=none int=(grid=ultrafine) guess=(read,tcheck) s
 table=(opt,rrhf)
 ----------------------------------------------------------------------
 -----
 title
 -----
 Symbolic Z-matrix:
 Charge =  0 Multiplicity = 1

 SCF Done:  E(RHF) =  -1129.66958566     A.U. after   14 cycles
 Normal termination of Gaussian 16 at Tue Apr  8 23:46:32 2025.
 Gaussian 16:  ES64L-G16RevC.01  3-Jul-2019

 ----------------------------------------------------------------------
 #t hf aug-cc-pvdz iop(5/13=1,5/36=2,99/5=2) pseudo=read geom=check gue
 ss=(read,tcheck) scf=(maxcycle=1)
 ----------------------------------------------------------------------
 -----
 title
 -----
 Structure from the checkpoint file:  "BDE49_nonexpt_1768_mol1.chk"
 Charge =  0 Multiplicity = 1

                         Standard orientation:
 ---------------------------------------------------------------------
 Center     Atomic      Atomic             Coordinates (Angstroms)
 Number     Number       Type             X           Y           Z
 ---------------------------------------------------------------------
      1          6           0        3.409584    0.265373   -0.026369
      2          6           0        2.863779   -0.999892   -0.233360
      3          6           0        1.482898   -1.175983   -0.209448
      4          6           0        2.571585    1.355647    0.199148
      5          6           0        1.190546    1.180014    0.219713
      6          6           0        0.624105   -0.087927    0.019112
      7          1           0        4.485107    0.402678   -0.046370
      8          1           0        3.513162   -1.848690   -0.416574
      9          1           0        1.065376   -2.161297   -0.382420
     10          1           0        2.993089    2.342831    0.352311
     11          1           0        0.549787    2.040682    0.378350
     12         14           0       -1.200467   -0.384517    0.113870
     13         17           0       -2.218996    1.333563   -0.521279
     14          8           0       -1.785710   -0.735953    1.604735
     15          1           0       -2.000107   -0.018270    2.205065
     16          8           0       -1.531507   -1.662897   -0.839363
     17          1           0       -2.394186   -2.077862   -0.758549
 ---------------------------------------------------------------------

 SCF Done:  E(RHF) =  -1129.84556193     A.U. after    2 cycles

 The electronic state is 1-A.
 Alpha  occ. eigenvalues -- -103.64843 -69.15946 -20.58570 -20.58503 -11.25856
 Alpha  occ. eigenvalues --  -11.25762 -11.25745 -11.25141 -11.25096 -11.24213
 Alpha  occ. eigenvalues --  -10.68303  -8.33987  -8.33786  -8.33782  -6.90051
 Alpha  occ. eigenvalues --   -4.01007  -4.00956  -4.00812  -1.33221  -1.30886
 Alpha  occ. eigenvalues --   -1.14926  -1.13104  -1.01802  -1.01642  -0.83843
 Alpha  occ. eigenvalues --   -0.83421  -0.78328  -0.73892  -0.71319  -0.65307
 Alpha  occ. eigenvalues --   -0.63865  -0.62681  -0.60982  -0.59946  -0.57924
 Alpha  occ. eigenvalues --   -0.56920  -0.55765  -0.52874  -0.51289  -0.50438
 Alpha  occ. eigenvalues --   -0.48051  -0.47462  -0.46072  -0.35209  -0.34750
 Alpha virt. eigenvalues --    0.02951   0.03851   0.04126   0.05337   0.05675
 Alpha virt. eigenvalues --    0.06409   0.07416   0.07716   0.08103   0.08611
 Alpha virt. eigenvalues --    0.09337   0.10148   0.10693   0.13225   0.13288

 Mulliken charges:
               1
     1  C    0.729822
     2  C    0.628075
     3  C    0.300841
     4  C    0.679890
     5  C    0.567999
     6  C   -0.499625
     7  H   -0.437408
     8  H   -0.446443
     9  H   -0.601249
    10  H   -0.453738
    11  H   -0.609176
    12  Si   2.038703
    13  Cl  -0.551504
    14  O   -0.817440
    15  H    0.119035
    16  O   -0.782174
    17  H    0.134392
 Sum of Mulliken charges =  -0.00000

 Dipole moment (field-independent basis, Debye):
    X=              0.7767    Y=             -0.0586    Z=              1.2314  Tot=              1.4571

 Test job not archived.
 1\1\GINC-SE090\SP\RHF\Aug-CC-pVDZ\C6H7Cl1O2Si1\OHZDE\08-Apr-2025\0\\#t
  hf aug-cc-pvdz iop(5/13=1,5/36=2,99/5=2) pseudo=read geom=check guess
 =(read,tcheck) scf=(maxcycle=1)\\title\\0,1\C,0,3.409584,0.265373,-0.0
 26369\C,0,2.863779,-0.999892,-0.23336\C,0,1.482898,-1.175983,-0.209448
 \C,0,2.571585,1.355647,0.199148\C,0,1.190546,1.180014,0.219713\C,0,0.6
 24105,-0.087927,0.019112\H,0,4.485107,0.402678,-0.04637\H,0,3.513162,-
 1.84869,-0.416574\H,0,1.065376,-2.161297,-0.38242\H,0,2.993089,2.34283
 1,0.352311\H,0,0.549787,2.040682,0.37835\Si,0,-1.200467,-0.384517,0.11

 Normal termination of Gaussian 16 at Tue Apr  8 23:46:41 2025.
