 Gaussian 16, Revision C.01,

 ----------------------------------------------------------------------
 #t hf aug-cc-pvdz symm=none int=(grid=ultrafine) guess=(read,tcheck) s
 table=(opt,rrhf)
 ----------------------------------------------------------------------
 -----
 title
 -----
 Symbolic Z-matrix:
 Charge =  0 Multiplicity = 1

 SCF Done:  E(RHF) =  -779.056668754     A.U. after   12 cycles
 Normal termination of Gaussian 16 at Tue Apr  8 23:42:12 2025.
 Gaussian 16:  ES64L-G16RevC.01  3-Jul-2019

 ----------------------------------------------------------------------
 #t hf aug-cc-pvdz iop(5/13=1,5/36=2,99/5=2) pseudo=read geom=check gue
 ss=(read,tcheck) scf=(maxcycle=1)
 ----------------------------------------------------------------------
 -----
 title
 -----
 Structure from the checkpoint file:  "BDE49_nonexpt_1710_mol1.chk"
 Charge =  0 Multiplicity = 1

                         Standard orientation:
 ---------------------------------------------------------------------
 Center     Atomic      Atomic             Coordinates (Angstroms)
 Number     Number       Type             X           Y           Z
 ---------------------------------------------------------------------
      1          6           0       -1.692034    0.683963    0.000128
      2         16           0       -0.511901   -0.721907   -0.000032
      3          1           0       -1.577066    1.295093    0.894483
      4          1           0       -2.686167    0.234167    0.000078
      5          1           0       -1.577063    1.295291   -0.894091
      6         15           0        1.346412    0.357418   -0.000073
      7          1           0        1.993516   -0.369766   -1.031814
      8          1           0        1.993228   -0.369311    1.032177
 ---------------------------------------------------------------------

 SCF Done:  E(RHF) =  -779.111342936     A.U. after    2 cycles

 The electronic state is 1-A.
 Alpha  occ. eigenvalues --  -93.53534 -81.28385 -11.27098  -8.83293  -7.78586
 Alpha  occ. eigenvalues --   -6.17372  -6.17183  -6.16861  -4.92448  -4.92406
 Alpha  occ. eigenvalues --   -4.92154  -1.02492  -0.87633  -0.75375  -0.59915
 Alpha  occ. eigenvalues --   -0.59648  -0.53241  -0.49515  -0.46146  -0.35787
 Alpha  occ. eigenvalues --   -0.35339
 Alpha virt. eigenvalues --    0.03649   0.04634   0.05862   0.06149   0.07202
 Alpha virt. eigenvalues --    0.07775   0.10814   0.11330   0.12400   0.13969
 Alpha virt. eigenvalues --    0.14046   0.16539   0.16768   0.17003   0.17004

 Mulliken charges:
               1
     1  C    0.088270
     2  S   -0.096012
     3  H   -0.070172
     4  H   -0.080759
     5  H   -0.070179
     6  P   -0.141654
     7  H    0.185225
     8  H    0.185281
 Sum of Mulliken charges =  -0.00000

 Dipole moment (field-independent basis, Debye):
    X=             -0.1524    Y=              0.9458    Z=              0.0002  Tot=              0.9580

 Test job not archived.
 1\1\GINC-SE457\SP\RHF\Aug-CC-pVDZ\C1H5P1S1\OHZDE\08-Apr-2025\0\\#t hf
 aug-cc-pvdz iop(5/13=1,5/36=2,99/5=2) pseudo=read geom=check guess=(re
 ad,tcheck) scf=(maxcycle=1)\\title\\0,1\C,0,1.692034,0.683963,-0.00012
 8\S,0,0.511901,-0.721907,0.000032\H,0,1.577066,1.295093,-0.894483\H,0,
 2.686167,0.234167,-0.000078\H,0,1.577063,1.295291,0.894091\P,0,-1.3464
 12,0.357418,0.000073\H,0,-1.993516,-0.369766,1.031814\H,0,-1.993228,-0
 .369311,-1.032177\\Version=ES64L-G16RevC.01\State=1-A\HF=-779.1113429\
 RMSD=9.965e-03\Dipole=0.0599767,0.372114,-0.0000935\Quadrupole=2.82913

 Normal termination of Gaussian 16 at Tue Apr  8 23:42:14 2025.
