 Gaussian 16, Revision C.01,

 ----------------------------------------------------------------------
 #t hf aug-cc-pvdz symm=none int=(grid=ultrafine) guess=(read,tcheck) s
 table=(opt,rrhf)
 ----------------------------------------------------------------------
 -----
 title
 -----
 Symbolic Z-matrix:
 Charge =  0 Multiplicity = 1

 SCF Done:  E(RHF) =  -1342.38670307     A.U. after   17 cycles
 Normal termination of Gaussian 16 at Tue Apr  8 23:44:33 2025.
 Gaussian 16:  ES64L-G16RevC.01  3-Jul-2019

 ----------------------------------------------------------------------
 #t hf aug-cc-pvdz iop(5/13=1,5/36=2,99/5=2) pseudo=read geom=check gue
 ss=(read,tcheck) scf=(maxcycle=1)
 ----------------------------------------------------------------------
 -----
 title
 -----
 Structure from the checkpoint file:  "BDE49_nonexpt_1650_mol1.chk"
 Charge =  0 Multiplicity = 1

                         Standard orientation:
 ---------------------------------------------------------------------
 Center     Atomic      Atomic             Coordinates (Angstroms)
 Number     Number       Type             X           Y           Z
 ---------------------------------------------------------------------
      1         14           0        0.473925   -0.035640   -0.299544
      2          7           0        1.324633   -0.251277    1.369127
      3          7           0        0.687957    1.813580   -0.579087
      4         15           0       -1.727890   -0.414987    0.087033
      5          6           0        1.409111   -0.951995   -1.606308
      6          8           0       -2.062934    0.454258    1.384997
      7          8           0       -0.316556    2.432199   -0.943549
      8          8           0        2.498873   -0.576106    1.390224
      9          8           0        1.796306    2.303692   -0.440350
     10          8           0        0.633400   -0.051651    2.374574
     11          8           0       -1.971170   -1.859229    0.105884
     12          6           0        1.395152   -2.482730   -1.403082
     13          1           0        2.430252   -0.557628   -1.607612
     14          1           0        0.960677   -0.682595   -2.569916
     15          1           0        1.909119   -2.758537   -0.480386
     16          1           0        1.912850   -2.971053   -2.230940
     17          1           0        0.377250   -2.874165   -1.357650
     18          1           0       -1.456691    0.257919    2.120109
     19          8           0       -2.510812    0.378730   -1.047477
     20          1           0       -2.300631    1.326903   -1.053849
 ---------------------------------------------------------------------

 SCF Done:  E(RHF) =  -1342.69694739     A.U. after    2 cycles

 The electronic state is 1-A.
 Alpha  occ. eigenvalues --  -81.45210 -69.20933 -20.66864 -20.66766 -20.66117
 Alpha  occ. eigenvalues --  -20.65904 -20.64395 -20.64175 -20.55837 -15.93070
 Alpha  occ. eigenvalues --  -15.93023 -11.29420 -11.27291  -7.93548  -6.95777
 Alpha  occ. eigenvalues --   -5.08206  -5.08120  -5.07751  -4.06564  -4.06469
 Alpha  occ. eigenvalues --   -4.06302  -1.57972  -1.57553  -1.41063  -1.40130
 Alpha  occ. eigenvalues --   -1.40018  -1.37280  -1.29206  -1.07579  -1.00573
 Alpha  occ. eigenvalues --   -0.95970  -0.89937  -0.86793  -0.84692  -0.82232
 Alpha  occ. eigenvalues --   -0.79467  -0.77492  -0.77285  -0.75832  -0.74854
 Alpha  occ. eigenvalues --   -0.73614  -0.68327  -0.66425  -0.65782  -0.63106
 Alpha  occ. eigenvalues --   -0.62529  -0.60699  -0.58585  -0.57218  -0.56754
 Alpha  occ. eigenvalues --   -0.56258  -0.55057  -0.54694  -0.52144  -0.51497
 Alpha  occ. eigenvalues --   -0.51251  -0.51146  -0.50235  -0.46296
 Alpha virt. eigenvalues --    0.01029   0.02219   0.02685   0.03983   0.04276
 Alpha virt. eigenvalues --    0.05020   0.06030   0.06462   0.07004   0.07666
 Alpha virt. eigenvalues --    0.08391   0.08852   0.09456   0.10203   0.10733

 Mulliken charges:
               1
     1  Si   1.731840
     2  N    0.348410
     3  N    0.094432
     4  P    2.168345
     5  C    0.186828
     6  O   -0.775655
     7  O   -0.561572
     8  O   -0.531853
     9  O   -0.482189
    10  O   -0.628608
    11  O   -1.005462
    12  C    0.360025
    13  H   -0.124294
    14  H   -0.237376
    15  H   -0.099023
    16  H   -0.070418
    17  H   -0.084556
    18  H    0.222785
    19  O   -0.697783
    20  H    0.186122
 Sum of Mulliken charges =  -0.00000

 Dipole moment (field-independent basis, Debye):
    X=              1.4699    Y=             -0.4467    Z=             -2.9080  Tot=              3.2889

 Test job not archived.
 1\1\GINC-SE219\SP\RHF\Aug-CC-pVDZ\C2H7N2O7P1Si1\OHZDE\08-Apr-2025\0\\#
 t hf aug-cc-pvdz iop(5/13=1,5/36=2,99/5=2) pseudo=read geom=check gues
 s=(read,tcheck) scf=(maxcycle=1)\\title\\0,1\Si,0,0.473925,-0.03564,-0
 .299544\N,0,1.324633,-0.251277,1.369127\N,0,0.687957,1.81358,-0.579087
 \P,0,-1.72789,-0.414987,0.087033\C,0,1.409111,-0.951995,-1.606308\O,0,
 -2.062934,0.454258,1.384997\O,0,-0.316556,2.432199,-0.943549\O,0,2.498
 873,-0.576106,1.390224\O,0,1.796306,2.303692,-0.44035\O,0,0.6334,-0.05
 1651,2.374574\O,0,-1.97117,-1.859229,0.105884\C,0,1.395152,-2.48273,-1

 Normal termination of Gaussian 16 at Tue Apr  8 23:44:50 2025.
