 Gaussian 16, Revision C.01,

 ----------------------------------------------------------------------
 #t hf aug-cc-pvdz symm=none int=(grid=ultrafine) guess=(read,tcheck) s
 table=opt
 ----------------------------------------------------------------------
 -----
 title
 -----
 Symbolic Z-matrix:
 Charge =  0 Multiplicity = 2

 SCF Done:  E(UHF) =  -1667.56828395     A.U. after   14 cycles
 Normal termination of Gaussian 16 at Tue Apr  8 22:56:36 2025.
 Gaussian 16:  ES64L-G16RevC.01  3-Jul-2019

 ----------------------------------------------------------------------
 #t hf aug-cc-pvdz iop(5/13=1,5/36=2,99/5=2) pseudo=read geom=check gue
 ss=(read,tcheck) scf=(maxcycle=1)
 ----------------------------------------------------------------------
 -----
 title
 -----
 Structure from the checkpoint file:  "BDE49_expt_1945_mol2.chk"
 Charge =  0 Multiplicity = 2

                         Standard orientation:
 ---------------------------------------------------------------------
 Center     Atomic      Atomic             Coordinates (Angstroms)
 Number     Number       Type             X           Y           Z
 ---------------------------------------------------------------------
      1         14           0        0.000000   -0.000058    0.542925
      2         17           0        1.690138   -0.975572   -0.149035
      3         17           0       -1.690018   -0.975778   -0.149035
      4         17           0       -0.000119    1.951398   -0.149044
 ---------------------------------------------------------------------

 SCF Done:  E(UHF) =  -1667.64844956     A.U. after    2 cycles

 The electronic state is 2-A.
 Alpha  occ. eigenvalues -- -103.68560-103.68560-103.68559 -69.22344 -10.72008
 Alpha  occ. eigenvalues --  -10.71993 -10.71993  -8.37845  -8.37838  -8.37838
 Alpha  occ. eigenvalues --   -8.37435  -8.37434  -8.37434  -8.37395  -8.37394
 Alpha  occ. eigenvalues --   -8.37391  -6.96388  -4.07318  -4.06735  -4.06735
 Alpha  occ. eigenvalues --   -1.19271  -1.16181  -1.16180  -0.72576  -0.59725
 Alpha  occ. eigenvalues --   -0.59724  -0.56019  -0.52447  -0.52446  -0.49812
 Alpha  occ. eigenvalues --   -0.49811  -0.48478  -0.38461
 Alpha virt. eigenvalues --    0.05474   0.05509   0.05509   0.05800   0.10660
 Alpha virt. eigenvalues --    0.11911   0.11912   0.12730   0.12730   0.14705
 Alpha virt. eigenvalues --    0.14705   0.16741   0.17266   0.18430   0.19574

  Beta  occ. eigenvalues -- -103.68424-103.68423-103.68423 -69.21708 -10.71859
  Beta  occ. eigenvalues --  -10.71844 -10.71844  -8.37467  -8.37462  -8.37461
  Beta  occ. eigenvalues --   -8.37321  -8.37320  -8.37318  -8.37197  -8.37194
  Beta  occ. eigenvalues --   -8.37194  -6.95286  -4.06325  -4.06325  -4.05433
  Beta  occ. eigenvalues --   -1.18086  -1.15060  -1.15060  -0.69120  -0.58239
  Beta  occ. eigenvalues --   -0.58239  -0.53379  -0.51387  -0.51387  -0.49402
  Beta  occ. eigenvalues --   -0.49401  -0.48261
  Beta virt. eigenvalues --   -0.00554   0.05776   0.05776   0.05868   0.07320
  Beta virt. eigenvalues --    0.10990   0.12736   0.12737   0.13736   0.13736
  Beta virt. eigenvalues --    0.16068   0.16069   0.16894   0.17461   0.18455

 Mulliken charges and spin densities:
               1          2
     1  Si   1.221893   0.843247
     2  Cl  -0.407299   0.052253
     3  Cl  -0.407299   0.052253
     4  Cl  -0.407296   0.052247
 Sum of Mulliken charges =  -0.00000   1.00000

 Dipole moment (field-independent basis, Debye):
    X=             -0.0000    Y=             -0.0003    Z=              1.0857  Tot=              1.0857
                          Isotropic Fermi Contact Couplings
        Atom                 a.u.       MegaHertz       Gauss      10(-4) cm-1
     1  Si(29)             1.13002   -1004.28132    -358.35255    -334.99219
     2  Cl(35)             0.07662      33.59631      11.98800      11.20652
     3  Cl(35)             0.07662      33.59631      11.98800      11.20652
     4  Cl(35)             0.07661      33.59039      11.98589      11.20455
 --------------------------------------------------------
       Center         ----  Spin Dipole Couplings  ----
                      3XX-RR        3YY-RR        3ZZ-RR
 --------------------------------------------------------

 Normal termination of Gaussian 16 at Tue Apr  8 22:56:38 2025.
