 Gaussian 16, Revision C.01,

 ----------------------------------------------------------------------
 #t hf aug-cc-pvdz symm=none int=(grid=ultrafine) guess=(read,tcheck) s
 table=opt
 ----------------------------------------------------------------------
 -----
 title
 -----
 Symbolic Z-matrix:
 Charge =  0 Multiplicity = 2

 SCF Done:  E(UHF) =  -238.662463657     A.U. after   15 cycles
 Normal termination of Gaussian 16 at Wed Apr  9 00:32:56 2025.
 Gaussian 16:  ES64L-G16RevC.01  3-Jul-2019

 ----------------------------------------------------------------------
 #t hf aug-cc-pvdz iop(5/13=1,5/36=2,99/5=2) pseudo=read geom=check gue
 ss=(read,tcheck) scf=(maxcycle=1)
 ----------------------------------------------------------------------
 -----
 title
 -----
 Structure from the checkpoint file:  "BDE49_nonexpt_439_mol2.chk"
 Charge =  0 Multiplicity = 2

                         Standard orientation:
 ---------------------------------------------------------------------
 Center     Atomic      Atomic             Coordinates (Angstroms)
 Number     Number       Type             X           Y           Z
 ---------------------------------------------------------------------
      1          5           0       -0.785001    0.674099    0.000001
      2          9           0       -1.493934   -0.456182   -0.000009
      3          8           0        0.543289    0.719235    0.000006
      4          6           0        1.374908   -0.463598    0.000003
      5          1           0        2.003687   -0.433809   -0.889936
      6          1           0        0.767304   -1.369498   -0.000022
      7          1           0        2.003656   -0.433837    0.889965
 ---------------------------------------------------------------------

 SCF Done:  E(UHF) =  -238.755418238     A.U. after    2 cycles

 The electronic state is 2-A.
 Alpha  occ. eigenvalues --  -26.13385 -20.60308 -11.31121  -7.72297  -1.67697
 Alpha  occ. eigenvalues --   -1.35709  -0.97017  -0.84458  -0.77576  -0.74391
 Alpha  occ. eigenvalues --   -0.71938  -0.65456  -0.64659  -0.53763  -0.50838
 Alpha  occ. eigenvalues --   -0.37810
 Alpha virt. eigenvalues --    0.03368   0.04805   0.05790   0.06138   0.07235
 Alpha virt. eigenvalues --    0.07704   0.08929   0.13377   0.14475   0.14921
 Alpha virt. eigenvalues --    0.16154   0.16889   0.22815   0.23637   0.23924

  Beta  occ. eigenvalues --  -26.13003 -20.60222 -11.30986  -7.70074  -1.66488
  Beta  occ. eigenvalues --   -1.35284  -0.96103  -0.83082  -0.75587  -0.74203
  Beta  occ. eigenvalues --   -0.70323  -0.65742  -0.64050  -0.53455  -0.51133
  Beta virt. eigenvalues --    0.03172   0.04586   0.04978   0.05836   0.07481
  Beta virt. eigenvalues --    0.07587   0.08095   0.12407   0.14401   0.14924
  Beta virt. eigenvalues --    0.16001   0.17026   0.20091   0.23591   0.23914

 Mulliken charges and spin densities:
               1          2
     1  B    0.364314   1.083465
     2  F   -0.353451  -0.040979
     3  O   -0.448682  -0.070101
     4  C    0.820603   0.041334
     5  H   -0.114216  -0.002259
     6  H   -0.154352  -0.009200
     7  H   -0.114215  -0.002259
 Sum of Mulliken charges =  -0.00000   1.00000

 Dipole moment (field-independent basis, Debye):
    X=              1.7863    Y=             -1.0496    Z=              0.0000  Tot=              2.0719
                          Isotropic Fermi Contact Couplings
        Atom                 a.u.       MegaHertz       Gauss      10(-4) cm-1
     1  B(11)              0.48802     699.99220     249.77462     233.49227
     2  F(19)              0.11153     469.23536     167.43485     156.52007
     3  O(17)              0.15532     -94.15161     -33.59564     -31.40560
     4  C(13)              0.02067      23.23866       8.29213       7.75158
     5  H(1)              -0.00105      -4.67137      -1.66686      -1.55820
     6  H(1)              -0.00078      -3.47380      -1.23954      -1.15873
     7  H(1)              -0.00105      -4.67143      -1.66688      -1.55822
 --------------------------------------------------------

 Normal termination of Gaussian 16 at Wed Apr  9 00:32:58 2025.
