 Gaussian 16, Revision C.01,

 ----------------------------------------------------------------------
 #t hf aug-cc-pvdz symm=none int=(grid=ultrafine) guess=(read,tcheck) s
 table=(opt,rrhf)
 ----------------------------------------------------------------------
 -----
 title
 -----
 Symbolic Z-matrix:
 Charge =  0 Multiplicity = 1

 SCF Done:  E(RHF) =  -749.727541766     A.U. after   12 cycles
 Normal termination of Gaussian 16 at Tue Apr  8 23:39:27 2025.
 Gaussian 16:  ES64L-G16RevC.01  3-Jul-2019

 ----------------------------------------------------------------------
 #t hf aug-cc-pvdz iop(5/13=1,5/36=2,99/5=2) pseudo=read geom=check gue
 ss=(read,tcheck) scf=(maxcycle=1)
 ----------------------------------------------------------------------
 -----
 title
 -----
 Structure from the checkpoint file:  "BDE49_nonexpt_1638_mol1.chk"
 Charge =  0 Multiplicity = 1

                         Standard orientation:
 ---------------------------------------------------------------------
 Center     Atomic      Atomic             Coordinates (Angstroms)
 Number     Number       Type             X           Y           Z
 ---------------------------------------------------------------------
      1         15           0       -1.917349   -0.136421   -0.000000
      2         14           0        0.371442    0.008678    0.000000
      3          6           0        0.984261    1.790731    0.000000
      4          1           0        0.632899    2.330950    0.883537
      5          1           0        0.632899    2.330950   -0.883537
      6          6           0        0.984261   -0.879582   -1.544943
      7          1           0        2.079247    1.823805    0.000000
      8          1           0        2.078689   -0.879641   -1.579767
      9          1           0        0.648918   -1.920258   -1.565949
     10          1           0        0.623849   -0.393051   -2.456027
     11          6           0        0.984261   -0.879582    1.544943
     12          1           0        0.623849   -0.393051    2.456027
     13          1           0        2.078689   -0.879641    1.579767
     14          1           0        0.648918   -1.920258    1.565949
     15          1           0       -2.102302    0.817809   -1.036336
     16          1           0       -2.102302    0.817809    1.036336
 ---------------------------------------------------------------------

 SCF Done:  E(RHF) =  -749.810940090     A.U. after    2 cycles

 The electronic state is 1-A'.
 Alpha  occ. eigenvalues --  -81.23481 -69.06110 -11.21551 -11.21458 -11.21455
 Alpha  occ. eigenvalues --   -7.74026  -6.81215  -4.88003  -4.87909  -4.87679
 Alpha  occ. eigenvalues --   -3.91987  -3.91958  -3.91947  -0.96457  -0.92329
 Alpha  occ. eigenvalues --   -0.92308  -0.78133  -0.61471  -0.57488  -0.57000
 Alpha  occ. eigenvalues --   -0.56854  -0.55048  -0.54931  -0.53728  -0.50556
 Alpha  occ. eigenvalues --   -0.44525  -0.43596  -0.40943  -0.33813
 Alpha virt. eigenvalues --    0.02909   0.04711   0.04722   0.05101   0.06684
 Alpha virt. eigenvalues --    0.06717   0.06873   0.07365   0.07463   0.08974
 Alpha virt. eigenvalues --    0.09571   0.10009   0.11499   0.11722   0.12150

 Mulliken charges:
               1
     1  P   -0.716560
     2  Si   1.445687
     3  C    0.496047
     4  H   -0.304162
     5  H   -0.304162
     6  C    0.457191
     7  H   -0.260703
     8  H   -0.265192
     9  H   -0.302332
    10  H   -0.287808
    11  C    0.457191
    12  H   -0.287808
    13  H   -0.265192
    14  H   -0.302332
    15  H    0.220067
    16  H    0.220067
 Sum of Mulliken charges =  -0.00000

 Dipole moment (field-independent basis, Debye):
    X=              1.4036    Y=              0.5596    Z=              0.0000  Tot=              1.5110

 Test job not archived.
 1\1\GINC-SE343\SP\RHF\Aug-CC-pVDZ\C3H11P1Si1\OHZDE\08-Apr-2025\0\\#t h
 f aug-cc-pvdz iop(5/13=1,5/36=2,99/5=2) pseudo=read geom=check guess=(
 read,tcheck) scf=(maxcycle=1)\\title\\0,1\P,0,-1.917349,-0.136421,0.\S
 i,0,0.371442,0.008678,0.\C,0,0.984261,1.790731,0.\H,0,0.632899,2.33095
 ,0.883537\H,0,0.632899,2.33095,-0.883537\C,0,0.984261,-0.879582,-1.544
 943\H,0,2.079247,1.823805,0.\H,0,2.078689,-0.879641,-1.579767\H,0,0.64
 8918,-1.920258,-1.565949\H,0,0.623849,-0.393051,-2.456027\C,0,0.984261
 ,-0.879582,1.544943\H,0,0.623849,-0.393051,2.456027\H,0,2.078689,-0.87

 Normal termination of Gaussian 16 at Tue Apr  8 23:39:31 2025.
