 Gaussian 16, Revision C.01,

 ----------------------------------------------------------------------
 #t hf aug-cc-pvdz symm=none int=(grid=ultrafine) guess=(read,tcheck) s
 table=(opt,rrhf)
 ----------------------------------------------------------------------
 -----
 title
 -----
 Symbolic Z-matrix:
 Charge =  0 Multiplicity = 1

 SCF Done:  E(RHF) =  -622.336340430     A.U. after   16 cycles
 Normal termination of Gaussian 16 at Wed Apr  9 00:28:23 2025.
 Gaussian 16:  ES64L-G16RevC.01  3-Jul-2019

 ----------------------------------------------------------------------
 #t hf aug-cc-pvdz iop(5/13=1,5/36=2,99/5=2) pseudo=read geom=check gue
 ss=(read,tcheck) scf=(maxcycle=1)
 ----------------------------------------------------------------------
 -----
 title
 -----
 Structure from the checkpoint file:  "BDE49_nonexpt_344_mol1.chk"
 Charge =  0 Multiplicity = 1

                         Standard orientation:
 ---------------------------------------------------------------------
 Center     Atomic      Atomic             Coordinates (Angstroms)
 Number     Number       Type             X           Y           Z
 ---------------------------------------------------------------------
      1          6           0        0.059852    0.018593   -0.513659
      2          7           0        0.303254    1.462645   -0.097608
      3          5           0       -1.374837   -0.593370   -0.065812
      4          7           0        1.187565   -0.829442    0.029516
      5          1           0        0.165718    0.026245   -1.599178
      6          8           0        1.886585   -1.400933   -0.784519
      7          8           0       -1.416159   -1.942651   -0.075289
      8          8           0       -0.670214    2.207426   -0.189467
      9          8           0       -2.438170    0.173949    0.228948
     10          8           0        1.418031    1.796050    0.221452
     11          8           0        1.273256   -0.886844    1.242165
     12          1           0       -2.238626    1.120558    0.161840
     13          1           0       -2.274394   -2.299917    0.178683
 ---------------------------------------------------------------------

 SCF Done:  E(RHF) =  -622.532401774     A.U. after    2 cycles

 The electronic state is 1-A.
 Alpha  occ. eigenvalues --  -20.67555 -20.66270 -20.65284 -20.64813 -20.62627
 Alpha  occ. eigenvalues --  -20.62228 -15.96893 -15.95011 -11.39766  -7.72681
 Alpha  occ. eigenvalues --   -1.60631  -1.58144  -1.42146  -1.40294  -1.39016
 Alpha  occ. eigenvalues --   -1.35690  -1.16462  -0.98234  -0.88339  -0.85282
 Alpha  occ. eigenvalues --   -0.82051  -0.80878  -0.80256  -0.78713  -0.76506
 Alpha  occ. eigenvalues --   -0.75506  -0.73060  -0.67917  -0.63499  -0.63289
 Alpha  occ. eigenvalues --   -0.60085  -0.56944  -0.56482  -0.54950  -0.54427
 Alpha  occ. eigenvalues --   -0.53036  -0.52140  -0.49706
 Alpha virt. eigenvalues --    0.02139   0.03047   0.04224   0.04970   0.05186
 Alpha virt. eigenvalues --    0.05835   0.07212   0.07841   0.08977   0.10866
 Alpha virt. eigenvalues --    0.13044   0.13102   0.14066   0.14438   0.15729

 Mulliken charges:
               1
     1  C    1.242902
     2  N    0.376041
     3  B    0.803618
     4  N    0.324945
     5  H   -0.195104
     6  O   -0.538546
     7  O   -0.451769
     8  O   -0.616283
     9  O   -0.383889
    10  O   -0.494704
    11  O   -0.542223
    12  H    0.271948
    13  H    0.203065
 Sum of Mulliken charges =  -0.00000

 Dipole moment (field-independent basis, Debye):
    X=             -3.7561    Y=             -0.3402    Z=             -1.9288  Tot=              4.2361

 Test job not archived.
 1\1\GINC-SE455\SP\RHF\Aug-CC-pVDZ\C1H3B1N2O6\OHZDE\09-Apr-2025\0\\#t h
 f aug-cc-pvdz iop(5/13=1,5/36=2,99/5=2) pseudo=read geom=check guess=(
 read,tcheck) scf=(maxcycle=1)\\title\\0,1\C,0,0.059852,0.018593,-0.513
 659\N,0,0.303255,1.462645,-0.097608\B,0,-1.374837,-0.593369,-0.065812\
 N,0,1.187565,-0.829442,0.029516\H,0,0.165718,0.026245,-1.599178\O,0,1.
 886585,-1.400934,-0.784519\O,0,-1.41616,-1.94265,-0.075289\O,0,-0.6702
 13,2.207426,-0.189467\O,0,-2.43817,0.17395,0.228948\O,0,1.418032,1.796
 05,0.221452\O,0,1.273256,-0.886844,1.242165\H,0,-2.238626,1.120559,0.1

 Normal termination of Gaussian 16 at Wed Apr  9 00:28:28 2025.
