 Gaussian 16, Revision C.01,

 ----------------------------------------------------------------------
 #t hf aug-cc-pvdz symm=none int=(grid=ultrafine) guess=(read,tcheck) s
 table=(opt,rrhf)
 ----------------------------------------------------------------------
 -----
 title
 -----
 Symbolic Z-matrix:
 Charge =  0 Multiplicity = 1

 SCF Done:  E(RHF) =  -1315.46483665     A.U. after   15 cycles
 Normal termination of Gaussian 16 at Tue Apr  8 23:47:11 2025.
 Gaussian 16:  ES64L-G16RevC.01  3-Jul-2019

 ----------------------------------------------------------------------
 #t hf aug-cc-pvdz iop(5/13=1,5/36=2,99/5=2) pseudo=read geom=check gue
 ss=(read,tcheck) scf=(maxcycle=1)
 ----------------------------------------------------------------------
 -----
 title
 -----
 Structure from the checkpoint file:  "BDE49_nonexpt_1775_mol1.chk"
 Charge =  0 Multiplicity = 1

                         Standard orientation:
 ---------------------------------------------------------------------
 Center     Atomic      Atomic             Coordinates (Angstroms)
 Number     Number       Type             X           Y           Z
 ---------------------------------------------------------------------
      1          6           0        0.903724    1.857374    0.109864
      2          6           0       -0.320315    2.419344   -0.242628
      3          6           0       -1.458284    1.622434   -0.313115
      4          6           0       -1.366096    0.259578   -0.029914
      5          6           0       -0.141011   -0.303942    0.319902
      6          6           0        1.014034    0.487357    0.393155
      7          1           0        1.780983    2.494052    0.162386
      8          1           0       -0.388923    3.478042   -0.463364
      9         14           0        2.655694   -0.269619    0.854212
     10          1           0       -0.092343   -1.366176    0.529017
     11         17           0        3.746111   -0.776988   -0.852464
     12          1           0       -2.412595    2.051520   -0.592350
     13          6           0       -2.610302   -0.587295   -0.051840
     14          9           0       -3.463659   -0.203273   -1.025975
     15          9           0       -3.290519   -0.501734    1.115547
     16          9           0       -2.335370   -1.893579   -0.248764
     17          1           0        2.446227   -1.515215    1.615227
     18          1           0        3.478487    0.699417    1.602174
 ---------------------------------------------------------------------

 SCF Done:  E(RHF) =  -1315.69329558     A.U. after    2 cycles

 The electronic state is 1-A.
 Alpha  occ. eigenvalues -- -103.65366 -69.12429 -26.16933 -26.16806 -26.16397
 Alpha  occ. eigenvalues --  -11.53407 -11.28875 -11.28677 -11.28535 -11.28381
 Alpha  occ. eigenvalues --  -11.27406 -11.26443 -10.68796  -8.34488  -8.34265
 Alpha  occ. eigenvalues --   -8.34263  -6.87322  -3.98123  -3.98019  -3.98008
 Alpha  occ. eigenvalues --   -1.76166  -1.69325  -1.68855  -1.18453  -1.13679
 Alpha  occ. eigenvalues --   -1.08762  -1.04387  -1.00677  -0.89973  -0.89074
 Alpha  occ. eigenvalues --   -0.87847  -0.85303  -0.81890  -0.77439  -0.77353
 Alpha  occ. eigenvalues --   -0.73801  -0.73096  -0.72777  -0.71770  -0.70398
 Alpha  occ. eigenvalues --   -0.66406  -0.65538  -0.61907  -0.59005  -0.55291
 Alpha  occ. eigenvalues --   -0.53970  -0.53228  -0.52645  -0.50882  -0.46178
 Alpha  occ. eigenvalues --   -0.45916  -0.37943  -0.37332
 Alpha virt. eigenvalues --    0.02798   0.03752   0.04479   0.04953   0.05614
 Alpha virt. eigenvalues --    0.06024   0.06316   0.07345   0.08190   0.08489
 Alpha virt. eigenvalues --    0.09302   0.09671   0.09891   0.10967   0.12144

 Mulliken charges:
               1
     1  C    0.449781
     2  C    0.590223
     3  C    0.099106
     4  C    1.375853
     5  C    0.225312
     6  C   -0.450286
     7  H   -0.608046
     8  H   -0.430722
     9  Si   0.685471
    10  H   -0.625815
    11  Cl  -0.573580
    12  H   -0.537355
    13  C    0.772074
    14  F   -0.338772
    15  F   -0.338460
    16  F   -0.322402
    17  H   -0.004339
    18  H    0.031957
 Sum of Mulliken charges =  -0.00000

 Dipole moment (field-independent basis, Debye):
    X=              0.9162    Y=              2.7644    Z=              1.1482  Tot=              3.1305

 Test job not archived.
 1\1\GINC-SE329\SP\RHF\Aug-CC-pVDZ\C7H6Cl1F3Si1\OHZDE\08-Apr-2025\0\\#t
  hf aug-cc-pvdz iop(5/13=1,5/36=2,99/5=2) pseudo=read geom=check guess
 =(read,tcheck) scf=(maxcycle=1)\\title\\0,1\C,0,0.903724,1.857374,0.10
 9864\C,0,-0.320315,2.419344,-0.242628\C,0,-1.458284,1.622434,-0.313115
 \C,0,-1.366096,0.259578,-0.029914\C,0,-0.141011,-0.303942,0.319902\C,0
 ,1.014034,0.487357,0.393155\H,0,1.780983,2.494052,0.162386\H,0,-0.3889
 23,3.478042,-0.463364\Si,0,2.655694,-0.269619,0.854212\H,0,-0.092343,-
 1.366176,0.529017\Cl,0,3.746111,-0.776988,-0.852464\H,0,-2.412595,2.05

 Normal termination of Gaussian 16 at Tue Apr  8 23:47:24 2025.
