 Gaussian 16, Revision C.01,

 ----------------------------------------------------------------------
 #t hf aug-cc-pvdz symm=none int=(grid=ultrafine) guess=(read,tcheck) s
 table=(opt,rrhf)
 ----------------------------------------------------------------------
 -----
 title
 -----
 Symbolic Z-matrix:
 Charge =  0 Multiplicity = 1

 SCF Done:  E(RHF) =  -625.223602114     A.U. after   13 cycles
 Normal termination of Gaussian 16 at Tue Apr  8 23:34:21 2025.
 Gaussian 16:  ES64L-G16RevC.01  3-Jul-2019

 ----------------------------------------------------------------------
 #t hf aug-cc-pvdz iop(5/13=1,5/36=2,99/5=2) pseudo=read geom=check gue
 ss=(read,tcheck) scf=(maxcycle=1)
 ----------------------------------------------------------------------
 -----
 title
 -----
 Structure from the checkpoint file:  "BDE49_nonexpt_1497_mol1.chk"
 Charge =  0 Multiplicity = 1

                         Standard orientation:
 ---------------------------------------------------------------------
 Center     Atomic      Atomic             Coordinates (Angstroms)
 Number     Number       Type             X           Y           Z
 ---------------------------------------------------------------------
      1         15           0        0.143860   -0.995178   -0.232654
      2          7           0       -0.955386    0.270328    0.353823
      3          8           0       -1.143046    1.265635   -0.654321
      4          8           0       -2.218013   -0.384536    0.530494
      5          6           0        1.644249    0.057820   -0.532768
      6          6           0        2.376473    0.439743    0.758737
      7          1           0        2.682787   -0.446432    1.321325
      8          1           0        1.737560    1.040339    1.410657
      9          1           0        3.274138    1.024325    0.539150
     10          1           0        1.354930    0.942171   -1.103130
     11          1           0        2.293738   -0.547836   -1.175338
     12          1           0       -1.234352    2.080958   -0.145854
     13          1           0       -2.516116   -0.055692    1.386622
     14          1           0       -0.298733   -1.036634   -1.585568
 ---------------------------------------------------------------------

 SCF Done:  E(RHF) =  -625.338009054     A.U. after    2 cycles

 The electronic state is 1-A.
 Alpha  occ. eigenvalues --  -81.27619 -20.61733 -20.61590 -15.73617 -11.24253
 Alpha  occ. eigenvalues --  -11.23391  -7.77717  -4.91827  -4.91603  -4.91314
 Alpha  occ. eigenvalues --   -1.41028  -1.31253  -1.03878  -1.00382  -0.86331
 Alpha  occ. eigenvalues --   -0.74626  -0.72714  -0.72031  -0.64469  -0.62175
 Alpha  occ. eigenvalues --   -0.60607  -0.59108  -0.53621  -0.51933  -0.50508
 Alpha  occ. eigenvalues --   -0.50156  -0.45591  -0.41279  -0.35212
 Alpha virt. eigenvalues --    0.03187   0.04021   0.04965   0.05052   0.06491
 Alpha virt. eigenvalues --    0.07262   0.07585   0.07991   0.10016   0.11516
 Alpha virt. eigenvalues --    0.12535   0.14075   0.15443   0.16130   0.16284

 Mulliken charges:
               1
     1  P    0.758714
     2  N   -0.240499
     3  O   -0.447120
     4  O   -0.389514
     5  C   -0.054355
     6  C    0.320487
     7  H   -0.075892
     8  H   -0.083767
     9  H   -0.068420
    10  H   -0.084596
    11  H   -0.146851
    12  H    0.206235
    13  H    0.188747
    14  H    0.116832
 Sum of Mulliken charges =  -0.00000

 Dipole moment (field-independent basis, Debye):
    X=              1.0402    Y=              1.8765    Z=              1.2861  Tot=              2.5015

 Test job not archived.
 1\1\GINC-SE331\SP\RHF\Aug-CC-pVDZ\C2H8N1O2P1\OHZDE\08-Apr-2025\0\\#t h
 f aug-cc-pvdz iop(5/13=1,5/36=2,99/5=2) pseudo=read geom=check guess=(
 read,tcheck) scf=(maxcycle=1)\\title\\0,1\P,0,0.14386,-0.995178,-0.232
 654\N,0,-0.955386,0.270328,0.353823\O,0,-1.143046,1.265635,-0.654321\O
 ,0,-2.218013,-0.384536,0.530494\C,0,1.644249,0.05782,-0.532768\C,0,2.3
 76473,0.439743,0.758737\H,0,2.682787,-0.446432,1.321325\H,0,1.73756,1.
 040339,1.410657\H,0,3.274138,1.024325,0.53915\H,0,1.35493,0.942171,-1.
 10313\H,0,2.293738,-0.547836,-1.175338\H,0,-1.234352,2.080958,-0.14585

 Normal termination of Gaussian 16 at Tue Apr  8 23:34:26 2025.
