 Gaussian 16, Revision C.01,

 ----------------------------------------------------------------------
 #t hf aug-cc-pvdz symm=none int=(grid=ultrafine) guess=(read,tcheck) s
 table=(opt,rrhf)
 ----------------------------------------------------------------------
 -----
 title
 -----
 Symbolic Z-matrix:
 Charge =  0 Multiplicity = 1

 SCF Done:  E(RHF) =  -899.457408028     A.U. after   16 cycles
 Normal termination of Gaussian 16 at Wed Apr  9 00:48:15 2025.
 Gaussian 16:  ES64L-G16RevC.01  3-Jul-2019

 ----------------------------------------------------------------------
 #t hf aug-cc-pvdz iop(5/13=1,5/36=2,99/5=2) pseudo=read geom=check gue
 ss=(read,tcheck) scf=(maxcycle=1)
 ----------------------------------------------------------------------
 -----
 title
 -----
 Structure from the checkpoint file:  "BDE49_nonexpt_831_mol1.chk"
 Charge =  0 Multiplicity = 1

                         Standard orientation:
 ---------------------------------------------------------------------
 Center     Atomic      Atomic             Coordinates (Angstroms)
 Number     Number       Type             X           Y           Z
 ---------------------------------------------------------------------
      1          6           0        1.557715    2.280820    0.572782
      2          6           0        0.211351    2.185028    0.221793
      3          6           0        2.396035    1.179163    0.443484
      4          6           0        1.852367   -0.005676   -0.038643
      5          6           0        0.512850   -0.117800   -0.393611
      6          6           0       -0.339402    0.989574   -0.270115
      7          1           0        0.163110   -1.070885   -0.772089
      8          1           0        1.956002    3.216629    0.946982
      9          1           0       -0.422035    3.059060    0.329671
     10          5           0       -3.034497   -0.684527    0.293334
     11          8           0       -2.380450   -1.426836    1.236809
     12          8           0       -4.333260   -0.976553    0.021844
     13          1           0        3.444306    1.218281    0.704179
     14          7           0        2.731985   -1.191086   -0.177982
     15          8           0        3.914928   -1.053362    0.099609
     16          8           0        2.219425   -2.234597   -0.559309
     17          1           0       -4.665913   -1.711138    0.554492
     18          1           0       -1.468586   -1.160419    1.385901
     19         14           0       -2.170995    0.848793   -0.739206
     20          1           0       -2.799493    2.155796   -0.422694
     21          1           0       -2.275499    0.633954   -2.204111
 ---------------------------------------------------------------------

 SCF Done:  E(RHF) =  -899.667035488     A.U. after    2 cycles

 The electronic state is 1-A.
 Alpha  occ. eigenvalues --  -69.06717 -20.62463 -20.62417 -20.60090 -20.59355
 Alpha  occ. eigenvalues --  -15.92688 -11.32779 -11.29329 -11.29211 -11.28830
 Alpha  occ. eigenvalues --  -11.28020 -11.26755  -7.67490  -6.82210  -3.92978
 Alpha  occ. eigenvalues --   -3.92940  -3.92870  -1.55670  -1.37259  -1.35997
 Alpha  occ. eigenvalues --   -1.32258  -1.19347  -1.08699  -1.05022  -0.95834
 Alpha  occ. eigenvalues --   -0.87030  -0.83714  -0.80222  -0.79402  -0.76697
 Alpha  occ. eigenvalues --   -0.74551  -0.73341  -0.72008  -0.70041  -0.67086
 Alpha  occ. eigenvalues --   -0.64797  -0.63611  -0.60448  -0.59814  -0.58927
 Alpha  occ. eigenvalues --   -0.55799  -0.54796  -0.53558  -0.52168  -0.51948
 Alpha  occ. eigenvalues --   -0.48877  -0.48148  -0.47870  -0.43717  -0.38584
 Alpha  occ. eigenvalues --   -0.37285
 Alpha virt. eigenvalues --    0.02436   0.02487   0.03277   0.04126   0.04787
 Alpha virt. eigenvalues --    0.05346   0.05712   0.06423   0.06483   0.06929
 Alpha virt. eigenvalues --    0.07502   0.07814   0.08587   0.09116   0.09846

 Mulliken charges:
               1
     1  C    0.475033
     2  C    0.781283
     3  C    0.676875
     4  C    1.098424
     5  C    0.722243
     6  C   -0.525861
     7  H   -0.626101
     8  H   -0.437097
     9  H   -0.624878
    10  B    1.048527
    11  O   -0.517531
    12  O   -0.491840
    13  H   -0.458781
    14  N    0.115250
    15  O   -0.568743
    16  O   -0.555937
    17  H    0.198613
    18  H    0.220711
    19  Si  -0.799423
    20  H    0.078650
    21  H    0.190585
 Sum of Mulliken charges =  -0.00000

 Dipole moment (field-independent basis, Debye):
    X=             -1.8009    Y=              3.7712    Z=              1.4818  Tot=              4.4341

 Test job not archived.
 1\1\GINC-SE462\SP\RHF\Aug-CC-pVDZ\C6H8B1N1O4Si1\OHZDE\09-Apr-2025\0\\#
 t hf aug-cc-pvdz iop(5/13=1,5/36=2,99/5=2) pseudo=read geom=check gues
 s=(read,tcheck) scf=(maxcycle=1)\\title\\0,1\C,0,1.557715,2.28082,0.57
 2782\C,0,0.211351,2.185028,0.221793\C,0,2.396035,1.179163,0.443484\C,0
 ,1.852367,-0.005676,-0.038643\C,0,0.51285,-0.1178,-0.393611\C,0,-0.339
 402,0.989574,-0.270115\H,0,0.16311,-1.070885,-0.772089\H,0,1.956002,3.
 216629,0.946982\H,0,-0.422035,3.05906,0.329671\B,0,-3.034497,-0.684527
 ,0.293334\O,0,-2.38045,-1.426836,1.236809\O,0,-4.33326,-0.976553,0.021

 Normal termination of Gaussian 16 at Wed Apr  9 00:48:28 2025.
