 Gaussian 16, Revision C.01,

 ----------------------------------------------------------------------
 #t hf aug-cc-pvdz symm=none int=(grid=ultrafine) guess=(read,tcheck) s
 table=(opt,rrhf)
 ----------------------------------------------------------------------
 -----
 title
 -----
 Symbolic Z-matrix:
 Charge =  0 Multiplicity = 1

 SCF Done:  E(RHF) =  -2723.92166469     A.U. after   12 cycles
 Normal termination of Gaussian 16 at Tue Apr  8 23:48:26 2025.
 Gaussian 16:  ES64L-G16RevC.01  3-Jul-2019

 ----------------------------------------------------------------------
 #t hf aug-cc-pvdz iop(5/13=1,5/36=2,99/5=2) pseudo=read geom=check gue
 ss=(read,tcheck) scf=(maxcycle=1)
 ----------------------------------------------------------------------
 -----
 title
 -----
 Structure from the checkpoint file:  "BDE49_nonexpt_1858_mol1.chk"
 Charge =  0 Multiplicity = 1

                         Standard orientation:
 ---------------------------------------------------------------------
 Center     Atomic      Atomic             Coordinates (Angstroms)
 Number     Number       Type             X           Y           Z
 ---------------------------------------------------------------------
      1          6           0       -1.102197   -0.000001   -0.398146
      2         14           0        0.768768    0.000000    0.050314
      3         17           0        0.982492    0.000000    2.077355
      4         17           0        1.618240    1.668882   -0.761232
      5         17           0       -1.907252   -1.470390    0.236291
      6         17           0       -1.907253    1.470389    0.236291
      7         17           0        1.618242   -1.668882   -0.761232
      8          9           0       -1.225059   -0.000001   -1.753618
 ---------------------------------------------------------------------

 SCF Done:  E(RHF) =  -2724.08895747     A.U. after    2 cycles

 The electronic state is 1-A.
 Alpha  occ. eigenvalues -- -103.70303-103.70302-103.69618-103.69444-103.69444
 Alpha  occ. eigenvalues --  -69.23886 -26.18309 -11.48213 -10.73617 -10.73608
 Alpha  occ. eigenvalues --  -10.73070 -10.72901 -10.72891  -8.39330  -8.39326
 Alpha  occ. eigenvalues --   -8.38998  -8.38998  -8.38991  -8.38990  -8.38768
 Alpha  occ. eigenvalues --   -8.38596  -8.38591  -8.38519  -8.38512  -8.38347
 Alpha  occ. eigenvalues --   -8.38346  -8.38340  -8.38336  -6.97706  -4.08568
 Alpha  occ. eigenvalues --   -4.08564  -4.08438  -1.72488  -1.24266  -1.20204
 Alpha  occ. eigenvalues --   -1.17484  -1.17139  -1.16821  -0.95931  -0.82905
 Alpha  occ. eigenvalues --   -0.80589  -0.77451  -0.70625  -0.62113  -0.61730
 Alpha  occ. eigenvalues --   -0.60647  -0.59177  -0.54172  -0.53299  -0.53134
 Alpha  occ. eigenvalues --   -0.52417  -0.51581  -0.50532  -0.50123  -0.49382
 Alpha  occ. eigenvalues --   -0.48144  -0.47103
 Alpha virt. eigenvalues --    0.04806   0.05826   0.05872   0.06051   0.08015
 Alpha virt. eigenvalues --    0.08954   0.10263   0.11072   0.11326   0.11959
 Alpha virt. eigenvalues --    0.12787   0.12887   0.14111   0.15829   0.16022

 Mulliken charges:
               1
     1  C    0.181543
     2  Si   1.728854
     3  Cl  -0.445217
     4  Cl  -0.441146
     5  Cl  -0.098247
     6  Cl  -0.098247
     7  Cl  -0.441146
     8  F   -0.386394
 Sum of Mulliken charges =  -0.00000

 Dipole moment (field-independent basis, Debye):
    X=              0.4694    Y=             -0.0000    Z=              0.8043  Tot=              0.9313

 Test job not archived.
 1\1\GINC-SE341\SP\RHF\Aug-CC-pVDZ\C1Cl5F1Si1\OHZDE\08-Apr-2025\0\\#t h
 f aug-cc-pvdz iop(5/13=1,5/36=2,99/5=2) pseudo=read geom=check guess=(
 read,tcheck) scf=(maxcycle=1)\\title\\0,1\C,0,-1.102197,0.,-0.398146\S
 i,0,0.768768,0.,0.050314\Cl,0,0.982492,0.,2.077355\Cl,0,1.618241,1.668
 882,-0.761232\Cl,0,-1.907253,-1.470389,0.236291\Cl,0,-1.907253,1.47039
 ,0.236291\Cl,0,1.618241,-1.668882,-0.761232\F,0,-1.225059,0.,-1.753618
 \\Version=ES64L-G16RevC.01\State=1-A\HF=-2724.0889575\RMSD=3.930e-03\D
 ipole=0.1846933,-0.0000011,0.3164325\Quadrupole=-0.1640333,1.1885086,-

 Normal termination of Gaussian 16 at Tue Apr  8 23:48:30 2025.
