 Gaussian 16, Revision C.01,

 ----------------------------------------------------------------------
 #t hf aug-cc-pvdz symm=none int=(grid=ultrafine) guess=(read,tcheck) s
 table=(opt,rrhf)
 ----------------------------------------------------------------------
 -----
 title
 -----
 Symbolic Z-matrix:
 Charge =  0 Multiplicity = 1

 SCF Done:  E(RHF) =  -685.185878797     A.U. after   14 cycles
 Normal termination of Gaussian 16 at Wed Apr  9 00:52:40 2025.
 Gaussian 16:  ES64L-G16RevC.01  3-Jul-2019

 ----------------------------------------------------------------------
 #t hf aug-cc-pvdz iop(5/13=1,5/36=2,99/5=2) pseudo=read geom=check gue
 ss=(read,tcheck) scf=(maxcycle=1)
 ----------------------------------------------------------------------
 -----
 title
 -----
 Structure from the checkpoint file:  "BDE49_nonexpt_962_mol1.chk"
 Charge =  0 Multiplicity = 1

                         Standard orientation:
 ---------------------------------------------------------------------
 Center     Atomic      Atomic             Coordinates (Angstroms)
 Number     Number       Type             X           Y           Z
 ---------------------------------------------------------------------
      1          9           0        1.917407   -1.584632   -0.848592
      2          7           0        0.516920   -1.815966   -0.628122
      3          6           0        0.328534   -1.996355    0.811891
      4          6           0        0.010754   -0.672525    0.212149
      5          6           0        0.986900    0.460950    0.466948
      6          8           0        1.621109    0.591444    1.480224
      7          8           0        1.049792    1.270036   -0.592495
      8          6           0        1.958739    2.382297   -0.474835
      9          6           0       -1.440279   -0.363189   -0.052552
     10          8           0       -2.247691   -1.199621   -0.362361
     11          8           0       -1.717203    0.930430    0.160529
     12          6           0       -3.096417    1.311869   -0.022742
     13          1           0        1.224822   -2.041124    1.417649
     14          1           0       -0.485546   -2.669406    1.052142
     15          1           0        2.976599    2.020913   -0.324523
     16          1           0        1.672276    3.017549    0.364233
     17          1           0        1.875953    2.922381   -1.414542
     18          1           0       -3.739150    0.742566    0.649589
     19          1           0       -3.134779    2.372806    0.210789
     20          1           0       -3.402725    1.131174   -1.053488
 ---------------------------------------------------------------------

 SCF Done:  E(RHF) =  -685.402453408     A.U. after    2 cycles

 The electronic state is 1-A.
 Alpha  occ. eigenvalues --  -26.14168 -20.64132 -20.63307 -20.58406 -20.58376
 Alpha  occ. eigenvalues --  -15.76404 -11.42458 -11.42283 -11.33381 -11.31455
 Alpha  occ. eigenvalues --  -11.31235 -11.30802  -1.65689  -1.44959  -1.43891
 Alpha  occ. eigenvalues --   -1.35210  -1.34740  -1.27513  -1.04146  -0.99778
 Alpha  occ. eigenvalues --   -0.93737  -0.90552  -0.84215  -0.79904  -0.78467
 Alpha  occ. eigenvalues --   -0.76702  -0.74410  -0.72339  -0.71495  -0.70778
 Alpha  occ. eigenvalues --   -0.70126  -0.68889  -0.66138  -0.63636  -0.59988
 Alpha  occ. eigenvalues --   -0.59754  -0.57434  -0.56757  -0.55910  -0.55243
 Alpha  occ. eigenvalues --   -0.52972  -0.50300  -0.50129  -0.49163  -0.48625
 Alpha  occ. eigenvalues --   -0.44379
 Alpha virt. eigenvalues --    0.02929   0.03933   0.04266   0.05116   0.05855
 Alpha virt. eigenvalues --    0.06034   0.06656   0.07414   0.08151   0.09253
 Alpha virt. eigenvalues --    0.11453   0.11633   0.11982   0.12622   0.13109

 Mulliken charges:
               1
     1  F   -0.444972
     2  N   -0.467602
     3  C    1.191656
     4  C    0.748990
     5  C    0.529532
     6  O   -0.459487
     7  O   -0.539341
     8  C    0.771281
     9  C    0.142235
    10  O   -0.447731
    11  O   -0.538762
    12  C    0.775951
    13  H   -0.233220
    14  H   -0.277580
    15  H   -0.057830
    16  H   -0.060885
    17  H   -0.243515
    18  H   -0.078241
    19  H   -0.251799
    20  H   -0.058678
 Sum of Mulliken charges =  -0.00000

 Dipole moment (field-independent basis, Debye):
    X=             -1.6594    Y=              2.8847    Z=              0.9875  Tot=              3.4714

 Test job not archived.
 1\1\GINC-SE123\SP\RHF\Aug-CC-pVDZ\C6H8F1N1O4\OHZDE\09-Apr-2025\0\\#t h
 f aug-cc-pvdz iop(5/13=1,5/36=2,99/5=2) pseudo=read geom=check guess=(
 read,tcheck) scf=(maxcycle=1)\\title\\0,1\F,0,1.917407,-1.584632,-0.84
 8592\N,0,0.51692,-1.815966,-0.628122\C,0,0.328534,-1.996355,0.811891\C
 ,0,0.010754,-0.672525,0.212149\C,0,0.9869,0.46095,0.466948\O,0,1.62110
 9,0.591444,1.480224\O,0,1.049792,1.270036,-0.592495\C,0,1.958739,2.382
 297,-0.474835\C,0,-1.440279,-0.363189,-0.052552\O,0,-2.247691,-1.19962
 1,-0.362361\O,0,-1.717203,0.93043,0.160529\C,0,-3.096417,1.311869,-0.0

 Normal termination of Gaussian 16 at Wed Apr  9 00:52:53 2025.
