 Gaussian 16, Revision C.01,

 ----------------------------------------------------------------------
 #t hf aug-cc-pvdz symm=none int=(grid=ultrafine) guess=(read,tcheck) s
 table=(opt,rrhf)
 ----------------------------------------------------------------------
 -----
 title
 -----
 Symbolic Z-matrix:
 Charge =  0 Multiplicity = 1

 SCF Done:  E(RHF) =  -1292.38896591     A.U. after   16 cycles
 Normal termination of Gaussian 16 at Wed Apr  9 00:50:19 2025.
 Gaussian 16:  ES64L-G16RevC.01  3-Jul-2019

 ----------------------------------------------------------------------
 #t hf aug-cc-pvdz iop(5/13=1,5/36=2,99/5=2) pseudo=read geom=check gue
 ss=(read,tcheck) scf=(maxcycle=1)
 ----------------------------------------------------------------------
 -----
 title
 -----
 Structure from the checkpoint file:  "BDE49_nonexpt_943_mol1.chk"
 Charge =  0 Multiplicity = 1

                         Standard orientation:
 ---------------------------------------------------------------------
 Center     Atomic      Atomic             Coordinates (Angstroms)
 Number     Number       Type             X           Y           Z
 ---------------------------------------------------------------------
      1         17           0       -2.468168   -0.902460    0.032081
      2         17           0        2.846220   -0.145986    0.093382
      3          8           0        0.406749   -1.991149   -0.019560
      4          8           0       -1.712760    2.110760    0.035419
      5          7           0        1.202333    0.193512   -0.282466
      6          7           0       -0.973418   -0.095540    0.021355
      7          6           0        0.258631   -0.809908   -0.077508
      8          6           0        0.668955    1.525707   -0.025951
      9          1           0        0.926611    2.232512   -0.815749
     10          1           0        0.990561    1.924486    0.941748
     11          6           0       -0.843982    1.288181    0.010463
 ---------------------------------------------------------------------

 SCF Done:  E(RHF) =  -1292.54292374     A.U. after    2 cycles

 The electronic state is 1-A.
 Alpha  occ. eigenvalues -- -103.73633-103.73407 -20.60008 -20.59457 -15.75602
 Alpha  occ. eigenvalues --  -15.74472 -11.45541 -11.42824 -11.34478 -10.76499
 Alpha  occ. eigenvalues --  -10.76293  -8.42287  -8.42064  -8.41842  -8.41811
 Alpha  occ. eigenvalues --   -8.41653  -8.41618  -1.43816  -1.40989  -1.33044
 Alpha  occ. eigenvalues --   -1.29405  -1.18511  -1.08660  -1.02407  -0.88141
 Alpha  occ. eigenvalues --   -0.82221  -0.74310  -0.74005  -0.71109  -0.69209
 Alpha  occ. eigenvalues --   -0.66020  -0.64311  -0.63964  -0.62360  -0.54815
 Alpha  occ. eigenvalues --   -0.54468  -0.53537  -0.52208  -0.50594  -0.48175
 Alpha  occ. eigenvalues --   -0.44940  -0.42254
 Alpha virt. eigenvalues --    0.02980   0.04317   0.05425   0.06018   0.07481
 Alpha virt. eigenvalues --    0.08777   0.09159   0.10919   0.11202   0.11528
 Alpha virt. eigenvalues --    0.12166   0.12650   0.13796   0.14245   0.14834

 Mulliken charges:
               1
     1  Cl   0.421323
     2  Cl   0.304188
     3  O   -0.349542
     4  O   -0.420212
     5  N   -0.741424
     6  N   -0.839706
     7  C    0.726461
     8  C    0.705918
     9  H   -0.052738
    10  H   -0.021189
    11  C    0.266921
 Sum of Mulliken charges =  -0.00000

 Dipole moment (field-independent basis, Debye):
    X=              1.9388    Y=              2.0364    Z=              0.1453  Tot=              2.8155

 Test job not archived.
 1\1\GINC-SE249\SP\RHF\Aug-CC-pVDZ\C3H2Cl2N2O2\OHZDE\09-Apr-2025\0\\#t
 hf aug-cc-pvdz iop(5/13=1,5/36=2,99/5=2) pseudo=read geom=check guess=
 (read,tcheck) scf=(maxcycle=1)\\title\\0,1\Cl,0,-2.468168,-0.90246,0.0
 32081\Cl,0,2.84622,-0.145986,0.093382\O,0,0.406749,-1.991149,-0.01956\
 O,0,-1.71276,2.11076,0.035419\N,0,1.202333,0.193512,-0.282466\N,0,-0.9
 73418,-0.09554,0.021355\C,0,0.258631,-0.809908,-0.077508\C,0,0.668955,
 1.525707,-0.025951\H,0,0.926611,2.232512,-0.815749\H,0,0.990561,1.9244
 86,0.941748\C,0,-0.843982,1.288181,0.010463\\Version=ES64L-G16RevC.01\

 Normal termination of Gaussian 16 at Wed Apr  9 00:50:25 2025.
