 Gaussian 16, Revision C.01,

 ----------------------------------------------------------------------
 #t hf aug-cc-pvdz symm=none int=(grid=ultrafine) guess=(read,tcheck) s
 table=(opt,rrhf)
 ----------------------------------------------------------------------
 -----
 title
 -----
 Symbolic Z-matrix:
 Charge =  0 Multiplicity = 1

 SCF Done:  E(RHF) =  -805.971918823     A.U. after   11 cycles
 Normal termination of Gaussian 16 at Wed Apr  9 00:12:51 2025.
 Gaussian 16:  ES64L-G16RevC.01  3-Jul-2019

 ----------------------------------------------------------------------
 #t hf aug-cc-pvdz iop(5/13=1,5/36=2,99/5=2) pseudo=read geom=check gue
 ss=(read,tcheck) scf=(maxcycle=1)
 ----------------------------------------------------------------------
 -----
 title
 -----
 Structure from the checkpoint file:  "BDE49_nonexpt_2473_mol1.chk"
 Charge =  0 Multiplicity = 1

                         Standard orientation:
 ---------------------------------------------------------------------
 Center     Atomic      Atomic             Coordinates (Angstroms)
 Number     Number       Type             X           Y           Z
 ---------------------------------------------------------------------
      1         16           0        1.836454    0.020701    0.000000
      2         14           0       -0.349882    0.005147    0.000000
      3          6           0       -0.992472   -0.861742   -1.538013
      4          1           0       -0.627508   -0.374331   -2.445607
      5          1           0       -2.087562   -0.847164   -1.558712
      6          1           0       -0.673579   -1.907694   -1.567991
      7          6           0       -0.828818    1.820146   -0.000001
      8          1           0       -1.918666    1.923738   -0.000001
      9          1           0       -0.443827    2.334013   -0.884905
     10          1           0       -0.443827    2.334014    0.884902
     11          6           0       -0.992472   -0.861740    1.538014
     12          1           0       -0.673579   -1.907692    1.567993
     13          1           0       -2.087562   -0.847162    1.558713
     14          1           0       -0.627508   -0.374328    2.445607
     15          1           0        1.981273   -1.316652    0.000001
 ---------------------------------------------------------------------

 SCF Done:  E(RHF) =  -806.056122809     A.U. after    2 cycles

 The electronic state is 1-A.
 Alpha  occ. eigenvalues --  -93.51582 -69.07819 -11.21771 -11.21766 -11.21766
 Alpha  occ. eigenvalues --   -8.81482  -6.82760  -6.15673  -6.15421  -6.15167
 Alpha  occ. eigenvalues --   -3.93590  -3.93500  -3.93477  -0.97757  -0.92757
 Alpha  occ. eigenvalues --   -0.92668  -0.92208  -0.62873  -0.58212  -0.57316
 Alpha  occ. eigenvalues --   -0.57269  -0.55633  -0.55268  -0.54032  -0.51634
 Alpha  occ. eigenvalues --   -0.44853  -0.44149  -0.41669  -0.35917
 Alpha virt. eigenvalues --    0.02777   0.04543   0.04870   0.05159   0.06692
 Alpha virt. eigenvalues --    0.06872   0.06974   0.07414   0.07578   0.09074
 Alpha virt. eigenvalues --    0.09883   0.10835   0.11622   0.12411   0.13380

 Mulliken charges:
               1
     1  S   -0.553805
     2  Si   1.361325
     3  C    0.516969
     4  H   -0.293522
     5  H   -0.208301
     6  H   -0.272198
     7  C    0.475930
     8  H   -0.246058
     9  H   -0.274856
    10  H   -0.274858
    11  C    0.516970
    12  H   -0.272198
    13  H   -0.208301
    14  H   -0.293523
    15  H    0.026427
 Sum of Mulliken charges =  -0.00000

 Dipole moment (field-independent basis, Debye):
    X=             -1.8959    Y=             -0.6857    Z=              0.0000  Tot=              2.0161

 Test job not archived.
 1\1\GINC-SE461\SP\RHF\Aug-CC-pVDZ\C3H10S1Si1\OHZDE\09-Apr-2025\0\\#t h
 f aug-cc-pvdz iop(5/13=1,5/36=2,99/5=2) pseudo=read geom=check guess=(
 read,tcheck) scf=(maxcycle=1)\\title\\0,1\S,0,1.836454,0.020701,0.\Si,
 0,-0.349882,0.005147,0.\C,0,-0.992472,-0.861742,-1.538013\H,0,-0.62750
 8,-0.374331,-2.445607\H,0,-2.087562,-0.847163,-1.558712\H,0,-0.67358,-
 1.907694,-1.567991\C,0,-0.828818,1.820146,-0.000001\H,0,-1.918666,1.92
 3739,-0.000001\H,0,-0.443826,2.334013,-0.884905\H,0,-0.443826,2.334014
 ,0.884902\C,0,-0.992472,-0.86174,1.538014\H,0,-0.67358,-1.907692,1.567

 Normal termination of Gaussian 16 at Wed Apr  9 00:12:56 2025.
