 Gaussian 16, Revision C.01,

 ----------------------------------------------------------------------
 #t hf aug-cc-pvdz symm=none int=(grid=ultrafine) guess=(read,tcheck) s
 table=(opt,rrhf)
 ----------------------------------------------------------------------
 -----
 title
 -----
 Symbolic Z-matrix:
 Charge =  0 Multiplicity = 1

 SCF Done:  E(RHF) =  -1796.84374251     A.U. after   14 cycles
 Normal termination of Gaussian 16 at Tue Apr  8 23:59:57 2025.
 Gaussian 16:  ES64L-G16RevC.01  3-Jul-2019

 ----------------------------------------------------------------------
 #t hf aug-cc-pvdz iop(5/13=1,5/36=2,99/5=2) pseudo=read geom=check gue
 ss=(read,tcheck) scf=(maxcycle=1)
 ----------------------------------------------------------------------
 -----
 title
 -----
 Structure from the checkpoint file:  "BDE49_nonexpt_2146_mol1.chk"
 Charge =  0 Multiplicity = 1

                         Standard orientation:
 ---------------------------------------------------------------------
 Center     Atomic      Atomic             Coordinates (Angstroms)
 Number     Number       Type             X           Y           Z
 ---------------------------------------------------------------------
      1         14           0       -0.061289    0.000000   -0.026840
      2          7           0        0.940621    0.000000   -1.629317
      3         17           0       -1.222339    1.682517   -0.127165
      4         17           0        1.104107   -0.000002    1.654092
      5         17           0       -1.222341   -1.682516   -0.127167
      6          8           0        2.132931    0.000000   -1.501866
 ---------------------------------------------------------------------

 SCF Done:  E(RHF) =  -1796.96731536     A.U. after    2 cycles

 The electronic state is 1-A.
 Alpha  occ. eigenvalues -- -103.69912-103.69912-103.69885 -69.24493 -20.68861
 Alpha  occ. eigenvalues --  -15.78377 -10.73366 -10.73347 -10.73314  -8.39054
 Alpha  occ. eigenvalues --   -8.39047  -8.39010  -8.38801  -8.38798  -8.38796
 Alpha  occ. eigenvalues --   -8.38794  -8.38758  -8.38757  -6.98204  -4.09047
 Alpha  occ. eigenvalues --   -4.09040  -4.08939  -1.50059  -1.20643  -1.17308
 Alpha  occ. eigenvalues --   -1.17268  -0.96243  -0.77393  -0.70359  -0.68170
 Alpha  occ. eigenvalues --   -0.63816  -0.60475  -0.59943  -0.54266  -0.53428
 Alpha  occ. eigenvalues --   -0.53404  -0.51112  -0.51067  -0.49723  -0.40396
 Alpha virt. eigenvalues --    0.03644   0.04562   0.05597   0.05718   0.06203
 Alpha virt. eigenvalues --    0.10042   0.11473   0.12142   0.12834   0.13323
 Alpha virt. eigenvalues --    0.14166   0.14603   0.15947   0.16397   0.17265

 Mulliken charges:
               1
     1  Si   1.749698
     2  N   -0.206149
     3  Cl  -0.404328
     4  Cl  -0.407794
     5  Cl  -0.404328
     6  O   -0.327099
 Sum of Mulliken charges =  -0.00000

 Dipole moment (field-independent basis, Debye):
    X=             -1.0862    Y=              0.0000    Z=              0.8784  Tot=              1.3969

 Test job not archived.
 1\1\GINC-SE102\SP\RHF\Aug-CC-pVDZ\Cl3N1O1Si1\OHZDE\09-Apr-2025\0\\#t h
 f aug-cc-pvdz iop(5/13=1,5/36=2,99/5=2) pseudo=read geom=check guess=(
 read,tcheck) scf=(maxcycle=1)\\title\\0,1\Si,0,-0.061289,0.,-0.02684\N
 ,0,0.940621,0.,-1.629317\Cl,0,-1.222339,1.682517,-0.127165\Cl,0,1.1041
 07,-0.000002,1.654092\Cl,0,-1.222341,-1.682516,-0.127167\O,0,2.132931,
 0.,-1.501866\\Version=ES64L-G16RevC.01\State=1-A\HF=-1796.9673154\RMSD
 =3.342e-03\Dipole=-0.427331,0.0000011,0.3455814\Quadrupole=-1.2967724,
 2.1808122,-0.8840399,-0.0000026,1.7291469,-0.0000001\PG=C01 [X(Cl3N1O1

 Normal termination of Gaussian 16 at Wed Apr  9 00:00:00 2025.
