 Gaussian 16, Revision C.01,

 ----------------------------------------------------------------------
 #t hf aug-cc-pvdz symm=none int=(grid=ultrafine) guess=(read,tcheck) s
 table=(opt,rrhf)
 ----------------------------------------------------------------------
 -----
 title
 -----
 Symbolic Z-matrix:
 Charge =  0 Multiplicity = 1

 SCF Done:  E(RHF) =  -1248.86651541     A.U. after   15 cycles
 Normal termination of Gaussian 16 at Wed Apr  9 00:50:00 2025.
 Gaussian 16:  ES64L-G16RevC.01  3-Jul-2019

 ----------------------------------------------------------------------
 #t hf aug-cc-pvdz iop(5/13=1,5/36=2,99/5=2) pseudo=read geom=check gue
 ss=(read,tcheck) scf=(maxcycle=1)
 ----------------------------------------------------------------------
 -----
 title
 -----
 Structure from the checkpoint file:  "BDE49_nonexpt_913_mol1.chk"
 Charge =  0 Multiplicity = 1

                         Standard orientation:
 ---------------------------------------------------------------------
 Center     Atomic      Atomic             Coordinates (Angstroms)
 Number     Number       Type             X           Y           Z
 ---------------------------------------------------------------------
      1          9           0        0.382104    2.351472   -0.000177
      2          9           0        0.381370   -2.351284    0.000177
      3         16           0       -2.076312    0.000193    1.616395
      4         16           0       -2.076313   -0.000058   -1.616394
      5          5           0       -1.269030    0.000348   -0.000000
      6          6           0        1.053843    1.177394   -0.000090
      7          6           0        2.439400    1.209542   -0.000092
      8          6           0        3.128942   -0.000335   -0.000000
      9          6           0        2.439026   -1.209998    0.000091
     10          6           0        1.053479   -1.177418    0.000090
     11          6           0        0.306561    0.000103   -0.000000
     12          1           0        2.950705    2.163203   -0.000163
     13          1           0        4.212152   -0.000503   -0.000000
     14          1           0        2.950035   -2.163819    0.000163
     15          1           0       -3.362263    0.000000    1.221829
     16          1           0       -3.362263   -0.000192   -1.221829
 ---------------------------------------------------------------------

 SCF Done:  E(RHF) =  -1249.04694868     A.U. after    2 cycles

 The electronic state is 1-A.
 Alpha  occ. eigenvalues --  -93.54963 -93.54960 -26.14738 -26.14736 -11.36194
 Alpha  occ. eigenvalues --  -11.36194 -11.27937 -11.26348 -11.26343 -11.25875
 Alpha  occ. eigenvalues --   -8.84914  -8.84887  -7.69010  -6.19110  -6.19089
 Alpha  occ. eigenvalues --   -6.18831  -6.18827  -6.18613  -6.18587  -1.68600
 Alpha  occ. eigenvalues --   -1.68564  -1.17743  -1.05424  -1.04470  -0.99940
 Alpha  occ. eigenvalues --   -0.95512  -0.89444  -0.89410  -0.81832  -0.78809
 Alpha  occ. eigenvalues --   -0.76382  -0.75911  -0.73411  -0.71498  -0.71189
 Alpha  occ. eigenvalues --   -0.66067  -0.62103  -0.59396  -0.57895  -0.56773
 Alpha  occ. eigenvalues --   -0.52959  -0.52460  -0.50589  -0.44011  -0.43081
 Alpha  occ. eigenvalues --   -0.37592  -0.36403  -0.36084
 Alpha virt. eigenvalues --    0.03124   0.03806   0.04421   0.05603   0.05832
 Alpha virt. eigenvalues --    0.06631   0.07241   0.07314   0.08587   0.08852
 Alpha virt. eigenvalues --    0.09268   0.09663   0.10164   0.11687   0.12438

 Mulliken charges:
               1
     1  F   -0.361721
     2  F   -0.361746
     3  S   -0.229604
     4  S   -0.229601
     5  B    0.495919
     6  C   -0.237298
     7  C    0.935270
     8  C    0.460726
     9  C    0.935146
    10  C   -0.237137
    11  C    0.126842
    12  H   -0.438499
    13  H   -0.418706
    14  H   -0.438498
    15  H   -0.000547
    16  H   -0.000548
 Sum of Mulliken charges =  -0.00000

 Dipole moment (field-independent basis, Debye):
    X=              1.1305    Y=             -0.0005    Z=             -0.0000  Tot=              1.1305

 Test job not archived.
 1\1\GINC-SE143\SP\RHF\Aug-CC-pVDZ\C6H5B1F2S2\OHZDE\09-Apr-2025\0\\#t h
 f aug-cc-pvdz iop(5/13=1,5/36=2,99/5=2) pseudo=read geom=check guess=(
 read,tcheck) scf=(maxcycle=1)\\title\\0,1\F,0,0.382104,2.351472,-0.000
 177\F,0,0.38137,-2.351284,0.000177\S,0,-2.076312,0.000193,1.616395\S,0
 ,-2.076313,-0.000058,-1.616394\B,0,-1.26903,0.000348,0.\C,0,1.053843,1
 .177394,-0.00009\C,0,2.4394,1.209542,-0.000092\C,0,3.128942,-0.000335,
 0.\C,0,2.439026,-1.209998,0.000091\C,0,1.053479,-1.177418,0.00009\C,0,
 0.306561,0.000103,0.\H,0,2.950705,2.163203,-0.000163\H,0,4.212152,-0.0

 Normal termination of Gaussian 16 at Wed Apr  9 00:50:10 2025.
