 Gaussian 16, Revision C.01,

 ----------------------------------------------------------------------
 #t hf aug-cc-pvdz symm=none int=(grid=ultrafine) guess=(read,tcheck) s
 table=(opt,rrhf)
 ----------------------------------------------------------------------
 -----
 title
 -----
 Symbolic Z-matrix:
 Charge =  0 Multiplicity = 1

 SCF Done:  E(RHF) =  -1208.45001185     A.U. after   14 cycles
 Normal termination of Gaussian 16 at Tue Apr  8 23:22:37 2025.
 Gaussian 16:  ES64L-G16RevC.01  3-Jul-2019

 ----------------------------------------------------------------------
 #t hf aug-cc-pvdz iop(5/13=1,5/36=2,99/5=2) pseudo=read geom=check gue
 ss=(read,tcheck) scf=(maxcycle=1)
 ----------------------------------------------------------------------
 -----
 title
 -----
 Structure from the checkpoint file:  "BDE49_nonexpt_1224_mol1.chk"
 Charge =  0 Multiplicity = 1

                         Standard orientation:
 ---------------------------------------------------------------------
 Center     Atomic      Atomic             Coordinates (Angstroms)
 Number     Number       Type             X           Y           Z
 ---------------------------------------------------------------------
      1          8           0        0.660935   -0.861683   -0.704747
      2         16           0        2.201556   -1.091258   -0.046498
      3          6           0        2.762139    0.587433   -0.125060
      4          6           0       -0.300014   -0.372944    0.133280
      5          8           0       -1.422970   -0.329331   -0.637638
      6          8           0       -0.186733   -0.061810    1.269751
      7          8           0        2.181450    1.551374   -0.466333
      8          9           0        4.044598    0.576371    0.300179
      9          6           0       -2.595627    0.140819   -0.062856
     10          9           0       -2.977717   -0.620223    0.960672
     11          9           0       -3.516899    0.084076   -1.014972
     12          9           0       -2.470575    1.397542    0.352289
 ---------------------------------------------------------------------

 SCF Done:  E(RHF) =  -1208.75783088     A.U. after    2 cycles

 The electronic state is 1-A.
 Alpha  occ. eigenvalues --  -93.67611 -26.20284 -26.20131 -26.20001 -26.19948
 Alpha  occ. eigenvalues --  -20.70338 -20.70091 -20.64038 -20.62566 -11.61984
 Alpha  occ. eigenvalues --  -11.51607 -11.50063  -8.96693  -6.30891  -6.30535
 Alpha  occ. eigenvalues --   -6.30136  -1.80775  -1.74611  -1.73202  -1.73014
 Alpha  occ. eigenvalues --   -1.52947  -1.45106  -1.43390  -1.40563  -1.10553
 Alpha  occ. eigenvalues --   -1.05807  -0.97600  -0.93617  -0.93085  -0.91754
 Alpha  occ. eigenvalues --   -0.85500  -0.82315  -0.81821  -0.81352  -0.80572
 Alpha  occ. eigenvalues --   -0.78762  -0.77820  -0.76616  -0.76062  -0.75338
 Alpha  occ. eigenvalues --   -0.75033  -0.74263  -0.68302  -0.67588  -0.64589
 Alpha  occ. eigenvalues --   -0.62039  -0.61008  -0.56877  -0.55669  -0.52089
 Alpha  occ. eigenvalues --   -0.44814
 Alpha virt. eigenvalues --    0.04434   0.05288   0.07408   0.07617   0.08646
 Alpha virt. eigenvalues --    0.09062   0.09425   0.09672   0.10843   0.11611
 Alpha virt. eigenvalues --    0.12612   0.13067   0.13723   0.14035   0.14586

 Mulliken charges:
               1
     1  O   -0.753201
     2  S    0.835552
     3  C    0.269677
     4  C    0.707148
     5  O   -0.518831
     6  O   -0.255560
     7  O   -0.312882
     8  F   -0.296493
     9  C    1.116583
    10  F   -0.278067
    11  F   -0.241135
    12  F   -0.272792
 Sum of Mulliken charges =  -0.00000

 Dipole moment (field-independent basis, Debye):
    X=              1.0553    Y=             -2.6432    Z=             -0.6436  Tot=              2.9179

 Test job not archived.
 1\1\GINC-SE186\SP\RHF\Aug-CC-pVDZ\C3F4O4S1\OHZDE\08-Apr-2025\0\\#t hf
 aug-cc-pvdz iop(5/13=1,5/36=2,99/5=2) pseudo=read geom=check guess=(re
 ad,tcheck) scf=(maxcycle=1)\\title\\0,1\O,0,0.660935,-0.861683,-0.7047
 47\S,0,2.201556,-1.091258,-0.046498\C,0,2.762139,0.587433,-0.12506\C,0
 ,-0.300014,-0.372944,0.13328\O,0,-1.42297,-0.329331,-0.637638\O,0,-0.1
 86733,-0.06181,1.269751\O,0,2.18145,1.551374,-0.466333\F,0,4.044598,0.
 576371,0.300179\C,0,-2.595627,0.140819,-0.062856\F,0,-2.977717,-0.6202
 23,0.960672\F,0,-3.516899,0.084076,-1.014972\F,0,-2.470575,1.397542,0.

 Normal termination of Gaussian 16 at Tue Apr  8 23:22:46 2025.
