 Gaussian 16, Revision C.01,

 ----------------------------------------------------------------------
 #t hf aug-cc-pvdz symm=none int=(grid=ultrafine) guess=(read,tcheck) s
 table=opt
 ----------------------------------------------------------------------
 -----
 title
 -----
 Symbolic Z-matrix:
 Charge =  0 Multiplicity = 2

 SCF Done:  E(UHF) =  -834.123243743     A.U. after   18 cycles
 Normal termination of Gaussian 16 at Tue Apr  8 22:38:30 2025.
 Gaussian 16:  ES64L-G16RevC.01  3-Jul-2019

 ----------------------------------------------------------------------
 #t hf aug-cc-pvdz iop(5/13=1,5/36=2,99/5=2) pseudo=read geom=check gue
 ss=(read,tcheck) scf=(maxcycle=1)
 ----------------------------------------------------------------------
 -----
 title
 -----
 Structure from the checkpoint file:  "BDE49_expt_130_mol2.chk"
 Charge =  0 Multiplicity = 2

                         Standard orientation:
 ---------------------------------------------------------------------
 Center     Atomic      Atomic             Coordinates (Angstroms)
 Number     Number       Type             X           Y           Z
 ---------------------------------------------------------------------
      1          6           0       -0.076291    0.433133    0.000891
      2          6           0        1.229225    0.100999   -0.604870
      3          9           0        0.043100    0.802557    1.287988
      4         17           0       -1.226999   -0.989792   -0.043835
      5          9           0       -0.644022    1.438956   -0.691466
      6          1           0        1.378813    0.130856   -1.676061
      7          9           0        1.996764   -0.742533    0.075159
 ---------------------------------------------------------------------

 SCF Done:  E(UHF) =  -834.275233546     A.U. after    2 cycles

 The electronic state is 2-A.
 Alpha  occ. eigenvalues -- -103.69052 -26.18757 -26.18323 -26.17993 -11.52541
 Alpha  occ. eigenvalues --  -11.38809 -10.72368  -8.38235  -8.37748  -8.37722
 Alpha  occ. eigenvalues --   -1.75717  -1.72624  -1.70874  -1.20587  -1.09360
 Alpha  occ. eigenvalues --   -0.96857  -0.87863  -0.86957  -0.84130  -0.81846
 Alpha  occ. eigenvalues --   -0.80654  -0.77434  -0.74875  -0.74262  -0.66403
 Alpha  occ. eigenvalues --   -0.58933  -0.51296  -0.50328  -0.43787
 Alpha virt. eigenvalues --    0.03539   0.07650   0.08162   0.09014   0.10170
 Alpha virt. eigenvalues --    0.12256   0.12493   0.12919   0.15279   0.16091
 Alpha virt. eigenvalues --    0.17446   0.18977   0.20413   0.23734   0.25676

  Beta  occ. eigenvalues -- -103.68931 -26.18758 -26.18268 -26.17516 -11.52870
  Beta  occ. eigenvalues --  -11.36137 -10.72241  -8.37834  -8.37653  -8.37592
  Beta  occ. eigenvalues --   -1.75628  -1.71354  -1.70678  -1.19579  -1.05592
  Beta  occ. eigenvalues --   -0.94915  -0.87644  -0.86521  -0.83381  -0.80300
  Beta  occ. eigenvalues --   -0.77401  -0.76061  -0.74165  -0.73184  -0.65113
  Beta  occ. eigenvalues --   -0.57331  -0.50111  -0.49917
  Beta virt. eigenvalues --    0.03467   0.04368   0.07958   0.08432   0.10148
  Beta virt. eigenvalues --    0.10597   0.12272   0.12679   0.13533   0.15339
  Beta virt. eigenvalues --    0.16926   0.17831   0.19778   0.21041   0.24178

 Mulliken charges and spin densities:
               1          2
     1  C    0.580709  -0.125826
     2  C    0.588207   1.139840
     3  F   -0.306892  -0.004444
     4  Cl  -0.138786   0.068948
     5  F   -0.299640  -0.002647
     6  H   -0.115771  -0.099285
     7  F   -0.307827   0.023413
 Sum of Mulliken charges =  -0.00000   1.00000

 Dipole moment (field-independent basis, Debye):
    X=              0.7632    Y=              0.0477    Z=             -1.9204  Tot=              2.0670
                          Isotropic Fermi Contact Couplings
        Atom                 a.u.       MegaHertz       Gauss      10(-4) cm-1
     1  C(13)             -0.06565     -73.79855     -26.33316     -24.61654
     2  C(13)              0.27986     314.62145     112.26476     104.94642
     3  F(19)              0.01155      48.57943      17.33435      16.20436
     4  Cl(35)             0.04116      18.04629       6.43936       6.01959
     5  F(19)             -0.00060      -2.54111      -0.90673      -0.84762
     6  H(1)              -0.02246    -100.38907     -35.82132     -33.48619
     7  F(19)              0.05922     249.16697      88.90897      83.11315
 --------------------------------------------------------

 Normal termination of Gaussian 16 at Tue Apr  8 22:38:33 2025.
