 Gaussian 16, Revision C.01,

 ----------------------------------------------------------------------
 #t hf aug-cc-pvdz symm=none int=(grid=ultrafine) guess=(read,tcheck) s
 table=(opt,rrhf)
 ----------------------------------------------------------------------
 -----
 title
 -----
 Symbolic Z-matrix:
 Charge =  0 Multiplicity = 1

 SCF Done:  E(RHF) =  -780.217421789     A.U. after   14 cycles
 Normal termination of Gaussian 16 at Tue Apr  8 23:40:27 2025.
 Gaussian 16:  ES64L-G16RevC.01  3-Jul-2019

 ----------------------------------------------------------------------
 #t hf aug-cc-pvdz iop(5/13=1,5/36=2,99/5=2) pseudo=read geom=check gue
 ss=(read,tcheck) scf=(maxcycle=1)
 ----------------------------------------------------------------------
 -----
 title
 -----
 Structure from the checkpoint file:  "BDE49_nonexpt_1570_mol1.chk"
 Charge =  0 Multiplicity = 1

                         Standard orientation:
 ---------------------------------------------------------------------
 Center     Atomic      Atomic             Coordinates (Angstroms)
 Number     Number       Type             X           Y           Z
 ---------------------------------------------------------------------
      1          6           0        2.268335    1.490151   -0.128151
      2          6           0        0.901985    1.019195   -0.649629
      3          6           0        3.302469    0.356461   -0.151667
      4          1           0        2.155929    1.856025    0.900578
      5          1           0        2.621059    2.338523   -0.723666
      6          6           0        2.799597   -0.874251    0.615018
      7          1           0        4.253182    0.700510    0.268088
      8          1           0        3.504849    0.074987   -1.193209
      9          6           0        1.431647   -1.347774    0.097720
     10          1           0        2.712668   -0.626540    1.680473
     11          1           0        3.525610   -1.690468    0.542531
     12          6           0        0.392021   -0.209028    0.127387
     13          1           0        1.082001   -2.195757    0.695650
     14          1           0        1.544458   -1.714033   -0.931442
     15          1           0        0.990079    0.761155   -1.713260
     16          1           0        0.171544    1.831039   -0.587575
     17          7           0       -2.291020    0.465490   -0.015891
     18          8           0       -3.608112    0.062016   -0.413188
     19          8           0       -2.289134    0.520216    1.412495
     20          1           0       -2.390521    1.462144    1.597602
     21          1           0       -3.980622    0.870491   -0.784257
     22         15           0       -1.217826   -0.832606   -0.580949
     23          1           0        0.207038    0.075554    1.167841
     24          1           0       -1.491099   -1.779339    0.447599
 ---------------------------------------------------------------------

 SCF Done:  E(RHF) =  -780.374004228     A.U. after    2 cycles

 The electronic state is 1-A.
 Alpha  occ. eigenvalues --  -81.27217 -20.61582 -20.61432 -15.73445 -11.24000
 Alpha  occ. eigenvalues --  -11.23548 -11.23174 -11.23046 -11.22945 -11.22831
 Alpha  occ. eigenvalues --   -7.77323  -4.91471  -4.91258  -4.90951  -1.40835
 Alpha  occ. eigenvalues --   -1.31076  -1.10920  -1.02224  -1.00062  -0.99337
 Alpha  occ. eigenvalues --   -0.84189  -0.83621  -0.76615  -0.74131  -0.72483
 Alpha  occ. eigenvalues --   -0.71745  -0.65087  -0.63708  -0.61848  -0.60932
 Alpha  occ. eigenvalues --   -0.60563  -0.58983  -0.53789  -0.53252  -0.52085
 Alpha  occ. eigenvalues --   -0.50580  -0.50159  -0.49108  -0.48999  -0.45848
 Alpha  occ. eigenvalues --   -0.43766  -0.41940  -0.40920  -0.34786
 Alpha virt. eigenvalues --    0.03092   0.03712   0.04318   0.04470   0.05462
 Alpha virt. eigenvalues --    0.05982   0.06283   0.06829   0.07016   0.08051
 Alpha virt. eigenvalues --    0.08623   0.08969   0.09178   0.10003   0.11083

 Mulliken charges:
               1
     1  C    0.306509
     2  C    0.267962
     3  C    0.241521
     4  H   -0.090184
     5  H   -0.102826
     6  C    0.392276
     7  H   -0.113268
     8  H   -0.092960
     9  C    0.423414
    10  H   -0.098712
    11  H   -0.106501
    12  C   -0.301897
    13  H   -0.187519
    14  H   -0.117584
    15  H   -0.092662
    16  H   -0.173326
    17  N   -0.279000
    18  O   -0.404385
    19  O   -0.446661
    20  H    0.207562
    21  H    0.189626
    22  P    0.677950
    23  H   -0.234225
    24  H    0.134890
 Sum of Mulliken charges =  -0.00000

 Dipole moment (field-independent basis, Debye):
    X=              1.2697    Y=              2.3182    Z=              0.2050  Tot=              2.6510

 Test job not archived.
 1\1\GINC-SE187\SP\RHF\Aug-CC-pVDZ\C6H14N1O2P1\OHZDE\08-Apr-2025\0\\#t
 hf aug-cc-pvdz iop(5/13=1,5/36=2,99/5=2) pseudo=read geom=check guess=
 (read,tcheck) scf=(maxcycle=1)\\title\\0,1\C,0,2.268335,1.490151,-0.12
 8151\C,0,0.901985,1.019195,-0.649629\C,0,3.302469,0.356461,-0.151667\H
 ,0,2.155929,1.856025,0.900578\H,0,2.621059,2.338523,-0.723666\C,0,2.79
 9597,-0.874251,0.615018\H,0,4.253182,0.70051,0.268088\H,0,3.504849,0.0
 74987,-1.193209\C,0,1.431647,-1.347774,0.09772\H,0,2.712668,-0.62654,1
 .680473\H,0,3.52561,-1.690468,0.542531\C,0,0.392021,-0.209028,0.127387

 Normal termination of Gaussian 16 at Tue Apr  8 23:40:44 2025.
