 Gaussian 16, Revision C.01,

 ----------------------------------------------------------------------
 #t hf aug-cc-pvdz symm=none int=(grid=ultrafine) guess=(read,tcheck) s
 table=(opt,rrhf)
 ----------------------------------------------------------------------
 -----
 title
 -----
 Symbolic Z-matrix:
 Charge =  0 Multiplicity = 1

 SCF Done:  E(RHF) =  -388.322648062     A.U. after   12 cycles

 1\1\GINC-SE126\Stability\RHF\Aug-CC-pVDZ\C8H18O1\OHZDE\08-Apr-2025\0\\
 #t hf aug-cc-pvdz symm=none int=(grid=ultrafine) guess=(read,tcheck) s
 table=(opt,rrhf)\\title\\0,1\O,0,0.,0.,0.687615\C,0,-1.299503,0.000921
 ,0.052885\C,0,-2.222014,0.422855,1.206071\H,0,-1.955769,1.423565,1.552
 678\H,0,-2.109218,-0.267702,2.044307\C,0,1.299503,-0.000921,0.052885\C
 ,0,2.222014,-0.422856,1.20607\H,0,1.955769,-1.423566,1.552677\H,0,2.10
 9218,0.267701,2.044307\C,0,-1.445195,1.004767,-1.100955\H,0,-2.485787,
 1.018649,-1.437134\H,0,-0.828833,0.742648,-1.962585\H,0,-1.182886,2.01

 Normal termination of Gaussian 16 at Tue Apr  8 22:43:47 2025.
 Gaussian 16:  ES64L-G16RevC.01  3-Jul-2019

 ----------------------------------------------------------------------
 #t hf aug-cc-pvdz iop(5/13=1,5/36=2,99/5=2) pseudo=read geom=check gue
 ss=(read,tcheck) scf=(maxcycle=1)
 ----------------------------------------------------------------------
 -----
 title
 -----
 Structure from the checkpoint file:  "BDE49_expt_1389_mol1.chk"
 Charge =  0 Multiplicity = 1

                         Standard orientation:
 ---------------------------------------------------------------------
 Center     Atomic      Atomic             Coordinates (Angstroms)
 Number     Number       Type             X           Y           Z
 ---------------------------------------------------------------------
      1          8           0       -0.000000    0.000000    0.687615
      2          6           0       -1.299503    0.000921    0.052885
      3          6           0       -2.222014    0.422855    1.206071
      4          1           0       -1.955769    1.423565    1.552678
      5          1           0       -2.109218   -0.267702    2.044307
      6          6           0        1.299503   -0.000921    0.052885
      7          6           0        2.222014   -0.422856    1.206070
      8          1           0        1.955769   -1.423566    1.552677
      9          1           0        2.109218    0.267701    2.044307
     10          6           0       -1.445195    1.004767   -1.100955
     11          1           0       -2.485787    1.018649   -1.437134
     12          1           0       -0.828833    0.742648   -1.962585
     13          1           0       -1.182886    2.013792   -0.776870
     14          6           0        1.445195   -1.004766   -1.100956
     15          1           0        2.485787   -1.018648   -1.437135
     16          1           0        0.828833   -0.742647   -1.962585
     17          1           0        1.182886   -2.013791   -0.776871
     18          6           0       -1.688788   -1.415278   -0.409057
     19          1           0       -1.509832   -2.129526    0.397791
     20          1           0       -1.125047   -1.735919   -1.285178
     21          1           0       -2.751272   -1.448959   -0.667453
     22          6           0        1.688788    1.415278   -0.409057
     23          1           0        1.509833    2.129526    0.397792
     24          1           0        1.125047    1.735919   -1.285177
     25          1           0        2.751272    1.448959   -0.667453
     26          1           0       -3.268691    0.424885    0.890328
     27          1           0        3.268691   -0.424886    0.890328
 ---------------------------------------------------------------------

 SCF Done:  E(RHF) =  -388.445992278     A.U. after    2 cycles

 The electronic state is 1-A.
 Alpha  occ. eigenvalues --  -20.54782 -11.29387 -11.29363 -11.22279 -11.22278
 Alpha  occ. eigenvalues --  -11.21762 -11.21762 -11.21447 -11.21446  -1.30639
 Alpha  occ. eigenvalues --   -1.08424  -1.02859  -0.93923  -0.93210  -0.92300
 Alpha  occ. eigenvalues --   -0.92261  -0.80018  -0.71869  -0.64694  -0.63776
 Alpha  occ. eigenvalues --   -0.63768  -0.60159  -0.59003  -0.58242  -0.55733
 Alpha  occ. eigenvalues --   -0.55627  -0.53896  -0.52919  -0.51547  -0.51355
 Alpha  occ. eigenvalues --   -0.51202  -0.51163  -0.50861  -0.46803  -0.45287
 Alpha  occ. eigenvalues --   -0.43606  -0.41207
 Alpha virt. eigenvalues --    0.03454   0.04257   0.04602   0.04616   0.05901
 Alpha virt. eigenvalues --    0.05923   0.05932   0.06525   0.06649   0.08314
 Alpha virt. eigenvalues --    0.08346   0.08574   0.09028   0.09183   0.09355

 Mulliken charges:
               1
     1  O   -0.450473
     2  C   -2.925875
     3  C    1.217270
     4  H   -0.027017
     5  H   -0.035600
     6  C   -2.925877
     7  C    1.217270
     8  H   -0.027017
     9  H   -0.035597
    10  C    1.123893
    11  H   -0.075577
    12  H   -0.056868
    13  H    0.013812
    14  C    1.123896
    15  H   -0.075577
    16  H   -0.056871
    17  H    0.013812
    18  C    1.123619
    19  H    0.013932
    20  H   -0.143035
    21  H   -0.000513
    22  C    1.123620
    23  H    0.013934
    24  H   -0.143038
    25  H   -0.000512
    26  H   -0.002805
    27  H   -0.002806
 Sum of Mulliken charges =  -0.00000

 Dipole moment (field-independent basis, Debye):
    X=             -0.0000    Y=             -0.0000    Z=             -1.2995  Tot=              1.2995

 Test job not archived.
 1\1\GINC-SE126\SP\RHF\Aug-CC-pVDZ\C8H18O1\OHZDE\08-Apr-2025\0\\#t hf a
 ug-cc-pvdz iop(5/13=1,5/36=2,99/5=2) pseudo=read geom=check guess=(rea
 d,tcheck) scf=(maxcycle=1)\\title\\0,1\O,0,0.,0.,0.687615\C,0,-1.29950
 3,0.000921,0.052885\C,0,-2.222014,0.422855,1.206071\H,0,-1.955769,1.42
 3565,1.552678\H,0,-2.109218,-0.267702,2.044307\C,0,1.299503,-0.000921,
 0.052885\C,0,2.222014,-0.422856,1.20607\H,0,1.955769,-1.423566,1.55267
 7\H,0,2.109218,0.267701,2.044307\C,0,-1.445195,1.004767,-1.100955\H,0,
 -2.485787,1.018649,-1.437134\H,0,-0.828833,0.742648,-1.962585\H,0,-1.1

 Normal termination of Gaussian 16 at Tue Apr  8 22:44:06 2025.
