 Gaussian 16, Revision C.01,

 ----------------------------------------------------------------------
 #t hf aug-cc-pvdz symm=none int=(grid=ultrafine) guess=(read,tcheck) s
 table=(opt,rrhf)
 ----------------------------------------------------------------------
 -----
 title
 -----
 Symbolic Z-matrix:
 Charge =  0 Multiplicity = 1

 SCF Done:  E(RHF) =  -550.414989791     A.U. after   13 cycles
 Normal termination of Gaussian 16 at Tue Apr  8 23:34:17 2025.
 Gaussian 16:  ES64L-G16RevC.01  3-Jul-2019

 ----------------------------------------------------------------------
 #t hf aug-cc-pvdz iop(5/13=1,5/36=2,99/5=2) pseudo=read geom=check gue
 ss=(read,tcheck) scf=(maxcycle=1)
 ----------------------------------------------------------------------
 -----
 title
 -----
 Structure from the checkpoint file:  "BDE49_nonexpt_1507_mol1.chk"
 Charge =  0 Multiplicity = 1

                         Standard orientation:
 ---------------------------------------------------------------------
 Center     Atomic      Atomic             Coordinates (Angstroms)
 Number     Number       Type             X           Y           Z
 ---------------------------------------------------------------------
      1         15           0       -0.572437    0.000652   -0.661238
      2          7           0        1.158303   -0.116453   -0.648477
      3          8           0        1.789768    0.112173    0.637121
      4          6           0       -0.947170    1.414227    0.479781
      5          1           0       -0.706158    2.357734   -0.015612
      6          1           0       -0.378769    1.340376    1.408604
      7          6           0       -0.957848   -1.407706    0.468504
      8          1           0       -0.410620   -1.325452    1.410373
      9          1           0       -0.697120   -2.346409   -0.024196
     10          1           0       -2.030150   -1.416516    0.678307
     11          1           0       -2.017362    1.416686    0.704625
     12          1           0        2.253815   -0.718046    0.789039
     13          1           0        1.576758    0.560505   -1.279912
 ---------------------------------------------------------------------

 SCF Done:  E(RHF) =  -550.509798647     A.U. after    2 cycles

 The electronic state is 1-A.
 Alpha  occ. eigenvalues --  -81.26959 -20.60852 -15.66994 -11.23082 -11.22758
 Alpha  occ. eigenvalues --   -7.76985  -4.91102  -4.90874  -4.90597  -1.35077
 Alpha  occ. eigenvalues --   -1.06388  -0.97143  -0.93092  -0.72910  -0.70056
 Alpha  occ. eigenvalues --   -0.64909  -0.60412  -0.58407  -0.55820  -0.55134
 Alpha  occ. eigenvalues --   -0.55023  -0.49379  -0.46604  -0.39984  -0.33314
 Alpha virt. eigenvalues --    0.03570   0.04486   0.04640   0.05461   0.07102
 Alpha virt. eigenvalues --    0.07146   0.07881   0.08164   0.08956   0.11497
 Alpha virt. eigenvalues --    0.12286   0.14748   0.16165   0.16490   0.16824

 Mulliken charges:
               1
     1  P    0.925825
     2  N   -0.307531
     3  O   -0.545546
     4  C    0.198561
     5  H   -0.156514
     6  H   -0.125565
     7  C    0.261577
     8  H   -0.147815
     9  H   -0.140714
    10  H   -0.128348
    11  H   -0.121957
    12  H    0.209524
    13  H    0.078503
 Sum of Mulliken charges =  -0.00000

 Dipole moment (field-independent basis, Debye):
    X=              0.1493    Y=             -0.4094    Z=              0.6420  Tot=              0.7759

 Test job not archived.
 1\1\GINC-SE070\SP\RHF\Aug-CC-pVDZ\C2H8N1O1P1\OHZDE\08-Apr-2025\0\\#t h
 f aug-cc-pvdz iop(5/13=1,5/36=2,99/5=2) pseudo=read geom=check guess=(
 read,tcheck) scf=(maxcycle=1)\\title\\0,1\P,0,-0.572437,0.000652,-0.66
 1238\N,0,1.158303,-0.116453,-0.648477\O,0,1.789768,0.112173,0.637121\C
 ,0,-0.947169,1.414228,0.479781\H,0,-0.706157,2.357734,-0.015612\H,0,-0
 .378769,1.340376,1.408604\C,0,-0.957848,-1.407705,0.468504\H,0,-0.4106
 2,-1.325452,1.410373\H,0,-0.697121,-2.346409,-0.024196\H,0,-2.03015,-1
 .416515,0.678307\H,0,-2.017361,1.416687,0.704625\H,0,2.253815,-0.71804

 Normal termination of Gaussian 16 at Tue Apr  8 23:34:21 2025.
