 Gaussian 16, Revision C.01,

 ----------------------------------------------------------------------
 #t hf aug-cc-pvdz symm=none int=(grid=ultrafine) guess=(read,tcheck) s
 table=(opt,rrhf)
 ----------------------------------------------------------------------
 -----
 title
 -----
 Symbolic Z-matrix:
 Charge =  0 Multiplicity = 1

 SCF Done:  E(RHF) =  -435.693215126     A.U. after    9 cycles
 Normal termination of Gaussian 16 at Tue Apr  8 22:42:26 2025.
 Gaussian 16:  ES64L-G16RevC.01  3-Jul-2019

 ----------------------------------------------------------------------
 #t hf aug-cc-pvdz iop(5/13=1,5/36=2,99/5=2) pseudo=read geom=check gue
 ss=(read,tcheck) scf=(maxcycle=1)
 ----------------------------------------------------------------------
 -----
 title
 -----
 Structure from the checkpoint file:  "BDE49_expt_1497_mol1.chk"
 Charge =  0 Multiplicity = 1

                         Standard orientation:
 ---------------------------------------------------------------------
 Center     Atomic      Atomic             Coordinates (Angstroms)
 Number     Number       Type             X           Y           Z
 ---------------------------------------------------------------------
      1          6           0        0.000001    0.000001   -0.000000
      2          9           0       -0.731799    0.948546    0.570000
      3          9           0       -0.759616   -0.708754   -0.825118
      4          9           0        0.498524   -0.796678    0.936453
      5          9           0        0.992891    0.556885   -0.681335
 ---------------------------------------------------------------------

 SCF Done:  E(RHF) =  -435.858001027     A.U. after    2 cycles

 The electronic state is 1-A.
 Alpha  occ. eigenvalues --  -26.20387 -26.20387 -26.20387 -26.20364 -11.63562
 Alpha  occ. eigenvalues --   -1.82919  -1.73575  -1.73575  -1.73575  -1.07624
 Alpha  occ. eigenvalues --   -0.94717  -0.94717  -0.94717  -0.82749  -0.82749
 Alpha  occ. eigenvalues --   -0.77483  -0.77483  -0.77483  -0.75431  -0.75431
 Alpha  occ. eigenvalues --   -0.75430
 Alpha virt. eigenvalues --    0.08063   0.08876   0.08876   0.08876   0.23387
 Alpha virt. eigenvalues --    0.23387   0.23387   0.23899   0.23899   0.31143
 Alpha virt. eigenvalues --    0.32934   0.32934   0.32934   0.34140   0.34140

 Mulliken charges:
               1
     1  C    0.964221
     2  F   -0.241055
     3  F   -0.241057
     4  F   -0.241054
     5  F   -0.241055
 Sum of Mulliken charges =  -0.00000

 Dipole moment (field-independent basis, Debye):
    X=              0.0000    Y=              0.0000    Z=              0.0000  Tot=              0.0000

 Test job not archived.
 1\1\GINC-SE073\SP\RHF\Aug-CC-pVDZ\C1F4\OHZDE\08-Apr-2025\0\\#t hf aug-
 cc-pvdz iop(5/13=1,5/36=2,99/5=2) pseudo=read geom=check guess=(read,t
 check) scf=(maxcycle=1)\\title\\0,1\C,0,0.000001,0.000001,0.\F,0,-0.67
 3343,0.842989,0.772106\F,0,-0.803771,-0.47439,-0.942908\F,0,0.458794,-
 1.003836,0.736198\F,0,1.018319,0.635236,-0.565396\\Version=ES64L-G16Re
 vC.01\State=1-A\HF=-435.858001\RMSD=7.295e-03\Dipole=0.0000048,0.00000
 38,0.0000011\Quadrupole=-0.0000072,0.0000035,0.0000037,0.0000008,-0.00
 00042,-0.0000032\PG=C01 [X(C1F4)]\\@

 Normal termination of Gaussian 16 at Tue Apr  8 22:42:27 2025.
