 Gaussian 16, Revision C.01,

 ----------------------------------------------------------------------
 #t hf aug-cc-pvdz symm=none int=(grid=ultrafine) guess=(read,tcheck) s
 table=(opt,rrhf)
 ----------------------------------------------------------------------
 -----
 title
 -----
 Symbolic Z-matrix:
 Charge =  0 Multiplicity = 1

 SCF Done:  E(RHF) =  -709.630664718     A.U. after   15 cycles
 Normal termination of Gaussian 16 at Wed Apr  9 00:04:22 2025.
 Gaussian 16:  ES64L-G16RevC.01  3-Jul-2019

 ----------------------------------------------------------------------
 #t hf aug-cc-pvdz iop(5/13=1,5/36=2,99/5=2) pseudo=read geom=check gue
 ss=(read,tcheck) scf=(maxcycle=1)
 ----------------------------------------------------------------------
 -----
 title
 -----
 Structure from the checkpoint file:  "BDE49_nonexpt_2198_mol1.chk"
 Charge =  0 Multiplicity = 1

                         Standard orientation:
 ---------------------------------------------------------------------
 Center     Atomic      Atomic             Coordinates (Angstroms)
 Number     Number       Type             X           Y           Z
 ---------------------------------------------------------------------
      1          6           0       -2.642687   -1.095064   -0.012492
      2          6           0       -2.312311    0.247172    0.173140
      3          6           0       -0.986774    0.676352    0.195522
      4          6           0       -1.630264   -2.031150   -0.189019
      5          6           0       -0.295437   -1.627958   -0.179313
      6          6           0        0.018944   -0.285022    0.011833
      7          1           0       -1.870107   -3.077430   -0.339505
      8          1           0        0.491994   -2.358707   -0.329117
      9          8           0        1.321738    0.170363    0.025263
     10         14           0        2.752467   -0.682683    0.103304
     11          1           0       -3.099915    0.981914    0.305313
     12          1           0       -3.681386   -1.403381   -0.024749
     13          6           0       -0.616166    2.127283    0.415641
     14          8           0        0.122440    2.695321   -0.659911
     15          1           0       -0.059433    2.220967    1.359349
     16          1           0       -1.525706    2.722946    0.509761
     17          1           0        0.938797    2.187254   -0.720146
     18          1           0        3.794673    0.355309    0.183648
     19          1           0        2.941545   -1.514699   -1.105662
     20          1           0        2.769750   -1.551763    1.300152
 ---------------------------------------------------------------------

 SCF Done:  E(RHF) =  -709.789025897     A.U. after    2 cycles

 The electronic state is 1-A.
 Alpha  occ. eigenvalues --  -69.11318 -20.60087 -20.56257 -11.32364 -11.29087
 Alpha  occ. eigenvalues --  -11.25612 -11.25369 -11.25222 -11.25017 -11.24532
 Alpha  occ. eigenvalues --   -6.86125  -3.97034  -3.96887  -3.96855  -1.35632
 Alpha  occ. eigenvalues --   -1.31228  -1.14795  -1.04001  -1.01122  -0.92098
 Alpha  occ. eigenvalues --   -0.86087  -0.82086  -0.76075  -0.70761  -0.69625
 Alpha  occ. eigenvalues --   -0.66570  -0.65324  -0.63336  -0.62156  -0.60880
 Alpha  occ. eigenvalues --   -0.59694  -0.57236  -0.54109  -0.52671  -0.50797
 Alpha  occ. eigenvalues --   -0.49942  -0.48572  -0.47901  -0.45368  -0.34866
 Alpha  occ. eigenvalues --   -0.32956
 Alpha virt. eigenvalues --    0.02944   0.03684   0.04156   0.05029   0.05627
 Alpha virt. eigenvalues --    0.05709   0.06632   0.07374   0.07920   0.08385
 Alpha virt. eigenvalues --    0.08816   0.09856   0.10383   0.11036   0.11272

 Mulliken charges:
               1
     1  C    0.316235
     2  C    1.194642
     3  C   -0.121064
     4  C    0.329165
     5  C    0.778819
     6  C   -0.051683
     7  H   -0.431148
     8  H   -0.657389
     9  O   -0.893062
    10  Si  -0.001056
    11  H   -0.549200
    12  H   -0.458678
    13  C    0.829638
    14  O   -0.570599
    15  H   -0.012112
    16  H   -0.271992
    17  H    0.163109
    18  H    0.081672
    19  H    0.161562
    20  H    0.163146
 Sum of Mulliken charges =  -0.00000

 Dipole moment (field-independent basis, Debye):
    X=              0.4830    Y=             -2.5385    Z=              1.1429  Tot=              2.8255

 Test job not archived.
 1\1\GINC-SE106\SP\RHF\Aug-CC-pVDZ\C7H10O2Si1\OHZDE\09-Apr-2025\0\\#t h
 f aug-cc-pvdz iop(5/13=1,5/36=2,99/5=2) pseudo=read geom=check guess=(
 read,tcheck) scf=(maxcycle=1)\\title\\0,1\C,0,-2.642687,-1.095064,-0.0
 12492\C,0,-2.312311,0.247172,0.17314\C,0,-0.986774,0.676352,0.195522\C
 ,0,-1.630264,-2.03115,-0.189019\C,0,-0.295437,-1.627958,-0.179313\C,0,
 0.018944,-0.285022,0.011833\H,0,-1.870107,-3.07743,-0.339505\H,0,0.491
 994,-2.358707,-0.329117\O,0,1.321738,0.170363,0.025263\Si,0,2.752467,-
 0.682683,0.103304\H,0,-3.099915,0.981914,0.305313\H,0,-3.681386,-1.403

 Normal termination of Gaussian 16 at Wed Apr  9 00:04:34 2025.
