 Gaussian 16, Revision C.01,

 ----------------------------------------------------------------------
 #t hf aug-cc-pvdz symm=none int=(grid=ultrafine) guess=(read,tcheck) s
 table=(opt,rrhf)
 ----------------------------------------------------------------------
 -----
 title
 -----
 Symbolic Z-matrix:
 Charge =  0 Multiplicity = 1

 SCF Done:  E(RHF) =  -641.262875766     A.U. after   15 cycles
 Normal termination of Gaussian 16 at Tue Apr  8 23:09:52 2025.
 Gaussian 16:  ES64L-G16RevC.01  3-Jul-2019

 ----------------------------------------------------------------------
 #t hf aug-cc-pvdz iop(5/13=1,5/36=2,99/5=2) pseudo=read geom=check gue
 ss=(read,tcheck) scf=(maxcycle=1)
 ----------------------------------------------------------------------
 -----
 title
 -----
 Structure from the checkpoint file:  "BDE49_expt_741_mol1.chk"
 Charge =  0 Multiplicity = 1

                         Standard orientation:
 ---------------------------------------------------------------------
 Center     Atomic      Atomic             Coordinates (Angstroms)
 Number     Number       Type             X           Y           Z
 ---------------------------------------------------------------------
      1          6           0        0.369704    0.004495   -0.035002
      2          6           0       -0.326654   -1.207530   -0.024600
      3          6           0       -1.712266   -1.221763   -0.006478
      4          6           0       -0.337922    1.204665   -0.024853
      5          6           0       -1.727893    1.198083   -0.007121
      6          6           0       -2.419625   -0.015580    0.003997
      7          1           0        0.196289    2.146032   -0.039649
      8          1           0       -2.274515    2.136125   -0.004690
      9          8           0       -3.778094   -0.089377    0.020613
     10          1           0       -4.149801    0.799003    0.025678
     11          1           0        0.220583   -2.141834   -0.040439
     12          1           0       -2.265752   -2.152305   -0.003295
     13          6           0        1.868347    0.006088   -0.000341
     14          9           0        2.394022   -1.026419   -0.698695
     15          9           0        2.390769    1.143287   -0.512393
     16          9           0        2.350298   -0.103841    1.262630
 ---------------------------------------------------------------------

 SCF Done:  E(RHF) =  -641.474351136     A.U. after    2 cycles

 The electronic state is 1-A.
 Alpha  occ. eigenvalues --  -26.16065 -26.15920 -26.15422 -20.62641 -11.52485
 Alpha  occ. eigenvalues --  -11.34070 -11.28008 -11.27786 -11.27146 -11.26505
 Alpha  occ. eigenvalues --  -11.25935  -1.75191  -1.68401  -1.67847  -1.39099
 Alpha  occ. eigenvalues --   -1.17402  -1.07480  -1.04185  -0.99381  -0.89512
 Alpha  occ. eigenvalues --   -0.88529  -0.86854  -0.85704  -0.81560  -0.77264
 Alpha  occ. eigenvalues --   -0.76570  -0.76082  -0.72321  -0.71824  -0.70860
 Alpha  occ. eigenvalues --   -0.69746  -0.67666  -0.63532  -0.62756  -0.62013
 Alpha  occ. eigenvalues --   -0.60265  -0.55960  -0.52255  -0.51618  -0.36962
 Alpha  occ. eigenvalues --   -0.34942
 Alpha virt. eigenvalues --    0.02493   0.03938   0.04430   0.05988   0.06586
 Alpha virt. eigenvalues --    0.08519   0.08762   0.09228   0.10272   0.10437
 Alpha virt. eigenvalues --    0.12066   0.12593   0.12806   0.13448   0.13664

 Mulliken charges:
               1
     1  C    1.127895
     2  C    0.042213
     3  C    0.734503
     4  C    0.000022
     5  C    0.613131
     6  C    0.288627
     7  H   -0.529855
     8  H   -0.556824
     9  O   -0.562361
    10  H    0.136523
    11  H   -0.549095
    12  H   -0.480426
    13  C    0.730777
    14  F   -0.332906
    15  F   -0.326414
    16  F   -0.335810
 Sum of Mulliken charges =  -0.00000

 Dipole moment (field-independent basis, Debye):
    X=             -3.3716    Y=              1.4291    Z=             -0.0829  Tot=              3.6629

 Test job not archived.
 1\1\GINC-SE403\SP\RHF\Aug-CC-pVDZ\C7H5F3O1\OHZDE\08-Apr-2025\0\\#t hf
 aug-cc-pvdz iop(5/13=1,5/36=2,99/5=2) pseudo=read geom=check guess=(re
 ad,tcheck) scf=(maxcycle=1)\\title\\0,1\C,0,0.369704,0.004495,-0.03500
 2\C,0,-0.326654,-1.20753,-0.0246\C,0,-1.712266,-1.221763,-0.006478\C,0
 ,-0.337922,1.204665,-0.024853\C,0,-1.727893,1.198083,-0.007121\C,0,-2.
 419625,-0.01558,0.003997\H,0,0.196289,2.146032,-0.039649\H,0,-2.274515
 ,2.136125,-0.00469\O,0,-3.778094,-0.089377,0.020613\H,0,-4.149801,0.79
 9003,0.025678\H,0,0.220583,-2.141834,-0.040439\H,0,-2.265752,-2.152305

 Normal termination of Gaussian 16 at Tue Apr  8 23:10:00 2025.
