 Gaussian 16, Revision C.01,

 ----------------------------------------------------------------------
 #t hf aug-cc-pvdz symm=none int=(grid=ultrafine) guess=(read,tcheck) s
 table=(opt,rrhf)
 ----------------------------------------------------------------------
 -----
 title
 -----
 Symbolic Z-matrix:
 Charge =  0 Multiplicity = 1

 SCF Done:  E(RHF) =  -437.878544246     A.U. after   14 cycles
 Normal termination of Gaussian 16 at Wed Apr  9 00:38:23 2025.
 Gaussian 16:  ES64L-G16RevC.01  3-Jul-2019

 ----------------------------------------------------------------------
 #t hf aug-cc-pvdz iop(5/13=1,5/36=2,99/5=2) pseudo=read geom=check gue
 ss=(read,tcheck) scf=(maxcycle=1)
 ----------------------------------------------------------------------
 -----
 title
 -----
 Structure from the checkpoint file:  "BDE49_nonexpt_623_mol1.chk"
 Charge =  0 Multiplicity = 1

                         Standard orientation:
 ---------------------------------------------------------------------
 Center     Atomic      Atomic             Coordinates (Angstroms)
 Number     Number       Type             X           Y           Z
 ---------------------------------------------------------------------
      1          8           0       -2.338725   -1.213254   -0.000059
      2          1           0       -3.298574   -1.134585   -0.000025
      3          8           0       -2.503139    1.122550    0.000077
      4          1           0       -2.026935    1.955890    0.000168
      5          5           0       -1.720579    0.000225   -0.000028
      6          7           0        1.957713    1.185016   -0.000047
      7          6           0        2.536878   -0.017801   -0.000006
      8          1           0        3.623092   -0.031130    0.000033
      9          7           0        1.926450   -1.205512    0.000049
     10          6           0        0.592360   -1.172520    0.000042
     11          1           0        0.083508   -2.131840    0.000069
     12          6           0       -0.151477    0.016712   -0.000011
     13          6           0        0.623281    1.180567   -0.000051
     14          1           0        0.161318    2.167892   -0.000106
 ---------------------------------------------------------------------

 SCF Done:  E(RHF) =  -438.012744036     A.U. after    2 cycles

 The electronic state is 1-A.
 Alpha  occ. eigenvalues --  -20.60042 -20.59127 -15.64418 -15.64212 -11.33479
 Alpha  occ. eigenvalues --  -11.32053 -11.31394 -11.24360  -7.67715  -1.36082
 Alpha  occ. eigenvalues --   -1.32288  -1.28740  -1.16887  -1.06757  -0.89652
 Alpha  occ. eigenvalues --   -0.89274  -0.80084  -0.77259  -0.73912  -0.70658
 Alpha  occ. eigenvalues --   -0.66009  -0.61023  -0.60338  -0.59355  -0.58579
 Alpha  occ. eigenvalues --   -0.57690  -0.57047  -0.53761  -0.46118  -0.42417
 Alpha  occ. eigenvalues --   -0.41326  -0.38253
 Alpha virt. eigenvalues --    0.02660   0.04096   0.04377   0.05021   0.05864
 Alpha virt. eigenvalues --    0.06635   0.07401   0.07445   0.08013   0.08870
 Alpha virt. eigenvalues --    0.09551   0.10131   0.11679   0.13156   0.14068

 Mulliken charges:
               1
     1  O   -0.485916
     2  H    0.205204
     3  O   -0.485209
     4  H    0.215563
     5  B    0.759682
     6  N   -0.545383
     7  C    0.611898
     8  H   -0.253944
     9  N   -0.531396
    10  C    0.625287
    11  H   -0.410962
    12  C    0.180408
    13  C    0.605997
    14  H   -0.491229
 Sum of Mulliken charges =  -0.00000

 Dipole moment (field-independent basis, Debye):
    X=             -1.8265    Y=              1.3406    Z=              0.0001  Tot=              2.2657

 Test job not archived.
 1\1\GINC-SE284\SP\RHF\Aug-CC-pVDZ\C4H5B1N2O2\OHZDE\09-Apr-2025\0\\#t h
 f aug-cc-pvdz iop(5/13=1,5/36=2,99/5=2) pseudo=read geom=check guess=(
 read,tcheck) scf=(maxcycle=1)\\title\\0,1\O,0,-2.338725,-1.213254,-0.0
 00059\H,0,-3.298574,-1.134585,-0.000025\O,0,-2.503139,1.12255,0.000077
 \H,0,-2.026935,1.95589,0.000168\B,0,-1.720579,0.000225,-0.000028\N,0,1
 .957713,1.185016,-0.000047\C,0,2.536878,-0.017801,-0.000006\H,0,3.6230
 92,-0.03113,0.000033\N,0,1.92645,-1.205512,0.000049\C,0,0.59236,-1.172
 52,0.000042\H,0,0.083508,-2.13184,0.000069\C,0,-0.151477,0.016712,-0.0

 Normal termination of Gaussian 16 at Wed Apr  9 00:38:29 2025.
