 Gaussian 16, Revision C.01,

 ----------------------------------------------------------------------
 #t hf aug-cc-pvdz symm=none int=(grid=ultrafine) guess=(read,tcheck) s
 table=(opt,rrhf)
 ----------------------------------------------------------------------
 -----
 title
 -----
 Symbolic Z-matrix:
 Charge =  0 Multiplicity = 1

 SCF Done:  E(RHF) =  -1211.19232914     A.U. after   13 cycles
 Normal termination of Gaussian 16 at Wed Apr  9 00:06:07 2025.
 Gaussian 16:  ES64L-G16RevC.01  3-Jul-2019

 ----------------------------------------------------------------------
 #t hf aug-cc-pvdz iop(5/13=1,5/36=2,99/5=2) pseudo=read geom=check gue
 ss=(read,tcheck) scf=(maxcycle=1)
 ----------------------------------------------------------------------
 -----
 title
 -----
 Structure from the checkpoint file:  "BDE49_nonexpt_226_mol1.chk"
 Charge =  0 Multiplicity = 1

                         Standard orientation:
 ---------------------------------------------------------------------
 Center     Atomic      Atomic             Coordinates (Angstroms)
 Number     Number       Type             X           Y           Z
 ---------------------------------------------------------------------
      1         17           0       -1.266545    1.664092    0.607013
      2          5           0       -0.829670    0.169182   -0.189330
      3         17           0       -2.101038   -0.949472   -0.666604
      4          6           0        0.683407   -0.231467   -0.520351
      5          8           0        1.078565   -1.439627    0.118055
      6          8           0        1.533856    0.845568   -0.229236
      7          6           0        1.010609   -1.406335    1.542658
      8          1           0        1.558358   -0.551398    1.949038
      9          1           0        1.464177   -2.332109    1.894572
     10          1           0       -0.028405   -1.369355    1.897964
     11          6           0        2.841810    0.709085   -0.779426
     12          1           0        3.400281    1.595826   -0.482022
     13          1           0        2.799306    0.659299   -1.875592
     14          1           0        3.343198   -0.186548   -0.401739
     15          1           0        0.746003   -0.485386   -1.590364
 ---------------------------------------------------------------------

 SCF Done:  E(RHF) =  -1211.32103365     A.U. after    2 cycles

 The electronic state is 1-A.
 Alpha  occ. eigenvalues -- -103.67296-103.67242 -20.58869 -20.58837 -11.34584
 Alpha  occ. eigenvalues --  -11.29204 -11.29118 -10.70772 -10.70712  -8.36464
 Alpha  occ. eigenvalues --   -8.36415  -8.36247  -8.36208  -8.36199  -8.36149
 Alpha  occ. eigenvalues --   -7.73560  -1.38093  -1.31504  -1.18586  -1.14886
 Alpha  occ. eigenvalues --   -0.99427  -0.94302  -0.85511  -0.73028  -0.71354
 Alpha  occ. eigenvalues --   -0.69961  -0.66004  -0.63071  -0.61712  -0.60291
 Alpha  occ. eigenvalues --   -0.57626  -0.55174  -0.54063  -0.52557  -0.50446
 Alpha  occ. eigenvalues --   -0.48411  -0.47981  -0.47068  -0.46501  -0.44469
 Alpha virt. eigenvalues --    0.03259   0.04490   0.04683   0.04974   0.06221
 Alpha virt. eigenvalues --    0.06470   0.06861   0.07053   0.07217   0.08306
 Alpha virt. eigenvalues --    0.09281   0.10561   0.12123   0.13547   0.13886

 Mulliken charges:
               1
     1  Cl  -0.311358
     2  B    0.690853
     3  Cl  -0.364621
     4  C    1.048358
     5  O   -0.746839
     6  O   -0.695883
     7  C    0.740371
     8  H   -0.053030
     9  H   -0.246669
    10  H   -0.099135
    11  C    0.727884
    12  H   -0.245770
    13  H   -0.073053
    14  H   -0.049014
    15  H   -0.322095
 Sum of Mulliken charges =  -0.00000

 Dipole moment (field-independent basis, Debye):
    X=              1.7375    Y=             -0.1465    Z=             -0.0307  Tot=              1.7439

 Test job not archived.
 1\1\GINC-SE461\SP\RHF\Aug-CC-pVDZ\C3H7B1Cl2O2\OHZDE\09-Apr-2025\0\\#t
 hf aug-cc-pvdz iop(5/13=1,5/36=2,99/5=2) pseudo=read geom=check guess=
 (read,tcheck) scf=(maxcycle=1)\\title\\0,1\Cl,0,-1.266545,1.664092,0.6
 07013\B,0,-0.82967,0.169182,-0.18933\Cl,0,-2.101038,-0.949472,-0.66660
 4\C,0,0.683407,-0.231467,-0.520351\O,0,1.078565,-1.439627,0.118055\O,0
 ,1.533856,0.845568,-0.229236\C,0,1.010609,-1.406335,1.542658\H,0,1.558
 358,-0.551398,1.949038\H,0,1.464177,-2.332109,1.894572\H,0,-0.028405,-
 1.369355,1.897964\C,0,2.84181,0.709085,-0.779426\H,0,3.400281,1.595826

 Normal termination of Gaussian 16 at Wed Apr  9 00:06:13 2025.
