 Gaussian 16, Revision C.01,

 ----------------------------------------------------------------------
 #t hf aug-cc-pvdz symm=none int=(grid=ultrafine) guess=(read,tcheck) s
 table=(opt,rrhf)
 ----------------------------------------------------------------------
 -----
 title
 -----
 Symbolic Z-matrix:
 Charge =  0 Multiplicity = 1

 SCF Done:  E(RHF) =  -611.959334045     A.U. after   14 cycles
 Normal termination of Gaussian 16 at Wed Apr  9 00:07:31 2025.
 Gaussian 16:  ES64L-G16RevC.01  3-Jul-2019

 ----------------------------------------------------------------------
 #t hf aug-cc-pvdz iop(5/13=1,5/36=2,99/5=2) pseudo=read geom=check gue
 ss=(read,tcheck) scf=(maxcycle=1)
 ----------------------------------------------------------------------
 -----
 title
 -----
 Structure from the checkpoint file:  "BDE49_nonexpt_2294_mol1.chk"
 Charge =  0 Multiplicity = 1

                         Standard orientation:
 ---------------------------------------------------------------------
 Center     Atomic      Atomic             Coordinates (Angstroms)
 Number     Number       Type             X           Y           Z
 ---------------------------------------------------------------------
      1         14           0        0.717789   -0.008136    0.000001
      2          8           0       -0.863153    0.661657   -0.000003
      3          7           0       -1.951230   -0.266824   -0.000001
      4          8           0       -2.981846    0.282895   -0.000003
      5          6           0        0.942702   -1.038211    1.545039
      6          6           0        1.821001    1.497170   -0.000007
      7          1           0        2.873985    1.197750   -0.000005
      8          1           0        1.645559    2.115528    0.884121
      9          1           0        1.645560    2.115518   -0.884143
     10          6           0        0.942702   -1.038228   -1.545026
     11          1           0        0.244350   -1.879262   -1.568040
     12          1           0        1.958087   -1.444907   -1.591297
     13          1           0        0.780575   -0.439824   -2.445925
     14          1           0        0.780574   -0.439798    2.445931
     15          1           0        1.958086   -1.444890    1.591315
     16          1           0        0.244350   -1.879245    1.568062
 ---------------------------------------------------------------------

 SCF Done:  E(RHF) =  -612.094364744     A.U. after    2 cycles

 The electronic state is 1-A.
 Alpha  occ. eigenvalues --  -69.09001 -20.66733 -20.60815 -15.85059 -11.22055
 Alpha  occ. eigenvalues --  -11.22050 -11.22008  -6.83831  -3.94753  -3.94592
 Alpha  occ. eigenvalues --   -3.94564  -1.54203  -1.31798  -0.97439  -0.93431
 Alpha  occ. eigenvalues --   -0.93251  -0.91519  -0.77046  -0.72675  -0.68128
 Alpha  occ. eigenvalues --   -0.62941  -0.58689  -0.57996  -0.57548  -0.56054
 Alpha  occ. eigenvalues --   -0.55560  -0.54431  -0.53034  -0.52579  -0.46613
 Alpha  occ. eigenvalues --   -0.43972  -0.43639
 Alpha virt. eigenvalues --    0.02737   0.04525   0.04559   0.05245   0.06567
 Alpha virt. eigenvalues --    0.06739   0.07131   0.07262   0.08532   0.08974
 Alpha virt. eigenvalues --    0.09198   0.10585   0.10615   0.11937   0.14400

 Mulliken charges:
               1
     1  Si   2.178982
     2  O   -1.046840
     3  N    0.430590
     4  O   -0.311415
     5  C    0.416387
     6  C    0.397967
     7  H   -0.259255
     8  H   -0.277193
     9  H   -0.277191
    10  C    0.416384
    11  H   -0.287614
    12  H   -0.243383
    13  H   -0.303209
    14  H   -0.303212
    15  H   -0.243385
    16  H   -0.287613
 Sum of Mulliken charges =  -0.00000

 Dipole moment (field-independent basis, Debye):
    X=              2.8743    Y=             -1.1646    Z=              0.0000  Tot=              3.1013

 Test job not archived.
 1\1\GINC-SE150\SP\RHF\Aug-CC-pVDZ\C3H9N1O2Si1\OHZDE\09-Apr-2025\0\\#t
 hf aug-cc-pvdz iop(5/13=1,5/36=2,99/5=2) pseudo=read geom=check guess=
 (read,tcheck) scf=(maxcycle=1)\\title\\0,1\Si,0,0.717789,-0.008136,0.0
 00001\O,0,-0.863153,0.661657,-0.000003\N,0,-1.95123,-0.266824,-0.00000
 1\O,0,-2.981846,0.282895,-0.000003\C,0,0.942702,-1.038211,1.545039\C,0
 ,1.821001,1.49717,-0.000007\H,0,2.873985,1.19775,-0.000005\H,0,1.64555
 9,2.115528,0.884121\H,0,1.64556,2.115518,-0.884143\C,0,0.942702,-1.038
 228,-1.545026\H,0,0.24435,-1.879262,-1.56804\H,0,1.958087,-1.444907,-1

 Normal termination of Gaussian 16 at Wed Apr  9 00:07:37 2025.
