 Gaussian 16, Revision C.01,

 ----------------------------------------------------------------------
 #t hf aug-cc-pvdz symm=none int=(grid=ultrafine) guess=(read,tcheck) s
 table=(opt,rrhf)
 ----------------------------------------------------------------------
 -----
 title
 -----
 Symbolic Z-matrix:
 Charge =  0 Multiplicity = 1

 SCF Done:  E(RHF) =  -1865.02763071     A.U. after   18 cycles
 Normal termination of Gaussian 16 at Tue Apr  8 23:23:21 2025.
 Gaussian 16:  ES64L-G16RevC.01  3-Jul-2019

 ----------------------------------------------------------------------
 #t hf aug-cc-pvdz iop(5/13=1,5/36=2,99/5=2) pseudo=read geom=check gue
 ss=(read,tcheck) scf=(maxcycle=1)
 ----------------------------------------------------------------------
 -----
 title
 -----
 Structure from the checkpoint file:  "BDE49_nonexpt_1261_mol1.chk"
 Charge =  0 Multiplicity = 1

                         Standard orientation:
 ---------------------------------------------------------------------
 Center     Atomic      Atomic             Coordinates (Angstroms)
 Number     Number       Type             X           Y           Z
 ---------------------------------------------------------------------
      1         17           0        2.864038   -0.673082   -0.180353
      2         17           0       -2.713088   -0.424241   -0.889002
      3          8           0        0.065540   -1.984906    1.168110
      4          8           0        1.519517    2.270820    0.241943
      5         15           0       -1.694951    0.133175    0.877969
      6         15           0        0.946059   -0.223328   -0.799674
      7          6           0       -0.130357   -0.976236    0.565674
      8          6           0       -0.825402    1.698981    0.303540
      9          1           0       -1.323275    2.068654   -0.597645
     10          1           0       -0.906465    2.470921    1.073171
     11          6           0        0.658511    1.473906    0.005564
 ---------------------------------------------------------------------

 SCF Done:  E(RHF) =  -1865.18599154     A.U. after    2 cycles

 The electronic state is 1-A.
 Alpha  occ. eigenvalues -- -103.68994-103.68613 -81.36128 -81.35175 -20.63412
 Alpha  occ. eigenvalues --  -20.61877 -11.40099 -11.39866 -11.30487 -10.72294
 Alpha  occ. eigenvalues --  -10.71915  -8.37993  -8.37709  -8.37701  -8.37627
 Alpha  occ. eigenvalues --   -8.37319  -8.37310  -7.85938  -7.85200  -4.99748
 Alpha  occ. eigenvalues --   -4.99631  -4.99396  -4.99079  -4.98941  -4.98719
 Alpha  occ. eigenvalues --   -1.42214  -1.41026  -1.17147  -1.16776  -1.07007
 Alpha  occ. eigenvalues --   -0.92608  -0.85593  -0.76648  -0.75478  -0.69931
 Alpha  occ. eigenvalues --   -0.68744  -0.65909  -0.64597  -0.62457  -0.60634
 Alpha  occ. eigenvalues --   -0.57912  -0.55865  -0.52048  -0.51847  -0.51321
 Alpha  occ. eigenvalues --   -0.50557  -0.48023  -0.43940  -0.39894  -0.36982
 Alpha virt. eigenvalues --    0.00872   0.03088   0.04526   0.05587   0.06520
 Alpha virt. eigenvalues --    0.06750   0.07045   0.07555   0.08458   0.09270
 Alpha virt. eigenvalues --    0.10354   0.11281   0.11577   0.12331   0.12928

 Mulliken charges:
               1
     1  Cl  -0.375700
     2  Cl  -0.386272
     3  O   -0.444204
     4  O   -0.436550
     5  P    0.763335
     6  P    0.735330
     7  C    0.101896
     8  C   -0.004852
     9  H    0.101449
    10  H   -0.058289
    11  C    0.003856
 Sum of Mulliken charges =  -0.00000

 Dipole moment (field-independent basis, Debye):
    X=             -2.5657    Y=              1.9345    Z=             -0.7230  Tot=              3.2936

 Test job not archived.
 1\1\GINC-SE227\SP\RHF\Aug-CC-pVDZ\C3H2Cl2O2P2\OHZDE\08-Apr-2025\0\\#t
 hf aug-cc-pvdz iop(5/13=1,5/36=2,99/5=2) pseudo=read geom=check guess=
 (read,tcheck) scf=(maxcycle=1)\\title\\0,1\Cl,0,2.864038,-0.673082,-0.
 180353\Cl,0,-2.713088,-0.424241,-0.889002\O,0,0.06554,-1.984906,1.1681
 1\O,0,1.519517,2.27082,0.241943\P,0,-1.694951,0.133175,0.877969\P,0,0.
 946059,-0.223328,-0.799674\C,0,-0.130357,-0.976236,0.565674\C,0,-0.825
 402,1.698981,0.30354\H,0,-1.323275,2.068654,-0.597645\H,0,-0.906465,2.
 470921,1.073171\C,0,0.658511,1.473906,0.005564\\Version=ES64L-G16RevC.

 Normal termination of Gaussian 16 at Tue Apr  8 23:23:28 2025.
