 Gaussian 16, Revision C.01,

 ----------------------------------------------------------------------
 #t hf aug-cc-pvdz symm=none int=(grid=ultrafine) guess=(read,tcheck) s
 table=(opt,rrhf)
 ----------------------------------------------------------------------
 -----
 title
 -----
 Symbolic Z-matrix:
 Charge =  0 Multiplicity = 1

 SCF Done:  E(RHF) =  -463.770168640     A.U. after   15 cycles
 Normal termination of Gaussian 16 at Wed Apr  9 00:53:05 2025.
 Gaussian 16:  ES64L-G16RevC.01  3-Jul-2019

 ----------------------------------------------------------------------
 #t hf aug-cc-pvdz iop(5/13=1,5/36=2,99/5=2) pseudo=read geom=check gue
 ss=(read,tcheck) scf=(maxcycle=1)
 ----------------------------------------------------------------------
 -----
 title
 -----
 Structure from the checkpoint file:  "BDE49_nonexpt_971_mol1.chk"
 Charge =  0 Multiplicity = 1

                         Standard orientation:
 ---------------------------------------------------------------------
 Center     Atomic      Atomic             Coordinates (Angstroms)
 Number     Number       Type             X           Y           Z
 ---------------------------------------------------------------------
      1          9           0        0.928099    2.122546   -0.000000
      2          7           0       -0.087181    1.050485   -0.000000
      3          6           0        0.074033    0.341820    1.220339
      4          6           0        0.074033   -0.995370    1.231997
      5          6           0       -0.011575   -1.849564    0.000000
      6          6           0        0.117452    1.208740    2.444551
      7          6           0       -1.293781   -2.714859    0.000000
      8          1           0        0.070518   -1.499428    2.193505
      9          1           0        1.026938    1.812259    2.460766
     10          1           0       -0.730739    1.899149    2.452272
     11          1           0        0.086245    0.594529    3.345046
     12          1           0       -1.328530   -3.356955    0.885096
     13          1           0       -1.328530   -3.356955   -0.885096
     14          6           0        0.074033   -0.995370   -1.231997
     15          6           0        0.074033    0.341820   -1.220339
     16          6           0        0.117452    1.208740   -2.444551
     17          1           0        1.026938    1.812259   -2.460766
     18          1           0       -0.730739    1.899149   -2.452272
     19          1           0        0.086245    0.594529   -3.345046
     20          1           0        0.070518   -1.499428   -2.193505
     21          1           0       -2.183963   -2.081104    0.000000
     22          1           0        0.838391   -2.550058    0.000000
 ---------------------------------------------------------------------

 SCF Done:  E(RHF) =  -463.913643005     A.U. after    2 cycles

 The electronic state is 1-A'.
 Alpha  occ. eigenvalues --  -26.11558 -15.72970 -11.28808 -11.28799 -11.25693
 Alpha  occ. eigenvalues --  -11.24251 -11.24246 -11.23546 -11.23543 -11.23411
 Alpha  occ. eigenvalues --   -1.62257  -1.22355  -1.08243  -1.07808  -0.98352
 Alpha  occ. eigenvalues --   -0.94326  -0.93343  -0.83449  -0.82362  -0.73434
 Alpha  occ. eigenvalues --   -0.71952  -0.71650  -0.65175  -0.64913  -0.62817
 Alpha  occ. eigenvalues --   -0.60281  -0.57808  -0.57485  -0.56940  -0.56214
 Alpha  occ. eigenvalues --   -0.55746  -0.53329  -0.53060  -0.50175  -0.47816
 Alpha  occ. eigenvalues --   -0.47692  -0.36587  -0.32845
 Alpha virt. eigenvalues --    0.03182   0.03678   0.04126   0.04586   0.05495
 Alpha virt. eigenvalues --    0.05973   0.06409   0.07277   0.07364   0.07925
 Alpha virt. eigenvalues --    0.08437   0.09224   0.11935   0.12124   0.12176

 Mulliken charges:
               1
     1  F   -0.509599
     2  N   -0.753425
     3  C    0.172705
     4  C    0.942412
     5  C   -1.489035
     6  C    0.485892
     7  C    0.521212
     8  H   -0.499939
     9  H    0.105522
    10  H    0.076006
    11  H   -0.078496
    12  H   -0.086649
    13  H   -0.086649
    14  C    0.942412
    15  C    0.172705
    16  C    0.485892
    17  H    0.105522
    18  H    0.076006
    19  H   -0.078496
    20  H   -0.499939
    21  H   -0.023224
    22  H    0.019167
 Sum of Mulliken charges =   0.00000

 Dipole moment (field-independent basis, Debye):
    X=             -0.7446    Y=             -2.4422    Z=             -0.0000  Tot=              2.5532

 Test job not archived.
 1\1\GINC-SE424\SP\RHF\Aug-CC-pVDZ\C8H12F1N1\OHZDE\09-Apr-2025\0\\#t hf
  aug-cc-pvdz iop(5/13=1,5/36=2,99/5=2) pseudo=read geom=check guess=(r
 ead,tcheck) scf=(maxcycle=1)\\title\\0,1\F,0,0.928099,2.122546,0.\N,0,
 -0.087181,1.050485,0.\C,0,0.074033,0.34182,1.220339\C,0,0.074033,-0.99
 537,1.231997\C,0,-0.011575,-1.849564,0.\C,0,0.117452,1.20874,2.444551\
 C,0,-1.293781,-2.714859,0.\H,0,0.070518,-1.499428,2.193505\H,0,1.02693
 8,1.812259,2.460766\H,0,-0.730739,1.899149,2.452272\H,0,0.086245,0.594
 529,3.345046\H,0,-1.32853,-3.356955,0.885096\H,0,-1.32853,-3.356955,-0

 Normal termination of Gaussian 16 at Wed Apr  9 00:53:13 2025.
