 Gaussian 16, Revision C.01,

 ----------------------------------------------------------------------
 #t hf aug-cc-pvdz symm=none int=(grid=ultrafine) guess=(read,tcheck) s
 table=(opt,rrhf)
 ----------------------------------------------------------------------
 -----
 title
 -----
 Symbolic Z-matrix:
 Charge =  0 Multiplicity = 1

 SCF Done:  E(RHF) =  -150.572221742     A.U. after   12 cycles
 Normal termination of Gaussian 16 at Tue Apr  8 23:17:47 2025.
 Gaussian 16:  ES64L-G16RevC.01  3-Jul-2019

 ----------------------------------------------------------------------
 #t hf aug-cc-pvdz iop(5/13=1,5/36=2,99/5=2) pseudo=read geom=check gue
 ss=(read,tcheck) scf=(maxcycle=1)
 ----------------------------------------------------------------------
 -----
 title
 -----
 Structure from the checkpoint file:  "BDE49_nonexpt_10_mol1.chk"
 Charge =  0 Multiplicity = 1

                         Standard orientation:
 ---------------------------------------------------------------------
 Center     Atomic      Atomic             Coordinates (Angstroms)
 Number     Number       Type             X           Y           Z
 ---------------------------------------------------------------------
      1          5           0        1.461902   -0.142903   -0.000001
      2          5           0       -0.092109    0.471630    0.000022
      3          9           0       -1.188114   -0.292165   -0.000012
      4          1           0       -0.282899    1.660706    0.000003
      5          1           0        2.063509   -0.337335   -1.013662
      6          1           0        2.063446   -0.337523    1.013663
 ---------------------------------------------------------------------

 SCF Done:  E(RHF) =  -150.631660853     A.U. after    2 cycles

 The electronic state is 1-A.
 Alpha  occ. eigenvalues --  -26.12510  -7.66936  -7.61866  -1.66183  -0.83578
 Alpha  occ. eigenvalues --   -0.75614  -0.72735  -0.70790  -0.58327  -0.50303
 Alpha  occ. eigenvalues --   -0.44241
 Alpha virt. eigenvalues --    0.03211   0.04237   0.04624   0.04911   0.06564
 Alpha virt. eigenvalues --    0.07001   0.07548   0.09114   0.10317   0.12108
 Alpha virt. eigenvalues --    0.13481   0.15050   0.15119   0.23869   0.24250

 Mulliken charges:
               1
     1  B   -0.364068
     2  B    0.423471
     3  F   -0.483359
     4  H    0.049667
     5  H    0.187153
     6  H    0.187135
 Sum of Mulliken charges =  -0.00000

 Dipole moment (field-independent basis, Debye):
    X=              1.1940    Y=              0.5476    Z=              0.0001  Tot=              1.3136

 Test job not archived.
 1\1\GINC-SE363\SP\RHF\Aug-CC-pVDZ\B2F1H3\OHZDE\08-Apr-2025\0\\#t hf au
 g-cc-pvdz iop(5/13=1,5/36=2,99/5=2) pseudo=read geom=check guess=(read
 ,tcheck) scf=(maxcycle=1)\\title\\0,1\B,0,1.461902,-0.142903,-0.000001
 \B,0,-0.092109,0.47163,0.000022\F,0,-1.188114,-0.292165,-0.000012\H,0,
 -0.282899,1.660706,0.000003\H,0,2.063509,-0.337335,-1.013662\H,0,2.063
 446,-0.337523,1.013663\\Version=ES64L-G16RevC.01\State=1-A\HF=-150.631
 6609\RMSD=7.338e-03\Dipole=0.4697582,0.2154379,0.0000255\Quadrupole=-1
 .7340465,0.8050198,0.9290267,0.0404433,-0.000023,0.0001486\PG=C01 [X(B

 Normal termination of Gaussian 16 at Tue Apr  8 23:17:49 2025.
