 Gaussian 16, Revision C.01,

 ----------------------------------------------------------------------
 #t hf aug-cc-pvdz symm=none int=(grid=ultrafine) guess=(read,tcheck) s
 table=(opt,rrhf)
 ----------------------------------------------------------------------
 -----
 title
 -----
 Symbolic Z-matrix:
 Charge =  0 Multiplicity = 1

 SCF Done:  E(RHF) =  -743.945771041     A.U. after   14 cycles
 Normal termination of Gaussian 16 at Wed Apr  9 00:46:06 2025.
 Gaussian 16:  ES64L-G16RevC.01  3-Jul-2019

 ----------------------------------------------------------------------
 #t hf aug-cc-pvdz iop(5/13=1,5/36=2,99/5=2) pseudo=read geom=check gue
 ss=(read,tcheck) scf=(maxcycle=1)
 ----------------------------------------------------------------------
 -----
 title
 -----
 Structure from the checkpoint file:  "BDE49_nonexpt_823_mol1.chk"
 Charge =  0 Multiplicity = 1

                         Standard orientation:
 ---------------------------------------------------------------------
 Center     Atomic      Atomic             Coordinates (Angstroms)
 Number     Number       Type             X           Y           Z
 ---------------------------------------------------------------------
      1          6           0       -0.666971   -0.386178    0.202779
      2          5           0        2.481846    0.224724   -0.144643
      3          9           0        2.394243    1.536153    0.067734
      4          9           0        3.550541   -0.181022   -0.816974
      5          6           0       -0.970471    0.977412    0.351249
      6          6           0       -1.694802   -1.252524   -0.201582
      7          6           0       -2.256799    1.454680    0.113104
      8          6           0       -3.265224    0.578031   -0.282955
      9          6           0       -2.982159   -0.776552   -0.441637
     10          1           0       -3.762201   -1.462285   -0.753564
     11          1           0       -1.490012   -2.310152   -0.333380
     12          1           0       -2.470942    2.510943    0.232947
     13          1           0       -4.266343    0.950024   -0.470427
     14          1           0       -0.195933    1.676870    0.647962
     15         14           0        1.057233   -1.048205    0.553283
     16          1           0        1.207109   -2.386315   -0.064883
     17          1           0        1.283324   -1.193230    2.016015
 ---------------------------------------------------------------------

 SCF Done:  E(RHF) =  -744.125398106     A.U. after    2 cycles

 The electronic state is 1-A.
 Alpha  occ. eigenvalues --  -69.06848 -26.14204 -26.14138 -11.25768 -11.25669
 Alpha  occ. eigenvalues --  -11.25639 -11.25264 -11.25236 -11.24494  -7.74201
 Alpha  occ. eigenvalues --   -6.82325  -3.93076  -3.93054  -3.93028  -1.69474
 Alpha  occ. eigenvalues --   -1.67112  -1.14844  -1.01819  -1.01606  -0.88203
 Alpha  occ. eigenvalues --   -0.83544  -0.83379  -0.82103  -0.79273  -0.76993
 Alpha  occ. eigenvalues --   -0.72854  -0.72293  -0.71786  -0.68177  -0.63728
 Alpha  occ. eigenvalues --   -0.63553  -0.59949  -0.56128  -0.52094  -0.50526
 Alpha  occ. eigenvalues --   -0.48580  -0.46730  -0.45273  -0.34870  -0.34737
 Alpha virt. eigenvalues --    0.03069   0.03937   0.04017   0.05108   0.05230
 Alpha virt. eigenvalues --    0.05791   0.06264   0.07190   0.07367   0.07809
 Alpha virt. eigenvalues --    0.08378   0.09058   0.09443   0.10163   0.10966

 Mulliken charges:
               1
     1  C   -0.192197
     2  B    1.156366
     3  F   -0.589791
     4  F   -0.478476
     5  C    0.396513
     6  C    0.430138
     7  C    0.694271
     8  C    0.514098
     9  C    0.695160
    10  H   -0.440598
    11  H   -0.623719
    12  H   -0.445130
    13  H   -0.436641
    14  H   -0.591995
    15  Si  -0.301139
    16  H    0.091547
    17  H    0.121594
 Sum of Mulliken charges =  -0.00000

 Dipole moment (field-independent basis, Debye):
    X=             -2.0270    Y=             -0.5560    Z=              0.2752  Tot=              2.1198

 Test job not archived.
 1\1\GINC-SE048\SP\RHF\Aug-CC-pVDZ\C6H7B1F2Si1\OHZDE\09-Apr-2025\0\\#t
 hf aug-cc-pvdz iop(5/13=1,5/36=2,99/5=2) pseudo=read geom=check guess=
 (read,tcheck) scf=(maxcycle=1)\\title\\0,1\C,0,-0.666971,-0.386178,0.2
 02779\B,0,2.481846,0.224724,-0.144643\F,0,2.394243,1.536153,0.067734\F
 ,0,3.550541,-0.181022,-0.816974\C,0,-0.970471,0.977412,0.351249\C,0,-1
 .694802,-1.252524,-0.201582\C,0,-2.256799,1.45468,0.113104\C,0,-3.2652
 24,0.578031,-0.282955\C,0,-2.982159,-0.776552,-0.441637\H,0,-3.762201,
 -1.462285,-0.753564\H,0,-1.490012,-2.310152,-0.33338\H,0,-2.470942,2.5

 Normal termination of Gaussian 16 at Wed Apr  9 00:46:17 2025.
