 Gaussian 16, Revision C.01,

 ----------------------------------------------------------------------
 #t hf aug-cc-pvdz symm=none int=(grid=ultrafine) guess=(read,tcheck) s
 table=(opt,rrhf)
 ----------------------------------------------------------------------
 -----
 title
 -----
 Symbolic Z-matrix:
 Charge =  0 Multiplicity = 1

 SCF Done:  E(RHF) =  -973.121450619     A.U. after   15 cycles
 Normal termination of Gaussian 16 at Tue Apr  8 23:11:31 2025.
 Gaussian 16:  ES64L-G16RevC.01  3-Jul-2019

 ----------------------------------------------------------------------
 #t hf aug-cc-pvdz iop(5/13=1,5/36=2,99/5=2) pseudo=read geom=check gue
 ss=(read,tcheck) scf=(maxcycle=1)
 ----------------------------------------------------------------------
 -----
 title
 -----
 Structure from the checkpoint file:  "BDE49_expt_394_mol1.chk"
 Charge =  0 Multiplicity = 1

                         Standard orientation:
 ---------------------------------------------------------------------
 Center     Atomic      Atomic             Coordinates (Angstroms)
 Number     Number       Type             X           Y           Z
 ---------------------------------------------------------------------
      1         16           0       -1.348096   -0.838134   -0.177729
      2          8           0       -2.395527   -1.318197   -1.067573
      3          8           0       -1.020615   -1.587039    1.026731
      4          6           0        1.452902   -0.364789   -0.608343
      5          6           0        2.124057    0.769117   -1.078519
      6          6           0        2.031943   -1.112743    0.424075
      7          6           0        3.247212   -0.723149    0.978181
      8          6           0        3.906103    0.411842    0.507160
      9          6           0        3.342871    1.156433   -0.525883
     10          1           0        3.851634    2.035576   -0.904978
     11          1           0        1.695342    1.349026   -1.889783
     12          1           0        1.516602   -1.987567    0.800490
     13          1           0        3.682796   -1.309665    1.779219
     14          1           0        4.854636    0.709966    0.939152
     15          6           0        0.154069   -0.785872   -1.237834
     16          1           0       -0.108794   -0.175932   -2.101585
     17          1           0        0.177532   -1.829223   -1.565855
     18          6           0       -1.813164    0.893596    0.338828
     19          6           0       -1.920885    1.775307   -0.910080
     20          1           0       -2.332194    2.747678   -0.623534
     21          1           0       -2.585847    1.330288   -1.652162
     22          1           0       -0.946508    1.957307   -1.368827
     23          6           0       -3.188591    0.722345    1.006533
     24          1           0       -3.530738    1.701554    1.353178
     25          1           0       -3.126987    0.055139    1.867965
     26          1           0       -3.922564    0.321359    0.307085
     27          6           0       -0.787270    1.428556    1.343733
     28          1           0        0.195757    1.574109    0.895235
     29          1           0       -0.682892    0.751075    2.191540
     30          1           0       -1.134571    2.397506    1.716159
 ---------------------------------------------------------------------

 SCF Done:  E(RHF) =  -973.364258935     A.U. after    2 cycles

 The electronic state is 1-A.
 Alpha  occ. eigenvalues --  -93.76089 -20.54654 -20.54471 -11.29790 -11.29005
 Alpha  occ. eigenvalues --  -11.27120 -11.26073 -11.25813 -11.25699 -11.25542
 Alpha  occ. eigenvalues --  -11.25308 -11.24971 -11.24015 -11.23923  -9.02962
 Alpha  occ. eigenvalues --   -6.37591  -6.37367  -6.37304  -1.40288  -1.29006
 Alpha  occ. eigenvalues --   -1.16205  -1.11314  -1.06903  -1.02271  -0.97987
 Alpha  occ. eigenvalues --   -0.95507  -0.94800  -0.87217  -0.84425  -0.82188
 Alpha  occ. eigenvalues --   -0.75239  -0.71520  -0.69301  -0.67350  -0.66379
 Alpha  occ. eigenvalues --   -0.65050  -0.64195  -0.62197  -0.61954  -0.60399
 Alpha  occ. eigenvalues --   -0.59971  -0.58735  -0.57170  -0.56292  -0.55411
 Alpha  occ. eigenvalues --   -0.53819  -0.52657  -0.51588  -0.51056  -0.50213
 Alpha  occ. eigenvalues --   -0.49824  -0.49463  -0.48438  -0.47910  -0.42514
 Alpha  occ. eigenvalues --   -0.35275  -0.34423
 Alpha virt. eigenvalues --    0.02683   0.03526   0.03893   0.04225   0.05170
 Alpha virt. eigenvalues --    0.05338   0.05792   0.06208   0.06778   0.07386
 Alpha virt. eigenvalues --    0.07841   0.08545   0.08571   0.08950   0.09209

 Mulliken charges:
               1
     1  S    2.784424
     2  O   -1.181246
     3  O   -1.297355
     4  C    0.819125
     5  C    0.725480
     6  C    0.554611
     7  C    0.112332
     8  C    0.794708
     9  C    0.152151
    10  H   -0.464626
    11  H   -0.662268
    12  H   -0.703471
    13  H   -0.463111
    14  H   -0.445368
    15  C   -0.318540
    16  H   -0.242501
    17  H   -0.019963
    18  C   -3.406986
    19  C    1.086171
    20  H    0.020226
    21  H    0.028492
    22  H   -0.202273
    23  C    1.469606
    24  H   -0.036829
    25  H    0.012645
    26  H    0.014125
    27  C    1.057652
    28  H   -0.189038
    29  H   -0.004511
    30  H    0.006340
 Sum of Mulliken charges =  -0.00000

 Dipole moment (field-independent basis, Debye):
    X=              2.6899    Y=              4.5283    Z=             -0.5189  Tot=              5.2925

 Test job not archived.
 1\1\GINC-SE393\SP\RHF\Aug-CC-pVDZ\C11H16O2S1\OHZDE\08-Apr-2025\0\\#t h
 f aug-cc-pvdz iop(5/13=1,5/36=2,99/5=2) pseudo=read geom=check guess=(
 read,tcheck) scf=(maxcycle=1)\\title\\0,1\S,0,-1.348096,-0.838134,-0.1
 77729\O,0,-2.395527,-1.318197,-1.067573\O,0,-1.020615,-1.587039,1.0267
 31\C,0,1.452902,-0.364789,-0.608343\C,0,2.124057,0.769117,-1.078519\C,
 0,2.031943,-1.112743,0.424075\C,0,3.247212,-0.723149,0.978181\C,0,3.90
 6103,0.411842,0.50716\C,0,3.342871,1.156433,-0.525883\H,0,3.851634,2.0
 35576,-0.904978\H,0,1.695342,1.349026,-1.889783\H,0,1.516602,-1.987567

 Normal termination of Gaussian 16 at Tue Apr  8 23:12:06 2025.
