 Gaussian 16, Revision C.01,

 ----------------------------------------------------------------------
 #t hf aug-cc-pvdz symm=none int=(grid=ultrafine) guess=(read,tcheck) s
 table=(opt,rrhf)
 ----------------------------------------------------------------------
 -----
 title
 -----
 Symbolic Z-matrix:
 Charge =  0 Multiplicity = 1

 SCF Done:  E(RHF) =  -810.511146792     A.U. after   13 cycles
 Normal termination of Gaussian 16 at Wed Apr  9 00:31:22 2025.
 Gaussian 16:  ES64L-G16RevC.01  3-Jul-2019

 ----------------------------------------------------------------------
 #t hf aug-cc-pvdz iop(5/13=1,5/36=2,99/5=2) pseudo=read geom=check gue
 ss=(read,tcheck) scf=(maxcycle=1)
 ----------------------------------------------------------------------
 -----
 title
 -----
 Structure from the checkpoint file:  "BDE49_nonexpt_404_mol1.chk"
 Charge =  0 Multiplicity = 1

                         Standard orientation:
 ---------------------------------------------------------------------
 Center     Atomic      Atomic             Coordinates (Angstroms)
 Number     Number       Type             X           Y           Z
 ---------------------------------------------------------------------
      1          9           0        1.679295    1.317415   -0.000114
      2          9           0        2.021864   -0.938771   -0.000149
      3          5           0        1.214852    0.087415    0.000174
      4         16           0       -0.658956   -0.224582    0.000053
      5          8           0       -0.980365   -0.863348    1.265990
      6          6           0       -1.408310    1.407946    0.000006
      7          8           0       -0.980227   -0.863365   -1.265911
      8          1           0       -1.111040    1.942323    0.901529
      9          1           0       -2.484834    1.229839   -0.000054
     10          1           0       -1.110939    1.942316   -0.901487
 ---------------------------------------------------------------------

 SCF Done:  E(RHF) =  -810.735954992     A.U. after    2 cycles

 The electronic state is 1-A.
 Alpha  occ. eigenvalues --  -93.79104 -26.19903 -26.19106 -20.57394 -20.57393
 Alpha  occ. eigenvalues --  -11.30307  -9.06033  -7.81822  -6.40673  -6.40432
 Alpha  occ. eigenvalues --   -6.40352  -1.74892  -1.72861  -1.43082  -1.31903
 Alpha  occ. eigenvalues --   -1.05545  -0.94016  -0.89255  -0.88032  -0.82335
 Alpha  occ. eigenvalues --   -0.81505  -0.77431  -0.77284  -0.71707  -0.68816
 Alpha  occ. eigenvalues --   -0.67929  -0.62538  -0.61697  -0.54030  -0.52338
 Alpha  occ. eigenvalues --   -0.50831  -0.46307
 Alpha virt. eigenvalues --    0.02728   0.04434   0.04438   0.05513   0.06346
 Alpha virt. eigenvalues --    0.06701   0.07889   0.08302   0.11791   0.12399
 Alpha virt. eigenvalues --    0.14121   0.15067   0.16037   0.16442   0.16752

 Mulliken charges:
               1
     1  F   -0.325125
     2  F   -0.354172
     3  B    0.972748
     4  S    1.888202
     5  O   -1.042537
     6  C   -0.061925
     7  O   -1.042549
     8  H   -0.025933
     9  H    0.017212
    10  H   -0.025922
 Sum of Mulliken charges =  -0.00000

 Dipole moment (field-independent basis, Debye):
    X=              0.5451    Y=              4.6014    Z=              0.0010  Tot=              4.6336

 Test job not archived.
 1\1\GINC-SE162\SP\RHF\Aug-CC-pVDZ\C1H3B1F2O2S1\OHZDE\09-Apr-2025\0\\#t
  hf aug-cc-pvdz iop(5/13=1,5/36=2,99/5=2) pseudo=read geom=check guess
 =(read,tcheck) scf=(maxcycle=1)\\title\\0,1\F,0,1.679295,1.317415,-0.0
 00114\F,0,2.021864,-0.938771,-0.000149\B,0,1.214852,0.087415,0.000174\
 S,0,-0.658956,-0.224582,0.000053\O,0,-0.980365,-0.863348,1.26599\C,0,-
 1.40831,1.407946,0.000006\O,0,-0.980227,-0.863365,-1.265911\H,0,-1.111
 04,1.942323,0.901529\H,0,-2.484834,1.229839,-0.000054\H,0,-1.110939,1.
 942316,-0.901487\\Version=ES64L-G16RevC.01\State=1-A\HF=-810.735955\RM

 Normal termination of Gaussian 16 at Wed Apr  9 00:31:26 2025.
