 Gaussian 16, Revision C.01,

 ----------------------------------------------------------------------
 #t hf aug-cc-pvdz symm=none int=(grid=ultrafine) guess=(read,tcheck) s
 table=(opt,rrhf)
 ----------------------------------------------------------------------
 -----
 title
 -----
 Symbolic Z-matrix:
 Charge =  0 Multiplicity = 1

 SCF Done:  E(RHF) =  -986.268524206     A.U. after   15 cycles
 Normal termination of Gaussian 16 at Tue Apr  8 22:45:20 2025.
 Gaussian 16:  ES64L-G16RevC.01  3-Jul-2019

 ----------------------------------------------------------------------
 #t hf aug-cc-pvdz iop(5/13=1,5/36=2,99/5=2) pseudo=read geom=check gue
 ss=(read,tcheck) scf=(maxcycle=1)
 ----------------------------------------------------------------------
 -----
 title
 -----
 Structure from the checkpoint file:  "BDE49_expt_1534_mol1.chk"
 Charge =  0 Multiplicity = 1

                         Standard orientation:
 ---------------------------------------------------------------------
 Center     Atomic      Atomic             Coordinates (Angstroms)
 Number     Number       Type             X           Y           Z
 ---------------------------------------------------------------------
      1          6           0       -0.644708   -0.037587    0.432491
      2          6           0        0.892916   -0.003296    0.671461
      3          7           0        1.742342    0.138464   -0.627965
      4          8           0        2.671184   -0.615141   -0.753847
      5          8           0        1.392781    1.054915   -1.343970
      6          9           0        1.247559   -1.120787    1.293798
      7          7           0       -1.053002   -1.318224   -0.319909
      8          7           0       -1.193244    1.181821   -0.387024
      9          8           0       -0.266436   -1.680948   -1.171161
     10          8           0       -2.103669   -1.811128    0.003945
     11          8           0       -1.183851    2.219771    0.228068
     12          8           0       -1.600772    0.952202   -1.499553
     13          9           0        1.196894    1.052062    1.426552
     14          9           0       -1.248433   -0.011996    1.614398
 ---------------------------------------------------------------------

 SCF Done:  E(RHF) =  -986.584659538     A.U. after    2 cycles

 The electronic state is 1-A.
 Alpha  occ. eigenvalues --  -26.25887 -26.25128 -26.24908 -20.69974 -20.69451
 Alpha  occ. eigenvalues --  -20.69280 -20.69167 -20.69097 -20.68341 -15.99893
 Alpha  occ. eigenvalues --  -15.99773 -15.98719 -11.59716 -11.56365  -1.83021
 Alpha  occ. eigenvalues --   -1.80655  -1.77532  -1.63852  -1.62525  -1.62197
 Alpha  occ. eigenvalues --   -1.45629  -1.45308  -1.44650  -1.23239  -1.13292
 Alpha  occ. eigenvalues --   -1.03326  -1.02248  -0.96768  -0.94005  -0.93681
 Alpha  occ. eigenvalues --   -0.89623  -0.89330  -0.88374  -0.85270  -0.83895
 Alpha  occ. eigenvalues --   -0.82186  -0.81707  -0.80889  -0.80628  -0.80346
 Alpha  occ. eigenvalues --   -0.79936  -0.79242  -0.78305  -0.77490  -0.73109
 Alpha  occ. eigenvalues --   -0.60004  -0.59962  -0.58951  -0.58670  -0.56410
 Alpha  occ. eigenvalues --   -0.56007  -0.54762  -0.53480  -0.52891
 Alpha virt. eigenvalues --    0.00399   0.01257   0.02192   0.05254   0.06699
 Alpha virt. eigenvalues --    0.07784   0.08655   0.10841   0.10853   0.11270
 Alpha virt. eigenvalues --    0.12897   0.13042   0.15626   0.15810   0.16580

 Mulliken charges:
               1
     1  C    1.647019
     2  C    1.262412
     3  N    0.394105
     4  O   -0.514773
     5  O   -0.562322
     6  F   -0.218906
     7  N    0.219666
     8  N    0.371052
     9  O   -0.535278
    10  O   -0.478953
    11  O   -0.541531
    12  O   -0.526504
    13  F   -0.280727
    14  F   -0.235259
 Sum of Mulliken charges =  -0.00000

 Dipole moment (field-independent basis, Debye):
    X=              0.1519    Y=             -0.2857    Z=              2.3167  Tot=              2.3392

 Test job not archived.
 1\1\GINC-SE367\SP\RHF\Aug-CC-pVDZ\C2F3N3O6\OHZDE\08-Apr-2025\0\\#t hf
 aug-cc-pvdz iop(5/13=1,5/36=2,99/5=2) pseudo=read geom=check guess=(re
 ad,tcheck) scf=(maxcycle=1)\\title\\0,1\C,0,-0.644708,-0.037587,0.4324
 91\C,0,0.892916,-0.003296,0.671461\N,0,1.742342,0.138463,-0.627965\O,0
 ,2.671184,-0.615142,-0.753847\O,0,1.392781,1.054915,-1.34397\F,0,1.247
 559,-1.120787,1.293798\N,0,-1.053002,-1.318224,-0.319909\N,0,-1.193244
 ,1.181821,-0.387024\O,0,-0.266436,-1.680948,-1.171161\O,0,-2.10367,-1.
 811128,0.003945\O,0,-1.18385,2.219771,0.228068\O,0,-1.600772,0.952202,

 Normal termination of Gaussian 16 at Tue Apr  8 22:45:28 2025.
