 Gaussian 16, Revision C.01,

 ----------------------------------------------------------------------
 #t hf aug-cc-pvdz symm=none int=(grid=ultrafine) guess=(read,tcheck) s
 table=opt
 ----------------------------------------------------------------------
 -----
 title
 -----
 Symbolic Z-matrix:
 Charge =  0 Multiplicity = 2

 SCF Done:  E(UHF) =  -576.574941744     A.U. after   17 cycles

 1\1\GINC-SE460\Stability\UHF\Aug-CC-pVDZ\C3H6Cl1\OHZDE\08-Apr-2025\0\\
 #t hf aug-cc-pvdz symm=none int=(grid=ultrafine) guess=(read,tcheck) s
 table=opt\\title\\0,2\C,0,1.922682,-0.634212,0.164845\C,0,1.116385,0.5
 69904,-0.370723\H,0,1.365504,-1.563954,0.030515\H,0,2.139963,-0.51901,
 1.22973\H,0,2.872234,-0.724866,-0.369527\C,0,-0.19346,0.77913,0.301102
 \H,0,0.957084,0.443845,-1.447437\H,0,1.704123,1.48575,-0.241238\H,0,-0
 .319977,1.336513,1.218994\Cl,0,-1.51721,-0.279248,-0.058375\\Version=E
 S64L-G16RevC.01\HF=-576.5749417\S2=0.76672\S2-1=0.\S2A=0.750216\RMSD=3

 Normal termination of Gaussian 16 at Tue Apr  8 22:41:32 2025.
 Gaussian 16:  ES64L-G16RevC.01  3-Jul-2019

 ----------------------------------------------------------------------
 #t hf aug-cc-pvdz iop(5/13=1,5/36=2,99/5=2) pseudo=read geom=check gue
 ss=(read,tcheck) scf=(maxcycle=1)
 ----------------------------------------------------------------------
 -----
 title
 -----
 Structure from the checkpoint file:  "BDE49_expt_145_mol2.chk"
 Charge =  0 Multiplicity = 2

                         Standard orientation:
 ---------------------------------------------------------------------
 Center     Atomic      Atomic             Coordinates (Angstroms)
 Number     Number       Type             X           Y           Z
 ---------------------------------------------------------------------
      1          6           0        1.922682   -0.634212    0.164845
      2          6           0        1.116385    0.569904   -0.370723
      3          1           0        1.365504   -1.563954    0.030515
      4          1           0        2.139963   -0.519010    1.229730
      5          1           0        2.872234   -0.724867   -0.369527
      6          6           0       -0.193460    0.779130    0.301102
      7          1           0        0.957084    0.443845   -1.447437
      8          1           0        1.704123    1.485750   -0.241238
      9          1           0       -0.319977    1.336513    1.218994
     10         17           0       -1.517210   -0.279247   -0.058375
 ---------------------------------------------------------------------

 SCF Done:  E(UHF) =  -576.632010089     A.U. after    2 cycles

 The electronic state is 2-A.
 Alpha  occ. eigenvalues -- -103.66215 -11.30405 -11.25201 -11.23648 -10.69502
 Alpha  occ. eigenvalues --   -8.35139  -8.35053  -8.34926  -1.18677  -1.05047
 Alpha  occ. eigenvalues --   -0.92276  -0.80771  -0.65672  -0.62321  -0.58115
 Alpha  occ. eigenvalues --   -0.56631  -0.52724  -0.50377  -0.49700  -0.45500
 Alpha  occ. eigenvalues --   -0.35328
 Alpha virt. eigenvalues --    0.03482   0.04542   0.05013   0.05788   0.07287
 Alpha virt. eigenvalues --    0.07681   0.09458   0.11684   0.12551   0.14334
 Alpha virt. eigenvalues --    0.15408   0.15802   0.16603   0.16823   0.17184

  Beta  occ. eigenvalues -- -103.66186 -11.27676 -11.25521 -11.23403 -10.69471
  Beta  occ. eigenvalues --   -8.35347  -8.34906  -8.34720  -1.16796  -1.04029
  Beta  occ. eigenvalues --   -0.89091  -0.77249  -0.64926  -0.60991  -0.56428
  Beta  occ. eigenvalues --   -0.53804  -0.51610  -0.49638  -0.47338  -0.45306
  Beta virt. eigenvalues --    0.03475   0.04532   0.04959   0.05788   0.07306
  Beta virt. eigenvalues --    0.07532   0.09301   0.09673   0.12594   0.13080
  Beta virt. eigenvalues --    0.14795   0.15522   0.16606   0.16710   0.17165

 Mulliken charges and spin densities:
               1          2
     1  C    0.279148   0.065917
     2  C    0.115933  -0.208391
     3  H   -0.057612  -0.004881
     4  H   -0.067751  -0.009048
     5  H   -0.067035   0.002796
     6  C    0.302098   1.267566
     7  H   -0.024862   0.013515
     8  H   -0.006502   0.005186
     9  H   -0.232830  -0.111183
    10  Cl  -0.240586  -0.021477
 Sum of Mulliken charges =  -0.00000   1.00000

 Dipole moment (field-independent basis, Debye):
    X=              1.7950    Y=              0.7935    Z=              0.3592  Tot=              1.9952
                          Isotropic Fermi Contact Couplings
        Atom                 a.u.       MegaHertz       Gauss      10(-4) cm-1
     1  C(13)              0.05580      62.73299      22.38469      20.92547
     2  C(13)             -0.05749     -64.63477     -23.06329     -21.55984
     3  H(1)              -0.00155      -6.93283      -2.47381      -2.31254
     4  H(1)              -0.00143      -6.38633      -2.27880      -2.13025
     5  H(1)               0.00101       4.51581       1.61135       1.50631
     6  C(13)              0.28129     316.21875     112.83471     105.47922
     7  H(1)               0.00944      42.18082      15.05117      14.07001
     8  H(1)               0.00465      20.77984       7.41476       6.93141

 Normal termination of Gaussian 16 at Tue Apr  8 22:41:35 2025.
