 Gaussian 16, Revision C.01,

 ----------------------------------------------------------------------
 #t hf aug-cc-pvdz symm=none int=(grid=ultrafine) guess=(read,tcheck) s
 table=opt
 ----------------------------------------------------------------------
 -----
 title
 -----
 Symbolic Z-matrix:
 Charge =  0 Multiplicity = 2

 SCF Done:  E(UHF) =  -197.974412763     A.U. after   16 cycles
 Normal termination of Gaussian 16 at Wed Apr  9 00:41:08 2025.
 Gaussian 16:  ES64L-G16RevC.01  3-Jul-2019

 ----------------------------------------------------------------------
 #t hf aug-cc-pvdz iop(5/13=1,5/36=2,99/5=2) pseudo=read geom=check gue
 ss=(read,tcheck) scf=(maxcycle=1)
 ----------------------------------------------------------------------
 -----
 title
 -----
 Structure from the checkpoint file:  "BDE49_nonexpt_715_mol2.chk"
 Charge =  0 Multiplicity = 2

                         Standard orientation:
 ---------------------------------------------------------------------
 Center     Atomic      Atomic             Coordinates (Angstroms)
 Number     Number       Type             X           Y           Z
 ---------------------------------------------------------------------
      1          6           0        2.242065   -0.156584   -0.000002
      2          5           0        0.786082   -0.730594   -0.000001
      3          1           0        2.792462   -0.521773   -0.873953
      4          1           0        2.792458   -0.521762    0.873956
      5          1           0        2.310859    0.940661   -0.000008
      6          7           0       -0.442305   -0.091275   -0.000000
      7          6           0       -0.634660    1.361287    0.000001
      8          1           0        0.326901    1.871643   -0.000000
      9          1           0       -1.197408    1.678491    0.886283
     10          1           0       -1.197410    1.678492   -0.886280
     11          6           0       -1.702422   -0.831588    0.000002
     12          1           0       -2.299400   -0.586041   -0.887248
     13          1           0       -1.493240   -1.900468   -0.000001
     14          1           0       -2.299397   -0.586044    0.887255
 ---------------------------------------------------------------------

 SCF Done:  E(UHF) =  -198.039867688     A.U. after    2 cycles

 The electronic state is 2-A.
 Alpha  occ. eigenvalues --  -15.62166 -11.26708 -11.26255 -11.20210  -7.60382
 Alpha  occ. eigenvalues --   -1.17863  -0.95999  -0.93661  -0.86963  -0.68535
 Alpha  occ. eigenvalues --   -0.62800  -0.62071  -0.57219  -0.55055  -0.54148
 Alpha  occ. eigenvalues --   -0.54109  -0.52167  -0.49977  -0.37281  -0.29466
 Alpha virt. eigenvalues --    0.03360   0.04421   0.04522   0.04813   0.06899
 Alpha virt. eigenvalues --    0.07040   0.07343   0.07875   0.08499   0.09319
 Alpha virt. eigenvalues --    0.09821   0.09854   0.12139   0.14544   0.14544

  Beta  occ. eigenvalues --  -15.62425 -11.26565 -11.26151 -11.20136  -7.58552
  Beta  occ. eigenvalues --   -1.17829  -0.95607  -0.92808  -0.86483  -0.67573
  Beta  occ. eigenvalues --   -0.63101  -0.61215  -0.55166  -0.55024  -0.53909
  Beta  occ. eigenvalues --   -0.53548  -0.51832  -0.48753  -0.38091
  Beta virt. eigenvalues --    0.03234   0.04425   0.04528   0.04614   0.06945
  Beta virt. eigenvalues --    0.07064   0.07253   0.07888   0.08462   0.09167
  Beta virt. eigenvalues --    0.09703   0.09965   0.11123   0.14187   0.14721

 Mulliken charges and spin densities:
               1          2
     1  C    0.504838  -0.039585
     2  B   -0.160595   1.131430
     3  H   -0.124198  -0.030243
     4  H   -0.124199  -0.030243
     5  H   -0.242843   0.040263
     6  N   -0.316872  -0.134988
     7  C    0.779651   0.012201
     8  H   -0.355415  -0.004768
     9  H   -0.069075  -0.004593
    10  H   -0.069074  -0.004593
    11  C    0.721042   0.066056
    12  H   -0.107591   0.001444
    13  H   -0.328079  -0.003827
    14  H   -0.107590   0.001444
 Sum of Mulliken charges =  -0.00000   1.00000

 Dipole moment (field-independent basis, Debye):
    X=             -1.1063    Y=              1.2989    Z=              0.0000  Tot=              1.7062
                          Isotropic Fermi Contact Couplings
        Atom                 a.u.       MegaHertz       Gauss      10(-4) cm-1
     1  C(13)              0.03426      38.51254      13.74223      12.84640
     2  B(11)              0.28268     405.46024     144.67830     135.24698
     3  H(1)               0.00138       6.17943       2.20497       2.06124
     4  H(1)               0.00138       6.17909       2.20485       2.06112
     5  H(1)               0.01308      58.45151      20.85695      19.49733
     6  N(14)             -0.00642      -2.07274      -0.73961      -0.69139
     7  C(13)              0.02947      33.13485      11.82334      11.05260
     8  H(1)              -0.00067      -2.97496      -1.06154      -0.99234

 Normal termination of Gaussian 16 at Wed Apr  9 00:41:11 2025.
