 Gaussian 16, Revision C.01,

 ----------------------------------------------------------------------
 #t hf aug-cc-pvdz symm=none int=(grid=ultrafine) guess=(read,tcheck) s
 table=(opt,rrhf)
 ----------------------------------------------------------------------
 -----
 title
 -----
 Symbolic Z-matrix:
 Charge =  0 Multiplicity = 1

 SCF Done:  E(RHF) =  -875.121940395     A.U. after   15 cycles
 Normal termination of Gaussian 16 at Tue Apr  8 23:40:18 2025.
 Gaussian 16:  ES64L-G16RevC.01  3-Jul-2019

 ----------------------------------------------------------------------
 #t hf aug-cc-pvdz iop(5/13=1,5/36=2,99/5=2) pseudo=read geom=check gue
 ss=(read,tcheck) scf=(maxcycle=1)
 ----------------------------------------------------------------------
 -----
 title
 -----
 Structure from the checkpoint file:  "BDE49_nonexpt_1661_mol1.chk"
 Charge =  0 Multiplicity = 1

                         Standard orientation:
 ---------------------------------------------------------------------
 Center     Atomic      Atomic             Coordinates (Angstroms)
 Number     Number       Type             X           Y           Z
 ---------------------------------------------------------------------
      1         15           0       -0.126399    0.556285   -0.748126
      2         14           0       -1.873352   -0.533594    0.250137
      3          7           0        1.193746   -0.540778   -0.011279
      4          8           0        0.995165   -1.748118   -0.087691
      5          8           0        2.201822   -0.018562    0.433090
      6          6           0        0.091675    2.031994    0.347208
      7          1           0       -0.689373    2.750489    0.083686
      8          1           0        1.061177    2.480937    0.129758
      9          1           0        0.033562    1.803159    1.411574
     10          1           0       -2.208143   -1.736049   -0.534329
     11          1           0       -3.003658    0.425166    0.207913
     12          1           0       -1.552818   -0.870753    1.653873
 ---------------------------------------------------------------------

 SCF Done:  E(RHF) =  -875.240416006     A.U. after    2 cycles

 The electronic state is 1-A.
 Alpha  occ. eigenvalues --  -81.31728 -69.09840 -20.62128 -20.61712 -15.90015
 Alpha  occ. eigenvalues --  -11.27282  -7.81907  -6.85117  -4.95956  -4.95660
 Alpha  occ. eigenvalues --   -4.95403  -3.95893  -3.95847  -3.95827  -1.54066
 Alpha  occ. eigenvalues --   -1.36326  -1.00966  -0.93912  -0.80947  -0.74521
 Alpha  occ. eigenvalues --   -0.73348  -0.71400  -0.65708  -0.60620  -0.59917
 Alpha  occ. eigenvalues --   -0.53264  -0.51499  -0.50471  -0.48207  -0.47526
 Alpha  occ. eigenvalues --   -0.45631  -0.37629
 Alpha virt. eigenvalues --    0.02716   0.03945   0.04534   0.05651   0.06246
 Alpha virt. eigenvalues --    0.07053   0.07212   0.07414   0.08401   0.09194
 Alpha virt. eigenvalues --    0.09680   0.10432   0.11213   0.13123   0.13813

 Mulliken charges:
               1
     1  P    0.554925
     2  Si   0.074355
     3  N    0.504731
     4  O   -0.582100
     5  O   -0.576957
     6  C    0.219710
     7  H   -0.122345
     8  H   -0.125026
     9  H   -0.139740
    10  H    0.053220
    11  H    0.022298
    12  H    0.116931
 Sum of Mulliken charges =  -0.00000

 Dipole moment (field-independent basis, Debye):
    X=             -3.7128    Y=              3.1669    Z=             -0.0980  Tot=              4.8810

 Test job not archived.
 1\1\GINC-SE457\SP\RHF\Aug-CC-pVDZ\C1H6N1O2P1Si1\OHZDE\08-Apr-2025\0\\#
 t hf aug-cc-pvdz iop(5/13=1,5/36=2,99/5=2) pseudo=read geom=check gues
 s=(read,tcheck) scf=(maxcycle=1)\\title\\0,1\P,0,-0.126399,0.556285,-0
 .748126\Si,0,-1.873352,-0.533594,0.250137\N,0,1.193746,-0.540778,-0.01
 1279\O,0,0.995165,-1.748118,-0.087691\O,0,2.201822,-0.018562,0.43309\C
 ,0,0.091675,2.031994,0.347208\H,0,-0.689373,2.750489,0.083686\H,0,1.06
 1177,2.480937,0.129758\H,0,0.033562,1.803159,1.411574\H,0,-2.208143,-1
 .736049,-0.534329\H,0,-3.003658,0.425166,0.207913\H,0,-1.552818,-0.870

 Normal termination of Gaussian 16 at Tue Apr  8 23:40:22 2025.
