 Gaussian 16, Revision C.01,

 ----------------------------------------------------------------------
 #t hf aug-cc-pvdz symm=none int=(grid=ultrafine) guess=(read,tcheck) s
 table=opt
 ----------------------------------------------------------------------
 -----
 title
 -----
 Symbolic Z-matrix:
 Charge =  0 Multiplicity = 2

 SCF Done:  E(UHF) =  -414.783655148     A.U. after   14 cycles
 Normal termination of Gaussian 16 at Wed Apr  9 00:33:45 2025.
 Gaussian 16:  ES64L-G16RevC.01  3-Jul-2019

 ----------------------------------------------------------------------
 #t hf aug-cc-pvdz iop(5/13=1,5/36=2,99/5=2) pseudo=read geom=check gue
 ss=(read,tcheck) scf=(maxcycle=1)
 ----------------------------------------------------------------------
 -----
 title
 -----
 Structure from the checkpoint file:  "BDE49_nonexpt_458_mol2.chk"
 Charge =  0 Multiplicity = 2

                         Standard orientation:
 ---------------------------------------------------------------------
 Center     Atomic      Atomic             Coordinates (Angstroms)
 Number     Number       Type             X           Y           Z
 ---------------------------------------------------------------------
      1          1           0       -2.575501   -1.247075   -0.000011
      2          5           0       -1.793259   -0.362755   -0.000004
      3         14           0       -0.002435    0.422164    0.000003
      4          9           0        1.259628   -0.595431   -0.000003
      5          1           0        0.119621    1.254729   -1.218018
      6          1           0        0.119618    1.254711    1.218036
 ---------------------------------------------------------------------

 SCF Done:  E(UHF) =  -414.856288686     A.U. after    2 cycles

 The electronic state is 2-A.
 Alpha  occ. eigenvalues --  -69.11410 -26.10092  -7.66348  -6.86128  -3.97040
 Alpha  occ. eigenvalues --   -3.96892  -3.96851  -1.62735  -0.80499  -0.71917
 Alpha  occ. eigenvalues --   -0.71405  -0.70397  -0.61963  -0.49307  -0.47686
 Alpha  occ. eigenvalues --   -0.33719
 Alpha virt. eigenvalues --    0.01474   0.03717   0.04493   0.06299   0.07296
 Alpha virt. eigenvalues --    0.07340   0.07659   0.08135   0.09805   0.10998
 Alpha virt. eigenvalues --    0.13075   0.15625   0.17069   0.20508   0.22849

  Beta  occ. eigenvalues --  -69.11417 -26.09954  -7.64802  -6.86131  -3.97069
  Beta  occ. eigenvalues --   -3.96880  -3.96874  -1.62286  -0.79634  -0.71272
  Beta  occ. eigenvalues --   -0.71108  -0.66655  -0.60551  -0.49381  -0.45999
  Beta virt. eigenvalues --    0.02714   0.03356   0.03928   0.04568   0.07355
  Beta virt. eigenvalues --    0.07562   0.07820   0.08294   0.09940   0.10202
  Beta virt. eigenvalues --    0.11152   0.13716   0.16905   0.18240   0.21698

 Mulliken charges and spin densities:
               1          2
     1  H    0.422502  -0.032024
     2  B   -0.470964   1.121105
     3  Si   0.950069  -0.047014
     4  F   -0.799661  -0.021225
     5  H   -0.050973  -0.010421
     6  H   -0.050973  -0.010421
 Sum of Mulliken charges =  -0.00000   1.00000

 Dipole moment (field-independent basis, Debye):
    X=             -1.6739    Y=              0.3962    Z=              0.0000  Tot=              1.7201
                          Isotropic Fermi Contact Couplings
        Atom                 a.u.       MegaHertz       Gauss      10(-4) cm-1
     1  H(1)              -0.01507     -67.36493     -24.03748     -22.47052
     2  B(11)              0.15413     221.07985      78.88679      73.74430
     3  Si(29)             0.00331      -2.93916      -1.04877      -0.98040
     4  F(19)              0.03495     147.05982      52.47460      49.05388
     5  H(1)              -0.00229     -10.22442      -3.64833      -3.41050
     6  H(1)              -0.00229     -10.22440      -3.64832      -3.41049
 --------------------------------------------------------
       Center         ----  Spin Dipole Couplings  ----

 Normal termination of Gaussian 16 at Wed Apr  9 00:33:46 2025.
