 Gaussian 16, Revision C.01,

 ----------------------------------------------------------------------
 #t hf aug-cc-pvdz symm=none int=(grid=ultrafine) guess=(read,tcheck) s
 table=opt
 ----------------------------------------------------------------------
 -----
 title
 -----
 Symbolic Z-matrix:
 Charge =  0 Multiplicity = 2

 SCF Done:  E(UHF) =  -495.554109437     A.U. after   15 cycles
 Normal termination of Gaussian 16 at Tue Apr  8 23:41:13 2025.
 Gaussian 16:  ES64L-G16RevC.01  3-Jul-2019

 ----------------------------------------------------------------------
 #t hf aug-cc-pvdz iop(5/13=1,5/36=2,99/5=2) pseudo=read geom=check gue
 ss=(read,tcheck) scf=(maxcycle=1)
 ----------------------------------------------------------------------
 -----
 title
 -----
 Structure from the checkpoint file:  "BDE49_nonexpt_1686_mol2.chk"
 Charge =  0 Multiplicity = 2

                         Standard orientation:
 ---------------------------------------------------------------------
 Center     Atomic      Atomic             Coordinates (Angstroms)
 Number     Number       Type             X           Y           Z
 ---------------------------------------------------------------------
      1         14           0       -0.039397   -0.055882   -0.392783
      2          7           0        0.711742    1.379235    0.191637
      3          8           0       -1.612015   -0.080825    0.119207
      4          1           0        0.326580    2.278759   -0.060547
      5          1           0        1.722300    1.410795    0.219876
      6          1           0       -1.765394    0.140825    1.045692
      7          8           0        0.921829   -1.241138    0.261273
      8          1           0        0.807360   -2.126964   -0.091362
 ---------------------------------------------------------------------

 SCF Done:  E(UHF) =  -495.664463254     A.U. after    2 cycles

 The electronic state is 2-A.
 Alpha  occ. eigenvalues --  -69.12889 -20.57579 -20.57085 -15.61067  -6.87220
 Alpha  occ. eigenvalues --   -3.98372  -3.97860  -3.97784  -1.31564  -1.29606
 Alpha  occ. eigenvalues --   -1.11110  -0.76928  -0.72820  -0.65908  -0.62215
 Alpha  occ. eigenvalues --   -0.60304  -0.58525  -0.53910  -0.52120  -0.44923
 Alpha  occ. eigenvalues --   -0.32636
 Alpha virt. eigenvalues --    0.03543   0.04541   0.05083   0.05879   0.07383
 Alpha virt. eigenvalues --    0.07915   0.09198   0.12988   0.16081   0.17764
 Alpha virt. eigenvalues --    0.18352   0.19107   0.20461   0.21833   0.22167

  Beta  occ. eigenvalues --  -69.12347 -20.57168 -20.56836 -15.60618  -6.86304
  Beta  occ. eigenvalues --   -3.97525  -3.97453  -3.96595  -1.30447  -1.28636
  Beta  occ. eigenvalues --   -1.09826  -0.75437  -0.71587  -0.65530  -0.61409
  Beta  occ. eigenvalues --   -0.58837  -0.56349  -0.53068  -0.51822  -0.41620
  Beta virt. eigenvalues --    0.02497   0.04615   0.05189   0.05764   0.06989
  Beta virt. eigenvalues --    0.08037   0.08535   0.09426   0.16130   0.16526
  Beta virt. eigenvalues --    0.18691   0.19220   0.19853   0.20791   0.22233

 Mulliken charges and spin densities:
               1          2
     1  Si   1.741403   0.959812
     2  N   -0.438736   0.088374
     3  O   -0.770282  -0.047741
     4  H   -0.008103  -0.013672
     5  H   -0.017441  -0.005911
     6  H    0.123686   0.012235
     7  O   -0.767731   0.031901
     8  H    0.137205  -0.024997
 Sum of Mulliken charges =  -0.00000   1.00000

 Dipole moment (field-independent basis, Debye):
    X=              0.6161    Y=              0.5458    Z=             -0.0745  Tot=              0.8265
                          Isotropic Fermi Contact Couplings
        Atom                 a.u.       MegaHertz       Gauss      10(-4) cm-1
     1  Si(29)             0.83450    -741.63933    -264.63536    -247.38425
     2  N(14)              0.06315      20.40275       7.28021       6.80563
     3  O(17)              0.14237     -86.30366     -30.79529     -28.78780
     4  H(1)              -0.00255     -11.41029      -4.07148      -3.80606
     5  H(1)              -0.00252     -11.28285      -4.02600      -3.76355
     6  H(1)               0.00776      34.67640      12.37340      11.56680
     7  O(17)              0.06061     -36.74200     -13.11046     -12.25581
     8  H(1)              -0.00151      -6.76587      -2.41423      -2.25685

 Normal termination of Gaussian 16 at Tue Apr  8 23:41:16 2025.
