 Gaussian 16, Revision C.01,

 ----------------------------------------------------------------------
 #t hf aug-cc-pvdz symm=none int=(grid=ultrafine) guess=(read,tcheck) s
 table=(opt,rrhf)
 ----------------------------------------------------------------------
 -----
 title
 -----
 Symbolic Z-matrix:
 Charge =  0 Multiplicity = 1

 SCF Done:  E(RHF) =  -135.287434052     A.U. after   13 cycles
 Normal termination of Gaussian 16 at Wed Apr  9 00:34:45 2025.
 Gaussian 16:  ES64L-G16RevC.01  3-Jul-2019

 ----------------------------------------------------------------------
 #t hf aug-cc-pvdz iop(5/13=1,5/36=2,99/5=2) pseudo=read geom=check gue
 ss=(read,tcheck) scf=(maxcycle=1)
 ----------------------------------------------------------------------
 -----
 title
 -----
 Structure from the checkpoint file:  "BDE49_nonexpt_522_mol1.chk"
 Charge =  0 Multiplicity = 1

                         Standard orientation:
 ---------------------------------------------------------------------
 Center     Atomic      Atomic             Coordinates (Angstroms)
 Number     Number       Type             X           Y           Z
 ---------------------------------------------------------------------
      1          1           0       -1.878972   -1.053742    0.017894
      2          5           0       -1.327677    0.000229    0.004586
      3          1           0       -1.877536    1.054960    0.018025
      4          7           0        0.020719   -0.000603    0.024527
      5          7           0        1.220777    0.000234   -0.143934
      6          1           0        1.704419    0.000224    0.777002
 ---------------------------------------------------------------------

 SCF Done:  E(RHF) =  -135.330411011     A.U. after    2 cycles

 The electronic state is 1-A.
 Alpha  occ. eigenvalues --  -15.72343 -15.71478  -7.62374  -1.33846  -0.97482
 Alpha  occ. eigenvalues --   -0.77451  -0.63229  -0.59093  -0.59046  -0.46697
 Alpha  occ. eigenvalues --   -0.37430
 Alpha virt. eigenvalues --    0.03372   0.04265   0.04956   0.05600   0.07607
 Alpha virt. eigenvalues --    0.09810   0.10721   0.11323   0.13206   0.15164
 Alpha virt. eigenvalues --    0.18454   0.19945   0.21812   0.22400   0.23075

 Mulliken charges:
               1
     1  H    0.152075
     2  B   -0.385179
     3  H    0.151735
     4  N   -0.200965
     5  N    0.172963
     6  H    0.109370
 Sum of Mulliken charges =  -0.00000

 Dipole moment (field-independent basis, Debye):
    X=              0.5819    Y=              0.0001    Z=              1.3486  Tot=              1.4688

 Test job not archived.
 1\1\GINC-SE455\SP\RHF\Aug-CC-pVDZ\B1H3N2\OHZDE\09-Apr-2025\0\\#t hf au
 g-cc-pvdz iop(5/13=1,5/36=2,99/5=2) pseudo=read geom=check guess=(read
 ,tcheck) scf=(maxcycle=1)\\title\\0,1\H,0,-1.878972,-1.053742,0.017894
 \B,0,-1.327677,0.000229,0.004586\H,0,-1.877536,1.05496,0.018025\N,0,0.
 020719,-0.000603,0.024527\N,0,1.220777,0.000234,-0.143934\H,0,1.704419
 ,0.000224,0.777002\\Version=ES64L-G16RevC.01\State=1-A\HF=-135.330411\
 RMSD=3.451e-03\Dipole=0.2289567,0.0000313,0.5305613\Quadrupole=0.09802
 46,-0.2311013,0.1330766,-0.0003931,2.1885496,0.0005816\PG=C01 [X(B1H3N

 Normal termination of Gaussian 16 at Wed Apr  9 00:34:46 2025.
