 Gaussian 16, Revision C.01,

 ----------------------------------------------------------------------
 #t hf aug-cc-pvdz symm=none int=(grid=ultrafine) guess=(read,tcheck) s
 table=(opt,rrhf)
 ----------------------------------------------------------------------
 -----
 title
 -----
 Symbolic Z-matrix:
 Charge =  0 Multiplicity = 1

 SCF Done:  E(RHF) =  -899.645757011     A.U. after   12 cycles
 Normal termination of Gaussian 16 at Wed Apr  9 00:47:07 2025.
 Gaussian 16:  ES64L-G16RevC.01  3-Jul-2019

 ----------------------------------------------------------------------
 #t hf aug-cc-pvdz iop(5/13=1,5/36=2,99/5=2) pseudo=read geom=check gue
 ss=(read,tcheck) scf=(maxcycle=1)
 ----------------------------------------------------------------------
 -----
 title
 -----
 Structure from the checkpoint file:  "BDE49_nonexpt_882_mol1.chk"
 Charge =  0 Multiplicity = 1

                         Standard orientation:
 ---------------------------------------------------------------------
 Center     Atomic      Atomic             Coordinates (Angstroms)
 Number     Number       Type             X           Y           Z
 ---------------------------------------------------------------------
      1          5           0       -0.166753   -0.101252    0.000192
      2          6           0        0.980267   -1.187875    0.000075
      3          6           0        2.443885   -0.726109    0.000008
      4          1           0        2.679030   -0.127205    0.884569
      5          1           0        2.678925   -0.127128   -0.884529
      6          1           0        3.123989   -1.581929   -0.000070
      7         16           0        0.081274    1.698992   -0.000025
      8         16           0       -1.925200   -0.590850   -0.000056
      9          1           0        0.804656   -1.837897   -0.868069
     10          1           0        0.804756   -1.837970    0.868184
     11          1           0        1.424293    1.692422   -0.000104
     12          1           0       -1.723973   -1.920390   -0.000136
 ---------------------------------------------------------------------

 SCF Done:  E(RHF) =  -899.715234459     A.U. after    2 cycles

 The electronic state is 1-A.
 Alpha  occ. eigenvalues --  -93.53823 -93.53595 -11.23967 -11.23312  -8.83804
 Alpha  occ. eigenvalues --   -8.83559  -7.66910  -6.17993  -6.17760  -6.17750
 Alpha  occ. eigenvalues --   -6.17505  -6.17503  -6.17258  -1.03840  -0.98290
 Alpha  occ. eigenvalues --   -0.94627  -0.85855  -0.64921  -0.61921  -0.61457
 Alpha  occ. eigenvalues --   -0.55137  -0.52516  -0.51052  -0.50768  -0.45185
 Alpha  occ. eigenvalues --   -0.43504  -0.41843  -0.36400
 Alpha virt. eigenvalues --    0.03093   0.04537   0.04999   0.05031   0.06610
 Alpha virt. eigenvalues --    0.07029   0.07554   0.07848   0.08258   0.09900
 Alpha virt. eigenvalues --    0.10611   0.10691   0.12559   0.13063   0.15241

 Mulliken charges:
               1
     1  B    0.606205
     2  C    0.254043
     3  C    0.220475
     4  H   -0.066562
     5  H   -0.066563
     6  H   -0.134175
     7  S   -0.236245
     8  S   -0.321739
     9  H   -0.099840
    10  H   -0.099747
    11  H   -0.030725
    12  H   -0.025127
 Sum of Mulliken charges =  -0.00000

 Dipole moment (field-independent basis, Debye):
    X=              1.9878    Y=             -1.6531    Z=              0.0001  Tot=              2.5853

 Test job not archived.
 1\1\GINC-SE116\SP\RHF\Aug-CC-pVDZ\C2H7B1S2\OHZDE\09-Apr-2025\0\\#t hf
 aug-cc-pvdz iop(5/13=1,5/36=2,99/5=2) pseudo=read geom=check guess=(re
 ad,tcheck) scf=(maxcycle=1)\\title\\0,1\B,0,0.166753,-0.101252,-0.0001
 92\C,0,-0.980267,-1.187875,-0.000075\C,0,-2.443885,-0.726108,-0.000008
 \H,0,-2.67903,-0.127204,-0.884569\H,0,-2.678925,-0.127127,0.884529\H,0
 ,-3.123989,-1.581928,0.00007\S,0,-0.081273,1.698992,0.000025\S,0,1.925
 2,-0.590851,0.000056\H,0,-0.804657,-1.837897,0.868069\H,0,-0.804757,-1
 .83797,-0.868184\H,0,-1.424292,1.692423,0.000104\H,0,1.723972,-1.92039

 Normal termination of Gaussian 16 at Wed Apr  9 00:47:12 2025.
