 Gaussian 16, Revision C.01,

 ----------------------------------------------------------------------
 #t hf aug-cc-pvdz symm=none int=(grid=ultrafine) guess=(read,tcheck) s
 table=(opt,rrhf)
 ----------------------------------------------------------------------
 -----
 title
 -----
 Symbolic Z-matrix:
 Charge =  0 Multiplicity = 1

 SCF Done:  E(RHF) =  -723.823379337     A.U. after   17 cycles
 Normal termination of Gaussian 16 at Tue Apr  8 23:34:50 2025.
 Gaussian 16:  ES64L-G16RevC.01  3-Jul-2019

 ----------------------------------------------------------------------
 #t hf aug-cc-pvdz iop(5/13=1,5/36=2,99/5=2) pseudo=read geom=check gue
 ss=(read,tcheck) scf=(maxcycle=1)
 ----------------------------------------------------------------------
 -----
 title
 -----
 Structure from the checkpoint file:  "BDE49_nonexpt_1475_mol1.chk"
 Charge =  0 Multiplicity = 1

                         Standard orientation:
 ---------------------------------------------------------------------
 Center     Atomic      Atomic             Coordinates (Angstroms)
 Number     Number       Type             X           Y           Z
 ---------------------------------------------------------------------
      1          6           0        2.350065   -1.133693    0.732836
      2          6           0        1.050803   -1.208439    0.239182
      3          6           0        3.121350    0.006189    0.507712
      4          6           0        2.591580    1.066612   -0.223036
      5          6           0        1.295855    0.986316   -0.729236
      6          6           0        0.503558   -0.146119   -0.496249
      7          1           0        0.458682   -2.097732    0.424741
      8          1           0        2.760701   -1.964803    1.295398
      9          1           0        4.132409    0.063207    0.894733
     10          1           0        3.189745    1.951334   -0.410244
     11          1           0        0.898224    1.806277   -1.318117
     12         15           0       -1.201086   -0.177715   -1.189931
     13          6           0       -2.314900    0.083151    0.325715
     14          8           0       -3.374234   -0.493851    0.361517
     15          6           0       -1.885456    1.086071    1.374805
     16          1           0       -1.016315    0.706354    1.918962
     17          1           0       -2.710032    1.259623    2.066815
     18          1           0       -1.582390    2.026804    0.906049
     19          1           0       -1.398000   -1.575061   -1.211880
 ---------------------------------------------------------------------

 SCF Done:  E(RHF) =  -723.958625110     A.U. after    2 cycles

 The electronic state is 1-A.
 Alpha  occ. eigenvalues --  -81.26889 -20.57228 -11.35142 -11.26683 -11.26446
 Alpha  occ. eigenvalues --  -11.26405 -11.26345 -11.26044 -11.26008 -11.24895
 Alpha  occ. eigenvalues --   -7.77292  -4.91382  -4.91264  -4.91021  -1.36217
 Alpha  occ. eigenvalues --   -1.15845  -1.03214  -1.02656  -1.00792  -0.86628
 Alpha  occ. eigenvalues --   -0.84438  -0.81122  -0.73839  -0.70637  -0.65382
 Alpha  occ. eigenvalues --   -0.64857  -0.63629  -0.63000  -0.61049  -0.60694
 Alpha  occ. eigenvalues --   -0.57231  -0.54281  -0.52450  -0.52226  -0.51392
 Alpha  occ. eigenvalues --   -0.49018  -0.41918  -0.37568  -0.35670  -0.33607
 Alpha virt. eigenvalues --    0.02829   0.03748   0.04089   0.04927   0.05790
 Alpha virt. eigenvalues --    0.05972   0.07075   0.07165   0.07812   0.07940
 Alpha virt. eigenvalues --    0.08574   0.08883   0.10344   0.11351   0.11839

 Mulliken charges:
               1
     1  C    0.392197
     2  C    0.686696
     3  C    0.668879
     4  C    0.395997
     5  C    0.416648
     6  C   -0.009998
     7  H   -0.595059
     8  H   -0.447307
     9  H   -0.430824
    10  H   -0.445321
    11  H   -0.561156
    12  P    0.083520
    13  C   -0.009382
    14  O   -0.525192
    15  C    0.282421
    16  H    0.041072
    17  H   -0.113419
    18  H    0.029942
    19  H    0.140286
 Sum of Mulliken charges =  -0.00000

 Dipole moment (field-independent basis, Debye):
    X=              4.1036    Y=              1.2447    Z=              1.0371  Tot=              4.4118

 Test job not archived.
 1\1\GINC-SE454\SP\RHF\Aug-CC-pVDZ\C8H9O1P1\OHZDE\08-Apr-2025\0\\#t hf
 aug-cc-pvdz iop(5/13=1,5/36=2,99/5=2) pseudo=read geom=check guess=(re
 ad,tcheck) scf=(maxcycle=1)\\title\\0,1\C,0,2.350065,-1.133693,0.73283
 6\C,0,1.050803,-1.208439,0.239182\C,0,3.12135,0.006189,0.507712\C,0,2.
 59158,1.066612,-0.223036\C,0,1.295855,0.986316,-0.729236\C,0,0.503558,
 -0.146119,-0.496249\H,0,0.458682,-2.097732,0.424741\H,0,2.760701,-1.96
 4803,1.295398\H,0,4.132409,0.063207,0.894733\H,0,3.189745,1.951334,-0.
 410244\H,0,0.898224,1.806277,-1.318117\P,0,-1.201086,-0.177715,-1.1899

 Normal termination of Gaussian 16 at Tue Apr  8 23:35:01 2025.
