 Gaussian 16, Revision C.01,

 ----------------------------------------------------------------------
 #t hf aug-cc-pvdz symm=none int=(grid=ultrafine) guess=(read,tcheck) s
 table=opt
 ----------------------------------------------------------------------
 -----
 title
 -----
 Symbolic Z-matrix:
 Charge =  0 Multiplicity = 2

 SCF Done:  E(UHF) =  -515.404086491     A.U. after   14 cycles

 1\1\GINC-SE127\Stability\UHF\Aug-CC-pVDZ\H3O3Si1\OHZDE\09-Apr-2025\0\\
 #t hf aug-cc-pvdz symm=none int=(grid=ultrafine) guess=(read,tcheck) s
 table=opt\\title\\0,2\Si,0,0.000003,-0.000008,0.371703\O,0,1.366702,-0
 .710525,-0.215498\H,0,2.206962,-0.291046,-0.010648\O,0,-0.068013,1.538
 852,-0.215489\H,0,-0.851421,2.0568,-0.010647\O,0,-1.298685,-0.828318,-
 0.215512\H,0,-1.355622,-1.765712,-0.010552\\Version=ES64L-G16RevC.01\H
 F=-515.4040865\S2=0.753874\S2-1=0.\S2A=0.75001\RMSD=6.542e-09\Dipole=-
 0.0000486,0.000008,0.6775153\Quadrupole=1.5440433,1.5435281,-3.0875714

 Normal termination of Gaussian 16 at Wed Apr  9 00:08:30 2025.
 Gaussian 16:  ES64L-G16RevC.01  3-Jul-2019

 ----------------------------------------------------------------------
 #t hf aug-cc-pvdz iop(5/13=1,5/36=2,99/5=2) pseudo=read geom=check gue
 ss=(read,tcheck) scf=(maxcycle=1)
 ----------------------------------------------------------------------
 -----
 title
 -----
 Structure from the checkpoint file:  "BDE49_nonexpt_2332_mol3.chk"
 Charge =  0 Multiplicity = 2

                         Standard orientation:
 ---------------------------------------------------------------------
 Center     Atomic      Atomic             Coordinates (Angstroms)
 Number     Number       Type             X           Y           Z
 ---------------------------------------------------------------------
      1         14           0        0.000003   -0.000008    0.371703
      2          8           0        1.368148   -0.707736   -0.215498
      3          1           0        2.207551   -0.286545   -0.010648
      4          8           0       -0.071151    1.538710   -0.215489
      5          1           0       -0.855614    2.055059   -0.010647
      6          8           0       -1.296993   -0.830965   -0.215512
      7          1           0       -1.352018   -1.768473   -0.010552
 ---------------------------------------------------------------------

 SCF Done:  E(UHF) =  -515.525658517     A.U. after    2 cycles

 The electronic state is 2-A.
 Alpha  occ. eigenvalues --  -69.14933 -20.58251 -20.58250 -20.58250  -6.89085
 Alpha  occ. eigenvalues --   -4.00193  -3.99731  -3.99731  -1.33656  -1.30716
 Alpha  occ. eigenvalues --   -1.30716  -0.79479  -0.72831  -0.72831  -0.62787
 Alpha  occ. eigenvalues --   -0.59174  -0.59173  -0.56169  -0.54877  -0.54876
 Alpha  occ. eigenvalues --   -0.34533
 Alpha virt. eigenvalues --    0.03644   0.04930   0.04930   0.06503   0.07663
 Alpha virt. eigenvalues --    0.07663   0.12463   0.16962   0.16962   0.18534
 Alpha virt. eigenvalues --    0.19429   0.19429   0.23472   0.23472   0.23778

  Beta  occ. eigenvalues --  -69.14402 -20.57794 -20.57793 -20.57793  -6.88174
  Beta  occ. eigenvalues --   -3.99411  -3.99411  -3.98495  -1.32265  -1.29329
  Beta  occ. eigenvalues --   -1.29329  -0.78298  -0.72125  -0.72125  -0.59004
  Beta  occ. eigenvalues --   -0.57417  -0.57417  -0.55432  -0.53339  -0.53339
  Beta virt. eigenvalues --    0.02124   0.05096   0.05096   0.06051   0.07760
  Beta virt. eigenvalues --    0.07761   0.08094   0.15621   0.18111   0.18111
  Beta virt. eigenvalues --    0.19314   0.20098   0.20098   0.24037   0.25006

 Mulliken charges and spin densities:
               1          2
     1  Si   1.855721   0.967809
     2  O   -0.744311   0.022957
     3  H    0.125738  -0.012227
     4  O   -0.744310   0.022956
     5  H    0.125732  -0.012225
     6  O   -0.744309   0.022962
     7  H    0.125739  -0.012231
 Sum of Mulliken charges =  -0.00000   1.00000

 Dipole moment (field-independent basis, Debye):
    X=             -0.0001    Y=              0.0000    Z=              1.8870  Tot=              1.8870
                          Isotropic Fermi Contact Couplings
        Atom                 a.u.       MegaHertz       Gauss      10(-4) cm-1
     1  Si(29)             0.88503    -786.55239    -280.66145    -262.36564
     2  O(17)              0.08380     -50.79893     -18.12632     -16.94470
     3  H(1)              -0.00210      -9.36758      -3.34258      -3.12469
     4  O(17)              0.08380     -50.79643     -18.12543     -16.94387
     5  H(1)              -0.00210      -9.36719      -3.34245      -3.12456
     6  O(17)              0.08379     -50.79410     -18.12460     -16.94309
     7  H(1)              -0.00210      -9.36753      -3.34257      -3.12467
 --------------------------------------------------------

 Normal termination of Gaussian 16 at Wed Apr  9 00:08:32 2025.
