 Gaussian 16, Revision C.01,

 ----------------------------------------------------------------------
 #t hf aug-cc-pvdz symm=none int=(grid=ultrafine) guess=(read,tcheck) s
 table=opt
 ----------------------------------------------------------------------
 -----
 title
 -----
 Symbolic Z-matrix:
 Charge =  0 Multiplicity = 2

 SCF Done:  E(UHF) =  -1156.38574617     A.U. after   15 cycles
 Normal termination of Gaussian 16 at Tue Apr  8 23:37:17 2025.
 Gaussian 16:  ES64L-G16RevC.01  3-Jul-2019

 ----------------------------------------------------------------------
 #t hf aug-cc-pvdz iop(5/13=1,5/36=2,99/5=2) pseudo=read geom=check gue
 ss=(read,tcheck) scf=(maxcycle=1)
 ----------------------------------------------------------------------
 -----
 title
 -----
 Structure from the checkpoint file:  "BDE49_nonexpt_1445_mol2.chk"
 Charge =  0 Multiplicity = 2

                         Standard orientation:
 ---------------------------------------------------------------------
 Center     Atomic      Atomic             Coordinates (Angstroms)
 Number     Number       Type             X           Y           Z
 ---------------------------------------------------------------------
      1         15           0        0.000001   -1.377056    0.000021
      2         14           0        1.814772    0.009200    0.001450
      3          6           0        3.279853   -1.052898   -0.530040
      4          1           0        3.407215   -1.911920    0.134574
      5          1           0        4.207105   -0.470213   -0.510327
      6          1           0        3.145829   -1.436177   -1.545553
      7          6           0        2.123647    0.640998    1.754767
      8          1           0        2.218346   -0.187336    2.462121
      9          1           0        1.317968    1.291168    2.103690
     10          1           0        3.056797    1.214410    1.784263
     11          6           0        1.676404    1.472403   -1.184912
     12          1           0        1.486012    1.139202   -2.208816
     13          1           0        2.617349    2.033667   -1.188455
     14          1           0        0.878989    2.163320   -0.900753
     15         14           0       -1.814772    0.009199   -0.001446
     16          6           0       -3.279878   -1.052919    0.529939
     17          1           0       -3.407206   -1.911919   -0.134710
     18          1           0       -4.207129   -0.470234    0.510198
     19          1           0       -3.145903   -1.436230    1.545445
     20          6           0       -2.123559    0.641053   -1.754758
     21          1           0       -2.218222   -0.187260   -2.462144
     22          1           0       -1.317863    1.291235   -2.103619
     23          1           0       -3.056708    1.214465   -1.784283
     24          6           0       -1.676469    1.472366    1.184967
     25          1           0       -1.486126    1.139135    2.208871
     26          1           0       -2.617415    2.033627    1.188480
     27          1           0       -0.879042    2.163295    0.900869
 ---------------------------------------------------------------------

 SCF Done:  E(UHF) =  -1156.52631944     A.U. after    2 cycles

 The electronic state is 2-A.
 Alpha  occ. eigenvalues --  -81.22517 -69.05994 -69.05994 -11.21550 -11.21550
 Alpha  occ. eigenvalues --  -11.21300 -11.21299 -11.20873 -11.20873  -7.73196
 Alpha  occ. eigenvalues --   -6.81047  -6.81039  -4.87992  -4.86816  -4.86612
 Alpha  occ. eigenvalues --   -3.91795  -3.91793  -3.91789  -3.91788  -3.91775
 Alpha  occ. eigenvalues --   -3.91771  -0.96683  -0.95824  -0.92397  -0.92195
 Alpha  occ. eigenvalues --   -0.91839  -0.91834  -0.75760  -0.62255  -0.59621
 Alpha  occ. eigenvalues --   -0.57757  -0.57533  -0.56655  -0.56543  -0.56276
 Alpha  occ. eigenvalues --   -0.55662  -0.55081  -0.54388  -0.54267  -0.54053
 Alpha  occ. eigenvalues --   -0.53480  -0.53392  -0.44603  -0.44034  -0.43578
 Alpha  occ. eigenvalues --   -0.43472  -0.37559  -0.33602  -0.33234
 Alpha virt. eigenvalues --    0.02713   0.03784   0.04471   0.04795   0.05687
 Alpha virt. eigenvalues --    0.05696   0.05878   0.06432   0.06687   0.07486
 Alpha virt. eigenvalues --    0.07734   0.07870   0.08221   0.08269   0.09252

  Beta  occ. eigenvalues --  -81.21881 -69.06034 -69.06034 -11.21526 -11.21525
  Beta  occ. eigenvalues --  -11.21243 -11.21243 -11.20874 -11.20874  -7.72441
  Beta  occ. eigenvalues --   -6.81106  -6.81098  -4.86378  -4.86230  -4.85094
  Beta  occ. eigenvalues --   -3.91908  -3.91899  -3.91831  -3.91831  -3.91817
  Beta  occ. eigenvalues --   -3.91816  -0.96526  -0.95759  -0.92285  -0.92103
  Beta  occ. eigenvalues --   -0.91795  -0.91788  -0.70201  -0.62198  -0.59206
  Beta  occ. eigenvalues --   -0.57558  -0.57476  -0.56597  -0.56426  -0.56167
  Beta  occ. eigenvalues --   -0.54883  -0.54792  -0.54188  -0.54025  -0.53515
  Beta  occ. eigenvalues --   -0.53426  -0.53368  -0.43950  -0.43705  -0.43379
  Beta  occ. eigenvalues --   -0.43178  -0.36565  -0.31558
  Beta virt. eigenvalues --    0.02737   0.02962   0.03787   0.04812   0.05129
  Beta virt. eigenvalues --    0.05691   0.05725   0.05899   0.06647   0.06701
  Beta virt. eigenvalues --    0.07490   0.07743   0.07888   0.08251   0.08273

 Mulliken charges and spin densities:
               1          2
     1  P   -0.640691   1.247031
     2  Si   1.166247  -0.159753
     3  C    0.569178   0.009813
     4  H   -0.298438   0.004636
     5  H   -0.294861  -0.001158
     6  H   -0.327016   0.004243
     7  C    0.672438   0.005322
     8  H   -0.325785  -0.001063
     9  H   -0.361955   0.002897
    10  H   -0.233215   0.002269
    11  C    0.760921   0.002500
    12  H   -0.342052   0.000424
    13  H   -0.288493  -0.000802
    14  H   -0.376620   0.007159
    15  Si   1.166247  -0.159760
    16  C    0.569182   0.009814
    17  H   -0.298438   0.004636
    18  H   -0.294860  -0.001158
    19  H   -0.327014   0.004244
    20  C    0.672459   0.005323
    21  H   -0.325789  -0.001063
    22  H   -0.361964   0.002898
    23  H   -0.233212   0.002269
    24  C    0.760895   0.002501
    25  H   -0.342063   0.000423
    26  H   -0.288478  -0.000802
    27  H   -0.376622   0.007158
 Sum of Mulliken charges =  -0.00000   1.00000

 Dipole moment (field-independent basis, Debye):
    X=              0.0000    Y=              1.6137    Z=             -0.0000  Tot=              1.6137
                          Isotropic Fermi Contact Couplings
        Atom                 a.u.       MegaHertz       Gauss      10(-4) cm-1
     1  P(31)              0.15885     287.69680     102.65737      95.96532
     2  Si(29)            -0.04129      36.69749      13.09458      12.24096
     3  C(13)             -0.00078      -0.87766      -0.31317      -0.29276
     4  H(1)              -0.00007      -0.32584      -0.11627      -0.10869
     5  H(1)              -0.00033      -1.47426      -0.52605      -0.49176
     6  H(1)               0.00004       0.17733       0.06328       0.05915
     7  C(13)              0.01352      15.19619       5.42238       5.06890
     8  H(1)              -0.00017      -0.75088      -0.26793      -0.25047

 Normal termination of Gaussian 16 at Tue Apr  8 23:37:41 2025.
