 Gaussian 16, Revision C.01,

 ----------------------------------------------------------------------
 #t hf aug-cc-pvdz symm=none int=(grid=ultrafine) guess=(read,tcheck) s
 table=opt
 ----------------------------------------------------------------------
 -----
 title
 -----
 Symbolic Z-matrix:
 Charge =  0 Multiplicity = 2

 SCF Done:  E(UHF) =  -365.522495638     A.U. after   17 cycles

 1\1\GINC-SE404\Stability\UHF\Aug-CC-pVDZ\H3O1Si1\OHZDE\08-Apr-2025\0\\
 #t hf aug-cc-pvdz symm=none int=(grid=ultrafine) guess=(read,tcheck) s
 table=opt\\title\\0,2\O,0,1.184211,0.,0.02779\Si,0,-0.474283,0.,0.0017
 69\H,0,-1.061081,1.214897,0.611354\H,0,-1.06108,-1.214904,0.611341\H,0
 ,-0.711568,0.000008,-1.469784\\Version=ES64L-G16RevC.01\HF=-365.522495
 6\S2=0.75813\S2-1=0.\S2A=0.750052\RMSD=8.808e-09\Dipole=-0.6110235,-0.
 0000004,0.0955788\Quadrupole=-1.1443858,0.1149305,1.0294553,-0.000001,
 0.1619716,-0.000005\PG=Unknown\\@

 Normal termination of Gaussian 16 at Tue Apr  8 22:54:38 2025.
 Gaussian 16:  ES64L-G16RevC.01  3-Jul-2019

 ----------------------------------------------------------------------
 #t hf aug-cc-pvdz iop(5/13=1,5/36=2,99/5=2) pseudo=read geom=check gue
 ss=(read,tcheck) scf=(maxcycle=1)
 ----------------------------------------------------------------------
 -----
 title
 -----
 Structure from the checkpoint file:  "BDE49_expt_1906_mol2.chk"
 Charge =  0 Multiplicity = 2

                         Standard orientation:
 ---------------------------------------------------------------------
 Center     Atomic      Atomic             Coordinates (Angstroms)
 Number     Number       Type             X           Y           Z
 ---------------------------------------------------------------------
      1          8           0        1.184211    0.000000   -0.027790
      2         14           0       -0.474283    0.000000   -0.001769
      3          1           0       -1.061081   -1.214897   -0.611354
      4          1           0       -1.061080    1.214904   -0.611341
      5          1           0       -0.711568   -0.000008    1.469784
 ---------------------------------------------------------------------

 SCF Done:  E(UHF) =  -365.577707957     A.U. after    2 cycles

 The electronic state is 2-A.
 Alpha  occ. eigenvalues --  -69.10787 -20.63818  -6.85765  -3.96684  -3.96525
 Alpha  occ. eigenvalues --   -3.96499  -1.33743  -0.73272  -0.69052  -0.60478
 Alpha  occ. eigenvalues --   -0.60262  -0.49338  -0.48615
 Alpha virt. eigenvalues --    0.03817   0.05124   0.05943   0.06223   0.08847
 Alpha virt. eigenvalues --    0.08958   0.13806   0.15276   0.18121   0.18689
 Alpha virt. eigenvalues --    0.21309   0.22259   0.24300   0.26404   0.27718

  Beta  occ. eigenvalues --  -69.10854 -20.59931  -6.85865  -3.96833  -3.96647
  Beta  occ. eigenvalues --   -3.96556  -1.17911  -0.71302  -0.56804  -0.56747
  Beta  occ. eigenvalues --   -0.49943  -0.47279
  Beta virt. eigenvalues --    0.02906   0.03899   0.05326   0.06234   0.06291
  Beta virt. eigenvalues --    0.08969   0.09256   0.13981   0.15472   0.18209
  Beta virt. eigenvalues --    0.18653   0.21732   0.24736   0.26687   0.26889

 Mulliken charges and spin densities:
               1          2
     1  O   -0.654328   1.032292
     2  Si   1.012290  -0.111803
     3  H   -0.115576   0.005637
     4  H   -0.115576   0.005637
     5  H   -0.126811   0.068237
 Sum of Mulliken charges =  -0.00000   1.00000

 Dipole moment (field-independent basis, Debye):
    X=             -1.6191    Y=              0.0000    Z=             -0.2578  Tot=              1.6395
                          Isotropic Fermi Contact Couplings
        Atom                 a.u.       MegaHertz       Gauss      10(-4) cm-1
     1  O(17)              0.22974    -139.26583     -49.69351     -46.45408
     2  Si(29)            -0.06789      60.33593      21.52936      20.12590
     3  H(1)               0.00247      11.05998       3.94648       3.68921
     4  H(1)               0.00247      11.06001       3.94649       3.68922
     5  H(1)               0.01956      87.41524      31.19193      29.15859
 --------------------------------------------------------
       Center         ----  Spin Dipole Couplings  ----
                      3XX-RR        3YY-RR        3ZZ-RR

 Normal termination of Gaussian 16 at Tue Apr  8 22:54:39 2025.
