 Gaussian 16, Revision C.01,

 ----------------------------------------------------------------------
 #t hf aug-cc-pvdz symm=none int=(grid=ultrafine) guess=(read,tcheck) s
 table=opt
 ----------------------------------------------------------------------
 -----
 title
 -----
 Symbolic Z-matrix:
 Charge =  0 Multiplicity = 2

 SCF Done:  E(UHF) =  -559.684586856     A.U. after   15 cycles
 Normal termination of Gaussian 16 at Tue Apr  8 23:39:06 2025.
 Gaussian 16:  ES64L-G16RevC.01  3-Jul-2019

 ----------------------------------------------------------------------
 #t hf aug-cc-pvdz iop(5/13=1,5/36=2,99/5=2) pseudo=read geom=check gue
 ss=(read,tcheck) scf=(maxcycle=1)
 ----------------------------------------------------------------------
 -----
 title
 -----
 Structure from the checkpoint file:  "BDE49_nonexpt_162_mol2.chk"
 Charge =  0 Multiplicity = 2

                         Standard orientation:
 ---------------------------------------------------------------------
 Center     Atomic      Atomic             Coordinates (Angstroms)
 Number     Number       Type             X           Y           Z
 ---------------------------------------------------------------------
      1         17           0        1.064096    0.070301   -0.000001
      2          8           0       -1.701070    0.097184    0.000003
      3          5           0       -0.576324   -0.606815   -0.000006
      4          1           0       -1.599458    1.061487    0.000014
 ---------------------------------------------------------------------

 SCF Done:  E(UHF) =  -559.738467409     A.U. after    2 cycles

 The electronic state is 2-A.
 Alpha  occ. eigenvalues -- -103.67045 -20.62722 -10.70531  -8.36349  -8.35963
 Alpha  occ. eigenvalues --   -8.35937  -7.73128  -1.37646  -1.16405  -0.82126
 Alpha  occ. eigenvalues --   -0.68359  -0.61465  -0.60375  -0.50256  -0.49465
 Alpha  occ. eigenvalues --   -0.36901
 Alpha virt. eigenvalues --    0.03766   0.05390   0.05926   0.06043   0.08897
 Alpha virt. eigenvalues --    0.11300   0.13370   0.15761   0.16297   0.18727
 Alpha virt. eigenvalues --    0.21578   0.22427   0.23467   0.25456   0.26596

  Beta  occ. eigenvalues -- -103.66917 -20.62670 -10.70381  -8.36001  -8.35894
  Beta  occ. eigenvalues --   -8.35749  -7.70888  -1.37302  -1.15256  -0.80307
  Beta  occ. eigenvalues --   -0.67527  -0.60683  -0.58116  -0.49476  -0.49002
  Beta virt. eigenvalues --    0.02715   0.05225   0.05697   0.06055   0.08037
  Beta virt. eigenvalues --    0.12356   0.14459   0.14778   0.15915   0.16986
  Beta virt. eigenvalues --    0.19142   0.21595   0.23197   0.24080   0.26168

 Mulliken charges and spin densities:
               1          2
     1  Cl  -0.256707   0.032406
     2  O   -0.265978  -0.083386
     3  B    0.307779   1.026310
     4  H    0.214906   0.024670
 Sum of Mulliken charges =  -0.00000   1.00000

 Dipole moment (field-independent basis, Debye):
    X=             -0.5857    Y=              1.4459    Z=              0.0000  Tot=              1.5600
                          Isotropic Fermi Contact Couplings
        Atom                 a.u.       MegaHertz       Gauss      10(-4) cm-1
     1  Cl(35)             0.13582      59.55257      21.24984      19.86460
     2  O(17)              0.13135     -79.62376     -28.41174     -26.55963
     3  B(11)              0.46262     663.56338     236.77592     221.34092
     4  H(1)               0.01380      61.69017      22.01259      20.57763
 --------------------------------------------------------
       Center         ----  Spin Dipole Couplings  ----
                      3XX-RR        3YY-RR        3ZZ-RR
 --------------------------------------------------------

 Normal termination of Gaussian 16 at Tue Apr  8 23:39:08 2025.
