 Gaussian 16, Revision C.01,

 ----------------------------------------------------------------------
 #t hf aug-cc-pvdz symm=none int=(grid=ultrafine) guess=(read,tcheck) s
 table=(opt,rrhf)
 ----------------------------------------------------------------------
 -----
 title
 -----
 Symbolic Z-matrix:
 Charge =  0 Multiplicity = 1

 SCF Done:  E(RHF) =  -385.007920788     A.U. after   13 cycles
 Normal termination of Gaussian 16 at Wed Apr  9 00:47:06 2025.
 Gaussian 16:  ES64L-G16RevC.01  3-Jul-2019

 ----------------------------------------------------------------------
 #t hf aug-cc-pvdz iop(5/13=1,5/36=2,99/5=2) pseudo=read geom=check gue
 ss=(read,tcheck) scf=(maxcycle=1)
 ----------------------------------------------------------------------
 -----
 title
 -----
 Structure from the checkpoint file:  "BDE49_nonexpt_86_mol1.chk"
 Charge =  0 Multiplicity = 1

                         Standard orientation:
 ---------------------------------------------------------------------
 Center     Atomic      Atomic             Coordinates (Angstroms)
 Number     Number       Type             X           Y           Z
 ---------------------------------------------------------------------
      1          5           0       -0.626115    1.253282    0.568708
      2          5           0        0.626196    1.253409   -0.568606
      3          7           0        1.765311    0.426571   -0.430135
      4          6           0        2.568012   -0.367758   -0.028000
      5          8           0        3.386898   -1.127673    0.311373
      6          7           0       -1.765242    0.426477    0.430129
      7          6           0       -2.567940   -0.367823    0.027920
      8          8           0       -3.387086   -1.127473   -0.311413
      9          1           0        0.597935    1.975145   -1.524005
     10          1           0       -0.597764    1.974723    1.524331
 ---------------------------------------------------------------------

 SCF Done:  E(RHF) =  -385.132994892     A.U. after    2 cycles

 The electronic state is 1-A.
 Alpha  occ. eigenvalues --  -20.64086 -20.64086 -15.66717 -15.66716 -11.44161
 Alpha  occ. eigenvalues --  -11.44161  -7.66241  -7.66170  -1.44454  -1.44438
 Alpha  occ. eigenvalues --   -1.24485  -1.24157  -0.88200  -0.85444  -0.75511
 Alpha  occ. eigenvalues --   -0.75195  -0.68324  -0.68152  -0.67326  -0.67261
 Alpha  occ. eigenvalues --   -0.63122  -0.58172  -0.55131  -0.48442  -0.48247
 Alpha  occ. eigenvalues --   -0.46707  -0.39350
 Alpha virt. eigenvalues --    0.03230   0.03437   0.03630   0.03876   0.05681
 Alpha virt. eigenvalues --    0.06039   0.06778   0.07639   0.07903   0.08996
 Alpha virt. eigenvalues --    0.10041   0.11474   0.12045   0.12564   0.12612

 Mulliken charges:
               1
     1  B    0.165141
     2  B    0.165125
     3  N   -0.019458
     4  C   -0.081328
     5  O   -0.179694
     6  N   -0.019444
     7  C   -0.081311
     8  O   -0.179689
     9  H    0.115347
    10  H    0.115311
 Sum of Mulliken charges =  -0.00000

 Dipole moment (field-independent basis, Debye):
    X=              0.0005    Y=              2.4925    Z=             -0.0001  Tot=              2.4925

 Test job not archived.
 1\1\GINC-SE106\SP\RHF\Aug-CC-pVDZ\C2H2B2N2O2\OHZDE\09-Apr-2025\0\\#t h
 f aug-cc-pvdz iop(5/13=1,5/36=2,99/5=2) pseudo=read geom=check guess=(
 read,tcheck) scf=(maxcycle=1)\\title\\0,1\B,0,0.626115,1.253282,-0.568
 708\B,0,-0.626196,1.253409,0.568606\N,0,-1.765311,0.426571,0.430135\C,
 0,-2.568012,-0.367758,0.028\O,0,-3.386898,-1.127673,-0.311373\N,0,1.76
 5242,0.426477,-0.430129\C,0,2.56794,-0.367823,-0.02792\O,0,3.387086,-1
 .127473,0.311413\H,0,-0.597935,1.975145,1.524005\H,0,0.597764,1.974723
 ,-1.524331\\Version=ES64L-G16RevC.01\State=1-A\HF=-385.1329949\RMSD=3.

 Normal termination of Gaussian 16 at Wed Apr  9 00:47:10 2025.
