 Gaussian 16, Revision C.01,

 ----------------------------------------------------------------------
 #t hf aug-cc-pvdz symm=none int=(grid=ultrafine) guess=(read,tcheck) s
 table=(opt,rrhf)
 ----------------------------------------------------------------------
 -----
 title
 -----
 Symbolic Z-matrix:
 Charge =  0 Multiplicity = 1

 SCF Done:  E(RHF) =  -829.285503550     A.U. after   12 cycles
 Normal termination of Gaussian 16 at Wed Apr  9 00:15:53 2025.
 Gaussian 16:  ES64L-G16RevC.01  3-Jul-2019

 ----------------------------------------------------------------------
 #t hf aug-cc-pvdz iop(5/13=1,5/36=2,99/5=2) pseudo=read geom=check gue
 ss=(read,tcheck) scf=(maxcycle=1)
 ----------------------------------------------------------------------
 -----
 title
 -----
 Structure from the checkpoint file:  "BDE49_nonexpt_252_mol1.chk"
 Charge =  0 Multiplicity = 1

                         Standard orientation:
 ---------------------------------------------------------------------
 Center     Atomic      Atomic             Coordinates (Angstroms)
 Number     Number       Type             X           Y           Z
 ---------------------------------------------------------------------
      1          5           0       -0.228933    0.979876    0.000000
      2         17           0       -0.228213    2.765136    0.000000
      3          8           0       -0.227099    0.355922    1.200853
      4          8           0       -0.227099    0.355922   -1.200853
      5          6           0        0.413453   -1.667636   -0.000000
      6          6           0       -0.227099   -1.090837   -1.261605
      7          6           0       -0.227099   -1.090837    1.261605
      8          6           0        0.478078   -1.495075    2.545339
      9          1           0        1.523906   -1.178654    2.522211
     10          1           0        0.442460   -2.579734    2.678230
     11          1           0       -0.003549   -1.022853    3.403405
     12          1           0       -1.277481   -1.403065    1.309571
     13          1           0        1.486119   -1.439376   -0.000000
     14          1           0        0.308607   -2.756685   -0.000000
     15          6           0        0.478078   -1.495075   -2.545339
     16          1           0       -1.277481   -1.403065   -1.309571
     17          1           0        1.523906   -1.178654   -2.522211
     18          1           0       -0.003549   -1.022853   -3.403405
     19          1           0        0.442460   -2.579734   -2.678230
 ---------------------------------------------------------------------

 SCF Done:  E(RHF) =  -829.423906898     A.U. after    2 cycles

 The electronic state is 1-A'.
 Alpha  occ. eigenvalues -- -103.63435 -20.58731 -20.58731 -11.31696 -11.31690
 Alpha  occ. eigenvalues --  -11.25539 -11.24013 -11.24012 -10.66883  -8.32586
 Alpha  occ. eigenvalues --   -8.32374  -8.32357  -7.70956  -1.36856  -1.32555
 Alpha  occ. eigenvalues --   -1.12907  -1.08310  -1.02947  -0.95545  -0.85205
 Alpha  occ. eigenvalues --   -0.83829  -0.74265  -0.70861  -0.69551  -0.66348
 Alpha  occ. eigenvalues --   -0.62817  -0.58705  -0.58176  -0.56982  -0.56699
 Alpha  occ. eigenvalues --   -0.55565  -0.54632  -0.54611  -0.51527  -0.49126
 Alpha  occ. eigenvalues --   -0.47345  -0.46688  -0.45472  -0.45269
 Alpha virt. eigenvalues --    0.02737   0.03977   0.03984   0.04580   0.05801
 Alpha virt. eigenvalues --    0.05926   0.06220   0.06856   0.07389   0.08607
 Alpha virt. eigenvalues --    0.08631   0.09135   0.09313   0.10946   0.13210

 Mulliken charges:
               1
     1  B    0.427350
     2  Cl  -0.444906
     3  O   -0.489571
     4  O   -0.489571
     5  C    0.009010
     6  C    0.350833
     7  C    0.350833
     8  C    0.562089
     9  H   -0.008454
    10  H   -0.015552
    11  H   -0.018141
    12  H   -0.253555
    13  H   -0.075812
    14  H   -0.170940
    15  C    0.562089
    16  H   -0.253555
    17  H   -0.008454
    18  H   -0.018141
    19  H   -0.015552
 Sum of Mulliken charges =  -0.00000

 Dipole moment (field-independent basis, Debye):
    X=              0.1928    Y=             -5.1604    Z=              0.0000  Tot=              5.1640

 Test job not archived.
 1\1\GINC-SE074\SP\RHF\Aug-CC-pVDZ\C5H10B1Cl1O2\OHZDE\09-Apr-2025\0\\#t
  hf aug-cc-pvdz iop(5/13=1,5/36=2,99/5=2) pseudo=read geom=check guess
 =(read,tcheck) scf=(maxcycle=1)\\title\\0,1\B,0,1.001418,0.,-0.098631\
 Cl,0,2.771207,0.,0.135891\O,0,0.382598,1.200853,-0.178529\O,0,0.382598
 ,-1.200853,-0.178529\C,0,-1.707421,0.,0.191489\C,0,-1.051699,-1.261605
 ,-0.368005\C,0,-1.051699,1.261605,-0.368005\C,0,-1.54481,2.545339,0.27
 8157\H,0,-1.368082,2.522211,1.356417\H,0,-2.615462,2.67823,0.100792\H,
 0,-1.013578,3.403405,-0.137477\H,0,-1.223674,1.309571,-1.450231\H,0,-1

 Normal termination of Gaussian 16 at Wed Apr  9 00:15:59 2025.
