 Gaussian 16, Revision C.01,

 ----------------------------------------------------------------------
 #t hf aug-cc-pvdz symm=none int=(grid=ultrafine) guess=(read,tcheck) s
 table=(opt,rrhf)
 ----------------------------------------------------------------------
 -----
 title
 -----
 Symbolic Z-matrix:
 Charge =  0 Multiplicity = 1

 SCF Done:  E(RHF) =  -325.014133297     A.U. after   16 cycles
 Normal termination of Gaussian 16 at Tue Apr  8 22:38:08 2025.
 Gaussian 16:  ES64L-G16RevC.01  3-Jul-2019

 ----------------------------------------------------------------------
 #t hf aug-cc-pvdz iop(5/13=1,5/36=2,99/5=2) pseudo=read geom=check gue
 ss=(read,tcheck) scf=(maxcycle=1)
 ----------------------------------------------------------------------
 -----
 title
 -----
 Structure from the checkpoint file:  "BDE49_expt_1235_mol1.chk"
 Charge =  0 Multiplicity = 1

                         Standard orientation:
 ---------------------------------------------------------------------
 Center     Atomic      Atomic             Coordinates (Angstroms)
 Number     Number       Type             X           Y           Z
 ---------------------------------------------------------------------
      1          6           0        0.760055   -0.014745    0.009174
      2          7           0       -1.702752    0.462373   -0.032381
      3          8           0       -2.667851   -0.256011    0.009650
      4          6           0        1.097279    1.457742    0.306302
      5          1           0        0.303256    1.939582    0.879270
      6          1           0        1.235317    2.023834   -0.620213
      7          6           0        1.874156   -0.639309   -0.849237
      8          1           0        1.990492   -0.107736   -1.798562
      9          1           0        1.664565   -1.689441   -1.073060
     10          1           0        2.831287   -0.594015   -0.321434
     11          1           0        2.025860    1.525973    0.880377
     12          6           0        0.618315   -0.801884    1.325452
     13          1           0        1.559394   -0.787914    1.882214
     14          1           0        0.355914   -1.847212    1.135634
     15          1           0       -0.155852   -0.372172    1.966670
     16          6           0       -0.559609   -0.111000   -0.793236
     17          1           0       -0.803486   -1.139354   -1.080162
     18          1           0       -0.485860    0.515103   -1.691996
 ---------------------------------------------------------------------

 SCF Done:  E(RHF) =  -325.113956992     A.U. after    2 cycles

 The electronic state is 1-A.
 Alpha  occ. eigenvalues --  -20.64151 -15.76171 -11.27490 -11.26385 -11.23588
 Alpha  occ. eigenvalues --  -11.23158 -11.22988  -1.46596  -1.12509  -1.02237
 Alpha  occ. eigenvalues --   -0.94079  -0.93814  -0.85570  -0.75815  -0.69049
 Alpha  occ. eigenvalues --   -0.68745  -0.65243  -0.61871  -0.59760  -0.59026
 Alpha  occ. eigenvalues --   -0.55682  -0.54889  -0.52934  -0.52496  -0.48500
 Alpha  occ. eigenvalues --   -0.47424  -0.47255  -0.39911
 Alpha virt. eigenvalues --    0.03198   0.04210   0.04381   0.05199   0.06497
 Alpha virt. eigenvalues --    0.06715   0.06911   0.07156   0.07697   0.09070
 Alpha virt. eigenvalues --    0.09238   0.09409   0.12158   0.13011   0.13855

 Mulliken charges:
               1
     1  C   -4.068715
     2  N   -0.193498
     3  O   -0.407218
     4  C    1.192836
     5  H    0.012774
     6  H   -0.025548
     7  C    1.245040
     8  H   -0.033004
     9  H   -0.043342
    10  H   -0.003249
    11  H   -0.020762
    12  C    1.168435
    13  H   -0.039359
    14  H   -0.011184
    15  H   -0.001186
    16  C    1.324401
    17  H   -0.093614
    18  H   -0.002807
 Sum of Mulliken charges =  -0.00000

 Dipole moment (field-independent basis, Debye):
    X=              2.9237    Y=             -0.1015    Z=             -0.8822  Tot=              3.0556

 Test job not archived.
 1\1\GINC-SE339\SP\RHF\Aug-CC-pVDZ\C5H11N1O1\OHZDE\08-Apr-2025\0\\#t hf
  aug-cc-pvdz iop(5/13=1,5/36=2,99/5=2) pseudo=read geom=check guess=(r
 ead,tcheck) scf=(maxcycle=1)\\title\\0,1\C,0,0.760055,-0.014745,0.0091
 74\N,0,-1.702752,0.462373,-0.032381\O,0,-2.667851,-0.256011,0.00965\C,
 0,1.097279,1.457742,0.306302\H,0,0.303256,1.939582,0.87927\H,0,1.23531
 7,2.023834,-0.620213\C,0,1.874156,-0.639309,-0.849237\H,0,1.990492,-0.
 107736,-1.798562\H,0,1.664565,-1.689441,-1.07306\H,0,2.831287,-0.59401
 5,-0.321434\H,0,2.02586,1.525973,0.880377\C,0,0.618315,-0.801884,1.325

 Normal termination of Gaussian 16 at Tue Apr  8 22:38:15 2025.
