 Gaussian 16, Revision C.01,

 ----------------------------------------------------------------------
 #t hf aug-cc-pvdz symm=none int=(grid=ultrafine) guess=(read,tcheck) s
 table=(opt,rrhf)
 ----------------------------------------------------------------------
 -----
 title
 -----
 Symbolic Z-matrix:
 Charge =  0 Multiplicity = 1

 SCF Done:  E(RHF) =  -360.825314871     A.U. after   15 cycles
 Normal termination of Gaussian 16 at Tue Apr  8 22:51:01 2025.
 Gaussian 16:  ES64L-G16RevC.01  3-Jul-2019

 ----------------------------------------------------------------------
 #t hf aug-cc-pvdz iop(5/13=1,5/36=2,99/5=2) pseudo=read geom=check gue
 ss=(read,tcheck) scf=(maxcycle=1)
 ----------------------------------------------------------------------
 -----
 title
 -----
 Structure from the checkpoint file:  "BDE49_expt_1782_mol1.chk"
 Charge =  0 Multiplicity = 1

                         Standard orientation:
 ---------------------------------------------------------------------
 Center     Atomic      Atomic             Coordinates (Angstroms)
 Number     Number       Type             X           Y           Z
 ---------------------------------------------------------------------
      1          8           0       -1.043014   -0.485583   -0.440803
      2          7           0       -2.402127   -0.704813   -0.185761
      3          8           0       -2.940490    0.162265    0.408777
      4          6           0       -0.479142    0.756414    0.050619
      5          6           0        0.997429    0.755141   -0.309246
      6          1           0       -0.638525    0.813440    1.132163
      7          6           0        1.810664   -0.335356    0.397794
      8          1           0        1.399029    1.742960   -0.052177
      9          1           0        1.096172    0.651459   -1.395258
     10          6           0        3.291685   -0.314535    0.011993
     11          1           0        1.379048   -1.311814    0.159914
     12          1           0        1.711718   -0.209124    1.482872
     13          1           0        3.422240   -0.473235   -1.062836
     14          1           0        3.847284   -1.098946    0.532138
     15          1           0        3.756027    0.644176    0.264028
     16          1           0       -1.013893    1.591333   -0.411268
 ---------------------------------------------------------------------

 SCF Done:  E(RHF) =  -360.938492477     A.U. after    2 cycles

 The electronic state is 1-A.
 Alpha  occ. eigenvalues --  -20.66362 -20.64170 -15.85038 -11.30572 -11.24531
 Alpha  occ. eigenvalues --  -11.23577 -11.22894  -1.54185  -1.35697  -1.08218
 Alpha  occ. eigenvalues --   -1.00983  -0.92399  -0.85609  -0.80389  -0.77189
 Alpha  occ. eigenvalues --   -0.72027  -0.70891  -0.64023  -0.61470  -0.60568
 Alpha  occ. eigenvalues --   -0.56970  -0.55826  -0.53763  -0.50342  -0.49346
 Alpha  occ. eigenvalues --   -0.48048  -0.47050  -0.45994
 Alpha virt. eigenvalues --    0.03425   0.04173   0.04541   0.05271   0.06451
 Alpha virt. eigenvalues --    0.06866   0.07131   0.08201   0.09135   0.09586
 Alpha virt. eigenvalues --    0.11275   0.12073   0.12984   0.14507   0.14759

 Mulliken charges:
               1
     1  O   -0.551008
     2  N    0.291075
     3  O   -0.309431
     4  C    0.933789
     5  C    0.066591
     6  H   -0.179230
     7  C    0.161530
     8  H   -0.077037
     9  H   -0.127154
    10  C    0.407277
    11  H   -0.119548
    12  H   -0.144282
    13  H   -0.067646
    14  H   -0.062301
    15  H   -0.076455
    16  H   -0.146171
 Sum of Mulliken charges =  -0.00000

 Dipole moment (field-independent basis, Debye):
    X=              1.8955    Y=              1.1654    Z=              0.2136  Tot=              2.2353

 Test job not archived.
 1\1\GINC-SE252\SP\RHF\Aug-CC-pVDZ\C4H9N1O2\OHZDE\08-Apr-2025\0\\#t hf
 aug-cc-pvdz iop(5/13=1,5/36=2,99/5=2) pseudo=read geom=check guess=(re
 ad,tcheck) scf=(maxcycle=1)\\title\\0,1\O,0,-1.043014,-0.485583,-0.440
 803\N,0,-2.402127,-0.704813,-0.185761\O,0,-2.94049,0.162265,0.408777\C
 ,0,-0.479142,0.756414,0.050619\C,0,0.997429,0.755141,-0.309246\H,0,-0.
 638525,0.81344,1.132163\C,0,1.810664,-0.335356,0.397794\H,0,1.399029,1
 .74296,-0.052177\H,0,1.096172,0.651459,-1.395258\C,0,3.291685,-0.31453
 5,0.011993\H,0,1.379048,-1.311814,0.159914\H,0,1.711718,-0.209124,1.48

 Normal termination of Gaussian 16 at Tue Apr  8 22:51:06 2025.
