 Gaussian 16, Revision C.01,

 ----------------------------------------------------------------------
 #t hf aug-cc-pvdz symm=none int=(grid=ultrafine) guess=(read,tcheck) s
 table=opt
 ----------------------------------------------------------------------
 -----
 title
 -----
 Symbolic Z-matrix:
 Charge =  0 Multiplicity = 2

 SCF Done:  E(UHF) =  -984.319517069     A.U. after   18 cycles
 Normal termination of Gaussian 16 at Wed Apr  9 00:16:40 2025.
 Gaussian 16:  ES64L-G16RevC.01  3-Jul-2019

 ----------------------------------------------------------------------
 #t hf aug-cc-pvdz iop(5/13=1,5/36=2,99/5=2) pseudo=read geom=check gue
 ss=(read,tcheck) scf=(maxcycle=1)
 ----------------------------------------------------------------------
 -----
 title
 -----
 Structure from the checkpoint file:  "BDE49_nonexpt_2579_mol2.chk"
 Charge =  0 Multiplicity = 2

                         Standard orientation:
 ---------------------------------------------------------------------
 Center     Atomic      Atomic             Coordinates (Angstroms)
 Number     Number       Type             X           Y           Z
 ---------------------------------------------------------------------
      1         16           0        1.687826    0.222074   -0.000009
      2         16           0       -0.354970   -0.205874    0.000002
      3          8           0       -0.639824   -0.852084    1.263291
      4          6           0       -1.177189    1.390363    0.000001
      5          8           0       -0.639837   -0.852091   -1.263279
      6          1           0       -0.889166    1.928707    0.900668
      7          1           0       -2.246942    1.174607    0.000007
      8          1           0       -0.889175    1.928702   -0.900671
 ---------------------------------------------------------------------

 SCF Done:  E(UHF) =  -984.471164884     A.U. after    2 cycles

 The electronic state is 2-A.
 Alpha  occ. eigenvalues --  -93.81556 -93.61210 -20.58430 -20.58428 -11.30698
 Alpha  occ. eigenvalues --   -9.08143  -8.91009  -6.42748  -6.42531  -6.42404
 Alpha  occ. eigenvalues --   -6.26285  -6.24644  -6.24121  -1.44415  -1.33228
 Alpha  occ. eigenvalues --   -1.07315  -1.01471  -0.82527  -0.70189  -0.69763
 Alpha  occ. eigenvalues --   -0.69004  -0.62980  -0.62071  -0.56357  -0.53164
 Alpha  occ. eigenvalues --   -0.52366  -0.48333  -0.46592  -0.43841
 Alpha virt. eigenvalues --    0.02875   0.05242   0.05379   0.05803   0.08395
 Alpha virt. eigenvalues --    0.10980   0.11692   0.11989   0.12697   0.13032
 Alpha virt. eigenvalues --    0.15094   0.15772   0.16053   0.16471   0.19972

  Beta  occ. eigenvalues --  -93.81592 -93.60287 -20.58289 -20.58288 -11.30719
  Beta  occ. eigenvalues --   -9.08189  -8.89986  -6.42792  -6.42634  -6.42445
  Beta  occ. eigenvalues --   -6.24089  -6.23564  -6.22231  -1.44192  -1.32856
  Beta  occ. eigenvalues --   -1.06200  -0.95802  -0.80415  -0.69961  -0.68608
  Beta  occ. eigenvalues --   -0.68144  -0.62868  -0.61777  -0.54318  -0.52418
  Beta  occ. eigenvalues --   -0.51507  -0.45542  -0.41548
  Beta virt. eigenvalues --   -0.03245   0.02940   0.05403   0.05444   0.06381
  Beta virt. eigenvalues --    0.08624   0.11431   0.12038   0.12740   0.13187
  Beta virt. eigenvalues --    0.13284   0.15114   0.15982   0.16195   0.16787

 Mulliken charges and spin densities:
               1          2
     1  S    0.119349   1.053709
     2  S    1.962027  -0.060587
     3  O   -1.028755   0.012978
     4  C   -0.079748  -0.016070
     5  O   -1.028754   0.012978
     6  H    0.009907  -0.001314
     7  H    0.036069  -0.000380
     8  H    0.009905  -0.001314
 Sum of Mulliken charges =   0.00000   1.00000

 Dipole moment (field-independent basis, Debye):
    X=              0.6015    Y=              4.5966    Z=             -0.0000  Tot=              4.6358
                          Isotropic Fermi Contact Couplings
        Atom                 a.u.       MegaHertz       Gauss      10(-4) cm-1
     1  S(33)              0.17992      61.79631      22.05046      20.61303
     2  S(33)             -0.02996     -10.29151      -3.67227      -3.43288
     3  O(17)              0.01379      -8.36213      -2.98382      -2.78931
     4  C(13)             -0.00425      -4.77510      -1.70387      -1.59280
     5  O(17)              0.01379      -8.36205      -2.98379      -2.78928
     6  H(1)               0.00019       0.85632       0.30556       0.28564
     7  H(1)              -0.00046      -2.03608      -0.72652      -0.67916
     8  H(1)               0.00019       0.85632       0.30556       0.28564

 Normal termination of Gaussian 16 at Wed Apr  9 00:16:43 2025.
