 Gaussian 16, Revision C.01,

 ----------------------------------------------------------------------
 #t hf aug-cc-pvdz symm=none int=(grid=ultrafine) guess=(read,tcheck) s
 table=(opt,rrhf)
 ----------------------------------------------------------------------
 -----
 title
 -----
 Symbolic Z-matrix:
 Charge =  0 Multiplicity = 1

 SCF Done:  E(RHF) =  -773.235122577     A.U. after   16 cycles
 Normal termination of Gaussian 16 at Tue Apr  8 23:10:39 2025.
 Gaussian 16:  ES64L-G16RevC.01  3-Jul-2019

 ----------------------------------------------------------------------
 #t hf aug-cc-pvdz iop(5/13=1,5/36=2,99/5=2) pseudo=read geom=check gue
 ss=(read,tcheck) scf=(maxcycle=1)
 ----------------------------------------------------------------------
 -----
 title
 -----
 Structure from the checkpoint file:  "BDE49_expt_490_mol1.chk"
 Charge =  0 Multiplicity = 1

                         Standard orientation:
 ---------------------------------------------------------------------
 Center     Atomic      Atomic             Coordinates (Angstroms)
 Number     Number       Type             X           Y           Z
 ---------------------------------------------------------------------
      1          6           0        0.679681   -1.046760   -0.033975
      2          6           0       -0.702040   -0.897123   -0.021683
      3          6           0        1.523348    0.062477   -0.037618
      4          6           0        0.971353    1.343835   -0.027251
      5          6           0       -0.404634    1.505110   -0.014930
      6          6           0       -1.257119    0.390192   -0.010173
      7          1           0       -1.353581   -1.756267   -0.023297
      8          1           0        1.103506   -2.043003   -0.049674
      9          1           0        1.617269    2.212572   -0.038372
     10          1           0       -0.825769    2.505557   -0.011846
     11          7           0       -2.641639    0.635424    0.001853
     12          6           0       -3.684702   -0.271855    0.007089
     13          8           0       -3.535665   -1.476928    0.000773
     14          6           0       -5.066390    0.361410    0.022896
     15          1           0       -5.062774    1.453167    0.017078
     16          1           0       -5.594959    0.012388    0.912133
     17          1           0       -5.619329    0.002635   -0.847271
     18          1           0       -2.901113    1.609592    0.007826
     19          6           0        3.012389   -0.113950    0.004494
     20          9           0        3.406942   -1.269367   -0.573832
     21          9           0        3.661115    0.892437   -0.625575
     22          9           0        3.485523   -0.137427    1.275094
 ---------------------------------------------------------------------

 SCF Done:  E(RHF) =  -773.486346437     A.U. after    2 cycles

 The electronic state is 1-A.
 Alpha  occ. eigenvalues --  -26.15889 -26.15872 -26.15326 -20.55733 -15.68730
 Alpha  occ. eigenvalues --  -11.52360 -11.39102 -11.32291 -11.27589 -11.27224
 Alpha  occ. eigenvalues --  -11.27083 -11.26629 -11.26625 -11.25407  -1.75091
 Alpha  occ. eigenvalues --   -1.68292  -1.67757  -1.37177  -1.24490  -1.16663
 Alpha  occ. eigenvalues --   -1.07762  -1.03719  -1.02300  -0.98352  -0.89708
 Alpha  occ. eigenvalues --   -0.88473  -0.86760  -0.85665  -0.82279  -0.79657
 Alpha  occ. eigenvalues --   -0.76573  -0.76324  -0.74545  -0.72115  -0.71722
 Alpha  occ. eigenvalues --   -0.70756  -0.70457  -0.67778  -0.64517  -0.64495
 Alpha  occ. eigenvalues --   -0.63749  -0.61633  -0.61021  -0.58284  -0.57210
 Alpha  occ. eigenvalues --   -0.55617  -0.52846  -0.52544  -0.46828  -0.45585
 Alpha  occ. eigenvalues --   -0.36480  -0.33640
 Alpha virt. eigenvalues --    0.01846   0.03415   0.04395   0.05343   0.05436
 Alpha virt. eigenvalues --    0.06099   0.07668   0.07704   0.08164   0.09191
 Alpha virt. eigenvalues --    0.09505   0.09885   0.10443   0.11357   0.11706

 Mulliken charges:
               1
     1  C    0.072853
     2  C    0.759618
     3  C    1.223806
     4  C    0.094633
     5  C    0.897353
     6  C    0.075732
     7  H   -0.646754
     8  H   -0.569652
     9  H   -0.563938
    10  H   -0.720807
    11  N   -0.399824
    12  C    0.102615
    13  O   -0.531738
    14  C    0.580138
    15  H   -0.192318
    16  H    0.042188
    17  H    0.041195
    18  H   -0.030057
    19  C    0.766835
    20  F   -0.329712
    21  F   -0.334163
    22  F   -0.338005
 Sum of Mulliken charges =   0.00000

 Dipole moment (field-independent basis, Debye):
    X=             -4.5385    Y=              4.2483    Z=             -0.0742  Tot=              6.2170

 Test job not archived.
 1\1\GINC-SE038\SP\RHF\Aug-CC-pVDZ\C9H8F3N1O1\OHZDE\08-Apr-2025\0\\#t h
 f aug-cc-pvdz iop(5/13=1,5/36=2,99/5=2) pseudo=read geom=check guess=(
 read,tcheck) scf=(maxcycle=1)\\title\\0,1\C,0,0.679681,-1.04676,-0.033
 975\C,0,-0.70204,-0.897123,-0.021683\C,0,1.523348,0.062477,-0.037618\C
 ,0,0.971353,1.343835,-0.027251\C,0,-0.404634,1.50511,-0.01493\C,0,-1.2
 57119,0.390192,-0.010173\H,0,-1.353581,-1.756267,-0.023297\H,0,1.10350
 6,-2.043003,-0.049674\H,0,1.617269,2.212572,-0.038372\H,0,-0.825769,2.
 505557,-0.011846\N,0,-2.641639,0.635424,0.001853\C,0,-3.684702,-0.2718

 Normal termination of Gaussian 16 at Tue Apr  8 23:10:57 2025.
