 Gaussian 16, Revision C.01,

 ----------------------------------------------------------------------
 #t hf aug-cc-pvdz symm=none int=(grid=ultrafine) guess=(read,tcheck) s
 table=opt
 ----------------------------------------------------------------------
 -----
 title
 -----
 Symbolic Z-matrix:
 Charge =  0 Multiplicity = 2

 SCF Done:  E(UHF) =  -1029.91622157     A.U. after   24 cycles
 Normal termination of Gaussian 16 at Tue Apr  8 22:54:23 2025.
 Gaussian 16:  ES64L-G16RevC.01  3-Jul-2019

 ----------------------------------------------------------------------
 #t hf aug-cc-pvdz iop(5/13=1,5/36=2,99/5=2) pseudo=read geom=check gue
 ss=(read,tcheck) scf=(maxcycle=1)
 ----------------------------------------------------------------------
 -----
 title
 -----
 Structure from the checkpoint file:  "BDE49_expt_1721_mol2.chk"
 Charge =  0 Multiplicity = 2

                         Standard orientation:
 ---------------------------------------------------------------------
 Center     Atomic      Atomic             Coordinates (Angstroms)
 Number     Number       Type             X           Y           Z
 ---------------------------------------------------------------------
      1          6           0        0.982253   -0.366423   -0.136180
      2          8           0        0.689110   -1.506291    0.144319
      3          6           0        0.015467    0.751825   -0.070371
      4          8           0        2.205213    0.041348   -0.514617
      5         17           0        0.579406    2.350462    0.100655
      6          6           0        3.243466   -0.973304   -0.559629
      7          6           0        3.889728   -1.163427    0.802253
      8          1           0        3.953014   -0.588874   -1.291697
      9          1           0        2.806588   -1.902910   -0.926073
     10          1           0        4.280614   -0.216810    1.181637
     11          1           0        4.720428   -1.869830    0.718545
     12          1           0        3.172457   -1.565222    1.519646
     13          6           0       -1.460439    0.574858   -0.032770
     14          8           0       -2.212276    1.391018    0.445270
     15          8           0       -1.830562   -0.567800   -0.624458
     16          6           0       -3.246941   -0.888851   -0.598251
     17          6           0       -3.625799   -1.583446    0.698846
     18          1           0       -3.380827   -1.543520   -1.458767
     19          1           0       -3.816725    0.029785   -0.742974
     20          1           0       -2.999655   -2.463206    0.860104
     21          1           0       -4.670674   -1.903198    0.652734
     22          1           0       -3.513404   -0.907661    1.548216
 ---------------------------------------------------------------------

 SCF Done:  E(UHF) =  -1030.11653892     A.U. after    2 cycles

 The electronic state is 2-A.
 Alpha  occ. eigenvalues -- -103.69270 -20.62762 -20.62356 -20.58916 -20.58285
 Alpha  occ. eigenvalues --  -11.41770 -11.41557 -11.36060 -11.31074 -11.30632
 Alpha  occ. eigenvalues --  -11.24055 -11.23519 -10.72547  -8.38189  -8.38136
 Alpha  occ. eigenvalues --   -8.37933  -1.44164  -1.43203  -1.35072  -1.34478
 Alpha  occ. eigenvalues --   -1.22686  -1.06517  -1.04485  -1.00303  -0.91851
 Alpha  occ. eigenvalues --   -0.87673  -0.81502  -0.78029  -0.76282  -0.72169
 Alpha  occ. eigenvalues --   -0.71529  -0.69142  -0.67999  -0.66769  -0.63722
 Alpha  occ. eigenvalues --   -0.61899  -0.60537  -0.59434  -0.58279  -0.56511
 Alpha  occ. eigenvalues --   -0.55216  -0.54829  -0.54401  -0.52309  -0.51251
 Alpha  occ. eigenvalues --   -0.50792  -0.50025  -0.49281  -0.48633  -0.47283
 Alpha  occ. eigenvalues --   -0.40555
 Alpha virt. eigenvalues --    0.03338   0.03832   0.04716   0.05082   0.05316
 Alpha virt. eigenvalues --    0.05674   0.06032   0.07478   0.07687   0.08165
 Alpha virt. eigenvalues --    0.08487   0.09925   0.11283   0.12177   0.12311

  Beta  occ. eigenvalues -- -103.69206 -20.62827 -20.62367 -20.57893 -20.57495
  Beta  occ. eigenvalues --  -11.42362 -11.42063 -11.33602 -11.31078 -11.30636
  Beta  occ. eigenvalues --  -11.24051 -11.23515 -10.72479  -8.38378  -8.37894
  Beta  occ. eigenvalues --   -8.37662  -1.43612  -1.42843  -1.33671  -1.33254
  Beta  occ. eigenvalues --   -1.20583  -1.05369  -1.04467  -0.97337  -0.91795
  Beta  occ. eigenvalues --   -0.86730  -0.81133  -0.77777  -0.76078  -0.70970
  Beta  occ. eigenvalues --   -0.70304  -0.68394  -0.67160  -0.66063  -0.63412
  Beta  occ. eigenvalues --   -0.61498  -0.58964  -0.58406  -0.55922  -0.54873
  Beta  occ. eigenvalues --   -0.54380  -0.54281  -0.51398  -0.51262  -0.50604
  Beta  occ. eigenvalues --   -0.50146  -0.48672  -0.47040  -0.46629  -0.46466
  Beta virt. eigenvalues --    0.01315   0.03351   0.03833   0.04721   0.05095
  Beta virt. eigenvalues --    0.05316   0.05684   0.06037   0.07489   0.07689
  Beta virt. eigenvalues --    0.08192   0.08659   0.10074   0.11325   0.12228

 Mulliken charges and spin densities:
               1          2
     1  C    0.491088  -0.392343
     2  O   -0.444061   0.232598
     3  C    0.261803   1.276130
     4  O   -0.558253  -0.008645
     5  Cl  -0.238432   0.055983
     6  C    0.749027  -0.003677
     7  C    0.257042   0.001276
     8  H   -0.290147  -0.000069
     9  H   -0.056238  -0.000582
    10  H   -0.061238   0.000036
    11  H   -0.036962   0.000253
    12  H   -0.068589   0.000753
    13  C    0.422106  -0.341921
    14  O   -0.421927   0.179888
    15  O   -0.472931   0.002181
    16  C    0.714760  -0.003743
    17  C    0.301423   0.002268
    18  H   -0.290132  -0.000429
    19  H   -0.077260  -0.000480
    20  H   -0.052154  -0.000206
    21  H   -0.048875   0.000447
    22  H   -0.080048   0.000281
 Sum of Mulliken charges =   0.00000   1.00000

 Dipole moment (field-independent basis, Debye):
    X=              1.3587    Y=             -1.7898    Z=             -1.1071  Tot=              2.5050
                          Isotropic Fermi Contact Couplings
        Atom                 a.u.       MegaHertz       Gauss      10(-4) cm-1
     1  C(13)             -0.08981    -100.96010     -36.02507     -33.67666
     2  O(17)              0.08733     -52.93834     -18.88971     -17.65833
     3  C(13)              0.23409     263.16056      93.90223      87.78091
     4  O(17)             -0.01424       8.63488       3.08114       2.88029
     5  Cl(35)             0.03679      16.13314       5.75670       5.38144
     6  C(13)             -0.00067      -0.74978      -0.26754      -0.25010
     7  C(13)              0.00109       1.22011       0.43537       0.40699
     8  H(1)              -0.00001      -0.06231      -0.02223      -0.02078

 Normal termination of Gaussian 16 at Tue Apr  8 22:54:39 2025.
