 Gaussian 16, Revision C.01,

 ----------------------------------------------------------------------
 #t hf aug-cc-pvdz symm=none int=(grid=ultrafine) guess=(read,tcheck) s
 table=(opt,rrhf)
 ----------------------------------------------------------------------
 -----
 title
 -----
 Symbolic Z-matrix:
 Charge =  0 Multiplicity = 1

 SCF Done:  E(RHF) =  -710.653796917     A.U. after   11 cycles
 Normal termination of Gaussian 16 at Tue Apr  8 23:42:27 2025.
 Gaussian 16:  ES64L-G16RevC.01  3-Jul-2019

 ----------------------------------------------------------------------
 #t hf aug-cc-pvdz iop(5/13=1,5/36=2,99/5=2) pseudo=read geom=check gue
 ss=(read,tcheck) scf=(maxcycle=1)
 ----------------------------------------------------------------------
 -----
 title
 -----
 Structure from the checkpoint file:  "BDE49_nonexpt_1694_mol1.chk"
 Charge =  0 Multiplicity = 1

                         Standard orientation:
 ---------------------------------------------------------------------
 Center     Atomic      Atomic             Coordinates (Angstroms)
 Number     Number       Type             X           Y           Z
 ---------------------------------------------------------------------
      1         15           0        0.497082    0.000000   -0.647447
      2          6           0        1.169997    1.434858    0.343739
      3          1           0        0.973510    1.354383    1.416045
      4          1           0        0.736932    2.366633   -0.027126
      5          1           0        2.250903    1.488454    0.189585
      6         14           0       -1.644120    0.000000    0.115497
      7          6           0        1.169997   -1.434858    0.343739
      8          1           0        2.250903   -1.488454    0.189585
      9          1           0        0.736932   -2.366633   -0.027126
     10          1           0        0.973510   -1.354383    1.416045
     11          1           0       -2.340200    1.206123   -0.394054
     12          1           0       -1.720810    0.000000    1.600983
     13          1           0       -2.340200   -1.206123   -0.394053
 ---------------------------------------------------------------------

 SCF Done:  E(RHF) =  -710.723790015     A.U. after    2 cycles

 The electronic state is 1-A.
 Alpha  occ. eigenvalues --  -81.24321 -69.06528 -11.24065 -11.24065  -7.74720
 Alpha  occ. eigenvalues --   -6.81840  -4.88664  -4.88615  -4.88344  -3.92584
 Alpha  occ. eigenvalues --   -3.92579  -3.92569  -0.98117  -0.93566  -0.74020
 Alpha  occ. eigenvalues --   -0.65729  -0.59032  -0.58400  -0.56352  -0.56001
 Alpha  occ. eigenvalues --   -0.48725  -0.48422  -0.45584  -0.41057  -0.31992
 Alpha virt. eigenvalues --    0.03459   0.04738   0.04764   0.05555   0.06370
 Alpha virt. eigenvalues --    0.06799   0.07181   0.07506   0.08755   0.09724
 Alpha virt. eigenvalues --    0.10019   0.10839   0.11256   0.12162   0.12802

 Mulliken charges:
               1
     1  P    0.281597
     2  C    0.302953
     3  H   -0.168212
     4  H   -0.192555
     5  H   -0.173108
     6  Si   0.071327
     7  C    0.302953
     8  H   -0.173108
     9  H   -0.192555
    10  H   -0.168212
    11  H    0.019807
    12  H    0.069304
    13  H    0.019808
 Sum of Mulliken charges =  -0.00000

 Dipole moment (field-independent basis, Debye):
    X=              0.6862    Y=             -0.0000    Z=              1.1151  Tot=              1.3093

 Test job not archived.
 1\1\GINC-SE038\SP\RHF\Aug-CC-pVDZ\C2H9P1Si1\OHZDE\08-Apr-2025\0\\#t hf
  aug-cc-pvdz iop(5/13=1,5/36=2,99/5=2) pseudo=read geom=check guess=(r
 ead,tcheck) scf=(maxcycle=1)\\title\\0,1\P,0,0.497082,0.,-0.647447\C,0
 ,1.169997,1.434858,0.343739\H,0,0.97351,1.354383,1.416045\H,0,0.736932
 ,2.366633,-0.027126\H,0,2.250903,1.488454,0.189585\Si,0,-1.64412,0.,0.
 115497\C,0,1.169997,-1.434858,0.343739\H,0,2.250903,-1.488454,0.189585
 \H,0,0.736932,-2.366633,-0.027126\H,0,0.97351,-1.354383,1.416045\H,0,-
 2.3402,1.206123,-0.394054\H,0,-1.72081,0.,1.600983\H,0,-2.3402,-1.2061

 Normal termination of Gaussian 16 at Tue Apr  8 23:42:34 2025.
