 Gaussian 16, Revision C.01,

 ----------------------------------------------------------------------
 #t hf aug-cc-pvdz symm=none int=(grid=ultrafine) guess=(read,tcheck) s
 table=(opt,rrhf)
 ----------------------------------------------------------------------
 -----
 title
 -----
 Symbolic Z-matrix:
 Charge =  0 Multiplicity = 1

 SCF Done:  E(RHF) =  -333.164970528     A.U. after   13 cycles
 Normal termination of Gaussian 16 at Wed Apr  9 00:32:44 2025.
 Gaussian 16:  ES64L-G16RevC.01  3-Jul-2019

 ----------------------------------------------------------------------
 #t hf aug-cc-pvdz iop(5/13=1,5/36=2,99/5=2) pseudo=read geom=check gue
 ss=(read,tcheck) scf=(maxcycle=1)
 ----------------------------------------------------------------------
 -----
 title
 -----
 Structure from the checkpoint file:  "BDE49_nonexpt_424_mol1.chk"
 Charge =  0 Multiplicity = 1

                         Standard orientation:
 ---------------------------------------------------------------------
 Center     Atomic      Atomic             Coordinates (Angstroms)
 Number     Number       Type             X           Y           Z
 ---------------------------------------------------------------------
      1          9           0        1.118897    1.141295   -0.059868
      2          5           0        0.461180   -0.000002    0.040041
      3          9           0        1.118935   -1.141279   -0.059884
      4          7           0       -0.928852   -0.000021    0.442008
      5          7           0       -1.884042    0.000022   -0.347511
      6          1           0       -2.756129   -0.000142    0.216084
 ---------------------------------------------------------------------

 SCF Done:  E(RHF) =  -333.288611935     A.U. after    2 cycles

 The electronic state is 1-A.
 Alpha  occ. eigenvalues --  -26.15659 -26.15653 -15.73306 -15.70416  -7.77569
 Alpha  occ. eigenvalues --   -1.70952  -1.68886  -1.33324  -0.97200  -0.88373
 Alpha  occ. eigenvalues --   -0.84202  -0.79066  -0.78546  -0.74001  -0.73539
 Alpha  occ. eigenvalues --   -0.69275  -0.64768  -0.53718  -0.40298
 Alpha virt. eigenvalues --    0.03683   0.05128   0.05426   0.05510   0.08050
 Alpha virt. eigenvalues --    0.08108   0.13043   0.15257   0.16764   0.18362
 Alpha virt. eigenvalues --    0.19129   0.20527   0.20732   0.23383   0.24108

 Mulliken charges:
               1
     1  F   -0.376324
     2  B    0.934776
     3  F   -0.376327
     4  N   -0.237995
     5  N   -0.059535
     6  H    0.115405
 Sum of Mulliken charges =  -0.00000

 Dipole moment (field-independent basis, Debye):
    X=             -1.7902    Y=             -0.0002    Z=              0.4720  Tot=              1.8513

 Test job not archived.
 1\1\GINC-SE016\SP\RHF\Aug-CC-pVDZ\B1F2H1N2\OHZDE\09-Apr-2025\0\\#t hf
 aug-cc-pvdz iop(5/13=1,5/36=2,99/5=2) pseudo=read geom=check guess=(re
 ad,tcheck) scf=(maxcycle=1)\\title\\0,1\F,0,1.118897,1.141295,-0.05986
 8\B,0,0.46118,-0.000002,0.040041\F,0,1.118935,-1.141279,-0.059884\N,0,
 -0.928852,-0.000021,0.442008\N,0,-1.884042,0.000022,-0.347511\H,0,-2.7
 56129,-0.000142,0.216084\\Version=ES64L-G16RevC.01\State=1-A\HF=-333.2
 886119\RMSD=5.471e-03\Dipole=-0.7043065,-0.0000713,0.185688\Quadrupole
 =2.3287789,-1.9531151,-0.3756638,0.0004277,-0.9230348,0.0001455\PG=C01

 Normal termination of Gaussian 16 at Wed Apr  9 00:32:53 2025.
