 Gaussian 16, Revision C.01,

 ----------------------------------------------------------------------
 #t hf aug-cc-pvdz symm=none int=(grid=ultrafine) guess=(read,tcheck) s
 table=(opt,rrhf)
 ----------------------------------------------------------------------
 -----
 title
 -----
 Symbolic Z-matrix:
 Charge =  0 Multiplicity = 1

 SCF Done:  E(RHF) =  -1221.81061305     A.U. after   17 cycles
 Normal termination of Gaussian 16 at Tue Apr  8 23:26:08 2025.
 Gaussian 16:  ES64L-G16RevC.01  3-Jul-2019

 ----------------------------------------------------------------------
 #t hf aug-cc-pvdz iop(5/13=1,5/36=2,99/5=2) pseudo=read geom=check gue
 ss=(read,tcheck) scf=(maxcycle=1)
 ----------------------------------------------------------------------
 -----
 title
 -----
 Structure from the checkpoint file:  "BDE49_nonexpt_1234_mol1.chk"
 Charge =  0 Multiplicity = 1

                         Standard orientation:
 ---------------------------------------------------------------------
 Center     Atomic      Atomic             Coordinates (Angstroms)
 Number     Number       Type             X           Y           Z
 ---------------------------------------------------------------------
      1          6           0       -1.508339    2.025055   -1.165005
      2          1           0       -2.466259    2.505607   -1.370929
      3          1           0       -0.989820    1.881907   -2.118103
      4          1           0       -0.902595    2.710094   -0.567125
      5         17           0        2.015741   -1.624258   -0.850044
      6          8           0        1.147896    2.144416    0.954735
      7         15           0        1.008264    0.238144   -0.864087
      8          6           0        2.772116    0.482705    1.547707
      9          1           0        3.015163    1.167133    2.360973
     10          1           0        3.653289    0.303655    0.925796
     11          1           0        2.467602   -0.488376    1.946960
     12          6           0       -0.666864   -0.202591   -0.209361
     13          6           0        1.662497    1.077166    0.721265
     14          6           0       -1.717069    0.713401   -0.443747
     15          6           0       -0.919812   -1.397840    0.472700
     16          1           0       -0.116628   -2.105392    0.634301
     17          6           0       -3.236924   -0.802439    0.711177
     18          1           0       -4.238139   -1.027482    1.061119
     19          6           0       -2.991022    0.386062    0.031448
     20          1           0       -3.805732    1.080725   -0.143874
     21          6           0       -2.197239   -1.700021    0.931985
     22          1           0       -2.375658   -2.631972    1.456032
 ---------------------------------------------------------------------

 SCF Done:  E(RHF) =  -1221.97498232     A.U. after    2 cycles

 The electronic state is 1-A.
 Alpha  occ. eigenvalues -- -103.66330 -81.32425 -20.58747 -11.36620 -11.27070
 Alpha  occ. eigenvalues --  -11.26699 -11.25984 -11.25769 -11.25692 -11.25082
 Alpha  occ. eigenvalues --  -11.24935 -11.23671 -10.69638  -8.35336  -8.35080
 Alpha  occ. eigenvalues --   -8.35067  -7.82290  -4.96266  -4.96155  -4.95861
 Alpha  occ. eigenvalues --   -1.37801  -1.16000  -1.14217  -1.05091  -1.02419
 Alpha  occ. eigenvalues --   -1.01829  -0.94042  -0.86503  -0.82414  -0.80348
 Alpha  occ. eigenvalues --   -0.73386  -0.69683  -0.66063  -0.65317  -0.64639
 Alpha  occ. eigenvalues --   -0.62468  -0.62085  -0.58866  -0.58467  -0.57016
 Alpha  occ. eigenvalues --   -0.56138  -0.54770  -0.53342  -0.50959  -0.50625
 Alpha  occ. eigenvalues --   -0.49728  -0.49245  -0.48611  -0.42216  -0.38058
 Alpha  occ. eigenvalues --   -0.34333  -0.33242
 Alpha virt. eigenvalues --    0.03213   0.03865   0.04070   0.04964   0.05735
 Alpha virt. eigenvalues --    0.05838   0.06645   0.07162   0.07259   0.07827
 Alpha virt. eigenvalues --    0.08224   0.08856   0.09743   0.10208   0.10731

 Mulliken charges:
               1
     1  C    0.427250
     2  H   -0.260810
     3  H    0.152648
     4  H    0.108878
     5  Cl  -0.524401
     6  O   -0.547585
     7  P    0.463724
     8  C    0.275428
     9  H   -0.076954
    10  H    0.059361
    11  H    0.050448
    12  C    0.179729
    13  C    0.105519
    14  C   -0.540562
    15  C    0.328845
    16  H   -0.616644
    17  C    0.321679
    18  H   -0.447667
    19  C    1.109168
    20  H   -0.583137
    21  C    0.481684
    22  H   -0.466601
 Sum of Mulliken charges =  -0.00000

 Dipole moment (field-independent basis, Debye):
    X=             -0.6522    Y=             -0.9890    Z=              0.7383  Tot=              1.3959

 Test job not archived.
 1\1\GINC-SE250\SP\RHF\Aug-CC-pVDZ\C9H10Cl1O1P1\OHZDE\08-Apr-2025\0\\#t
  hf aug-cc-pvdz iop(5/13=1,5/36=2,99/5=2) pseudo=read geom=check guess
 =(read,tcheck) scf=(maxcycle=1)\\title\\0,1\C,0,-1.508339,2.025055,-1.
 165005\H,0,-2.466259,2.505607,-1.370929\H,0,-0.98982,1.881907,-2.11810
 3\H,0,-0.902595,2.710094,-0.567125\Cl,0,2.015741,-1.624258,-0.850044\O
 ,0,1.147896,2.144416,0.954735\P,0,1.008264,0.238144,-0.864087\C,0,2.77
 2116,0.482705,1.547707\H,0,3.015163,1.167132,2.360973\H,0,3.653289,0.3
 03654,0.925796\H,0,2.467602,-0.488376,1.94696\C,0,-0.666864,-0.202591,

 Normal termination of Gaussian 16 at Tue Apr  8 23:26:26 2025.
