 Gaussian 16, Revision C.01,

 ----------------------------------------------------------------------
 #t hf aug-cc-pvdz symm=none int=(grid=ultrafine) guess=(read,tcheck) s
 table=(opt,rrhf)
 ----------------------------------------------------------------------
 -----
 title
 -----
 Symbolic Z-matrix:
 Charge =  0 Multiplicity = 1

 SCF Done:  E(RHF) =  -175.654021963     A.U. after   11 cycles
 Normal termination of Gaussian 16 at Wed Apr  9 00:36:00 2025.
 Gaussian 16:  ES64L-G16RevC.01  3-Jul-2019

 ----------------------------------------------------------------------
 #t hf aug-cc-pvdz iop(5/13=1,5/36=2,99/5=2) pseudo=read geom=check gue
 ss=(read,tcheck) scf=(maxcycle=1)
 ----------------------------------------------------------------------
 -----
 title
 -----
 Structure from the checkpoint file:  "BDE49_nonexpt_563_mol1.chk"
 Charge =  0 Multiplicity = 1

                         Standard orientation:
 ---------------------------------------------------------------------
 Center     Atomic      Atomic             Coordinates (Angstroms)
 Number     Number       Type             X           Y           Z
 ---------------------------------------------------------------------
      1          5           0        0.055952   -0.000000   -0.010083
      2          7           0        0.760122   -1.232908   -0.002656
      3          7           0        0.760121    1.232910   -0.002656
      4          6           0       -1.533332   -0.000001    0.000752
      5          1           0       -1.955629   -0.881705   -0.491842
      6          1           0       -1.955630    0.881688   -0.491868
      7          1           0       -1.912314    0.000014    1.029868
      8          1           0        1.763800   -1.310880    0.024739
      9          1           0        0.287254   -2.120006   -0.006277
     10          1           0        1.763798    1.310883    0.024739
     11          1           0        0.287249    2.120006   -0.006277
 ---------------------------------------------------------------------

 SCF Done:  E(RHF) =  -175.713114088     A.U. after    2 cycles

 The electronic state is 1-A.
 Alpha  occ. eigenvalues --  -15.59057 -15.59054 -11.19034  -7.59589  -1.12062
 Alpha  occ. eigenvalues --   -1.07846  -0.91968  -0.69606  -0.66540  -0.65221
 Alpha  occ. eigenvalues --   -0.58070  -0.53913  -0.51788  -0.46341  -0.44096
 Alpha  occ. eigenvalues --   -0.36934
 Alpha virt. eigenvalues --    0.03258   0.04620   0.04628   0.05132   0.07166
 Alpha virt. eigenvalues --    0.07287   0.08573   0.09631   0.10040   0.10550
 Alpha virt. eigenvalues --    0.10807   0.15908   0.16389   0.17597   0.18687

 Mulliken charges:
               1
     1  B    0.825205
     2  N   -0.213630
     3  N   -0.213633
     4  C    0.562826
     5  H   -0.288171
     6  H   -0.288166
     7  H   -0.133822
     8  H   -0.056737
     9  H   -0.068567
    10  H   -0.056741
    11  H   -0.068564
 Sum of Mulliken charges =  -0.00000

 Dipole moment (field-independent basis, Debye):
    X=              0.9812    Y=             -0.0000    Z=              0.0821  Tot=              0.9847

 Test job not archived.
 1\1\GINC-SE099\SP\RHF\Aug-CC-pVDZ\C1H7B1N2\OHZDE\09-Apr-2025\0\\#t hf
 aug-cc-pvdz iop(5/13=1,5/36=2,99/5=2) pseudo=read geom=check guess=(re
 ad,tcheck) scf=(maxcycle=1)\\title\\0,1\B,0,0.055952,0.,-0.010083\N,0,
 0.760123,-1.232908,-0.002656\N,0,0.76012,1.23291,-0.002656\C,0,-1.5333
 32,-0.000002,0.000752\H,0,-1.955629,-0.881706,-0.491842\H,0,-1.955631,
 0.881687,-0.491868\H,0,-1.912314,0.000013,1.029868\H,0,1.763801,-1.310
 879,0.024739\H,0,0.287255,-2.120006,-0.006277\H,0,1.763797,1.310884,0.
 024739\H,0,0.287248,2.120006,-0.006277\\Version=ES64L-G16RevC.01\State

 Normal termination of Gaussian 16 at Wed Apr  9 00:36:03 2025.
