 Gaussian 16, Revision C.01,

 ----------------------------------------------------------------------
 #t hf aug-cc-pvdz symm=none int=(grid=ultrafine) guess=(read,tcheck) s
 table=(opt,rrhf)
 ----------------------------------------------------------------------
 -----
 title
 -----
 Symbolic Z-matrix:
 Charge =  0 Multiplicity = 1

 SCF Done:  E(RHF) =  -1354.37366272     A.U. after   13 cycles

 1\1\GINC-SE070\Stability\RHF\Aug-CC-pVDZ\C1Cl2S1\OHZDE\08-Apr-2025\0\\
 #t hf aug-cc-pvdz symm=none int=(grid=ultrafine) guess=(read,tcheck) s
 table=(opt,rrhf)\\title\\0,1\C,0,0.145393,-0.000001,0.000437\S,0,1.744
 716,-0.000012,-0.000071\Cl,0,-0.84669,1.439556,-0.000044\Cl,0,-0.84671
 1,-1.439545,-0.000043\\Version=ES64L-G16RevC.01\HF=-1354.3736627\RMSD=
 4.715e-09\Dipole=-0.2269636,0.0000032,-0.0000653\Quadrupole=0.0350931,
 0.0413335,-0.0764266,-0.0000013,-0.0002845,0.\PG=Unknown\\@
 The archive entry for this job was punched.

 Normal termination of Gaussian 16 at Tue Apr  8 22:48:28 2025.
 Gaussian 16:  ES64L-G16RevC.01  3-Jul-2019

 ----------------------------------------------------------------------
 #t hf aug-cc-pvdz iop(5/13=1,5/36=2,99/5=2) pseudo=read geom=check gue
 ss=(read,tcheck) scf=(maxcycle=1)
 ----------------------------------------------------------------------
 -----
 title
 -----
 Structure from the checkpoint file:  "BDE49_expt_1726_mol1.chk"
 Charge =  0 Multiplicity = 1

                         Standard orientation:
 ---------------------------------------------------------------------
 Center     Atomic      Atomic             Coordinates (Angstroms)
 Number     Number       Type             X           Y           Z
 ---------------------------------------------------------------------
      1          6           0        0.145393   -0.000002    0.000437
      2         16           0        1.744716   -0.000024   -0.000071
      3         17           0       -0.846680    1.439562   -0.000044
      4         17           0       -0.846721   -1.439539   -0.000043
 ---------------------------------------------------------------------

 SCF Done:  E(RHF) =  -1354.44316441     A.U. after    2 cycles

 The electronic state is 1-A.
 Alpha  occ. eigenvalues -- -103.71241-103.71240 -93.56316 -11.45817 -10.74549
 Alpha  occ. eigenvalues --  -10.74533  -8.86293  -8.40267  -8.40257  -8.39917
 Alpha  occ. eigenvalues --   -8.39916  -8.39902  -8.39899  -6.20437  -6.20033
 Alpha  occ. eigenvalues --   -6.19766  -1.26557  -1.17983  -1.04913  -0.78247
 Alpha  occ. eigenvalues --   -0.65674  -0.61175  -0.59351  -0.51623  -0.50929
 Alpha  occ. eigenvalues --   -0.49157  -0.41622  -0.38477
 Alpha virt. eigenvalues --    0.01133   0.05770   0.07578   0.08224   0.10182
 Alpha virt. eigenvalues --    0.11719   0.12446   0.14015   0.14698   0.15514
 Alpha virt. eigenvalues --    0.17273   0.17462   0.18216   0.18675   0.19027

 Mulliken charges:
               1
     1  C   -0.454906
     2  S    0.455825
     3  Cl  -0.000459
     4  Cl  -0.000460
 Sum of Mulliken charges =  -0.00000

 Dipole moment (field-independent basis, Debye):
    X=             -0.2681    Y=              0.0000    Z=             -0.0002  Tot=              0.2681

 Test job not archived.
 1\1\GINC-SE070\SP\RHF\Aug-CC-pVDZ\C1Cl2S1\OHZDE\08-Apr-2025\0\\#t hf a
 ug-cc-pvdz iop(5/13=1,5/36=2,99/5=2) pseudo=read geom=check guess=(rea
 d,tcheck) scf=(maxcycle=1)\\title\\0,1\C,0,0.145393,-0.000001,0.000437
 \S,0,1.744716,-0.000012,-0.000071\Cl,0,-0.84669,1.439556,-0.000044\Cl,
 0,-0.846711,-1.439545,-0.000043\\Version=ES64L-G16RevC.01\State=1-A\HF
 =-1354.4431644\RMSD=5.206e-03\Dipole=-0.1054774,0.0000024,-0.0000834\Q
 uadrupole=0.3167783,-0.1282606,-0.1885177,-0.0000046,-0.0003243,0.\PG=
 C01 [X(C1Cl2S1)]\\@

 Normal termination of Gaussian 16 at Tue Apr  8 22:48:30 2025.
