 Gaussian 16, Revision C.01,

 ----------------------------------------------------------------------
 #t hf aug-cc-pvdz symm=none int=(grid=ultrafine) guess=(read,tcheck) s
 table=(opt,rrhf)
 ----------------------------------------------------------------------
 -----
 title
 -----
 Symbolic Z-matrix:
 Charge =  0 Multiplicity = 1

 SCF Done:  E(RHF) =  -490.420755183     A.U. after   14 cycles
 Normal termination of Gaussian 16 at Tue Apr  8 23:30:00 2025.
 Gaussian 16:  ES64L-G16RevC.01  3-Jul-2019

 ----------------------------------------------------------------------
 #t hf aug-cc-pvdz iop(5/13=1,5/36=2,99/5=2) pseudo=read geom=check gue
 ss=(read,tcheck) scf=(maxcycle=1)
 ----------------------------------------------------------------------
 -----
 title
 -----
 Structure from the checkpoint file:  "BDE49_nonexpt_1410_mol1.chk"
 Charge =  0 Multiplicity = 1

                         Standard orientation:
 ---------------------------------------------------------------------
 Center     Atomic      Atomic             Coordinates (Angstroms)
 Number     Number       Type             X           Y           Z
 ---------------------------------------------------------------------
      1          6           0        0.521877    0.124432    0.022041
      2          7           0        1.150995    1.232909    0.023183
      3         15           0       -1.339615   -0.055004   -0.124640
      4          7           0        1.212837   -1.067534   -0.068171
      5          1           0        2.214640   -0.969760    0.038337
      6          1           0        0.815194   -1.879960    0.376018
      7          1           0        0.520732    2.030889    0.001384
      8          1           0       -1.640428    0.897818    0.879303
      9          1           0       -1.494005   -1.158136    0.757230
 ---------------------------------------------------------------------

 SCF Done:  E(RHF) =  -490.486050259     A.U. after    2 cycles

 The electronic state is 1-A.
 Alpha  occ. eigenvalues --  -81.27858 -15.64464 -15.60052 -11.33926  -7.78270
 Alpha  occ. eigenvalues --   -4.92238  -4.92193  -4.91864  -1.23127  -1.11536
 Alpha  occ. eigenvalues --   -0.85824  -0.77870  -0.70332  -0.63253  -0.58449
 Alpha  occ. eigenvalues --   -0.53656  -0.51980  -0.41775  -0.38376  -0.35840
 Alpha virt. eigenvalues --    0.02947   0.04293   0.05351   0.06773   0.07972
 Alpha virt. eigenvalues --    0.08617   0.10047   0.10545   0.12406   0.13686
 Alpha virt. eigenvalues --    0.15071   0.15741   0.16889   0.18652   0.18892

 Mulliken charges:
               1
     1  C    0.389034
     2  N   -0.399578
     3  P    0.064324
     4  N   -0.264023
     5  H    0.003419
     6  H   -0.008595
     7  H    0.017511
     8  H    0.122980
     9  H    0.074928
 Sum of Mulliken charges =  -0.00000

 Dipole moment (field-independent basis, Debye):
    X=             -1.3722    Y=             -1.7812    Z=              1.3488  Tot=              2.6220

 Test job not archived.
 1\1\GINC-SE334\SP\RHF\Aug-CC-pVDZ\C1H5N2P1\OHZDE\08-Apr-2025\0\\#t hf
 aug-cc-pvdz iop(5/13=1,5/36=2,99/5=2) pseudo=read geom=check guess=(re
 ad,tcheck) scf=(maxcycle=1)\\title\\0,1\C,0,0.521877,0.124432,0.022041
 \N,0,1.150995,1.232909,0.023183\P,0,-1.339615,-0.055005,-0.12464\N,0,1
 .212837,-1.067534,-0.068171\H,0,2.21464,-0.96976,0.038337\H,0,0.815194
 ,-1.87996,0.376018\H,0,0.520731,2.030889,0.001384\H,0,-1.640428,0.8978
 17,0.879303\H,0,-1.494005,-1.158137,0.75723\\Version=ES64L-G16RevC.01\
 State=1-A\HF=-490.4860503\RMSD=9.399e-03\Dipole=-0.539884,-0.7007666,0

 Normal termination of Gaussian 16 at Tue Apr  8 23:30:03 2025.
