 Gaussian 16, Revision C.01,

 ----------------------------------------------------------------------
 #t hf aug-cc-pvdz symm=none int=(grid=ultrafine) guess=(read,tcheck) s
 table=opt
 ----------------------------------------------------------------------
 -----
 title
 -----
 Symbolic Z-matrix:
 Charge =  0 Multiplicity = 2

 SCF Done:  E(UHF) =  -155.483432674     A.U. after   15 cycles
 Normal termination of Gaussian 16 at Tue Apr  8 22:38:29 2025.
 Gaussian 16:  ES64L-G16RevC.01  3-Jul-2019

 ----------------------------------------------------------------------
 #t hf aug-cc-pvdz iop(5/13=1,5/36=2,99/5=2) pseudo=read geom=check gue
 ss=(read,tcheck) scf=(maxcycle=1)
 ----------------------------------------------------------------------
 -----
 title
 -----
 Structure from the checkpoint file:  "BDE49_expt_1284_mol2.chk"
 Charge =  0 Multiplicity = 2

                         Standard orientation:
 ---------------------------------------------------------------------
 Center     Atomic      Atomic             Coordinates (Angstroms)
 Number     Number       Type             X           Y           Z
 ---------------------------------------------------------------------
      1          6           0       -0.000002    1.081241   -0.000000
      2          6           0       -0.000002    0.061767    1.103174
      3          6           0       -0.000002    0.061767   -1.103174
      4          6           0        0.000003   -1.047202    0.000000
      5          1           0        0.881585    0.065003   -1.758914
      6          1           0       -0.881593    0.064997   -1.758908
      7          1           0        0.885307   -1.684999    0.000000
      8          1           0       -0.885295   -1.685007    0.000000
      9          1           0        0.000020    2.164570   -0.000000
     10          1           0        0.881585    0.065003    1.758914
     11          1           0       -0.881593    0.064997    1.758908
 ---------------------------------------------------------------------

 SCF Done:  E(UHF) =  -155.531151818     A.U. after    2 cycles

 The electronic state is 2-A'.
 Alpha  occ. eigenvalues --  -11.23404 -11.23018 -11.22843 -11.22830  -1.12075
 Alpha  occ. eigenvalues --   -0.89763  -0.88777  -0.73701  -0.65952  -0.64806
 Alpha  occ. eigenvalues --   -0.54299  -0.50709  -0.50302  -0.45325  -0.45305
 Alpha  occ. eigenvalues --   -0.32910
 Alpha virt. eigenvalues --    0.03786   0.04755   0.05014   0.05082   0.06733
 Alpha virt. eigenvalues --    0.07068   0.07541   0.11106   0.12333   0.13618
 Alpha virt. eigenvalues --    0.13983   0.15381   0.15521   0.16214   0.17341

  Beta  occ. eigenvalues --  -11.23225 -11.23224 -11.22931 -11.20850  -1.09850
  Beta  occ. eigenvalues --   -0.89793  -0.85085  -0.70665  -0.64822  -0.62735
  Beta  occ. eigenvalues --   -0.53039  -0.49929  -0.48250  -0.44847  -0.44708
  Beta virt. eigenvalues --    0.03828   0.04789   0.05031   0.05110   0.06752
  Beta virt. eigenvalues --    0.07073   0.07390   0.11174   0.11209   0.12352
  Beta virt. eigenvalues --    0.13623   0.14096   0.15432   0.16225   0.17600

 Mulliken charges and spin densities:
               1          2
     1  C    0.056349   1.514735
     2  C    0.364327  -0.290621
     3  C    0.364327  -0.290621
     4  C    0.369206   0.046028
     5  H   -0.136383   0.034202
     6  H   -0.136379   0.034203
     7  H   -0.175261  -0.001793
     8  H   -0.175262  -0.001793
     9  H   -0.258160  -0.112745
    10  H   -0.136383   0.034202
    11  H   -0.136379   0.034203
 Sum of Mulliken charges =  -0.00000   1.00000

 Dipole moment (field-independent basis, Debye):
    X=              0.0000    Y=             -0.1411    Z=             -0.0000  Tot=              0.1411
                          Isotropic Fermi Contact Couplings
        Atom                 a.u.       MegaHertz       Gauss      10(-4) cm-1
     1  C(13)              0.23834     267.93543      95.60603      89.37364
     2  C(13)             -0.06964     -78.28555     -27.93423     -26.11325
     3  C(13)             -0.06964     -78.28555     -27.93423     -26.11325
     4  C(13)              0.01571      17.66253       6.30243       5.89159
     5  H(1)               0.02056      91.89804      32.79151      30.65389
     6  H(1)               0.02056      91.89929      32.79195      30.65430
     7  H(1)              -0.00155      -6.94695      -2.47884      -2.31725
     8  H(1)              -0.00155      -6.94663      -2.47873      -2.31715

 Normal termination of Gaussian 16 at Tue Apr  8 22:38:32 2025.
