 Gaussian 16, Revision C.01,

 ----------------------------------------------------------------------
 #t hf aug-cc-pvdz symm=none int=(grid=ultrafine) guess=(read,tcheck) s
 table=(opt,rrhf)
 ----------------------------------------------------------------------
 -----
 title
 -----
 Symbolic Z-matrix:
 Charge =  0 Multiplicity = 1

 SCF Done:  E(RHF) =  -598.897567000     A.U. after   14 cycles
 Normal termination of Gaussian 16 at Tue Apr  8 23:51:50 2025.
 Gaussian 16:  ES64L-G16RevC.01  3-Jul-2019

 ----------------------------------------------------------------------
 #t hf aug-cc-pvdz iop(5/13=1,5/36=2,99/5=2) pseudo=read geom=check gue
 ss=(read,tcheck) scf=(maxcycle=1)
 ----------------------------------------------------------------------
 -----
 title
 -----
 Structure from the checkpoint file:  "BDE49_nonexpt_1892_mol1.chk"
 Charge =  0 Multiplicity = 1

                         Standard orientation:
 ---------------------------------------------------------------------
 Center     Atomic      Atomic             Coordinates (Angstroms)
 Number     Number       Type             X           Y           Z
 ---------------------------------------------------------------------
      1          6           0        1.765320   -0.000008   -0.525613
      2         14           0        3.613872   -0.000002   -0.141294
      3          6           0        0.853247    0.000011    0.724381
      4          6           0       -0.621405    0.000006    0.380667
      5          6           0       -1.316224   -1.200917    0.202062
      6          6           0       -1.316226    1.200923    0.202033
      7          6           0       -2.664206   -1.203621   -0.148891
      8          6           0       -3.343086   -0.000005   -0.326671
      9          6           0       -2.664209    1.203616   -0.148919
     10          1           0       -0.796806   -2.143693    0.344804
     11          1           0       -3.185736   -2.145679   -0.278340
     12          1           0       -4.393099   -0.000010   -0.596556
     13          1           0       -3.185740    2.145670   -0.278391
     14          1           0       -0.796810    2.143703    0.344753
     15          1           0        3.980903    1.201657    0.648496
     16          1           0        4.404255   -0.000018   -1.396111
     17          1           0        1.080006    0.876909    1.339792
     18          1           0        1.080006   -0.876868    1.339819
     19          1           0        3.980904   -1.201639    0.648528
     20          1           0        1.539319   -0.874517   -1.146468
     21          1           0        1.539318    0.874483   -1.146495
 ---------------------------------------------------------------------

 SCF Done:  E(RHF) =  -599.012294989     A.U. after    2 cycles

 The electronic state is 1-A.
 Alpha  occ. eigenvalues --  -69.05792 -11.25034 -11.24700 -11.24522 -11.24507
 Alpha  occ. eigenvalues --  -11.24125 -11.24091 -11.24083 -11.22762  -6.81131
 Alpha  occ. eigenvalues --   -3.91906  -3.91899  -3.91892  -1.14588  -1.05723
 Alpha  occ. eigenvalues --   -1.00840  -0.97901  -0.86662  -0.82912  -0.79417
 Alpha  occ. eigenvalues --   -0.70080  -0.68930  -0.65027  -0.63698  -0.59736
 Alpha  occ. eigenvalues --   -0.58737  -0.58191  -0.54624  -0.51161  -0.50922
 Alpha  occ. eigenvalues --   -0.49209  -0.48717  -0.46894  -0.46851  -0.43549
 Alpha  occ. eigenvalues --   -0.33993  -0.32885
 Alpha virt. eigenvalues --    0.03253   0.03833   0.04018   0.04872   0.05059
 Alpha virt. eigenvalues --    0.05546   0.06343   0.06813   0.07349   0.08203
 Alpha virt. eigenvalues --    0.08281   0.08889   0.10250   0.10536   0.10588

 Mulliken charges:
               1
     1  C    0.229175
     2  Si   0.234351
     3  C   -0.019508
     4  C    0.808722
     5  C    0.455793
     6  C    0.455797
     7  C    0.254877
     8  C    0.627602
     9  C    0.254879
    10  H   -0.607542
    11  H   -0.444587
    12  H   -0.440318
    13  H   -0.444587
    14  H   -0.607541
    15  H    0.028883
    16  H   -0.007265
    17  H   -0.214399
    18  H   -0.214398
    19  H    0.028883
    20  H   -0.189411
    21  H   -0.189406
 Sum of Mulliken charges =  -0.00000

 Dipole moment (field-independent basis, Debye):
    X=             -0.4207    Y=             -0.0000    Z=             -0.1668  Tot=              0.4526

 Test job not archived.
 1\1\GINC-SE247\SP\RHF\Aug-CC-pVDZ\C8H12Si1\OHZDE\08-Apr-2025\0\\#t hf
 aug-cc-pvdz iop(5/13=1,5/36=2,99/5=2) pseudo=read geom=check guess=(re
 ad,tcheck) scf=(maxcycle=1)\\title\\0,1\C,0,1.76532,-0.000008,-0.52561
 3\Si,0,3.613872,-0.000002,-0.141294\C,0,0.853247,0.000011,0.724381\C,0
 ,-0.621405,0.000006,0.380667\C,0,-1.316224,-1.200917,0.202062\C,0,-1.3
 16226,1.200923,0.202033\C,0,-2.664206,-1.203621,-0.148891\C,0,-3.34308
 6,-0.000005,-0.326671\C,0,-2.664209,1.203616,-0.148919\H,0,-0.796806,-
 2.143693,0.344804\H,0,-3.185736,-2.145679,-0.27834\H,0,-4.393099,-0.00

 Normal termination of Gaussian 16 at Tue Apr  8 23:52:02 2025.
