 Gaussian 16, Revision C.01,

 ----------------------------------------------------------------------
 #t hf aug-cc-pvdz symm=none int=(grid=ultrafine) guess=(read,tcheck) s
 table=(opt,rrhf)
 ----------------------------------------------------------------------
 -----
 title
 -----
 Symbolic Z-matrix:
 Charge =  0 Multiplicity = 1

 SCF Done:  E(RHF) =  -1189.94594359     A.U. after   14 cycles
 Normal termination of Gaussian 16 at Wed Apr  9 00:10:12 2025.
 Gaussian 16:  ES64L-G16RevC.01  3-Jul-2019

 ----------------------------------------------------------------------
 #t hf aug-cc-pvdz iop(5/13=1,5/36=2,99/5=2) pseudo=read geom=check gue
 ss=(read,tcheck) scf=(maxcycle=1)
 ----------------------------------------------------------------------
 -----
 title
 -----
 Structure from the checkpoint file:  "BDE49_nonexpt_237_mol1.chk"
 Charge =  0 Multiplicity = 1

                         Standard orientation:
 ---------------------------------------------------------------------
 Center     Atomic      Atomic             Coordinates (Angstroms)
 Number     Number       Type             X           Y           Z
 ---------------------------------------------------------------------
      1         17           0        2.074017    1.508458   -0.000052
      2          5           0        1.142763    0.002359    0.000108
      3         17           0        2.066230   -1.505034   -0.000044
      4          6           0       -0.400384    0.013444    0.000065
      5          6           0       -1.139227    1.210667    0.000043
      6          6           0       -1.147006   -1.182068    0.000047
      7          7           0       -2.478306   -1.245079    0.000013
      8          6           0       -2.525133    1.162639    0.000007
      9          6           0       -3.145238   -0.085998   -0.000007
     10          1           0       -0.625631    2.164800    0.000055
     11          1           0       -3.119410    2.068385   -0.000010
     12          1           0       -0.633651   -2.138256    0.000063
     13          1           0       -4.229253   -0.161483   -0.000035
 ---------------------------------------------------------------------

 SCF Done:  E(RHF) =  -1190.05665872     A.U. after    2 cycles

 The electronic state is 1-A.
 Alpha  occ. eigenvalues -- -103.67222-103.67141 -15.64529 -11.31169 -11.30993
 Alpha  occ. eigenvalues --  -11.29179 -11.26555 -11.25490 -10.70707 -10.70622
 Alpha  occ. eigenvalues --   -8.36396  -8.36318  -8.36177  -8.36154  -8.36097
 Alpha  occ. eigenvalues --   -8.36074  -7.73539  -1.24923  -1.18585  -1.14774
 Alpha  occ. eigenvalues --   -1.09311  -1.04534  -0.87881  -0.87340  -0.74744
 Alpha  occ. eigenvalues --   -0.70552  -0.68720  -0.64505  -0.61334  -0.59227
 Alpha  occ. eigenvalues --   -0.57757  -0.56428  -0.53938  -0.52746  -0.48713
 Alpha  occ. eigenvalues --   -0.48386  -0.47078  -0.42600  -0.40225  -0.37007
 Alpha virt. eigenvalues --    0.02868   0.03446   0.04121   0.04506   0.05323
 Alpha virt. eigenvalues --    0.05937   0.06485   0.07605   0.08258   0.08421
 Alpha virt. eigenvalues --    0.10911   0.11767   0.12619   0.13019   0.13765

 Mulliken charges:
               1
     1  Cl  -0.337206
     2  B    0.576582
     3  Cl  -0.345363
     4  C    0.475559
     5  C   -0.092978
     6  C    0.664856
     7  N   -0.406323
     8  C    0.761206
     9  C    0.549385
    10  H   -0.616330
    11  H   -0.398749
    12  H   -0.497715
    13  H   -0.332924
 Sum of Mulliken charges =  -0.00000

 Dipole moment (field-independent basis, Debye):
    X=             -1.7018    Y=              1.8852    Z=              0.0002  Tot=              2.5397

 Test job not archived.
 1\1\GINC-SE069\SP\RHF\Aug-CC-pVDZ\C5H4B1Cl2N1\OHZDE\09-Apr-2025\0\\#t
 hf aug-cc-pvdz iop(5/13=1,5/36=2,99/5=2) pseudo=read geom=check guess=
 (read,tcheck) scf=(maxcycle=1)\\title\\0,1\Cl,0,-2.074017,1.508458,0.0
 00052\B,0,-1.142763,0.002359,-0.000108\Cl,0,-2.06623,-1.505034,0.00004
 4\C,0,0.400384,0.013444,-0.000065\C,0,1.139227,1.210667,-0.000043\C,0,
 1.147006,-1.182068,-0.000047\N,0,2.478306,-1.245079,-0.000013\C,0,2.52
 5133,1.162639,-0.000007\C,0,3.145238,-0.085998,0.000007\H,0,0.625631,2
 .1648,-0.000055\H,0,3.11941,2.068385,0.00001\H,0,0.633651,-2.138256,-0

 Normal termination of Gaussian 16 at Wed Apr  9 00:10:22 2025.
