 Gaussian 16, Revision C.01,

 ----------------------------------------------------------------------
 #t hf aug-cc-pvdz symm=none int=(grid=ultrafine) guess=(read,tcheck) s
 table=(opt,rrhf)
 ----------------------------------------------------------------------
 -----
 title
 -----
 Symbolic Z-matrix:
 Charge =  0 Multiplicity = 1

 SCF Done:  E(RHF) =  -780.448071320     A.U. after   16 cycles
 Normal termination of Gaussian 16 at Tue Apr  8 23:18:08 2025.
 Gaussian 16:  ES64L-G16RevC.01  3-Jul-2019

 ----------------------------------------------------------------------
 #t hf aug-cc-pvdz iop(5/13=1,5/36=2,99/5=2) pseudo=read geom=check gue
 ss=(read,tcheck) scf=(maxcycle=1)
 ----------------------------------------------------------------------
 -----
 title
 -----
 Structure from the checkpoint file:  "BDE49_nonexpt_1085_mol1.chk"
 Charge =  0 Multiplicity = 1

                         Standard orientation:
 ---------------------------------------------------------------------
 Center     Atomic      Atomic             Coordinates (Angstroms)
 Number     Number       Type             X           Y           Z
 ---------------------------------------------------------------------
      1         17           0        2.588787   -0.162864    0.000000
      2          8           0        1.243775    0.931059    0.000000
      3          6           0        0.000000    0.350704    0.000000
      4          6           0       -1.058551    1.273501    0.000000
      5          7           0       -0.144480   -0.951965    0.000000
      6          6           0       -1.395577   -1.438878    0.000000
      7          6           0       -2.340048    0.752509    0.000000
      8          6           0       -2.523294   -0.634552    0.000000
      9          1           0       -0.859507    2.336398    0.000000
     10          1           0       -3.192638    1.421946    0.000000
     11          1           0       -3.512834   -1.072982    0.000000
     12          1           0       -1.478419   -2.521103    0.000000
 ---------------------------------------------------------------------

 SCF Done:  E(RHF) =  -780.562346868     A.U. after    2 cycles

 The electronic state is 1-A'.
 Alpha  occ. eigenvalues -- -103.72172 -20.67023 -15.63968 -11.36870 -11.30180
 Alpha  occ. eigenvalues --  -11.28331 -11.26268 -11.25512 -10.74770  -8.40542
 Alpha  occ. eigenvalues --   -8.40095  -8.40078  -1.40901  -1.24658  -1.12967
 Alpha  occ. eigenvalues --   -1.09160  -1.02097  -0.88254  -0.85650  -0.75089
 Alpha  occ. eigenvalues --   -0.70847  -0.68628  -0.67028  -0.63321  -0.61060
 Alpha  occ. eigenvalues --   -0.57631  -0.55249  -0.54647  -0.48628  -0.47213
 Alpha  occ. eigenvalues --   -0.43242  -0.40025  -0.34736
 Alpha virt. eigenvalues --    0.02945   0.03837   0.04781   0.04989   0.06346
 Alpha virt. eigenvalues --    0.08034   0.08864   0.09989   0.10797   0.11876
 Alpha virt. eigenvalues --    0.12447   0.13264   0.13290   0.14061   0.14316

 Mulliken charges:
               1
     1  Cl   0.320076
     2  O   -0.713612
     3  C    0.311662
     4  C    0.746057
     5  N   -0.240018
     6  C    0.490936
     7  C   -0.252565
     8  C    0.927609
     9  H   -0.441820
    10  H   -0.387051
    11  H   -0.411345
    12  H   -0.349929
 Sum of Mulliken charges =  -0.00000

 Dipole moment (field-independent basis, Debye):
    X=             -2.7423    Y=              0.1513    Z=              0.0000  Tot=              2.7465

 Test job not archived.
 1\1\GINC-SE247\SP\RHF\Aug-CC-pVDZ\C5H4Cl1N1O1\OHZDE\08-Apr-2025\0\\#t
 hf aug-cc-pvdz iop(5/13=1,5/36=2,99/5=2) pseudo=read geom=check guess=
 (read,tcheck) scf=(maxcycle=1)\\title\\0,1\Cl,0,2.588787,-0.162864,0.\
 O,0,1.243775,0.931059,0.\C,0,0.,0.350704,0.\C,0,-1.058551,1.273501,0.\
 N,0,-0.14448,-0.951965,0.\C,0,-1.395577,-1.438878,0.\C,0,-2.340048,0.7
 52509,0.\C,0,-2.523294,-0.634552,0.\H,0,-0.859507,2.336398,0.\H,0,-3.1
 92638,1.421946,0.\H,0,-3.512834,-1.072982,0.\H,0,-1.478419,-2.521103,0
 .\\Version=ES64L-G16RevC.01\State=1-A'\HF=-780.5623469\RMSD=8.862e-03\

 Normal termination of Gaussian 16 at Tue Apr  8 23:18:14 2025.
