 Gaussian 16, Revision C.01,

 ----------------------------------------------------------------------
 #t hf aug-cc-pvdz symm=none int=(grid=ultrafine) guess=(read,tcheck) s
 table=opt
 ----------------------------------------------------------------------
 -----
 title
 -----
 Symbolic Z-matrix:
 Charge =  0 Multiplicity = 2

 SCF Done:  E(UHF) =  -474.986847883     A.U. after   17 cycles
 Normal termination of Gaussian 16 at Tue Apr  8 23:32:07 2025.
 Gaussian 16:  ES64L-G16RevC.01  3-Jul-2019

 ----------------------------------------------------------------------
 #t hf aug-cc-pvdz iop(5/13=1,5/36=2,99/5=2) pseudo=read geom=check gue
 ss=(read,tcheck) scf=(maxcycle=1)
 ----------------------------------------------------------------------
 -----
 title
 -----
 Structure from the checkpoint file:  "BDE49_nonexpt_1452_mol2.chk"
 Charge =  0 Multiplicity = 2

                         Standard orientation:
 ---------------------------------------------------------------------
 Center     Atomic      Atomic             Coordinates (Angstroms)
 Number     Number       Type             X           Y           Z
 ---------------------------------------------------------------------
      1          7           0        2.330456    0.141600   -0.083597
      2          6           0        1.006926   -0.489655   -0.027291
      3          6           0       -0.088047    0.583828    0.043428
      4          1           0        0.879625   -1.074645   -0.943313
      5          1           0        2.550143    0.573367    0.809523
      6          1           0        3.046433   -0.558281   -0.251934
      7         15           0       -1.836060   -0.049185   -0.075058
      8          1           0        0.005429    1.142390    0.984298
      9          1           0        0.065261    1.301878   -0.766400
     10          1           0        0.876977   -1.187482    0.815117
     11          1           0       -1.709430   -1.015695    0.966930
 ---------------------------------------------------------------------

 SCF Done:  E(UHF) =  -475.046602221     A.U. after    2 cycles

 The electronic state is 2-A.
 Alpha  occ. eigenvalues --  -81.25930 -15.61267 -11.27147 -11.24258  -7.76355
 Alpha  occ. eigenvalues --   -4.91093  -4.89971  -4.89692  -1.15436  -0.99711
 Alpha  occ. eigenvalues --   -0.84376  -0.75047  -0.66902  -0.62647  -0.59275
 Alpha  occ. eigenvalues --   -0.53940  -0.50723  -0.47294  -0.39660  -0.38599
 Alpha  occ. eigenvalues --   -0.33999
 Alpha virt. eigenvalues --    0.03300   0.04509   0.04756   0.05269   0.07142
 Alpha virt. eigenvalues --    0.07507   0.08073   0.10058   0.11623   0.12211
 Alpha virt. eigenvalues --    0.12735   0.14608   0.15987   0.16436   0.17421

  Beta  occ. eigenvalues --  -81.25238 -15.61260 -11.27058 -11.24403  -7.75526
  Beta  occ. eigenvalues --   -4.89477  -4.89332  -4.87936  -1.15361  -0.99227
  Beta  occ. eigenvalues --   -0.83592  -0.70244  -0.66812  -0.61863  -0.58639
  Beta  occ. eigenvalues --   -0.53567  -0.50187  -0.46849  -0.39439  -0.36409
  Beta virt. eigenvalues --    0.03327   0.03653   0.04814   0.05209   0.05353
  Beta virt. eigenvalues --    0.07278   0.07605   0.08846   0.10141   0.11834
  Beta virt. eigenvalues --    0.12366   0.13826   0.15182   0.16234   0.16645

 Mulliken charges and spin densities:
               1          2
     1  N   -0.361931   0.002675
     2  C    0.636346   0.030085
     3  C   -0.100429  -0.138558
     4  H   -0.174362  -0.005831
     5  H    0.025461  -0.000552
     6  H   -0.018191   0.000079
     7  P    0.316988   1.279113
     8  H   -0.110355   0.009974
     9  H   -0.083300  -0.003408
    10  H   -0.136662  -0.002722
    11  H    0.006435  -0.170856
 Sum of Mulliken charges =  -0.00000   1.00000

 Dipole moment (field-independent basis, Debye):
    X=              1.3745    Y=             -0.8088    Z=              1.3422  Tot=              2.0844
                          Isotropic Fermi Contact Couplings
        Atom                 a.u.       MegaHertz       Gauss      10(-4) cm-1
     1  N(14)              0.00139       0.45034       0.16069       0.15022
     2  C(13)              0.02347      26.38786       9.41584       8.80204
     3  C(13)             -0.02872     -32.28121     -11.51874     -10.76785
     4  H(1)              -0.00066      -2.95427      -1.05416      -0.98544
     5  H(1)               0.00001       0.03486       0.01244       0.01163
     6  H(1)              -0.00002      -0.10056      -0.03588      -0.03354
     7  P(31)              0.22601     409.32583     146.05763     136.53640
     8  H(1)               0.01158      51.75804      18.46856      17.26463

 Normal termination of Gaussian 16 at Tue Apr  8 23:32:10 2025.
