 Gaussian 16, Revision C.01,

 ----------------------------------------------------------------------
 #t hf aug-cc-pvdz symm=none int=(grid=ultrafine) guess=(read,tcheck) s
 table=opt
 ----------------------------------------------------------------------
 -----
 title
 -----
 Symbolic Z-matrix:
 Charge =  0 Multiplicity = 2

 SCF Done:  E(UHF) =  -666.996109421     A.U. after   25 cycles
 Normal termination of Gaussian 16 at Tue Apr  8 23:21:59 2025.
 Gaussian 16:  ES64L-G16RevC.01  3-Jul-2019

 ----------------------------------------------------------------------
 #t hf aug-cc-pvdz iop(5/13=1,5/36=2,99/5=2) pseudo=read geom=check gue
 ss=(read,tcheck) scf=(maxcycle=1)
 ----------------------------------------------------------------------
 -----
 title
 -----
 Structure from the checkpoint file:  "BDE49_nonexpt_1196_mol2.chk"
 Charge =  0 Multiplicity = 2

                         Standard orientation:
 ---------------------------------------------------------------------
 Center     Atomic      Atomic             Coordinates (Angstroms)
 Number     Number       Type             X           Y           Z
 ---------------------------------------------------------------------
      1         16           0        2.729608    0.022604   -0.411065
      2          6           0        1.095117   -0.150360    0.246058
      3          8           0        0.844840   -1.256092    0.674898
      4          6           0        0.158949    1.034484    0.267445
      5          6           0       -1.302120    0.674247    0.565714
      6          1           0        0.256033    1.563623   -0.687268
      7          1           0        0.553865    1.716154    1.031064
      8          6           0       -2.003922   -0.065686   -0.579780
      9          1           0       -1.842691    1.601108    0.786398
     10          1           0       -1.340083    0.064584    1.473474
     11          6           0       -3.466420   -0.390523   -0.264957
     12          1           0       -1.463642   -0.992407   -0.795708
     13          1           0       -1.952365    0.546012   -1.488945
     14          1           0       -3.546339   -1.030203    0.619052
     15          1           0       -3.943905   -0.914078   -1.097148
     16          1           0       -4.042940    0.519316   -0.069942
 ---------------------------------------------------------------------

 SCF Done:  E(UHF) =  -667.097921277     A.U. after    2 cycles

 The electronic state is 2-A.
 Alpha  occ. eigenvalues --  -93.57930 -20.58168 -11.38542 -11.26960 -11.24513
 Alpha  occ. eigenvalues --  -11.23447 -11.22678  -8.87792  -6.23153  -6.21458
 Alpha  occ. eigenvalues --   -6.20992  -1.37949  -1.09115  -1.03849  -0.99364
 Alpha  occ. eigenvalues --   -0.89621  -0.81185  -0.74659  -0.68285  -0.64271
 Alpha  occ. eigenvalues --   -0.63490  -0.62254  -0.58567  -0.56186  -0.54708
 Alpha  occ. eigenvalues --   -0.52547  -0.49657  -0.47922  -0.47574  -0.46100
 Alpha  occ. eigenvalues --   -0.43324  -0.40551
 Alpha virt. eigenvalues --    0.03269   0.04167   0.04619   0.05310   0.06416
 Alpha virt. eigenvalues --    0.06920   0.07243   0.07449   0.08801   0.09534
 Alpha virt. eigenvalues --    0.11296   0.11399   0.11826   0.13100   0.13695

  Beta  occ. eigenvalues --  -93.57002 -20.57966 -11.38654 -11.26955 -11.24499
  Beta  occ. eigenvalues --  -11.23448 -11.22678  -8.86758  -6.20935  -6.20401
  Beta  occ. eigenvalues --   -6.19092  -1.37370  -1.08910  -1.02261  -0.95194
  Beta  occ. eigenvalues --   -0.88106  -0.80849  -0.73752  -0.67100  -0.64196
  Beta  occ. eigenvalues --   -0.62341  -0.61582  -0.58112  -0.55882  -0.54389
  Beta  occ. eigenvalues --   -0.52476  -0.49257  -0.47903  -0.47530  -0.42272
  Beta  occ. eigenvalues --   -0.38241
  Beta virt. eigenvalues --   -0.00150   0.03318   0.04199   0.04698   0.05335
  Beta virt. eigenvalues --    0.06460   0.07062   0.07276   0.07609   0.08842
  Beta virt. eigenvalues --    0.09596   0.11255   0.11396   0.12371   0.13356

 Mulliken charges and spin densities:
               1          2
     1  S    0.220936   1.094519
     2  C    0.006767  -0.121239
     3  O   -0.523234   0.017513
     4  C    0.100450   0.009413
     5  C    0.343994  -0.003915
     6  H   -0.052416   0.002155
     7  H    0.072192   0.000347
     8  C    0.166217   0.001782
     9  H   -0.097027   0.000278
    10  H   -0.136237  -0.000567
    11  C    0.406079  -0.000545
    12  H   -0.155912   0.000841
    13  H   -0.133700  -0.000547
    14  H   -0.071807  -0.000025
    15  H   -0.065422  -0.000000
    16  H   -0.080881  -0.000010
 Sum of Mulliken charges =   0.00000   1.00000

 Dipole moment (field-independent basis, Debye):
    X=             -0.8238    Y=              2.9609    Z=             -0.6841  Tot=              3.1486
                          Isotropic Fermi Contact Couplings
        Atom                 a.u.       MegaHertz       Gauss      10(-4) cm-1
     1  S(33)              0.21311      73.19916      26.11928      24.41661
     2  C(13)             -0.01864     -20.95692      -7.47795      -6.99048
     3  O(17)              0.03102     -18.80692      -6.71078      -6.27331
     4  C(13)              0.00128       1.44171       0.51444       0.48090
     5  C(13)              0.00265       2.97879       1.06291       0.99362
     6  H(1)               0.00050       2.22209       0.79290       0.74121
     7  H(1)              -0.00022      -1.00192      -0.35751      -0.33421
     8  C(13)             -0.00017      -0.19293      -0.06884      -0.06436

 Normal termination of Gaussian 16 at Tue Apr  8 23:22:06 2025.
