 Gaussian 16, Revision C.01,

 ----------------------------------------------------------------------
 #t hf aug-cc-pvdz symm=none int=(grid=ultrafine) guess=(read,tcheck) s
 table=opt
 ----------------------------------------------------------------------
 -----
 title
 -----
 Symbolic Z-matrix:
 Charge =  0 Multiplicity = 2

 SCF Done:  E(UHF) =  -580.727264816     A.U. after   14 cycles
 Normal termination of Gaussian 16 at Tue Apr  8 22:56:35 2025.
 Gaussian 16:  ES64L-G16RevC.01  3-Jul-2019

 ----------------------------------------------------------------------
 #t hf aug-cc-pvdz iop(5/13=1,5/36=2,99/5=2) pseudo=read geom=check gue
 ss=(read,tcheck) scf=(maxcycle=1)
 ----------------------------------------------------------------------
 -----
 title
 -----
 Structure from the checkpoint file:  "BDE49_expt_1939_mol2.chk"
 Charge =  0 Multiplicity = 2

                         Standard orientation:
 ---------------------------------------------------------------------
 Center     Atomic      Atomic             Coordinates (Angstroms)
 Number     Number       Type             X           Y           Z
 ---------------------------------------------------------------------
      1         14           0       -0.035083    1.217959    0.000000
      2         14           0       -0.035083   -1.127023   -0.000000
      3          1           0        0.569933    1.825276    1.212986
      4          1           0        0.569933    1.825276   -1.212986
      5          1           0       -0.746523   -1.611690    1.206397
      6          1           0        1.335495   -1.700279   -0.000000
      7          1           0       -0.746523   -1.611690   -1.206397
 ---------------------------------------------------------------------

 SCF Done:  E(UHF) =  -580.766187583     A.U. after    2 cycles

 The electronic state is 2-A'.
 Alpha  occ. eigenvalues --  -69.07137 -69.06880  -6.82647  -6.82253  -3.94000
 Alpha  occ. eigenvalues --   -3.93096  -3.93083  -3.93014  -3.93002  -3.92963
 Alpha  occ. eigenvalues --   -0.74327  -0.66270  -0.50176  -0.49252  -0.47610
 Alpha  occ. eigenvalues --   -0.42046  -0.32005
 Alpha virt. eigenvalues --    0.03801   0.04146   0.06580   0.06914   0.07178
 Alpha virt. eigenvalues --    0.07507   0.07709   0.08993   0.09189   0.09957
 Alpha virt. eigenvalues --    0.10139   0.13824   0.14894   0.15340   0.16274

  Beta  occ. eigenvalues --  -69.06884 -69.06580  -6.82257  -6.81833  -3.93028
  Beta  occ. eigenvalues --   -3.93007  -3.92988  -3.92690  -3.92660  -3.91816
  Beta  occ. eigenvalues --   -0.72383  -0.63410  -0.49870  -0.48407  -0.47439
  Beta  occ. eigenvalues --   -0.40752
  Beta virt. eigenvalues --    0.02363   0.04014   0.04365   0.06606   0.07375
  Beta virt. eigenvalues --    0.07421   0.07561   0.08457   0.09060   0.10210
  Beta virt. eigenvalues --    0.10295   0.10785   0.14611   0.15734   0.16343

 Mulliken charges and spin densities:
               1          2
     1  Si   0.103703   1.112544
     2  Si   0.023349  -0.078775
     3  H   -0.047183  -0.027845
     4  H   -0.047183  -0.027845
     5  H   -0.005214  -0.002765
     6  H   -0.022258   0.027451
     7  H   -0.005214  -0.002765
 Sum of Mulliken charges =  -0.00000   1.00000

 Dipole moment (field-independent basis, Debye):
    X=             -0.0003    Y=             -0.0376    Z=              0.0000  Tot=              0.0376
                          Isotropic Fermi Contact Couplings
        Atom                 a.u.       MegaHertz       Gauss      10(-4) cm-1
     1  Si(29)             0.45448    -403.90886    -144.12473    -134.72950
     2  Si(29)            -0.00016       0.14332       0.05114       0.04781
     3  H(1)              -0.00469     -20.95083      -7.47578      -6.98845
     4  H(1)              -0.00469     -20.95083      -7.47578      -6.98845
     5  H(1)              -0.00109      -4.85140      -1.73110      -1.61825
     6  H(1)               0.01060      47.39922      16.91322      15.81068
     7  H(1)              -0.00109      -4.85140      -1.73110      -1.61825
 --------------------------------------------------------

 Normal termination of Gaussian 16 at Tue Apr  8 22:56:36 2025.
