 Gaussian 16, Revision C.01,

 ----------------------------------------------------------------------
 #t hf aug-cc-pvdz symm=none int=(grid=ultrafine) guess=(read,tcheck) s
 table=(opt,rrhf)
 ----------------------------------------------------------------------
 -----
 title
 -----
 Symbolic Z-matrix:
 Charge =  0 Multiplicity = 1

 SCF Done:  E(RHF) =  -664.937027571     A.U. after   16 cycles
 Normal termination of Gaussian 16 at Tue Apr  8 23:33:00 2025.
 Gaussian 16:  ES64L-G16RevC.01  3-Jul-2019

 ----------------------------------------------------------------------
 #t hf aug-cc-pvdz iop(5/13=1,5/36=2,99/5=2) pseudo=read geom=check gue
 ss=(read,tcheck) scf=(maxcycle=1)
 ----------------------------------------------------------------------
 -----
 title
 -----
 Structure from the checkpoint file:  "BDE49_nonexpt_1442_mol1.chk"
 Charge =  0 Multiplicity = 1

                         Standard orientation:
 ---------------------------------------------------------------------
 Center     Atomic      Atomic             Coordinates (Angstroms)
 Number     Number       Type             X           Y           Z
 ---------------------------------------------------------------------
      1          6           0       -0.145432    0.204454   -0.084100
      2          6           0        1.309240    0.528539   -0.181726
      3         15           0        2.518158   -0.821847    0.265399
      4          7           0        1.790253    1.629248   -0.610188
      5          1           0        1.039493    2.254303   -0.921516
      6          6           0       -0.634458   -1.071351   -0.393634
      7          6           0       -1.998325   -1.341735   -0.324632
      8          6           0       -2.890295   -0.348760    0.074098
      9          6           0       -2.412558    0.919685    0.400064
     10          6           0       -1.051952    1.195358    0.318381
     11          1           0        0.050743   -1.848706   -0.712933
     12          1           0       -2.363957   -2.329152   -0.582476
     13          1           0       -3.951117   -0.563016    0.135941
     14          1           0       -3.099999    1.692738    0.724372
     15          1           0       -0.682725    2.177302    0.593455
     16          1           0        2.071123   -1.027288    1.595214
     17          1           0        3.574992    0.049647    0.607562
 ---------------------------------------------------------------------

 SCF Done:  E(RHF) =  -665.050153045     A.U. after    2 cycles

 The electronic state is 1-A.
 Alpha  occ. eigenvalues --  -81.26273 -15.62412 -11.31132 -11.26995 -11.26302
 Alpha  occ. eigenvalues --  -11.26291 -11.26175 -11.26019 -11.25982  -7.76714
 Alpha  occ. eigenvalues --   -4.90741  -4.90691  -4.90376  -1.19789  -1.15162
 Alpha  occ. eigenvalues --   -1.03347  -1.02659  -0.88819  -0.84768  -0.82453
 Alpha  occ. eigenvalues --   -0.74712  -0.71512  -0.67156  -0.65099  -0.62879
 Alpha  occ. eigenvalues --   -0.60825  -0.54870  -0.53570  -0.53381  -0.51187
 Alpha  occ. eigenvalues --   -0.50560  -0.47157  -0.41386  -0.35662  -0.35445
 Alpha  occ. eigenvalues --   -0.34521
 Alpha virt. eigenvalues --    0.02892   0.03865   0.04229   0.05255   0.05854
 Alpha virt. eigenvalues --    0.05903   0.07381   0.07642   0.08151   0.08461
 Alpha virt. eigenvalues --    0.09372   0.10972   0.11003   0.11991   0.13342

 Mulliken charges:
               1
     1  C    1.086693
     2  C   -0.416838
     3  P   -0.116766
     4  N   -0.402581
     5  H    0.052040
     6  C    0.214701
     7  C    0.504666
     8  C    0.454711
     9  C    0.519195
    10  C    0.277639
    11  H   -0.566967
    12  H   -0.429952
    13  H   -0.436902
    14  H   -0.429771
    15  H   -0.614441
    16  H    0.156683
    17  H    0.147890
 Sum of Mulliken charges =   0.00000

 Dipole moment (field-independent basis, Debye):
    X=             -2.7053    Y=             -0.5472    Z=              0.7542  Tot=              2.8612

 Test job not archived.
 1\1\GINC-SE016\SP\RHF\Aug-CC-pVDZ\C7H8N1P1\OHZDE\08-Apr-2025\0\\#t hf
 aug-cc-pvdz iop(5/13=1,5/36=2,99/5=2) pseudo=read geom=check guess=(re
 ad,tcheck) scf=(maxcycle=1)\\title\\0,1\C,0,-0.145432,0.204454,-0.0841
 \C,0,1.30924,0.528539,-0.181726\P,0,2.518158,-0.821847,0.265399\N,0,1.
 790253,1.629248,-0.610188\H,0,1.039493,2.254303,-0.921516\C,0,-0.63445
 8,-1.071351,-0.393634\C,0,-1.998325,-1.341735,-0.324632\C,0,-2.890295,
 -0.34876,0.074098\C,0,-2.412558,0.919685,0.400064\C,0,-1.051952,1.1953
 58,0.318381\H,0,0.050743,-1.848706,-0.712933\H,0,-2.363957,-2.329152,-

 Normal termination of Gaussian 16 at Tue Apr  8 23:33:09 2025.
