 Gaussian 16, Revision C.01,

 ----------------------------------------------------------------------
 #t hf aug-cc-pvdz symm=none int=(grid=ultrafine) guess=(read,tcheck) s
 table=(opt,rrhf)
 ----------------------------------------------------------------------
 -----
 title
 -----
 Symbolic Z-matrix:
 Charge =  0 Multiplicity = 1

 SCF Done:  E(RHF) =  -255.986454320     A.U. after   14 cycles
 Normal termination of Gaussian 16 at Wed Apr  9 00:25:22 2025.
 Gaussian 16:  ES64L-G16RevC.01  3-Jul-2019

 ----------------------------------------------------------------------
 #t hf aug-cc-pvdz iop(5/13=1,5/36=2,99/5=2) pseudo=read geom=check gue
 ss=(read,tcheck) scf=(maxcycle=1)
 ----------------------------------------------------------------------
 -----
 title
 -----
 Structure from the checkpoint file:  "BDE49_nonexpt_295_mol1.chk"
 Charge =  0 Multiplicity = 1

                         Standard orientation:
 ---------------------------------------------------------------------
 Center     Atomic      Atomic             Coordinates (Angstroms)
 Number     Number       Type             X           Y           Z
 ---------------------------------------------------------------------
      1          6           0        0.000007   -1.104975    1.210799
      2          6           0        0.000007    0.284823    1.206948
      3          6           0        0.000009    1.016554   -0.000000
      4          6           0        0.000006   -1.798982    0.000000
      5          6           0        0.000007   -1.104975   -1.210799
      6          6           0        0.000007    0.284823   -1.206948
      7          1           0        0.000007   -1.650478    2.147866
      8          1           0        0.000008    0.825360    2.147640
      9          1           0        0.000008    0.825360   -2.147640
     10          1           0        0.000006   -2.883783    0.000000
     11          1           0        0.000007   -1.650478   -2.147866
     12          5           0        0.000018    2.551871   -0.000000
     13          1           0       -0.000190    3.155526    1.029762
     14          1           0       -0.000190    3.155526   -1.029762
 ---------------------------------------------------------------------

 SCF Done:  E(RHF) =  -256.062028044     A.U. after    2 cycles

 The electronic state is 1-A'.
 Alpha  occ. eigenvalues --  -11.26200 -11.25707 -11.25706 -11.24863 -11.24859
 Alpha  occ. eigenvalues --  -11.22467  -7.60559  -1.14540  -1.01653  -1.01329
 Alpha  occ. eigenvalues --   -0.83546  -0.83100  -0.72815  -0.66924  -0.63605
 Alpha  occ. eigenvalues --   -0.62925  -0.59793  -0.55444  -0.50985  -0.50458
 Alpha  occ. eigenvalues --   -0.47243  -0.47233  -0.35018  -0.34616
 Alpha virt. eigenvalues --    0.03214   0.03990   0.04113   0.04241   0.05692
 Alpha virt. eigenvalues --    0.05834   0.06744   0.07273   0.08191   0.09099
 Alpha virt. eigenvalues --    0.10150   0.12012   0.12764   0.12897   0.13984

 Mulliken charges:
               1
     1  C    0.383753
     2  C    0.806085
     3  C   -0.318393
     4  C    0.641803
     5  C    0.383753
     6  C    0.806085
     7  H   -0.437668
     8  H   -0.517340
     9  H   -0.517340
    10  H   -0.430324
    11  H   -0.437668
    12  B   -1.093768
    13  H    0.365511
    14  H    0.365511
 Sum of Mulliken charges =   0.00000

 Dipole moment (field-independent basis, Debye):
    X=              0.0003    Y=             -1.3910    Z=             -0.0000  Tot=              1.3910

 Test job not archived.
 1\1\GINC-SE127\SP\RHF\Aug-CC-pVDZ\C6H7B1\OHZDE\09-Apr-2025\0\\#t hf au
 g-cc-pvdz iop(5/13=1,5/36=2,99/5=2) pseudo=read geom=check guess=(read
 ,tcheck) scf=(maxcycle=1)\\title\\0,1\C,0,-0.000007,1.104975,1.210799\
 C,0,-0.000007,-0.284823,1.206948\C,0,-0.000009,-1.016554,0.\C,0,-0.000
 006,1.798982,0.\C,0,-0.000007,1.104975,-1.210799\C,0,-0.000007,-0.2848
 23,-1.206948\H,0,-0.000007,1.650478,2.147866\H,0,-0.000008,-0.82536,2.
 14764\H,0,-0.000008,-0.82536,-2.14764\H,0,-0.000006,2.883783,0.\H,0,-0
 .000007,1.650478,-2.147866\B,0,-0.000018,-2.551871,0.\H,0,0.00019,-3.1

 Normal termination of Gaussian 16 at Wed Apr  9 00:25:26 2025.
