 Gaussian 16, Revision C.01,

 ----------------------------------------------------------------------
 #t hf aug-cc-pvdz symm=none int=(grid=ultrafine) guess=(read,tcheck) s
 table=(opt,rrhf)
 ----------------------------------------------------------------------
 -----
 title
 -----
 Symbolic Z-matrix:
 Charge =  0 Multiplicity = 1

 SCF Done:  E(RHF) =  -591.545899552     A.U. after   12 cycles
 Normal termination of Gaussian 16 at Tue Apr  8 23:35:48 2025.
 Gaussian 16:  ES64L-G16RevC.01  3-Jul-2019

 ----------------------------------------------------------------------
 #t hf aug-cc-pvdz iop(5/13=1,5/36=2,99/5=2) pseudo=read geom=check gue
 ss=(read,tcheck) scf=(maxcycle=1)
 ----------------------------------------------------------------------
 -----
 title
 -----
 Structure from the checkpoint file:  "BDE49_nonexpt_1528_mol1.chk"
 Charge =  0 Multiplicity = 1

                         Standard orientation:
 ---------------------------------------------------------------------
 Center     Atomic      Atomic             Coordinates (Angstroms)
 Number     Number       Type             X           Y           Z
 ---------------------------------------------------------------------
      1          7           0        2.090508    0.162406    1.121019
      2          6           0       -0.045214   -0.052710   -0.649148
      3          6           0       -0.721080    1.188915   -0.041065
      4          6           0       -0.784352   -1.238453    0.019703
      5          6           0       -2.198343   -0.704864    0.394896
      6          1           0       -0.246011   -1.541048    0.922024
      7          1           0       -0.823571   -2.109101   -0.638312
      8          6           0       -2.206441    0.795241    0.006478
      9          1           0       -2.375395   -0.823502    1.467012
     10          1           0       -2.992003   -1.254110   -0.116838
     11          1           0       -2.789437    1.407171    0.699591
     12          1           0       -2.647675    0.925085   -0.987382
     13          1           0       -0.531486    2.099724   -0.615184
     14          1           0       -0.350795    1.349120    0.978179
     15         15           0        1.807837   -0.195762   -0.534259
     16          1           0       -0.248171   -0.063593   -1.729184
     17          1           0        2.080785    1.055022   -1.164394
     18          1           0        1.999346    1.112210    1.454869
     19          1           0        2.905880   -0.286170    1.511183
 ---------------------------------------------------------------------

 SCF Done:  E(RHF) =  -591.648382295     A.U. after    2 cycles

 The electronic state is 1-A.
 Alpha  occ. eigenvalues --  -81.26411 -15.61229 -11.23217 -11.22744 -11.22500
 Alpha  occ. eigenvalues --  -11.22357 -11.22310  -7.76384  -4.90506  -4.90341
 Alpha  occ. eigenvalues --   -4.90062  -1.11881  -1.09998  -0.95697  -0.95355
 Alpha  occ. eigenvalues --   -0.79825  -0.77539  -0.72849  -0.66336  -0.65400
 Alpha  occ. eigenvalues --   -0.62349  -0.57841  -0.57396  -0.54817  -0.48698
 Alpha  occ. eigenvalues --   -0.47969  -0.47061  -0.46749  -0.45606  -0.44581
 Alpha  occ. eigenvalues --   -0.39126  -0.33057
 Alpha virt. eigenvalues --    0.03400   0.04151   0.04592   0.04751   0.06167
 Alpha virt. eigenvalues --    0.06456   0.06780   0.07003   0.07106   0.08876
 Alpha virt. eigenvalues --    0.09309   0.09884   0.10988   0.11697   0.12431

 Mulliken charges:
               1
     1  N   -0.484018
     2  C    0.066527
     3  C    0.230616
     4  C    0.211324
     5  C    0.286962
     6  H   -0.179473
     7  H   -0.137653
     8  C    0.350908
     9  H   -0.113179
    10  H   -0.100037
    11  H   -0.115100
    12  H   -0.160682
    13  H   -0.134105
    14  H   -0.245779
    15  P    0.727121
    16  H   -0.235537
    17  H    0.066358
    18  H   -0.005508
    19  H   -0.028744
 Sum of Mulliken charges =  -0.00000

 Dipole moment (field-independent basis, Debye):
    X=             -0.1521    Y=              1.1917    Z=              0.7305  Tot=              1.4060

 Test job not archived.
 1\1\GINC-SE332\SP\RHF\Aug-CC-pVDZ\C5H12N1P1\OHZDE\08-Apr-2025\0\\#t hf
  aug-cc-pvdz iop(5/13=1,5/36=2,99/5=2) pseudo=read geom=check guess=(r
 ead,tcheck) scf=(maxcycle=1)\\title\\0,1\N,0,2.090508,0.162406,1.12101
 9\C,0,-0.045214,-0.05271,-0.649148\C,0,-0.72108,1.188915,-0.041065\C,0
 ,-0.784352,-1.238453,0.019703\C,0,-2.198343,-0.704864,0.394896\H,0,-0.
 246011,-1.541048,0.922024\H,0,-0.823571,-2.109101,-0.638312\C,0,-2.206
 441,0.795241,0.006478\H,0,-2.375395,-0.823502,1.467012\H,0,-2.992003,-
 1.25411,-0.116838\H,0,-2.789437,1.407171,0.699591\H,0,-2.647675,0.9250

 Normal termination of Gaussian 16 at Tue Apr  8 23:35:55 2025.
