 Gaussian 16, Revision C.01,

 ----------------------------------------------------------------------
 #t hf aug-cc-pvdz symm=none int=(grid=ultrafine) guess=(read,tcheck) s
 table=(opt,rrhf)
 ----------------------------------------------------------------------
 -----
 title
 -----
 Symbolic Z-matrix:
 Charge =  0 Multiplicity = 1

 SCF Done:  E(RHF) =  -572.191411647     A.U. after   15 cycles
 Normal termination of Gaussian 16 at Wed Apr  9 00:51:13 2025.
 Gaussian 16:  ES64L-G16RevC.01  3-Jul-2019

 ----------------------------------------------------------------------
 #t hf aug-cc-pvdz iop(5/13=1,5/36=2,99/5=2) pseudo=read geom=check gue
 ss=(read,tcheck) scf=(maxcycle=1)
 ----------------------------------------------------------------------
 -----
 title
 -----
 Structure from the checkpoint file:  "BDE49_nonexpt_974_mol1.chk"
 Charge =  0 Multiplicity = 1

                         Standard orientation:
 ---------------------------------------------------------------------
 Center     Atomic      Atomic             Coordinates (Angstroms)
 Number     Number       Type             X           Y           Z
 ---------------------------------------------------------------------
      1          9           0        1.610243    1.588677    0.022847
      2          9           0       -2.392278   -0.715085    0.180568
      3          8           0       -1.228806    1.822477    0.003046
      4          8           0        2.271022   -1.191866   -0.006716
      5          7           0       -1.133811   -0.500314   -0.386506
      6          7           0        0.736683    0.555183    0.098274
      7          6           0       -0.643674    0.790697   -0.071561
      8          6           0       -0.174252   -1.529376    0.021524
      9          1           0       -0.147753   -2.363695   -0.677406
     10          1           0       -0.393870   -1.887854    1.032144
     11          6           0        1.154945   -0.767946    0.026955
 ---------------------------------------------------------------------

 SCF Done:  E(RHF) =  -572.375424641     A.U. after    2 cycles

 The electronic state is 1-A.
 Alpha  occ. eigenvalues --  -26.22169 -26.19569 -20.61699 -20.61490 -15.81046
 Alpha  occ. eigenvalues --  -15.79405 -11.47120 -11.44660 -11.35586  -1.74584
 Alpha  occ. eigenvalues --   -1.71410  -1.44343  -1.42565  -1.32387  -1.19410
 Alpha  occ. eigenvalues --   -1.04991  -0.93637  -0.91641  -0.83819  -0.82540
 Alpha  occ. eigenvalues --   -0.81383  -0.79922  -0.76754  -0.74738  -0.71585
 Alpha  occ. eigenvalues --   -0.70925  -0.69068  -0.67604  -0.63545  -0.61284
 Alpha  occ. eigenvalues --   -0.54272  -0.51269  -0.48691  -0.47683
 Alpha virt. eigenvalues --    0.02674   0.03861   0.06037   0.07070   0.08722
 Alpha virt. eigenvalues --    0.09417   0.10383   0.10694   0.10854   0.12190
 Alpha virt. eigenvalues --    0.13368   0.13523   0.14157   0.14992   0.15845

 Mulliken charges:
               1
     1  F   -0.369414
     2  F   -0.416331
     3  O   -0.328718
     4  O   -0.378911
     5  N   -0.289391
     6  N   -0.129193
     7  C    0.835280
     8  C    0.786742
     9  H   -0.062748
    10  H    0.028715
    11  C    0.323968
 Sum of Mulliken charges =  -0.00000

 Dipole moment (field-independent basis, Debye):
    X=             -0.4079    Y=             -3.2685    Z=              0.2100  Tot=              3.3005

 Test job not archived.
 1\1\GINC-SE341\SP\RHF\Aug-CC-pVDZ\C3H2F2N2O2\OHZDE\09-Apr-2025\0\\#t h
 f aug-cc-pvdz iop(5/13=1,5/36=2,99/5=2) pseudo=read geom=check guess=(
 read,tcheck) scf=(maxcycle=1)\\title\\0,1\F,0,1.610243,1.588677,0.0228
 47\F,0,-2.392278,-0.715085,0.180568\O,0,-1.228806,1.822477,0.003046\O,
 0,2.271022,-1.191867,-0.006716\N,0,-1.133811,-0.500314,-0.386506\N,0,0
 .736683,0.555183,0.098274\C,0,-0.643674,0.790697,-0.071561\C,0,-0.1742
 52,-1.529376,0.021524\H,0,-0.147753,-2.363695,-0.677406\H,0,-0.39387,-
 1.887854,1.032144\C,0,1.154945,-0.767946,0.026955\\Version=ES64L-G16Re

 Normal termination of Gaussian 16 at Wed Apr  9 00:51:19 2025.
