 Gaussian 16, Revision C.01,

 ----------------------------------------------------------------------
 #t hf aug-cc-pvdz symm=none int=(grid=ultrafine) guess=(read,tcheck) s
 table=(opt,rrhf)
 ----------------------------------------------------------------------
 -----
 title
 -----
 Symbolic Z-matrix:
 Charge =  0 Multiplicity = 1

 SCF Done:  E(RHF) =  -900.916064051     A.U. after   12 cycles
 Normal termination of Gaussian 16 at Wed Apr  9 00:16:47 2025.
 Gaussian 16:  ES64L-G16RevC.01  3-Jul-2019

 ----------------------------------------------------------------------
 #t hf aug-cc-pvdz iop(5/13=1,5/36=2,99/5=2) pseudo=read geom=check gue
 ss=(read,tcheck) scf=(maxcycle=1)
 ----------------------------------------------------------------------
 -----
 title
 -----
 Structure from the checkpoint file:  "BDE49_nonexpt_255_mol1.chk"
 Charge =  0 Multiplicity = 1

                         Standard orientation:
 ---------------------------------------------------------------------
 Center     Atomic      Atomic             Coordinates (Angstroms)
 Number     Number       Type             X           Y           Z
 ---------------------------------------------------------------------
      1          6           0       -0.820053    1.603110    0.489841
      2          8           0       -1.715501    1.186725   -0.501293
      3          6           0       -2.431549    0.000021   -0.259273
      4          8           0       -1.715607   -1.186761   -0.501208
      5          6           0       -0.820081   -1.603057    0.489893
      6          8           0        0.522562   -1.228929    0.232767
      7          5           0        1.076145   -0.000008    0.108639
      8         17           0        2.829374   -0.000023   -0.251846
      9          8           0        0.522607    1.228921    0.232886
     10          1           0       -3.251015    0.000028   -0.973555
     11          1           0       -2.812809    0.000077    0.774001
     12          1           0       -0.816866   -2.691137    0.477628
     13          1           0       -1.132456   -1.238132    1.477359
     14          1           0       -1.132524    1.238304    1.477319
     15          1           0       -0.816806    2.691189    0.477455
 ---------------------------------------------------------------------

 SCF Done:  E(RHF) =  -901.083002232     A.U. after    2 cycles

 The electronic state is 1-A.
 Alpha  occ. eigenvalues -- -103.63718 -20.61253 -20.61251 -20.60239 -20.60239
 Alpha  occ. eigenvalues --  -11.38034 -11.38034 -11.37447 -10.67171  -8.32872
 Alpha  occ. eigenvalues --   -8.32659  -8.32641  -7.73125  -1.42788  -1.38343
 Alpha  occ. eigenvalues --   -1.36199  -1.31937  -1.13022  -1.02318  -0.95800
 Alpha  occ. eigenvalues --   -0.89933  -0.80220  -0.75759  -0.75216  -0.74373
 Alpha  occ. eigenvalues --   -0.70210  -0.69039  -0.66896  -0.62729  -0.58895
 Alpha  occ. eigenvalues --   -0.56492  -0.55221  -0.54228  -0.52720  -0.52415
 Alpha  occ. eigenvalues --   -0.50281  -0.48629  -0.46100  -0.45620
 Alpha virt. eigenvalues --    0.02613   0.04164   0.04202   0.04812   0.05807
 Alpha virt. eigenvalues --    0.06665   0.06740   0.07630   0.07776   0.10440
 Alpha virt. eigenvalues --    0.11071   0.12551   0.13133   0.13636   0.13863

 Mulliken charges:
               1
     1  C    1.170104
     2  O   -0.637675
     3  C    1.030814
     4  O   -0.637664
     5  C    1.170150
     6  O   -0.358119
     7  B    0.498135
     8  Cl  -0.429305
     9  O   -0.358103
    10  H   -0.322911
    11  H   -0.002983
    12  H   -0.359395
    13  H   -0.201845
    14  H   -0.201830
    15  H   -0.359375
 Sum of Mulliken charges =   0.00000

 Dipole moment (field-independent basis, Debye):
    X=             -4.4789    Y=              0.0003    Z=              3.2287  Tot=              5.5214

 Test job not archived.
 1\1\GINC-SE059\SP\RHF\Aug-CC-pVDZ\C3H6B1Cl1O4\OHZDE\09-Apr-2025\0\\#t
 hf aug-cc-pvdz iop(5/13=1,5/36=2,99/5=2) pseudo=read geom=check guess=
 (read,tcheck) scf=(maxcycle=1)\\title\\0,1\C,0,-0.820053,1.60311,0.489
 841\O,0,-1.715501,1.186725,-0.501293\C,0,-2.431549,0.000021,-0.259273\
 O,0,-1.715607,-1.186761,-0.501208\C,0,-0.820081,-1.603057,0.489893\O,0
 ,0.522562,-1.228929,0.232767\B,0,1.076145,-0.000008,0.108639\Cl,0,2.82
 9374,-0.000023,-0.251846\O,0,0.522607,1.228921,0.232886\H,0,-3.251015,
 0.000028,-0.973555\H,0,-2.812809,0.000077,0.774001\H,0,-0.816866,-2.69

 Normal termination of Gaussian 16 at Wed Apr  9 00:16:54 2025.
