 Gaussian 16, Revision C.01,

 ----------------------------------------------------------------------
 #t hf aug-cc-pvdz symm=none int=(grid=ultrafine) guess=(read,tcheck) s
 table=(opt,rrhf)
 ----------------------------------------------------------------------
 -----
 title
 -----
 Symbolic Z-matrix:
 Charge =  0 Multiplicity = 1

 SCF Done:  E(RHF) =  -182.555610236     A.U. after   12 cycles

 1\1\GINC-SE249\Stability\RHF\Aug-CC-pVDZ\C4H11B1\OHZDE\09-Apr-2025\0\\
 #t hf aug-cc-pvdz symm=none int=(grid=ultrafine) guess=(read,tcheck) s
 table=(opt,rrhf)\\title\\0,1\B,0,1.006664,0.,1.29076\C,0,-0.009833,0.,
 0.101641\C,0,-0.887305,-1.263834,0.030894\H,0,-1.583906,-1.310786,0.87
 3806\H,0,-0.28084,-2.173509,0.052185\C,0,0.977356,0.,-1.110801\H,0,-1.
 484145,-1.276666,-0.888886\H,0,0.395181,0.,-2.039673\H,0,1.617602,0.88
 7204,-1.124143\H,0,1.617603,-0.887203,-1.124143\C,0,-0.887306,1.263834
 ,0.030894\H,0,-1.583907,1.310785,0.873806\H,0,-1.484146,1.276665,-0.88

 Normal termination of Gaussian 16 at Wed Apr  9 00:23:25 2025.
 Gaussian 16:  ES64L-G16RevC.01  3-Jul-2019

 ----------------------------------------------------------------------
 #t hf aug-cc-pvdz iop(5/13=1,5/36=2,99/5=2) pseudo=read geom=check gue
 ss=(read,tcheck) scf=(maxcycle=1)
 ----------------------------------------------------------------------
 -----
 title
 -----
 Structure from the checkpoint file:  "BDE49_nonexpt_272_mol1.chk"
 Charge =  0 Multiplicity = 1

                         Standard orientation:
 ---------------------------------------------------------------------
 Center     Atomic      Atomic             Coordinates (Angstroms)
 Number     Number       Type             X           Y           Z
 ---------------------------------------------------------------------
      1          5           0       -1.006664   -0.000026    1.290760
      2          6           0        0.009833    0.000000    0.101641
      3          6           0        0.887272    1.263857    0.030894
      4          1           0        1.583872    1.310827    0.873806
      5          1           0        0.280783    2.173516    0.052185
      6          6           0       -0.977356   -0.000025   -1.110801
      7          1           0        1.484112    1.276705   -0.888886
      8          1           0       -0.395181   -0.000010   -2.039673
      9          1           0       -1.617579   -0.887246   -1.124143
     10          1           0       -1.617626    0.887161   -1.124143
     11          6           0        0.887339   -1.263811    0.030894
     12          1           0        1.583941   -1.310744    0.873806
     13          1           0        1.484179   -1.276626   -0.888886
     14          1           0        0.280899   -2.173502    0.052185
     15          1           0       -1.438332    1.027623    1.722091
     16          1           0       -1.438278   -1.027700    1.722091
 ---------------------------------------------------------------------

 SCF Done:  E(RHF) =  -182.615114891     A.U. after    2 cycles

 The electronic state is 1-A.
 Alpha  occ. eigenvalues --  -11.23310 -11.22204 -11.22189 -11.22115  -7.60505
 Alpha  occ. eigenvalues --   -1.07102  -0.92794  -0.92379  -0.77966  -0.66954
 Alpha  occ. eigenvalues --   -0.60365  -0.59404  -0.58450  -0.54345  -0.54240
 Alpha  occ. eigenvalues --   -0.51703  -0.48574  -0.46740  -0.45070  -0.42007
 Alpha virt. eigenvalues --    0.03189   0.04199   0.04717   0.05079   0.06183
 Alpha virt. eigenvalues --    0.06446   0.06598   0.07001   0.07006   0.08996
 Alpha virt. eigenvalues --    0.09336   0.09628   0.10641   0.11095   0.12792

 Mulliken charges:
               1
     1  B   -0.654126
     2  C   -2.282174
     3  C    0.950430
     4  H   -0.069438
     5  H   -0.078383
     6  C    0.834868
     7  H   -0.007548
     8  H   -0.038365
     9  H   -0.121840
    10  H   -0.121841
    11  C    0.950431
    12  H   -0.069438
    13  H   -0.007548
    14  H   -0.078384
    15  H    0.396679
    16  H    0.396677
 Sum of Mulliken charges =   0.00000

 Dipole moment (field-independent basis, Debye):
    X=              0.2288    Y=              0.0000    Z=             -0.4002  Tot=              0.4610

 Test job not archived.
 1\1\GINC-SE249\SP\RHF\Aug-CC-pVDZ\C4H11B1\OHZDE\09-Apr-2025\0\\#t hf a
 ug-cc-pvdz iop(5/13=1,5/36=2,99/5=2) pseudo=read geom=check guess=(rea
 d,tcheck) scf=(maxcycle=1)\\title\\0,1\B,0,1.006664,0.,1.29076\C,0,-0.
 009833,0.,0.101641\C,0,-0.887305,-1.263834,0.030894\H,0,-1.583906,-1.3
 10786,0.873806\H,0,-0.28084,-2.173509,0.052185\C,0,0.977356,0.,-1.1108
 01\H,0,-1.484145,-1.276666,-0.888886\H,0,0.395181,0.,-2.039673\H,0,1.6
 17602,0.887204,-1.124143\H,0,1.617603,-0.887203,-1.124143\C,0,-0.88730
 6,1.263834,0.030894\H,0,-1.583907,1.310785,0.873806\H,0,-1.484146,1.27

 Normal termination of Gaussian 16 at Wed Apr  9 00:23:30 2025.
