 Gaussian 16, Revision C.01,

 ----------------------------------------------------------------------
 #t hf aug-cc-pvdz symm=none int=(grid=ultrafine) guess=(read,tcheck) s
 table=(opt,rrhf)
 ----------------------------------------------------------------------
 -----
 title
 -----
 Symbolic Z-matrix:
 Charge =  0 Multiplicity = 1

 SCF Done:  E(RHF) =  -477.456672084     A.U. after   15 cycles
 Normal termination of Gaussian 16 at Wed Apr  9 00:51:44 2025.
 Gaussian 16:  ES64L-G16RevC.01  3-Jul-2019

 ----------------------------------------------------------------------
 #t hf aug-cc-pvdz iop(5/13=1,5/36=2,99/5=2) pseudo=read geom=check gue
 ss=(read,tcheck) scf=(maxcycle=1)
 ----------------------------------------------------------------------
 -----
 title
 -----
 Structure from the checkpoint file:  "BDE49_nonexpt_961_mol1.chk"
 Charge =  0 Multiplicity = 1

                         Standard orientation:
 ---------------------------------------------------------------------
 Center     Atomic      Atomic             Coordinates (Angstroms)
 Number     Number       Type             X           Y           Z
 ---------------------------------------------------------------------
      1          9           0       -1.860651   -1.229726    0.943001
      2          7           0       -1.457476   -0.734212   -0.414714
      3          6           0       -2.037027    0.617581   -0.505048
      4          7           0       -1.036754    1.592419   -0.035023
      5          1           0       -1.274262    2.100435    0.807888
      6          6           0       -0.060054   -0.473510   -0.280704
      7          6           0        0.972060   -1.397391   -0.352579
      8          1           0        0.759844   -2.436696   -0.570682
      9          6           0        2.500557    0.402576    0.192729
     10          1           0        3.516444    0.735697    0.373957
     11          6           0        0.168495    0.876362    0.013575
     12          6           0        2.267760   -0.943720   -0.114721
     13          1           0        3.100825   -1.634152   -0.166640
     14          6           0        1.462511    1.331684    0.256579
     15          1           0        1.657383    2.373559    0.481544
     16          1           0       -2.973576    0.655513    0.045915
     17          1           0       -2.227010    0.784236   -1.569813
 ---------------------------------------------------------------------

 SCF Done:  E(RHF) =  -477.598966360     A.U. after    2 cycles

 The electronic state is 1-A.
 Alpha  occ. eigenvalues --  -26.10027 -15.73361 -15.64821 -11.31991 -11.29928
 Alpha  occ. eigenvalues --  -11.27717 -11.26394 -11.26368 -11.25412 -11.24951
 Alpha  occ. eigenvalues --   -1.60464  -1.28052  -1.14327  -1.13820  -1.01342
 Alpha  occ. eigenvalues --   -1.01137  -0.88536  -0.84828  -0.82415  -0.74336
 Alpha  occ. eigenvalues --   -0.71819  -0.71145  -0.68139  -0.67199  -0.65599
 Alpha  occ. eigenvalues --   -0.63498  -0.61493  -0.59319  -0.56457  -0.53781
 Alpha  occ. eigenvalues --   -0.53332  -0.51679  -0.45474  -0.44397  -0.35522
 Alpha  occ. eigenvalues --   -0.31989
 Alpha virt. eigenvalues --    0.03107   0.03499   0.04111   0.04924   0.05465
 Alpha virt. eigenvalues --    0.06232   0.07707   0.08281   0.10118   0.10629
 Alpha virt. eigenvalues --    0.11272   0.12481   0.13283   0.13592   0.14147

 Mulliken charges:
               1
     1  F   -0.505142
     2  N   -0.820650
     3  C    1.043199
     4  N   -0.543215
     5  H   -0.037327
     6  C    0.266604
     7  C    0.998322
     8  H   -0.482760
     9  C    0.578537
    10  H   -0.448107
    11  C   -0.706062
    12  C    0.682757
    13  H   -0.452441
    14  C    1.260149
    15  H   -0.493555
    16  H   -0.174231
    17  H   -0.166078
 Sum of Mulliken charges =  -0.00000

 Dipole moment (field-independent basis, Debye):
    X=              1.1543    Y=              2.3625    Z=             -0.4646  Tot=              2.6701

 Test job not archived.
 1\1\GINC-SE186\SP\RHF\Aug-CC-pVDZ\C7H7F1N2\OHZDE\09-Apr-2025\0\\#t hf
 aug-cc-pvdz iop(5/13=1,5/36=2,99/5=2) pseudo=read geom=check guess=(re
 ad,tcheck) scf=(maxcycle=1)\\title\\0,1\F,0,-1.860651,-1.229726,0.9430
 01\N,0,-1.457476,-0.734212,-0.414714\C,0,-2.037027,0.617581,-0.505048\
 N,0,-1.036754,1.592419,-0.035023\H,0,-1.274262,2.100435,0.807888\C,0,-
 0.060054,-0.47351,-0.280704\C,0,0.97206,-1.397391,-0.352579\H,0,0.7598
 44,-2.436696,-0.570682\C,0,2.500557,0.402576,0.192729\H,0,3.516444,0.7
 35697,0.373957\C,0,0.168495,0.876362,0.013575\C,0,2.26776,-0.94372,-0.

 Normal termination of Gaussian 16 at Wed Apr  9 00:51:54 2025.
