 Gaussian 16, Revision C.01,

 ----------------------------------------------------------------------
 #t hf aug-cc-pvdz symm=none int=(grid=ultrafine) guess=(read,tcheck) s
 table=opt
 ----------------------------------------------------------------------
 -----
 title
 -----
 Symbolic Z-matrix:
 Charge =  0 Multiplicity = 2

 SCF Done:  E(UHF) =  -1455.37682477     A.U. after   18 cycles

 1\1\GINC-SE252\Stability\UHF\Aug-CC-pVDZ\C2H2Cl3\OHZDE\08-Apr-2025\0\\
 #t hf aug-cc-pvdz symm=none int=(grid=ultrafine) guess=(read,tcheck) s
 table=opt\\title\\0,2\C,0,1.007773,-0.789375,0.\C,0,0.375016,0.530413,
 0.\H,0,1.602043,-0.941714,-0.897043\Cl,0,-0.225506,-2.186152,0.\H,0,1.
 602043,-0.941714,0.897043\Cl,0,-0.225506,1.19417,-1.466005\Cl,0,-0.225
 506,1.19417,1.466005\\Version=ES64L-G16RevC.01\HF=-1455.3768248\S2=0.7
 75368\S2-1=0.\S2A=0.750544\RMSD=7.071e-09\Dipole=0.7839845,0.2122815,0
 .\Quadrupole=2.1868222,-2.9725441,0.785722,-1.4633636,0.,0.\PG=Unknown

 Normal termination of Gaussian 16 at Tue Apr  8 22:46:36 2025.
 Gaussian 16:  ES64L-G16RevC.01  3-Jul-2019

 ----------------------------------------------------------------------
 #t hf aug-cc-pvdz iop(5/13=1,5/36=2,99/5=2) pseudo=read geom=check gue
 ss=(read,tcheck) scf=(maxcycle=1)
 ----------------------------------------------------------------------
 -----
 title
 -----
 Structure from the checkpoint file:  "BDE49_expt_1636_mol2.chk"
 Charge =  0 Multiplicity = 2

                         Standard orientation:
 ---------------------------------------------------------------------
 Center     Atomic      Atomic             Coordinates (Angstroms)
 Number     Number       Type             X           Y           Z
 ---------------------------------------------------------------------
      1          6           0       -1.007773   -0.789375   -0.000000
      2          6           0       -0.375016    0.530413    0.000000
      3          1           0       -1.602043   -0.941714    0.897043
      4         17           0        0.225506   -2.186152   -0.000000
      5          1           0       -1.602043   -0.941714   -0.897043
      6         17           0        0.225506    1.194170    1.466005
      7         17           0        0.225506    1.194170   -1.466005
 ---------------------------------------------------------------------

 SCF Done:  E(UHF) =  -1455.45700091     A.U. after    2 cycles

 The electronic state is 2-A'.
 Alpha  occ. eigenvalues -- -103.70012-103.70012-103.66426 -11.39259 -11.34262
 Alpha  occ. eigenvalues --  -10.73316 -10.73303 -10.69642  -8.38944  -8.38941
 Alpha  occ. eigenvalues --   -8.38825  -8.38822  -8.38704  -8.38703  -8.35627
 Alpha  occ. eigenvalues --   -8.35017  -8.35003  -1.26825  -1.17537  -1.16709
 Alpha  occ. eigenvalues --   -1.01787  -0.82847  -0.69488  -0.67404  -0.64399
 Alpha  occ. eigenvalues --   -0.59641  -0.55154  -0.51416  -0.51157  -0.48480
 Alpha  occ. eigenvalues --   -0.46882  -0.46388  -0.37989
 Alpha virt. eigenvalues --    0.03558   0.05410   0.06912   0.07880   0.08834
 Alpha virt. eigenvalues --    0.09965   0.12894   0.13752   0.14951   0.15010
 Alpha virt. eigenvalues --    0.15745   0.16295   0.17049   0.17450   0.18291

  Beta  occ. eigenvalues -- -103.69986-103.69986-103.66239 -11.36411 -11.34663
  Beta  occ. eigenvalues --  -10.73286 -10.73272 -10.69445  -8.39168  -8.39163
  Beta  occ. eigenvalues --   -8.38686  -8.38685  -8.38497  -8.38496  -8.34947
  Beta  occ. eigenvalues --   -8.34895  -8.34830  -1.24337  -1.17205  -1.15672
  Beta  occ. eigenvalues --   -0.99714  -0.78783  -0.68859  -0.65442  -0.59166
  Beta  occ. eigenvalues --   -0.57864  -0.52542  -0.51086  -0.49121  -0.48436
  Beta  occ. eigenvalues --   -0.46328  -0.45992
  Beta virt. eigenvalues --    0.03474   0.04115   0.05407   0.07164   0.08983
  Beta virt. eigenvalues --    0.09010   0.10708   0.13376   0.13909   0.15006
  Beta virt. eigenvalues --    0.15444   0.16256   0.16765   0.17174   0.17554

 Mulliken charges and spin densities:
               1          2
     1  C    0.171744  -0.262150
     2  C    0.029349   1.130485
     3  H    0.076180   0.010470
     4  Cl  -0.119954   0.125623
     5  H    0.076180   0.010470
     6  Cl  -0.116749  -0.007449
     7  Cl  -0.116749  -0.007449
 Sum of Mulliken charges =  -0.00000   1.00000

 Dipole moment (field-independent basis, Debye):
    X=             -2.0633    Y=              0.5440    Z=              0.0000  Tot=              2.1338
                          Isotropic Fermi Contact Couplings
        Atom                 a.u.       MegaHertz       Gauss      10(-4) cm-1
     1  C(13)             -0.04517     -50.77951     -18.11939     -16.93822
     2  C(13)              0.32312     363.24756     129.61576     121.16634
     3  H(1)               0.00506      22.61636       8.07008       7.54401
     4  Cl(35)             0.05401      23.68325       8.45077       7.89988
     5  H(1)               0.00506      22.61636       8.07008       7.54401
     6  Cl(35)             0.03520      15.43363       5.50710       5.14810
     7  Cl(35)             0.03520      15.43363       5.50710       5.14810
 --------------------------------------------------------

 Normal termination of Gaussian 16 at Tue Apr  8 22:46:39 2025.
