 Gaussian 16, Revision C.01,

 ----------------------------------------------------------------------
 #t hf aug-cc-pvdz symm=none int=(grid=ultrafine) guess=(read,tcheck) s
 table=(opt,rrhf)
 ----------------------------------------------------------------------
 -----
 title
 -----
 Symbolic Z-matrix:
 Charge =  0 Multiplicity = 1

 SCF Done:  E(RHF) =  -511.369381914     A.U. after   13 cycles
 Normal termination of Gaussian 16 at Tue Apr  8 23:37:08 2025.
 Gaussian 16:  ES64L-G16RevC.01  3-Jul-2019

 ----------------------------------------------------------------------
 #t hf aug-cc-pvdz iop(5/13=1,5/36=2,99/5=2) pseudo=read geom=check gue
 ss=(read,tcheck) scf=(maxcycle=1)
 ----------------------------------------------------------------------
 -----
 title
 -----
 Structure from the checkpoint file:  "BDE49_nonexpt_1564_mol1.chk"
 Charge =  0 Multiplicity = 1

                         Standard orientation:
 ---------------------------------------------------------------------
 Center     Atomic      Atomic             Coordinates (Angstroms)
 Number     Number       Type             X           Y           Z
 ---------------------------------------------------------------------
      1         15           0        0.649730   -0.730060   -0.076980
      2          7           0       -1.025124   -0.515510    0.294892
      3          8           0       -1.612576    0.733139   -0.135143
      4          6           0        1.420811    0.946678    0.113807
      5          1           0       -2.264087    0.441628   -0.782653
      6          1           0        0.779218    1.727523   -0.294502
      7          1           0        2.379661    0.949007   -0.412652
      8          1           0        1.613537    1.147591    1.170014
      9          1           0        0.499296   -0.680036   -1.484650
     10          1           0       -1.201963   -0.571432    1.293199
 ---------------------------------------------------------------------

 SCF Done:  E(RHF) =  -511.450510951     A.U. after    2 cycles

 The electronic state is 1-A.
 Alpha  occ. eigenvalues --  -81.27497 -20.61155 -15.67462 -11.23285  -7.77563
 Alpha  occ. eigenvalues --   -4.91674  -4.91435  -4.91174  -1.35519  -1.06546
 Alpha  occ. eigenvalues --   -0.95589  -0.76304  -0.70242  -0.65084  -0.60929
 Alpha  occ. eigenvalues --   -0.57475  -0.55452  -0.50980  -0.48595  -0.40325
 Alpha  occ. eigenvalues --   -0.34820
 Alpha virt. eigenvalues --    0.03609   0.04715   0.04763   0.05788   0.07494
 Alpha virt. eigenvalues --    0.07665   0.09692   0.10058   0.11909   0.15201
 Alpha virt. eigenvalues --    0.15934   0.16481   0.17035   0.18236   0.18874

 Mulliken charges:
               1
     1  P    0.771429
     2  N   -0.327615
     3  O   -0.542443
     4  C    0.094815
     5  H    0.207546
     6  H   -0.118029
     7  H   -0.139202
     8  H   -0.121258
     9  H    0.065837
    10  H    0.108918
 Sum of Mulliken charges =   0.00000

 Dipole moment (field-independent basis, Debye):
    X=             -0.2088    Y=              0.3758    Z=             -0.1985  Tot=              0.4736

 Test job not archived.
 1\1\GINC-SE043\SP\RHF\Aug-CC-pVDZ\C1H6N1O1P1\OHZDE\08-Apr-2025\0\\#t h
 f aug-cc-pvdz iop(5/13=1,5/36=2,99/5=2) pseudo=read geom=check guess=(
 read,tcheck) scf=(maxcycle=1)\\title\\0,1\P,0,0.64973,-0.73006,-0.0769
 8\N,0,-1.025124,-0.51551,0.294892\O,0,-1.612576,0.733139,-0.135143\C,0
 ,1.420811,0.946678,0.113807\H,0,-2.264087,0.441628,-0.782653\H,0,0.779
 218,1.727523,-0.294502\H,0,2.379661,0.949006,-0.412652\H,0,1.613537,1.
 147591,1.170014\H,0,0.499296,-0.680036,-1.48465\H,0,-1.201963,-0.57143
 2,1.293199\\Version=ES64L-G16RevC.01\State=1-A\HF=-511.450511\RMSD=6.8

 Normal termination of Gaussian 16 at Tue Apr  8 23:37:13 2025.
