 Gaussian 16, Revision C.01,

 ----------------------------------------------------------------------
 #t hf aug-cc-pvdz symm=none int=(grid=ultrafine) guess=(read,tcheck) s
 table=(opt,rrhf)
 ----------------------------------------------------------------------
 -----
 title
 -----
 Symbolic Z-matrix:
 Charge =  0 Multiplicity = 1

 SCF Done:  E(RHF) =  -618.011472309     A.U. after   13 cycles
 Normal termination of Gaussian 16 at Wed Apr  9 00:42:16 2025.
 Gaussian 16:  ES64L-G16RevC.01  3-Jul-2019

 ----------------------------------------------------------------------
 #t hf aug-cc-pvdz iop(5/13=1,5/36=2,99/5=2) pseudo=read geom=check gue
 ss=(read,tcheck) scf=(maxcycle=1)
 ----------------------------------------------------------------------
 -----
 title
 -----
 Structure from the checkpoint file:  "BDE49_nonexpt_715_mol1.chk"
 Charge =  0 Multiplicity = 1

                         Standard orientation:
 ---------------------------------------------------------------------
 Center     Atomic      Atomic             Coordinates (Angstroms)
 Number     Number       Type             X           Y           Z
 ---------------------------------------------------------------------
      1          6           0       -0.243549    2.127363    0.238468
      2          5           0       -0.355418    0.577680   -0.071947
      3          1           0       -1.187626    2.676420    0.270396
      4          1           0        0.389226    2.622567   -0.505632
      5          1           0        0.258574    2.289621    1.200813
      6         15           0        1.277815   -0.426101   -0.521277
      7          7           0       -1.581385   -0.113419   -0.090211
      8          6           0       -2.870762    0.466085    0.279237
      9          1           0       -2.759558    1.494550    0.610660
     10          1           0       -3.328563   -0.107764    1.094285
     11          1           0       -3.564462    0.445260   -0.570554
     12          6           0       -1.725532   -1.517608   -0.467285
     13          1           0       -2.533056   -1.628345   -1.200482
     14          1           0       -0.808121   -1.890775   -0.920486
     15          1           0       -1.975985   -2.141459    0.399916
     16          6           0        1.494674   -1.476463    1.014302
     17          1           0        1.456614   -0.892552    1.938216
     18          1           0        2.462218   -1.982174    0.962690
     19          1           0        0.721452   -2.245673    1.057377
     20          6           0        2.637608    0.813222   -0.226172
     21          1           0        3.599291    0.300466   -0.307803
     22          1           0        2.610759    1.581486   -1.001884
     23          1           0        2.584163    1.299833    0.751556
 ---------------------------------------------------------------------

 SCF Done:  E(RHF) =  -618.124004014     A.U. after    2 cycles

 The electronic state is 1-A.
 Alpha  occ. eigenvalues --  -81.21538 -15.62221 -11.26348 -11.26106 -11.22676
 Alpha  occ. eigenvalues --  -11.22185 -11.20030  -7.72010  -7.60101  -4.86079
 Alpha  occ. eigenvalues --   -4.85994  -4.85740  -1.17895  -0.96850  -0.95897
 Alpha  occ. eigenvalues --   -0.93201  -0.91866  -0.86800  -0.71297  -0.66658
 Alpha  occ. eigenvalues --   -0.63092  -0.61456  -0.58954  -0.57568  -0.55802
 Alpha  occ. eigenvalues --   -0.55065  -0.55020  -0.54496  -0.53547  -0.53139
 Alpha  occ. eigenvalues --   -0.51362  -0.49119  -0.44263  -0.40380  -0.37555
 Alpha  occ. eigenvalues --   -0.29406
 Alpha virt. eigenvalues --    0.03117   0.04049   0.04225   0.04630   0.05958
 Alpha virt. eigenvalues --    0.06131   0.06521   0.07014   0.07348   0.08099
 Alpha virt. eigenvalues --    0.08215   0.08778   0.08896   0.09364   0.09624

 Mulliken charges:
               1
     1  C    0.570023
     2  B    0.655259
     3  H   -0.435163
     4  H   -0.090155
     5  H   -0.084470
     6  P   -0.004228
     7  N   -0.442843
     8  C    0.717754
     9  H   -0.420280
    10  H   -0.052402
    11  H   -0.112697
    12  C    0.879944
    13  H   -0.139163
    14  H   -0.356462
    15  H   -0.120484
    16  C    0.490899
    17  H   -0.179206
    18  H   -0.180889
    19  H   -0.298950
    20  C    0.355081
    21  H   -0.334680
    22  H   -0.232408
    23  H   -0.184480
 Sum of Mulliken charges =  -0.00000

 Dipole moment (field-independent basis, Debye):
    X=             -1.4967    Y=              0.2024    Z=              1.1657  Tot=              1.9079

 Test job not archived.
 1\1\GINC-SE343\SP\RHF\Aug-CC-pVDZ\C5H15B1N1P1\OHZDE\09-Apr-2025\0\\#t
 hf aug-cc-pvdz iop(5/13=1,5/36=2,99/5=2) pseudo=read geom=check guess=
 (read,tcheck) scf=(maxcycle=1)\\title\\0,1\C,0,-0.243549,2.127363,0.23
 8468\B,0,-0.355418,0.57768,-0.071947\H,0,-1.187626,2.67642,0.270396\H,
 0,0.389226,2.622567,-0.505632\H,0,0.258574,2.289621,1.200813\P,0,1.277
 815,-0.426101,-0.521277\N,0,-1.581385,-0.113419,-0.090211\C,0,-2.87076
 2,0.466085,0.279237\H,0,-2.759558,1.49455,0.61066\H,0,-3.328563,-0.107
 764,1.094285\H,0,-3.564462,0.44526,-0.570554\C,0,-1.725532,-1.517608,-

 Normal termination of Gaussian 16 at Wed Apr  9 00:42:27 2025.
