 Gaussian 16, Revision C.01,

 ----------------------------------------------------------------------
 #t hf aug-cc-pvdz symm=none int=(grid=ultrafine) guess=(read,tcheck) s
 table=(opt,rrhf)
 ----------------------------------------------------------------------
 -----
 title
 -----
 Symbolic Z-matrix:
 Charge =  0 Multiplicity = 1

 SCF Done:  E(RHF) =  -1294.18062312     A.U. after   15 cycles
 Normal termination of Gaussian 16 at Tue Apr  8 22:58:36 2025.
 Gaussian 16:  ES64L-G16RevC.01  3-Jul-2019

 ----------------------------------------------------------------------
 #t hf aug-cc-pvdz iop(5/13=1,5/36=2,99/5=2) pseudo=read geom=check gue
 ss=(read,tcheck) scf=(maxcycle=1)
 ----------------------------------------------------------------------
 -----
 title
 -----
 Structure from the checkpoint file:  "BDE49_expt_1979_mol1.chk"
 Charge =  0 Multiplicity = 1

                         Standard orientation:
 ---------------------------------------------------------------------
 Center     Atomic      Atomic             Coordinates (Angstroms)
 Number     Number       Type             X           Y           Z
 ---------------------------------------------------------------------
      1         16           0       -1.276677   -0.352753   -0.556482
      2         16           0        0.413647   -0.830811    0.445689
      3         17           0        1.919967    0.549342   -0.160007
      4          6           0       -2.037991    0.980976    0.440991
      5          1           0       -3.006706    1.183967   -0.021206
      6          1           0       -1.418240    1.875291    0.398850
      7          1           0       -2.178056    0.653095    1.469216
 ---------------------------------------------------------------------

 SCF Done:  E(RHF) =  -1294.25625271     A.U. after    2 cycles

 The electronic state is 1-A.
 Alpha  occ. eigenvalues -- -103.67366 -93.62322 -93.58679 -11.28897 -10.70495
 Alpha  occ. eigenvalues --   -8.91503  -8.88300  -8.36212  -8.35876  -8.35851
 Alpha  occ. eigenvalues --   -6.25511  -6.25253  -6.24838  -6.22398  -6.22106
 Alpha  occ. eigenvalues --   -6.21817  -1.15835  -1.07124  -0.95816  -0.80924
 Alpha  occ. eigenvalues --   -0.62214  -0.61767  -0.57185  -0.53460  -0.51883
 Alpha  occ. eigenvalues --   -0.48913  -0.44685  -0.38944  -0.37577
 Alpha virt. eigenvalues --    0.03063   0.03370   0.05489   0.06062   0.07547
 Alpha virt. eigenvalues --    0.07903   0.11663   0.12229   0.13354   0.13695
 Alpha virt. eigenvalues --    0.14470   0.14647   0.16252   0.16570   0.16809

 Mulliken charges:
               1
     1  S    0.157660
     2  S    0.207660
     3  Cl  -0.308767
     4  C    0.056062
     5  H   -0.054059
     6  H   -0.019711
     7  H   -0.038846
 Sum of Mulliken charges =  -0.00000

 Dipole moment (field-independent basis, Debye):
    X=             -2.7178    Y=              0.7267    Z=              0.8697  Tot=              2.9446

 Test job not archived.
 1\1\GINC-SE332\SP\RHF\Aug-CC-pVDZ\C1H3Cl1S2\OHZDE\08-Apr-2025\0\\#t hf
  aug-cc-pvdz iop(5/13=1,5/36=2,99/5=2) pseudo=read geom=check guess=(r
 ead,tcheck) scf=(maxcycle=1)\\title\\0,1\S,0,-1.276677,-0.352753,-0.55
 6482\S,0,0.413647,-0.830811,0.445689\Cl,0,1.919967,0.549342,-0.160007\
 C,0,-2.037991,0.980976,0.440991\H,0,-3.006706,1.183967,-0.021206\H,0,-
 1.41824,1.875291,0.39885\H,0,-2.178056,0.653095,1.469216\\Version=ES64
 L-G16RevC.01\State=1-A\HF=-1294.2562527\RMSD=4.500e-03\Dipole=-1.06925
 07,0.2859033,0.3421786\Quadrupole=1.236941,-0.0083332,-1.2286078,-2.15

 Normal termination of Gaussian 16 at Tue Apr  8 22:58:38 2025.
