 Gaussian 16, Revision C.01,

 ----------------------------------------------------------------------
 #t hf aug-cc-pvdz symm=none int=(grid=ultrafine) guess=(read,tcheck) s
 table=opt
 ----------------------------------------------------------------------
 -----
 title
 -----
 Symbolic Z-matrix:
 Charge =  0 Multiplicity = 2

 SCF Done:  E(UHF) =  -665.797264832     A.U. after   25 cycles
 Normal termination of Gaussian 16 at Tue Apr  8 23:21:47 2025.
 Gaussian 16:  ES64L-G16RevC.01  3-Jul-2019

 ----------------------------------------------------------------------
 #t hf aug-cc-pvdz iop(5/13=1,5/36=2,99/5=2) pseudo=read geom=check gue
 ss=(read,tcheck) scf=(maxcycle=1)
 ----------------------------------------------------------------------
 -----
 title
 -----
 Structure from the checkpoint file:  "BDE49_nonexpt_1192_mol2.chk"
 Charge =  0 Multiplicity = 2

                         Standard orientation:
 ---------------------------------------------------------------------
 Center     Atomic      Atomic             Coordinates (Angstroms)
 Number     Number       Type             X           Y           Z
 ---------------------------------------------------------------------
      1         16           0        2.346902   -0.486764    0.184069
      2          6           0        0.808987    0.346857   -0.071831
      3          8           0        0.890375    1.426831   -0.619946
      4          6           0       -0.475302   -0.308761    0.340846
      5          6           0       -1.631840    0.615499    0.826004
      6          6           0       -1.413412   -0.778557   -0.824247
      7          1           0       -0.272269   -1.124020    1.039578
      8          6           0       -2.620615   -0.220779   -0.027095
      9          1           0       -1.501810    1.624087    0.431547
     10          1           0       -3.379494    0.324019   -0.590044
     11          1           0       -3.111886   -0.998251    0.562115
     12          1           0       -1.397414   -1.842196   -1.063426
     13          1           0       -1.221623   -0.201342   -1.730336
     14          1           0       -1.795852    0.665720    1.902972
 ---------------------------------------------------------------------

 SCF Done:  E(UHF) =  -665.895568873     A.U. after    2 cycles

 The electronic state is 2-A.
 Alpha  occ. eigenvalues --  -93.57910 -20.57745 -11.38073 -11.26849 -11.25450
 Alpha  occ. eigenvalues --  -11.24883 -11.24568  -8.87768  -6.23136  -6.21431
 Alpha  occ. eigenvalues --   -6.20975  -1.37408  -1.14196  -1.03259  -0.94019
 Alpha  occ. eigenvalues --   -0.91402  -0.79775  -0.74367  -0.68836  -0.67503
 Alpha  occ. eigenvalues --   -0.62596  -0.59528  -0.57992  -0.55976  -0.51351
 Alpha  occ. eigenvalues --   -0.50206  -0.48124  -0.45988  -0.45170  -0.42416
 Alpha  occ. eigenvalues --   -0.40492
 Alpha virt. eigenvalues --    0.03196   0.04380   0.04481   0.05170   0.06612
 Alpha virt. eigenvalues --    0.07390   0.07708   0.07831   0.09695   0.10550
 Alpha virt. eigenvalues --    0.12033   0.12666   0.13128   0.13693   0.13985

  Beta  occ. eigenvalues --  -93.56979 -20.57582 -11.38178 -11.26832 -11.25450
  Beta  occ. eigenvalues --  -11.24871 -11.24568  -8.86729  -6.20905  -6.20375
  Beta  occ. eigenvalues --   -6.19067  -1.36912  -1.14128  -0.99231  -0.91489
  Beta  occ. eigenvalues --   -0.90745  -0.78779  -0.73918  -0.67718  -0.67255
  Beta  occ. eigenvalues --   -0.61037  -0.59426  -0.57453  -0.55965  -0.50272
  Beta  occ. eigenvalues --   -0.49857  -0.47653  -0.45977  -0.41412  -0.38178
  Beta virt. eigenvalues --   -0.00029   0.03267   0.04443   0.04576   0.05207
  Beta virt. eigenvalues --    0.06678   0.07406   0.07791   0.08067   0.09606
  Beta virt. eigenvalues --    0.10708   0.12120   0.12887   0.13604   0.13812

 Mulliken charges and spin densities:
               1          2
     1  S    0.243860   1.098968
     2  C   -0.056577  -0.112789
     3  O   -0.554419   0.011845
     4  C    0.450465  -0.011371
     5  C    0.387941   0.007282
     6  C    0.316917   0.007880
     7  H   -0.224718  -0.000427
     8  C    0.566626  -0.002533
     9  H   -0.196273  -0.001049
    10  H   -0.182157  -0.000109
    11  H   -0.202548  -0.000349
    12  H   -0.175004   0.001749
    13  H   -0.211289   0.000770
    14  H   -0.162823   0.000133
 Sum of Mulliken charges =  -0.00000   1.00000

 Dipole moment (field-independent basis, Debye):
    X=             -1.9663    Y=             -2.4787    Z=              1.2260  Tot=              3.3931
                          Isotropic Fermi Contact Couplings
        Atom                 a.u.       MegaHertz       Gauss      10(-4) cm-1
     1  S(33)              0.21412      73.54351      26.24215      24.53148
     2  C(13)             -0.01774     -19.94665      -7.11746      -6.65348
     3  O(17)              0.02615     -15.85270      -5.65664      -5.28789
     4  C(13)              0.00301       3.38087       1.20638       1.12774
     5  C(13)              0.00186       2.09169       0.74637       0.69771
     6  C(13)             -0.00028      -0.31333      -0.11180      -0.10451
     7  H(1)               0.00102       4.55238       1.62440       1.51851
     8  C(13)              0.00003       0.03854       0.01375       0.01285

 Normal termination of Gaussian 16 at Tue Apr  8 23:21:53 2025.
