 Gaussian 16, Revision C.01,

 ----------------------------------------------------------------------
 #t hf aug-cc-pvdz symm=none int=(grid=ultrafine) guess=(read,tcheck) s
 table=(opt,rrhf)
 ----------------------------------------------------------------------
 -----
 title
 -----
 Symbolic Z-matrix:
 Charge =  0 Multiplicity = 1

 SCF Done:  E(RHF) =  -684.422839598     A.U. after   16 cycles

 1\1\GINC-SE453\Stability\RHF\Aug-CC-pVDZ\Cl1H1O3\OHZDE\08-Apr-2025\0\\
 #t hf aug-cc-pvdz symm=none int=(grid=ultrafine) guess=(read,tcheck) s
 table=(opt,rrhf)\\title\\0,1\Cl,0,1.433611,-0.256271,0.038151\O,0,0.00
 2981,0.81202,-0.326615\O,0,-1.066786,0.476904,0.432666\O,0,-1.794423,-
 0.575987,-0.223605\H,0,-1.505563,-1.346891,0.291873\\Version=ES64L-G16
 RevC.01\HF=-684.4228396\RMSD=4.737e-09\Dipole=0.1502533,-0.7455004,0.3
 492051\Quadrupole=-0.5939751,1.6673668,-1.0733917,1.0666512,-0.791504,
 -1.0031092\PG=Unknown\\@

 Normal termination of Gaussian 16 at Tue Apr  8 23:15:47 2025.
 Gaussian 16:  ES64L-G16RevC.01  3-Jul-2019

 ----------------------------------------------------------------------
 #t hf aug-cc-pvdz iop(5/13=1,5/36=2,99/5=2) pseudo=read geom=check gue
 ss=(read,tcheck) scf=(maxcycle=1)
 ----------------------------------------------------------------------
 -----
 title
 -----
 Structure from the checkpoint file:  "BDE49_nonexpt_1048_mol1.chk"
 Charge =  0 Multiplicity = 1

                         Standard orientation:
 ---------------------------------------------------------------------
 Center     Atomic      Atomic             Coordinates (Angstroms)
 Number     Number       Type             X           Y           Z
 ---------------------------------------------------------------------
      1         17           0        1.433611   -0.256271    0.038151
      2          8           0        0.002981    0.812020   -0.326615
      3          8           0       -1.066786    0.476904    0.432666
      4          8           0       -1.794423   -0.575987   -0.223605
      5          1           0       -1.505563   -1.346891    0.291873
 ---------------------------------------------------------------------

 SCF Done:  E(RHF) =  -684.513361056     A.U. after    2 cycles

 The electronic state is 1-A.
 Alpha  occ. eigenvalues -- -103.73389 -20.75200 -20.74659 -20.68397 -10.76068
 Alpha  occ. eigenvalues --   -8.41795  -8.41398  -8.41370  -1.55179  -1.37065
 Alpha  occ. eigenvalues --   -1.19724  -1.07874  -0.80365  -0.75833  -0.74915
 Alpha  occ. eigenvalues --   -0.66604  -0.59248  -0.57327  -0.52272  -0.51034
 Alpha  occ. eigenvalues --   -0.49079
 Alpha virt. eigenvalues --    0.00737   0.03742   0.10987   0.11715   0.12872
 Alpha virt. eigenvalues --    0.14466   0.15666   0.16945   0.19086   0.21327
 Alpha virt. eigenvalues --    0.21871   0.23342   0.26115   0.27135   0.27866

 Mulliken charges:
               1
     1  Cl   0.278672
     2  O   -0.246441
     3  O   -0.124807
     4  O   -0.142972
     5  H    0.235548
 Sum of Mulliken charges =  -0.00000

 Dipole moment (field-independent basis, Debye):
    X=              0.5447    Y=             -2.0589    Z=              0.9440  Tot=              2.3295

 Test job not archived.
 1\1\GINC-SE453\SP\RHF\Aug-CC-pVDZ\Cl1H1O3\OHZDE\08-Apr-2025\0\\#t hf a
 ug-cc-pvdz iop(5/13=1,5/36=2,99/5=2) pseudo=read geom=check guess=(rea
 d,tcheck) scf=(maxcycle=1)\\title\\0,1\Cl,0,1.433611,-0.256271,0.03815
 1\O,0,0.002981,0.81202,-0.326615\O,0,-1.066786,0.476904,0.432666\O,0,-
 1.794423,-0.575987,-0.223605\H,0,-1.505563,-1.346891,0.291873\\Version
 =ES64L-G16RevC.01\State=1-A\HF=-684.5133611\RMSD=2.903e-03\Dipole=0.21
 42965,-0.8100213,0.3713985\Quadrupole=-0.5119136,1.6477114,-1.1357978,
 1.0655547,-0.8080654,-1.0134609\PG=C01 [X(Cl1H1O3)]\\@

 Normal termination of Gaussian 16 at Tue Apr  8 23:15:49 2025.
