 Gaussian 16, Revision C.01,

 ----------------------------------------------------------------------
 #t hf aug-cc-pvdz symm=none int=(grid=ultrafine) guess=(read,tcheck) s
 table=(opt,rrhf)
 ----------------------------------------------------------------------
 -----
 title
 -----
 Symbolic Z-matrix:
 Charge =  0 Multiplicity = 1

 SCF Done:  E(RHF) =  -726.660211785     A.U. after   12 cycles
 Normal termination of Gaussian 16 at Tue Apr  8 23:39:12 2025.
 Gaussian 16:  ES64L-G16RevC.01  3-Jul-2019

 ----------------------------------------------------------------------
 #t hf aug-cc-pvdz iop(5/13=1,5/36=2,99/5=2) pseudo=read geom=check gue
 ss=(read,tcheck) scf=(maxcycle=1)
 ----------------------------------------------------------------------
 -----
 title
 -----
 Structure from the checkpoint file:  "BDE49_nonexpt_1642_mol1.chk"
 Charge =  0 Multiplicity = 1

                         Standard orientation:
 ---------------------------------------------------------------------
 Center     Atomic      Atomic             Coordinates (Angstroms)
 Number     Number       Type             X           Y           Z
 ---------------------------------------------------------------------
      1         15           0       -0.531032   -0.071438   -0.597939
      2          7           0       -0.989536   -1.446875    0.333216
      3         14           0        1.633996    0.051560    0.092154
      4          6           0       -1.232735    1.403228    0.310270
      5          1           0       -2.317189    1.420099    0.173530
      6          1           0       -0.825623    2.318322   -0.130277
      7          1           0       -1.012850    1.403517    1.381846
      8          1           0       -1.807005   -1.935100   -0.004707
      9          1           0       -0.990827   -1.383773    1.344098
     10          1           0        2.394938   -1.069717   -0.503540
     11          1           0        1.738990   -0.030618    1.574330
     12          1           0        2.232272    1.335753   -0.350481
 ---------------------------------------------------------------------

 SCF Done:  E(RHF) =  -726.738422517     A.U. after    2 cycles

 The electronic state is 1-A.
 Alpha  occ. eigenvalues --  -81.26459 -69.06301 -15.61815 -11.23859  -7.76536
 Alpha  occ. eigenvalues --   -6.81636  -4.90621  -4.90367  -4.90151  -3.92380
 Alpha  occ. eigenvalues --   -3.92368  -3.92363  -1.11730  -0.95755  -0.75579
 Alpha  occ. eigenvalues --   -0.68022  -0.65945  -0.57865  -0.57328  -0.54296
 Alpha  occ. eigenvalues --   -0.48477  -0.47915  -0.45492  -0.38033  -0.32293
 Alpha virt. eigenvalues --    0.03269   0.04468   0.04892   0.05379   0.06682
 Alpha virt. eigenvalues --    0.07032   0.07480   0.08105   0.09002   0.09934
 Alpha virt. eigenvalues --    0.10872   0.11475   0.12155   0.12524   0.15139

 Mulliken charges:
               1
     1  P    0.612716
     2  N   -0.429460
     3  Si   0.080963
     4  C    0.221640
     5  H   -0.163905
     6  H   -0.150596
     7  H   -0.206316
     8  H    0.011307
     9  H   -0.008039
    10  H   -0.010918
    11  H    0.048788
    12  H   -0.006180
 Sum of Mulliken charges =  -0.00000

 Dipole moment (field-independent basis, Debye):
    X=             -1.3327    Y=              0.3409    Z=              1.4160  Tot=              1.9742

 Test job not archived.
 1\1\GINC-SE070\SP\RHF\Aug-CC-pVDZ\C1H8N1P1Si1\OHZDE\08-Apr-2025\0\\#t
 hf aug-cc-pvdz iop(5/13=1,5/36=2,99/5=2) pseudo=read geom=check guess=
 (read,tcheck) scf=(maxcycle=1)\\title\\0,1\P,0,-0.531032,-0.071438,-0.
 597939\N,0,-0.989536,-1.446875,0.333216\Si,0,1.633996,0.05156,0.092154
 \C,0,-1.232735,1.403228,0.31027\H,0,-2.317189,1.420099,0.17353\H,0,-0.
 825623,2.318322,-0.130277\H,0,-1.01285,1.403517,1.381846\H,0,-1.807005
 ,-1.9351,-0.004707\H,0,-0.990827,-1.383773,1.344098\H,0,2.394938,-1.06
 9717,-0.50354\H,0,1.73899,-0.030618,1.57433\H,0,2.232272,1.335753,-0.3

 Normal termination of Gaussian 16 at Tue Apr  8 23:39:15 2025.
