 Gaussian 16, Revision C.01,

 ----------------------------------------------------------------------
 #t hf aug-cc-pvdz symm=none int=(grid=ultrafine) guess=(read,tcheck) s
 table=(opt,rrhf)
 ----------------------------------------------------------------------
 -----
 title
 -----
 Symbolic Z-matrix:
 Charge =  0 Multiplicity = 1

 SCF Done:  E(RHF) =  -144.537669564     A.U. after   13 cycles
 Normal termination of Gaussian 16 at Wed Apr  9 00:38:50 2025.
 Gaussian 16:  ES64L-G16RevC.01  3-Jul-2019

 ----------------------------------------------------------------------
 #t hf aug-cc-pvdz iop(5/13=1,5/36=2,99/5=2) pseudo=read geom=check gue
 ss=(read,tcheck) scf=(maxcycle=1)
 ----------------------------------------------------------------------
 -----
 title
 -----
 Structure from the checkpoint file:  "BDE49_nonexpt_66_mol1.chk"
 Charge =  0 Multiplicity = 1

                         Standard orientation:
 ---------------------------------------------------------------------
 Center     Atomic      Atomic             Coordinates (Angstroms)
 Number     Number       Type             X           Y           Z
 ---------------------------------------------------------------------
      1          5           0       -1.892976   -0.376144   -0.139855
      2          5           0       -0.654973    0.586492    0.328697
      3          6           0        0.806335    0.450416   -0.224154
      4          7           0        1.589817   -0.532295    0.021562
      5          1           0        1.109412   -1.259765    0.562960
      6          1           0        1.239067    1.273142   -0.809758
      7          1           0       -0.828689    1.442820    1.151406
      8          1           0       -2.091006   -1.454118    0.338340
      9          1           0       -2.655774   -0.030249   -0.993172
 ---------------------------------------------------------------------

 SCF Done:  E(RHF) =  -144.581599041     A.U. after    2 cycles

 The electronic state is 1-A.
 Alpha  occ. eigenvalues --  -15.62906 -11.28285  -7.61872  -7.61778  -1.17268
 Alpha  occ. eigenvalues --   -0.84185  -0.74705  -0.66548  -0.60028  -0.56641
 Alpha  occ. eigenvalues --   -0.50599  -0.48636  -0.41850  -0.39903
 Alpha virt. eigenvalues --    0.03180   0.03521   0.03912   0.04207   0.05545
 Alpha virt. eigenvalues --    0.06102   0.06641   0.07628   0.08216   0.08764
 Alpha virt. eigenvalues --    0.10137   0.10962   0.12979   0.13428   0.14403

 Mulliken charges:
               1
     1  B   -0.371850
     2  B   -0.058146
     3  C    0.467141
     4  N   -0.383630
     5  H    0.021877
     6  H   -0.306900
     7  H    0.182200
     8  H    0.212099
     9  H    0.237208
 Sum of Mulliken charges =   0.00000

 Dipole moment (field-independent basis, Debye):
    X=             -2.1514    Y=              0.7262    Z=              0.2876  Tot=              2.2888

 Test job not archived.
 1\1\GINC-SE460\SP\RHF\Aug-CC-pVDZ\C1H5B2N1\OHZDE\09-Apr-2025\0\\#t hf
 aug-cc-pvdz iop(5/13=1,5/36=2,99/5=2) pseudo=read geom=check guess=(re
 ad,tcheck) scf=(maxcycle=1)\\title\\0,1\B,0,-1.892976,-0.376144,-0.139
 855\B,0,-0.654973,0.586492,0.328697\C,0,0.806335,0.450416,-0.224154\N,
 0,1.589817,-0.532295,0.021562\H,0,1.109412,-1.259765,0.56296\H,0,1.239
 067,1.273142,-0.809758\H,0,-0.828689,1.44282,1.151406\H,0,-2.091006,-1
 .454118,0.33834\H,0,-2.655774,-0.030249,-0.993172\\Version=ES64L-G16Re
 vC.01\State=1-A\HF=-144.581599\RMSD=3.330e-03\Dipole=-0.8464399,0.2857

 Normal termination of Gaussian 16 at Wed Apr  9 00:38:52 2025.
