 Gaussian 16, Revision C.01,

 ----------------------------------------------------------------------
 #t hf aug-cc-pvdz symm=none int=(grid=ultrafine) guess=(read,tcheck) s
 table=(opt,rrhf)
 ----------------------------------------------------------------------
 -----
 title
 -----
 Symbolic Z-matrix:
 Charge =  0 Multiplicity = 1

 SCF Done:  E(RHF) =  -1071.54743857     A.U. after   16 cycles
 Normal termination of Gaussian 16 at Tue Apr  8 23:46:21 2025.
 Gaussian 16:  ES64L-G16RevC.01  3-Jul-2019

 ----------------------------------------------------------------------
 #t hf aug-cc-pvdz iop(5/13=1,5/36=2,99/5=2) pseudo=read geom=check gue
 ss=(read,tcheck) scf=(maxcycle=1)
 ----------------------------------------------------------------------
 -----
 title
 -----
 Structure from the checkpoint file:  "BDE49_nonexpt_1777_mol1.chk"
 Charge =  0 Multiplicity = 1

                         Standard orientation:
 ---------------------------------------------------------------------
 Center     Atomic      Atomic             Coordinates (Angstroms)
 Number     Number       Type             X           Y           Z
 ---------------------------------------------------------------------
      1          6           0        0.264416    1.205823   -0.331027
      2          6           0        1.630335    1.213673   -0.080177
      3          6           0        2.320236   -0.000012    0.046647
      4          6           0        1.630297   -1.213644   -0.080487
      5          6           0        0.264379   -1.205688   -0.331335
      6          6           0       -0.443344    0.000095   -0.459320
      7          1           0       -0.253788    2.153803   -0.429235
      8          1           0        2.168448    2.148388    0.016746
      9         14           0       -2.281862    0.000169   -0.791066
     10          1           0       -0.253854   -2.153627   -0.429785
     11         17           0       -3.351268   -0.000204    0.999668
     12          1           0        2.168381   -2.148400    0.016198
     13          6           0        3.728467   -0.000067    0.301932
     14          7           0        4.865181   -0.000113    0.507209
     15          1           0       -2.668282   -1.221544   -1.520862
     16          1           0       -2.668265    1.222191   -1.520353
 ---------------------------------------------------------------------

 SCF Done:  E(RHF) =  -1071.68170983     A.U. after    2 cycles

 The electronic state is 1-A.
 Alpha  occ. eigenvalues -- -103.65935 -69.13040 -15.65192 -11.31369 -11.29963
 Alpha  occ. eigenvalues --  -11.29003 -11.28998 -11.28627 -11.28618 -11.27508
 Alpha  occ. eigenvalues --  -10.69365  -8.35057  -8.34833  -8.34831  -6.87938
 Alpha  occ. eigenvalues --   -3.98739  -3.98635  -3.98621  -1.21131  -1.17891
 Alpha  occ. eigenvalues --   -1.14244  -1.06418  -1.05248  -0.89694  -0.87152
 Alpha  occ. eigenvalues --   -0.78100  -0.73884  -0.68076  -0.66850  -0.63232
 Alpha  occ. eigenvalues --   -0.63170  -0.56965  -0.55743  -0.54575  -0.54263
 Alpha  occ. eigenvalues --   -0.53673  -0.51822  -0.48933  -0.47609  -0.46723
 Alpha  occ. eigenvalues --   -0.46525  -0.37912  -0.37117
 Alpha virt. eigenvalues --    0.02590   0.03479   0.03565   0.04295   0.04912
 Alpha virt. eigenvalues --    0.05540   0.06049   0.07257   0.08066   0.08411
 Alpha virt. eigenvalues --    0.09118   0.09153   0.09579   0.11432   0.11802

 Mulliken charges:
               1
     1  C    0.948040
     2  C    0.394624
     3  C    2.044693
     4  C    0.394640
     5  C    0.948112
     6  C   -1.247493
     7  H   -0.590304
     8  H   -0.559158
     9  Si   0.720241
    10  H   -0.590317
    11  Cl  -0.561869
    12  H   -0.559156
    13  C   -1.253926
    14  N   -0.099183
    15  H    0.005531
    16  H    0.005523
 Sum of Mulliken charges =  -0.00000

 Dipole moment (field-independent basis, Debye):
    X=             -2.7924    Y=              0.0004    Z=             -2.0834  Tot=              3.4840

 Test job not archived.
 1\1\GINC-SE345\SP\RHF\Aug-CC-pVDZ\C7H6Cl1N1Si1\OHZDE\08-Apr-2025\0\\#t
  hf aug-cc-pvdz iop(5/13=1,5/36=2,99/5=2) pseudo=read geom=check guess
 =(read,tcheck) scf=(maxcycle=1)\\title\\0,1\C,0,0.264416,1.205823,-0.3
 31027\C,0,1.630335,1.213673,-0.080177\C,0,2.320236,-0.000012,0.046647\
 C,0,1.630297,-1.213644,-0.080487\C,0,0.264379,-1.205688,-0.331335\C,0,
 -0.443344,0.000095,-0.45932\H,0,-0.253788,2.153803,-0.429235\H,0,2.168
 448,2.148388,0.016746\Si,0,-2.281862,0.000169,-0.791066\H,0,-0.253854,
 -2.153627,-0.429785\Cl,0,-3.351268,-0.000204,0.999668\H,0,2.168381,-2.

 Normal termination of Gaussian 16 at Tue Apr  8 23:46:30 2025.
