 Gaussian 16, Revision C.01,

 ----------------------------------------------------------------------
 #t hf aug-cc-pvdz symm=none int=(grid=ultrafine) guess=(read,tcheck) s
 table=opt
 ----------------------------------------------------------------------
 -----
 title
 -----
 Symbolic Z-matrix:
 Charge =  0 Multiplicity = 2

 SCF Done:  E(UHF) =  -870.471008135     A.U. after   25 cycles
 Normal termination of Gaussian 16 at Tue Apr  8 23:16:47 2025.
 Gaussian 16:  ES64L-G16RevC.01  3-Jul-2019

 ----------------------------------------------------------------------
 #t hf aug-cc-pvdz iop(5/13=1,5/36=2,99/5=2) pseudo=read geom=check gue
 ss=(read,tcheck) scf=(maxcycle=1)
 ----------------------------------------------------------------------
 -----
 title
 -----
 Structure from the checkpoint file:  "BDE49_nonexpt_1056_mol2.chk"
 Charge =  0 Multiplicity = 2

                         Standard orientation:
 ---------------------------------------------------------------------
 Center     Atomic      Atomic             Coordinates (Angstroms)
 Number     Number       Type             X           Y           Z
 ---------------------------------------------------------------------
      1          8           0       -1.573341    0.691489   -0.070160
      2         16           0       -0.678249   -0.497200    0.048947
      3         16           0        1.381379    0.096262   -0.077323
      4          1           0        1.336655    0.883099    1.015283
 ---------------------------------------------------------------------

 SCF Done:  E(UHF) =  -870.550217660     A.U. after    2 cycles

 The electronic state is 2-A.
 Alpha  occ. eigenvalues --  -93.67293 -93.58149 -20.65306  -8.96086  -8.87881
 Alpha  occ. eigenvalues --   -6.30348  -6.30135  -6.29705  -6.21896  -6.21716
 Alpha  occ. eigenvalues --   -6.21404  -1.41757  -1.02951  -0.87755  -0.71031
 Alpha  occ. eigenvalues --   -0.66703  -0.64695  -0.56159  -0.45062  -0.43802
 Alpha  occ. eigenvalues --   -0.38790
 Alpha virt. eigenvalues --    0.03856   0.04964   0.08645   0.10190   0.10511
 Alpha virt. eigenvalues --    0.12232   0.13031   0.13436   0.17638   0.18229
 Alpha virt. eigenvalues --    0.19542   0.22656   0.23878   0.25216   0.27459

  Beta  occ. eigenvalues --  -93.66879 -93.58199 -20.62115  -8.95631  -8.87935
  Beta  occ. eigenvalues --   -6.30002  -6.29478  -6.28439  -6.22051  -6.21838
  Beta  occ. eigenvalues --   -6.21406  -1.33702  -1.00968  -0.83060  -0.64073
  Beta  occ. eigenvalues --   -0.61414  -0.55671  -0.48267  -0.43282  -0.40345
  Beta virt. eigenvalues --    0.02284   0.04016   0.05437   0.08869   0.10347
  Beta virt. eigenvalues --    0.10772   0.12445   0.13508   0.13729   0.17759
  Beta virt. eigenvalues --    0.18943   0.20390   0.23683   0.24179   0.26028

 Mulliken charges and spin densities:
               1          2
     1  O   -0.680109   0.628249
     2  S    0.643189   0.437859
     3  S   -0.118132  -0.080972
     4  H    0.155052   0.014864
 Sum of Mulliken charges =   0.00000   1.00000

 Dipole moment (field-independent basis, Debye):
    X=              1.4314    Y=             -0.8591    Z=              0.8196  Tot=              1.8598
                          Isotropic Fermi Contact Couplings
        Atom                 a.u.       MegaHertz       Gauss      10(-4) cm-1
     1  O(17)              0.24163    -146.47486     -52.26587     -48.85875
     2  S(33)              0.11214      38.51859      13.74439      12.84842
     3  S(33)              0.00128       0.44087       0.15731       0.14706
     4  H(1)               0.00748      33.43000      11.92865      11.15105
 --------------------------------------------------------
       Center         ----  Spin Dipole Couplings  ----
                      3XX-RR        3YY-RR        3ZZ-RR
 --------------------------------------------------------

 Normal termination of Gaussian 16 at Tue Apr  8 23:16:49 2025.
