 Gaussian 16, Revision C.01,

 ----------------------------------------------------------------------
 #t hf aug-cc-pvdz symm=none int=(grid=ultrafine) guess=(read,tcheck) s
 table=(opt,rrhf)
 ----------------------------------------------------------------------
 -----
 title
 -----
 Symbolic Z-matrix:
 Charge =  0 Multiplicity = 1

 SCF Done:  E(RHF) =  -608.193702806     A.U. after   14 cycles
 Normal termination of Gaussian 16 at Tue Apr  8 23:27:17 2025.
 Gaussian 16:  ES64L-G16RevC.01  3-Jul-2019

 ----------------------------------------------------------------------
 #t hf aug-cc-pvdz iop(5/13=1,5/36=2,99/5=2) pseudo=read geom=check gue
 ss=(read,tcheck) scf=(maxcycle=1)
 ----------------------------------------------------------------------
 -----
 title
 -----
 Structure from the checkpoint file:  "BDE49_nonexpt_1338_mol1.chk"
 Charge =  0 Multiplicity = 1

                         Standard orientation:
 ---------------------------------------------------------------------
 Center     Atomic      Atomic             Coordinates (Angstroms)
 Number     Number       Type             X           Y           Z
 ---------------------------------------------------------------------
      1          6           0        1.388218    0.103265    0.070745
      2          6           0        0.193699   -0.095737    0.994909
      3          8           0        2.133706    1.038167    0.137290
      4          8           0        1.585933   -0.873327   -0.853062
      5         15           0       -1.365320   -0.612302    0.088136
      6          1           0        0.067136    0.815416    1.578894
      7          1           0        0.432988   -0.913774    1.683884
      8          6           0       -1.951726    1.016258   -0.576958
      9          1           0       -2.955441    0.889728   -0.988458
     10          1           0       -1.293475    1.326410   -1.391395
     11          1           0       -1.971332    1.800588    0.181715
     12          1           0        0.857311   -1.511044   -0.825689
     13          1           0       -2.195652   -0.684227    1.233008
 ---------------------------------------------------------------------

 SCF Done:  E(RHF) =  -608.302235306     A.U. after    2 cycles

 The electronic state is 1-A.
 Alpha  occ. eigenvalues --  -81.28163 -20.62526 -20.56302 -11.40466 -11.27589
 Alpha  occ. eigenvalues --  -11.25705  -7.78470  -4.92499  -4.92431  -4.92114
 Alpha  occ. eigenvalues --   -1.42095  -1.33343  -1.03244  -0.97330  -0.84518
 Alpha  occ. eigenvalues --   -0.76917  -0.71703  -0.68412  -0.65750  -0.61166
 Alpha  occ. eigenvalues --   -0.59892  -0.59555  -0.56962  -0.52433  -0.50647
 Alpha  occ. eigenvalues --   -0.48340  -0.45947  -0.36562
 Alpha virt. eigenvalues --    0.02896   0.03820   0.04803   0.05157   0.06523
 Alpha virt. eigenvalues --    0.07213   0.07474   0.08737   0.09758   0.10416
 Alpha virt. eigenvalues --    0.12965   0.13333   0.13964   0.14093   0.14490

 Mulliken charges:
               1
     1  C    0.519297
     2  C    0.037463
     3  O   -0.434342
     4  O   -0.500982
     5  P    0.380751
     6  H   -0.131909
     7  H   -0.016163
     8  C    0.166039
     9  H   -0.158691
    10  H   -0.104613
    11  H   -0.141391
    12  H    0.236562
    13  H    0.147978
 Sum of Mulliken charges =  -0.00000

 Dipole moment (field-independent basis, Debye):
    X=             -4.4236    Y=             -1.4858    Z=              1.4104  Tot=              4.8749

 Test job not archived.
 1\1\GINC-SE284\SP\RHF\Aug-CC-pVDZ\C3H7O2P1\OHZDE\08-Apr-2025\0\\#t hf
 aug-cc-pvdz iop(5/13=1,5/36=2,99/5=2) pseudo=read geom=check guess=(re
 ad,tcheck) scf=(maxcycle=1)\\title\\0,1\C,0,1.388218,0.103265,0.070745
 \C,0,0.193699,-0.095737,0.994909\O,0,2.133706,1.038167,0.13729\O,0,1.5
 85933,-0.873327,-0.853062\P,0,-1.36532,-0.612302,0.088136\H,0,0.067136
 ,0.815416,1.578894\H,0,0.432988,-0.913774,1.683884\C,0,-1.951726,1.016
 258,-0.576958\H,0,-2.955441,0.889729,-0.988458\H,0,-1.293475,1.32641,-
 1.391395\H,0,-1.971332,1.800588,0.181715\H,0,0.857311,-1.511044,-0.825

 Normal termination of Gaussian 16 at Tue Apr  8 23:27:21 2025.
