 Gaussian 16, Revision C.01,

 ----------------------------------------------------------------------
 #t hf aug-cc-pvdz symm=none int=(grid=ultrafine) guess=(read,tcheck) s
 table=(opt,rrhf)
 ----------------------------------------------------------------------
 -----
 title
 -----
 Symbolic Z-matrix:
 Charge =  0 Multiplicity = 1

 SCF Done:  E(RHF) =  -1420.16167380     A.U. after   12 cycles
 Normal termination of Gaussian 16 at Wed Apr  9 00:14:06 2025.
 Gaussian 16:  ES64L-G16RevC.01  3-Jul-2019

 ----------------------------------------------------------------------
 #t hf aug-cc-pvdz iop(5/13=1,5/36=2,99/5=2) pseudo=read geom=check gue
 ss=(read,tcheck) scf=(maxcycle=1)
 ----------------------------------------------------------------------
 -----
 title
 -----
 Structure from the checkpoint file:  "BDE49_nonexpt_2445_mol1.chk"
 Charge =  0 Multiplicity = 1

                         Standard orientation:
 ---------------------------------------------------------------------
 Center     Atomic      Atomic             Coordinates (Angstroms)
 Number     Number       Type             X           Y           Z
 ---------------------------------------------------------------------
      1         14           0        1.156489   -1.026827   -1.022209
      2         14           0       -0.867305   -1.260969    0.188543
      3         15           0       -2.059667    0.677780    0.335670
      4          1           0       -0.559588   -1.682094    1.581175
      5          1           0       -1.680907   -2.348329   -0.429455
      6         15           0        2.796133    0.318649   -0.182090
      7          1           0        0.849381   -0.526970   -2.388949
      8          1           0        1.746488   -2.383821   -1.170742
      9          6           0       -2.630571    0.841922   -1.435726
     10          1           0       -3.100688   -0.065174   -1.824135
     11          1           0       -1.782714    1.101486   -2.073095
     12          1           0       -3.351592    1.661546   -1.493077
     13          6           0       -3.620887    0.018013    1.122474
     14          1           0       -3.411812   -0.271842    2.154411
     15          1           0       -4.042653   -0.839101    0.591417
     16          1           0       -4.365140    0.818714    1.145548
     17          6           0        2.816592   -0.205749    1.610086
     18          1           0        3.164663   -1.238634    1.682782
     19          1           0        1.845416   -0.122970    2.102894
     20          1           0        3.534062    0.423000    2.143925
     21          6           0        1.904818    1.953965   -0.053399
     22          1           0        1.694742    2.328822   -1.057781
     23          1           0        2.574369    2.669802    0.431108
     24          1           0        0.970702    1.909359    0.510989
 ---------------------------------------------------------------------

 SCF Done:  E(RHF) =  -1420.29406195     A.U. after    2 cycles

 The electronic state is 1-A.
 Alpha  occ. eigenvalues --  -81.24557 -81.24222 -69.06332 -69.06157 -11.24199
 Alpha  occ. eigenvalues --  -11.24141 -11.23787 -11.23515  -7.74931  -7.74581
 Alpha  occ. eigenvalues --   -6.81676  -6.81494  -4.88895  -4.88856  -4.88587
 Alpha  occ. eigenvalues --   -4.88533  -4.88498  -4.88209  -3.92400  -3.92396
 Alpha  occ. eigenvalues --   -3.92371  -3.92223  -3.92209  -3.92171  -0.98260
 Alpha  occ. eigenvalues --   -0.97713  -0.93671  -0.93246  -0.75383  -0.72003
 Alpha  occ. eigenvalues --   -0.66352  -0.62625  -0.59159  -0.58656  -0.58381
 Alpha  occ. eigenvalues --   -0.57930  -0.56375  -0.56084  -0.56014  -0.55654
 Alpha  occ. eigenvalues --   -0.48837  -0.48306  -0.46487  -0.45365  -0.42777
 Alpha  occ. eigenvalues --   -0.40773  -0.39224  -0.32042  -0.30782
 Alpha virt. eigenvalues --    0.03315   0.04179   0.04368   0.04765   0.05693
 Alpha virt. eigenvalues --    0.05884   0.06067   0.06381   0.06740   0.07731
 Alpha virt. eigenvalues --    0.07899   0.08212   0.08602   0.09025   0.09211

 Mulliken charges:
               1
     1  Si  -0.084534
     2  Si   0.071160
     3  P    0.312798
     4  H    0.105465
     5  H    0.094556
     6  P    0.228709
     7  H    0.117567
     8  H    0.099421
     9  C    0.317300
    10  H   -0.182085
    11  H   -0.212946
    12  H   -0.194439
    13  C    0.346554
    14  H   -0.212380
    15  H   -0.193775
    16  H   -0.206618
    17  C    0.359627
    18  H   -0.210998
    19  H   -0.186453
    20  H   -0.190455
    21  C    0.469736
    22  H   -0.228576
    23  H   -0.206347
    24  H   -0.213287
 Sum of Mulliken charges =   0.00000

 Dipole moment (field-independent basis, Debye):
    X=             -1.7219    Y=              0.3311    Z=              0.5648  Tot=              1.8422

 Test job not archived.
 1\1\GINC-SE095\SP\RHF\Aug-CC-pVDZ\C4H16P2Si2\OHZDE\09-Apr-2025\0\\#t h
 f aug-cc-pvdz iop(5/13=1,5/36=2,99/5=2) pseudo=read geom=check guess=(
 read,tcheck) scf=(maxcycle=1)\\title\\0,1\Si,0,1.156489,-1.026827,-1.0
 22209\Si,0,-0.867305,-1.260969,0.188543\P,0,-2.059667,0.67778,0.33567\
 H,0,-0.559588,-1.682094,1.581175\H,0,-1.680907,-2.348329,-0.429455\P,0
 ,2.796133,0.318649,-0.18209\H,0,0.849381,-0.52697,-2.388949\H,0,1.7464
 88,-2.383821,-1.170742\C,0,-2.630571,0.841922,-1.435726\H,0,-3.100688,
 -0.065174,-1.824135\H,0,-1.782714,1.101486,-2.073095\H,0,-3.351592,1.6

 Normal termination of Gaussian 16 at Wed Apr  9 00:14:22 2025.
