 Gaussian 16, Revision C.01,

 ----------------------------------------------------------------------
 #t hf aug-cc-pvdz symm=none int=(grid=ultrafine) guess=(read,tcheck) s
 table=(opt,rrhf)
 ----------------------------------------------------------------------
 -----
 title
 -----
 Symbolic Z-matrix:
 Charge =  0 Multiplicity = 1

 SCF Done:  E(RHF) =  -545.590327508     A.U. after   14 cycles

 1\1\GINC-SE220\Stability\RHF\Aug-CC-pVDZ\C9H10F2\OHZDE\08-Apr-2025\0\\
 #t hf aug-cc-pvdz symm=none int=(grid=ultrafine) guess=(read,tcheck) s
 table=(opt,rrhf)\\title\\0,1\C,0,-0.780237,-0.366559,0.592814\C,0,-1.6
 34247,-1.269989,-0.050361\C,0,-2.813824,-0.837321,-0.650424\C,0,-3.161
 642,0.511936,-0.616748\C,0,-2.322739,1.421589,0.022161\C,0,-1.142928,0
 .984359,0.62183\H,0,-0.495134,1.698396,1.120169\H,0,-4.081335,0.849915
 ,-1.080594\H,0,-2.587415,2.47254,0.058491\H,0,-1.376972,-2.324718,-0.0
 73538\H,0,-3.464732,-1.553992,-1.138971\C,0,1.668734,-1.036232,0.22583

 Normal termination of Gaussian 16 at Tue Apr  8 22:32:27 2025.
 Gaussian 16:  ES64L-G16RevC.01  3-Jul-2019

 ----------------------------------------------------------------------
 #t hf aug-cc-pvdz iop(5/13=1,5/36=2,99/5=2) pseudo=read geom=check gue
 ss=(read,tcheck) scf=(maxcycle=1)
 ----------------------------------------------------------------------
 -----
 title
 -----
 Structure from the checkpoint file:  "BDE49_expt_1045_mol1.chk"
 Charge =  0 Multiplicity = 1

                         Standard orientation:
 ---------------------------------------------------------------------
 Center     Atomic      Atomic             Coordinates (Angstroms)
 Number     Number       Type             X           Y           Z
 ---------------------------------------------------------------------
      1          6           0       -0.780237   -0.366559    0.592814
      2          6           0       -1.634247   -1.269989   -0.050361
      3          6           0       -2.813824   -0.837321   -0.650424
      4          6           0       -3.161642    0.511936   -0.616748
      5          6           0       -2.322739    1.421589    0.022161
      6          6           0       -1.142928    0.984359    0.621830
      7          1           0       -0.495134    1.698396    1.120169
      8          1           0       -4.081335    0.849915   -1.080594
      9          1           0       -2.587415    2.472540    0.058491
     10          1           0       -1.376972   -2.324718   -0.073538
     11          1           0       -3.464732   -1.553992   -1.138971
     12          6           0        1.668734   -1.036232    0.225839
     13          6           0        0.511894   -0.840838    1.226074
     14          1           0        0.829170   -0.130430    1.993088
     15          1           0        0.340816   -1.795139    1.732406
     16          6           0        2.095864    0.238053   -0.463247
     17          1           0        1.388334   -1.753940   -0.550852
     18          1           0        2.548190   -1.433702    0.741385
     19          9           0        3.180776   -0.012064   -1.266209
     20          9           0        2.491359    1.171979    0.469745
     21          1           0        1.324603    0.701848   -1.081039
 ---------------------------------------------------------------------

 SCF Done:  E(RHF) =  -545.764253326     A.U. after    2 cycles

 The electronic state is 1-A.
 Alpha  occ. eigenvalues --  -26.12709 -26.12692 -11.41425 -11.25926 -11.25699
 Alpha  occ. eigenvalues --  -11.25464 -11.25284 -11.25221 -11.24985 -11.24913
 Alpha  occ. eigenvalues --  -11.24853  -1.68686  -1.64356  -1.15529  -1.09155
 Alpha  occ. eigenvalues --   -1.02781  -1.01627  -0.95786  -0.87959  -0.83745
 Alpha  occ. eigenvalues --   -0.80968  -0.80885  -0.79854  -0.75886  -0.72161
 Alpha  occ. eigenvalues --   -0.70639  -0.68721  -0.66204  -0.65291  -0.63621
 Alpha  occ. eigenvalues --   -0.60333  -0.59594  -0.58114  -0.56405  -0.53511
 Alpha  occ. eigenvalues --   -0.51941  -0.49934  -0.49538  -0.48823  -0.34776
 Alpha  occ. eigenvalues --   -0.33949
 Alpha virt. eigenvalues --    0.03072   0.03587   0.04085   0.05127   0.05414
 Alpha virt. eigenvalues --    0.05822   0.06586   0.07109   0.07953   0.08366
 Alpha virt. eigenvalues --    0.10015   0.10174   0.10409   0.10934   0.13119

 Mulliken charges:
               1
     1  C    0.510089
     2  C    0.527795
     3  C    0.220527
     4  C    0.687063
     5  C    0.090564
     6  C    0.675575
     7  H   -0.648509
     8  H   -0.438551
     9  H   -0.449049
    10  H   -0.625401
    11  H   -0.448981
    12  C   -0.102564
    13  C    0.278501
    14  H   -0.135317
    15  H   -0.081509
    16  C    1.042287
    17  H   -0.027433
    18  H   -0.039661
    19  F   -0.380241
    20  F   -0.410033
    21  H   -0.245152
 Sum of Mulliken charges =  -0.00000

 Dipole moment (field-independent basis, Debye):
    X=             -2.4785    Y=             -1.4078    Z=              0.2362  Tot=              2.8602

 Test job not archived.
 1\1\GINC-SE220\SP\RHF\Aug-CC-pVDZ\C9H10F2\OHZDE\08-Apr-2025\0\\#t hf a
 ug-cc-pvdz iop(5/13=1,5/36=2,99/5=2) pseudo=read geom=check guess=(rea
 d,tcheck) scf=(maxcycle=1)\\title\\0,1\C,0,-0.780237,-0.366559,0.59281
 4\C,0,-1.634247,-1.269989,-0.050361\C,0,-2.813824,-0.837321,-0.650424\
 C,0,-3.161642,0.511936,-0.616748\C,0,-2.322739,1.421589,0.022161\C,0,-
 1.142928,0.984359,0.62183\H,0,-0.495134,1.698396,1.120169\H,0,-4.08133
 5,0.849915,-1.080594\H,0,-2.587415,2.47254,0.058491\H,0,-1.376972,-2.3
 24718,-0.073538\H,0,-3.464732,-1.553992,-1.138971\C,0,1.668734,-1.0362

 Normal termination of Gaussian 16 at Tue Apr  8 22:32:42 2025.
