 Gaussian 16, Revision C.01,

 ----------------------------------------------------------------------
 #t hf aug-cc-pvdz symm=none int=(grid=ultrafine) guess=(read,tcheck) s
 table=(opt,rrhf)
 ----------------------------------------------------------------------
 -----
 title
 -----
 Symbolic Z-matrix:
 Charge =  0 Multiplicity = 1

 SCF Done:  E(RHF) =  -747.977669284     A.U. after   13 cycles
 Normal termination of Gaussian 16 at Wed Apr  9 00:10:35 2025.
 Gaussian 16:  ES64L-G16RevC.01  3-Jul-2019

 ----------------------------------------------------------------------
 #t hf aug-cc-pvdz iop(5/13=1,5/36=2,99/5=2) pseudo=read geom=check gue
 ss=(read,tcheck) scf=(maxcycle=1)
 ----------------------------------------------------------------------
 -----
 title
 -----
 Structure from the checkpoint file:  "BDE49_nonexpt_2396_mol1.chk"
 Charge =  0 Multiplicity = 1

                         Standard orientation:
 ---------------------------------------------------------------------
 Center     Atomic      Atomic             Coordinates (Angstroms)
 Number     Number       Type             X           Y           Z
 ---------------------------------------------------------------------
      1         14           0       -1.873757   -0.765839   -0.048733
      2         14           0       -0.392118    1.056930    0.178139
      3          1           0       -3.190863   -0.316784    0.462242
      4          1           0       -1.393408   -1.916747    0.746036
      5          1           0       -1.993786   -1.141471   -1.474924
      6          8           0        1.161721    0.674570   -0.452987
      7          1           0       -0.198668    1.454443    1.589417
      8          1           0       -0.769672    2.225438   -0.637018
      9          6           0        1.925089   -0.287627   -0.081073
     10          7           0        2.632049   -1.150135    0.230413
 ---------------------------------------------------------------------

 SCF Done:  E(RHF) =  -748.078551663     A.U. after    2 cycles

 The electronic state is 1-A.
 Alpha  occ. eigenvalues --  -69.13855 -69.08784 -20.66266 -15.63183 -11.35482
 Alpha  occ. eigenvalues --   -6.88673  -6.84232  -3.99569  -3.99372  -3.99321
 Alpha  occ. eigenvalues --   -3.94990  -3.94982  -3.94978  -1.42724  -1.18443
 Alpha  occ. eigenvalues --   -0.87838  -0.75119  -0.70521  -0.68404  -0.64220
 Alpha  occ. eigenvalues --   -0.54869  -0.52676  -0.50953  -0.50187  -0.45734
 Alpha  occ. eigenvalues --   -0.44792  -0.42257
 Alpha virt. eigenvalues --    0.03006   0.03533   0.04372   0.05545   0.06395
 Alpha virt. eigenvalues --    0.06859   0.07155   0.07861   0.08609   0.08874
 Alpha virt. eigenvalues --    0.09201   0.10476   0.12105   0.12888   0.13340

 Mulliken charges:
               1
     1  Si  -0.151511
     2  Si   0.713199
     3  H    0.024118
     4  H    0.043929
     5  H    0.027010
     6  O   -0.542956
     7  H    0.059374
     8  H    0.010720
     9  C   -0.098347
    10  N   -0.085536
 Sum of Mulliken charges =  -0.00000

 Dipole moment (field-independent basis, Debye):
    X=             -4.3028    Y=              2.2560    Z=             -0.1006  Tot=              4.8594

 Test job not archived.
 1\1\GINC-SE341\SP\RHF\Aug-CC-pVDZ\C1H5N1O1Si2\OHZDE\09-Apr-2025\0\\#t
 hf aug-cc-pvdz iop(5/13=1,5/36=2,99/5=2) pseudo=read geom=check guess=
 (read,tcheck) scf=(maxcycle=1)\\title\\0,1\Si,0,-1.873757,-0.765839,-0
 .048733\Si,0,-0.392118,1.05693,0.178139\H,0,-3.190863,-0.316784,0.4622
 42\H,0,-1.393408,-1.916747,0.746036\H,0,-1.993786,-1.141471,-1.474924\
 O,0,1.161721,0.67457,-0.452987\H,0,-0.198668,1.454443,1.589417\H,0,-0.
 769672,2.225438,-0.637018\C,0,1.925089,-0.287627,-0.081073\N,0,2.63204
 9,-1.150135,0.230413\\Version=ES64L-G16RevC.01\State=1-A\HF=-748.07855

 Normal termination of Gaussian 16 at Wed Apr  9 00:10:45 2025.
