 Gaussian 16, Revision C.01,

 ----------------------------------------------------------------------
 #t hf aug-cc-pvdz symm=none int=(grid=ultrafine) guess=(read,tcheck) s
 table=opt
 ----------------------------------------------------------------------
 -----
 title
 -----
 Symbolic Z-matrix:
 Charge =  0 Multiplicity = 2

 SCF Done:  E(UHF) =  -416.731723464     A.U. after   18 cycles
 Normal termination of Gaussian 16 at Tue Apr  8 23:14:46 2025.
 Gaussian 16:  ES64L-G16RevC.01  3-Jul-2019

 ----------------------------------------------------------------------
 #t hf aug-cc-pvdz iop(5/13=1,5/36=2,99/5=2) pseudo=read geom=check gue
 ss=(read,tcheck) scf=(maxcycle=1)
 ----------------------------------------------------------------------
 -----
 title
 -----
 Structure from the checkpoint file:  "BDE49_nonexpt_1028_mol2.chk"
 Charge =  0 Multiplicity = 2

                         Standard orientation:
 ---------------------------------------------------------------------
 Center     Atomic      Atomic             Coordinates (Angstroms)
 Number     Number       Type             X           Y           Z
 ---------------------------------------------------------------------
      1          8           0       -1.067278   -0.000001    0.056654
      2         15           0        0.426706   -0.000002   -0.100517
      3          1           0        1.068837   -1.102160    0.527272
      4          1           0        1.068803    1.102195    0.527254
 ---------------------------------------------------------------------

 SCF Done:  E(UHF) =  -416.795334411     A.U. after    2 cycles

 The electronic state is 2-A.
 Alpha  occ. eigenvalues --  -81.34533 -20.59100  -7.84409  -4.98904  -4.98344
 Alpha  occ. eigenvalues --   -4.98172  -1.31637  -0.81535  -0.64235  -0.62361
 Alpha  occ. eigenvalues --   -0.59765  -0.50382  -0.39194
 Alpha virt. eigenvalues --    0.03137   0.06231   0.06707   0.09107   0.10602
 Alpha virt. eigenvalues --    0.15604   0.17324   0.20015   0.20153   0.23977
 Alpha virt. eigenvalues --    0.24884   0.25511   0.31709   0.33027   0.36903

  Beta  occ. eigenvalues --  -81.34196 -20.56663  -7.83936  -4.98485  -4.98021
  Beta  occ. eigenvalues --   -4.97238  -1.24500  -0.77195  -0.60780  -0.58354
  Beta  occ. eigenvalues --   -0.47605  -0.44114
  Beta virt. eigenvalues --    0.01663   0.03260   0.06271   0.06897   0.10827
  Beta virt. eigenvalues --    0.11020   0.16089   0.18148   0.20914   0.22110
  Beta virt. eigenvalues --    0.24737   0.25940   0.26357   0.33272   0.33763

 Mulliken charges and spin densities:
               1          2
     1  O   -0.782741   0.477438
     2  P    0.767049   0.476991
     3  H    0.007849   0.022784
     4  H    0.007843   0.022787
 Sum of Mulliken charges =  -0.00000   1.00000

 Dipole moment (field-independent basis, Debye):
    X=              3.5054    Y=             -0.0000    Z=              0.1745  Tot=              3.5097
                          Isotropic Fermi Contact Couplings
        Atom                 a.u.       MegaHertz       Gauss      10(-4) cm-1
     1  O(17)              0.18213    -110.40617     -39.39567     -36.82753
     2  P(31)              0.45627     826.34711     294.86120     275.63973
     3  H(1)               0.01967      87.90128      31.36536      29.32071
     4  H(1)               0.01966      87.89957      31.36475      29.32014
 --------------------------------------------------------
       Center         ----  Spin Dipole Couplings  ----
                      3XX-RR        3YY-RR        3ZZ-RR
 --------------------------------------------------------

 Normal termination of Gaussian 16 at Tue Apr  8 23:14:47 2025.
