 Gaussian 16, Revision C.01,

 ----------------------------------------------------------------------
 #t hf aug-cc-pvdz symm=none int=(grid=ultrafine) guess=(read,tcheck) s
 table=(opt,rrhf)
 ----------------------------------------------------------------------
 -----
 title
 -----
 Symbolic Z-matrix:
 Charge =  0 Multiplicity = 1

 SCF Done:  E(RHF) =  -330.916049455     A.U. after   15 cycles
 Normal termination of Gaussian 16 at Tue Apr  8 23:19:12 2025.
 Gaussian 16:  ES64L-G16RevC.01  3-Jul-2019

 ----------------------------------------------------------------------
 #t hf aug-cc-pvdz iop(5/13=1,5/36=2,99/5=2) pseudo=read geom=check gue
 ss=(read,tcheck) scf=(maxcycle=1)
 ----------------------------------------------------------------------
 -----
 title
 -----
 Structure from the checkpoint file:  "BDE49_nonexpt_1124_mol1.chk"
 Charge =  0 Multiplicity = 1

                         Standard orientation:
 ---------------------------------------------------------------------
 Center     Atomic      Atomic             Coordinates (Angstroms)
 Number     Number       Type             X           Y           Z
 ---------------------------------------------------------------------
      1          9           0        2.018342   -1.015755    0.309616
      2          8           0        1.659034    0.007971   -0.657223
      3          6           0        0.941712    0.991880    0.080832
      4          6           0       -0.408977    0.518471    0.602380
      5          1           0        1.582669    1.379200    0.879295
      6          6           0       -1.364259    0.040173   -0.495957
      7          1           0       -0.858121    1.350432    1.158950
      8          1           0       -0.237884   -0.283788    1.326531
      9          6           0       -2.700904   -0.461619    0.056099
     10          1           0       -0.876971   -0.756042   -1.066264
     11          1           0       -1.543377    0.860263   -1.202438
     12          1           0       -2.553889   -1.304011    0.738864
     13          1           0       -3.360203   -0.798001   -0.748258
     14          1           0       -3.224943    0.324819    0.608543
     15          1           0        0.829933    1.771726   -0.684104
 ---------------------------------------------------------------------

 SCF Done:  E(RHF) =  -331.025900568     A.U. after    2 cycles

 The electronic state is 1-A.
 Alpha  occ. eigenvalues --  -26.14834 -20.69498 -11.31335 -11.24339 -11.23628
 Alpha  occ. eigenvalues --  -11.22886  -1.65181  -1.31779  -1.07095  -0.98438
 Alpha  occ. eigenvalues --   -0.88066  -0.81048  -0.76308  -0.75619  -0.71314
 Alpha  occ. eigenvalues --   -0.64867  -0.64101  -0.61085  -0.59674  -0.55332
 Alpha  occ. eigenvalues --   -0.53626  -0.52895  -0.48614  -0.48020  -0.47118
 Alpha virt. eigenvalues --    0.03348   0.04191   0.04535   0.05333   0.06336
 Alpha virt. eigenvalues --    0.06900   0.07271   0.08104   0.09364   0.10265
 Alpha virt. eigenvalues --    0.12371   0.13365   0.13432   0.15033   0.15949

 Mulliken charges:
               1
     1  F   -0.361959
     2  O   -0.250097
     3  C    0.941630
     4  C   -0.015154
     5  H   -0.089645
     6  C    0.119019
     7  H   -0.071631
     8  H   -0.111139
     9  C    0.399219
    10  H   -0.091901
    11  H   -0.137664
    12  H   -0.065539
    13  H   -0.064473
    14  H   -0.073252
    15  H   -0.127416
 Sum of Mulliken charges =  -0.00000

 Dipole moment (field-independent basis, Debye):
    X=             -1.8441    Y=              2.3876    Z=              0.3311  Tot=              3.0349

 Test job not archived.
 1\1\GINC-SE329\SP\RHF\Aug-CC-pVDZ\C4H9F1O1\OHZDE\08-Apr-2025\0\\#t hf
 aug-cc-pvdz iop(5/13=1,5/36=2,99/5=2) pseudo=read geom=check guess=(re
 ad,tcheck) scf=(maxcycle=1)\\title\\0,1\F,0,2.018342,-1.015755,0.30961
 6\O,0,1.659034,0.007971,-0.657223\C,0,0.941712,0.99188,0.080832\C,0,-0
 .408977,0.518471,0.60238\H,0,1.582669,1.3792,0.879295\C,0,-1.364259,0.
 040173,-0.495957\H,0,-0.858121,1.350432,1.15895\H,0,-0.237884,-0.28378
 8,1.326531\C,0,-2.700904,-0.461619,0.056099\H,0,-0.876971,-0.756042,-1
 .066264\H,0,-1.543377,0.860263,-1.202438\H,0,-2.553889,-1.304011,0.738

 Normal termination of Gaussian 16 at Tue Apr  8 23:19:16 2025.
