 Gaussian 16, Revision C.01,

 ----------------------------------------------------------------------
 #t hf aug-cc-pvdz symm=none int=(grid=ultrafine) guess=(read,tcheck) s
 table=(opt,rrhf)
 ----------------------------------------------------------------------
 -----
 title
 -----
 Symbolic Z-matrix:
 Charge =  0 Multiplicity = 1

 SCF Done:  E(RHF) =  -469.869487244     A.U. after   14 cycles
 Normal termination of Gaussian 16 at Wed Apr  9 00:33:18 2025.
 Gaussian 16:  ES64L-G16RevC.01  3-Jul-2019

 ----------------------------------------------------------------------
 #t hf aug-cc-pvdz iop(5/13=1,5/36=2,99/5=2) pseudo=read geom=check gue
 ss=(read,tcheck) scf=(maxcycle=1)
 ----------------------------------------------------------------------
 -----
 title
 -----
 Structure from the checkpoint file:  "BDE49_nonexpt_427_mol1.chk"
 Charge =  0 Multiplicity = 1

                         Standard orientation:
 ---------------------------------------------------------------------
 Center     Atomic      Atomic             Coordinates (Angstroms)
 Number     Number       Type             X           Y           Z
 ---------------------------------------------------------------------
      1          9           0        2.426077    1.130423   -0.000041
      2          5           0        1.730856    0.000000    0.000062
      3          9           0        2.426077   -1.130423   -0.000043
      4          6           0        0.181222    0.000000    0.000034
      5          6           0       -0.548109   -1.195963    0.000021
      6          6           0       -0.548109    1.195963    0.000024
      7          6           0       -1.939183    1.142628    0.000001
      8          6           0       -1.939183   -1.142628   -0.000001
      9          7           0       -2.633108    0.000000   -0.000011
     10          1           0       -0.040082   -2.153350    0.000029
     11          1           0       -2.525786   -2.056944   -0.000011
     12          1           0       -0.040082    2.153350    0.000033
     13          1           0       -2.525786    2.056944   -0.000007
 ---------------------------------------------------------------------

 SCF Done:  E(RHF) =  -470.029393338     A.U. after    2 cycles

 The electronic state is 1-A.
 Alpha  occ. eigenvalues --  -26.14749 -26.14741 -15.65158 -11.29779 -11.29765
 Alpha  occ. eigenvalues --  -11.27249 -11.27237 -11.26671  -7.75035  -1.70030
 Alpha  occ. eigenvalues --   -1.67793  -1.24598  -1.09272  -1.04337  -0.89878
 Alpha  occ. eigenvalues --   -0.87465  -0.86656  -0.82629  -0.79343  -0.77750
 Alpha  occ. eigenvalues --   -0.73046  -0.72614  -0.71387  -0.67679  -0.66758
 Alpha  occ. eigenvalues --   -0.61514  -0.56550  -0.55677  -0.53426  -0.42884
 Alpha  occ. eigenvalues --   -0.40462  -0.36283
 Alpha virt. eigenvalues --    0.03141   0.03690   0.04490   0.04698   0.05189
 Alpha virt. eigenvalues --    0.05918   0.06496   0.07595   0.08533   0.09263
 Alpha virt. eigenvalues --    0.10297   0.11519   0.13459   0.13692   0.14123

 Mulliken charges:
               1
     1  F   -0.496076
     2  B    0.981162
     3  F   -0.496076
     4  C   -0.406456
     5  C    0.915538
     6  C    0.915538
     7  C    0.334160
     8  C    0.334160
     9  N   -0.379813
    10  H   -0.527430
    11  H   -0.323639
    12  H   -0.527430
    13  H   -0.323639
 Sum of Mulliken charges =  -0.00000

 Dipole moment (field-independent basis, Debye):
    X=             -0.3158    Y=              0.0000    Z=              0.0004  Tot=              0.3158

 Test job not archived.
 1\1\GINC-SE162\SP\RHF\Aug-CC-pVDZ\C5H4B1F2N1\OHZDE\09-Apr-2025\0\\#t h
 f aug-cc-pvdz iop(5/13=1,5/36=2,99/5=2) pseudo=read geom=check guess=(
 read,tcheck) scf=(maxcycle=1)\\title\\0,1\F,0,-2.426077,-1.130423,-0.0
 00041\B,0,-1.730856,0.,0.000062\F,0,-2.426077,1.130423,-0.000043\C,0,-
 0.181222,0.,0.000034\C,0,0.548109,1.195963,0.000021\C,0,0.548109,-1.19
 5963,0.000024\C,0,1.939183,-1.142628,0.000001\C,0,1.939183,1.142628,-0
 .000001\N,0,2.633108,0.,-0.000011\H,0,0.040082,2.15335,0.000029\H,0,2.
 525786,2.056944,-0.000011\H,0,0.040082,-2.15335,0.000033\H,0,2.525786,

 Normal termination of Gaussian 16 at Wed Apr  9 00:33:23 2025.
