 Gaussian 16, Revision C.01,

 ----------------------------------------------------------------------
 #t hf aug-cc-pvdz symm=none int=(grid=ultrafine) guess=(read,tcheck) s
 table=(opt,rrhf)
 ----------------------------------------------------------------------
 -----
 title
 -----
 Symbolic Z-matrix:
 Charge =  0 Multiplicity = 1

 SCF Done:  E(RHF) =  -805.941010425     A.U. after   12 cycles
 Normal termination of Gaussian 16 at Wed Apr  9 00:12:51 2025.
 Gaussian 16:  ES64L-G16RevC.01  3-Jul-2019

 ----------------------------------------------------------------------
 #t hf aug-cc-pvdz iop(5/13=1,5/36=2,99/5=2) pseudo=read geom=check gue
 ss=(read,tcheck) scf=(maxcycle=1)
 ----------------------------------------------------------------------
 -----
 title
 -----
 Structure from the checkpoint file:  "BDE49_nonexpt_2466_mol1.chk"
 Charge =  0 Multiplicity = 1

                         Standard orientation:
 ---------------------------------------------------------------------
 Center     Atomic      Atomic             Coordinates (Angstroms)
 Number     Number       Type             X           Y           Z
 ---------------------------------------------------------------------
      1         16           0       -1.977548   -0.908890   -0.105480
      2         14           0       -0.894700    0.962619    0.126078
      3          6           0        0.877776    0.671087   -0.428654
      4          1           0       -3.146027   -0.431816    0.359064
      5          6           0        1.684923   -0.342490    0.404174
      6          1           0        1.375606    1.649938   -0.407473
      7          1           0        0.862259    0.367843   -1.482771
      8          6           0        3.131729   -0.492323   -0.077580
      9          1           0        1.191210   -1.319472    0.375305
     10          1           0        1.682890   -0.035058    1.456016
     11          1           0        3.167555   -0.834424   -1.116416
     12          1           0        3.679446   -1.216986    0.531311
     13          1           0        3.666419    0.461107   -0.024042
     14          1           0       -0.946453    1.392360    1.544202
     15          1           0       -1.532902    2.014430   -0.700244
 ---------------------------------------------------------------------

 SCF Done:  E(RHF) =  -806.021807786     A.U. after    2 cycles

 The electronic state is 1-A.
 Alpha  occ. eigenvalues --  -93.52589 -69.08661 -11.24059 -11.22973 -11.22745
 Alpha  occ. eigenvalues --   -8.82510  -6.83702  -6.16680  -6.16445  -6.16161
 Alpha  occ. eigenvalues --   -3.94517  -3.94430  -3.94416  -1.05264  -0.95106
 Alpha  occ. eigenvalues --   -0.92336  -0.81202  -0.67787  -0.63882  -0.58160
 Alpha  occ. eigenvalues --   -0.56127  -0.54978  -0.52827  -0.49856  -0.48316
 Alpha  occ. eigenvalues --   -0.47710  -0.43613  -0.43075  -0.36807
 Alpha virt. eigenvalues --    0.03431   0.04285   0.04643   0.04925   0.06263
 Alpha virt. eigenvalues --    0.06589   0.07071   0.07337   0.08758   0.09065
 Alpha virt. eigenvalues --    0.09614   0.10214   0.11124   0.12581   0.13251

 Mulliken charges:
               1
     1  S   -0.439755
     2  Si   0.603284
     3  C    0.140310
     4  H    0.007123
     5  C    0.012951
     6  H   -0.192381
     7  H   -0.153127
     8  C    0.411512
     9  H   -0.132264
    10  H   -0.136964
    11  H   -0.059451
    12  H   -0.069462
    13  H   -0.073527
    14  H    0.077266
    15  H    0.004486
 Sum of Mulliken charges =  -0.00000

 Dipole moment (field-independent basis, Debye):
    X=              0.7613    Y=              1.0336    Z=              0.2186  Tot=              1.3022

 Test job not archived.
 1\1\GINC-SE343\SP\RHF\Aug-CC-pVDZ\C3H10S1Si1\OHZDE\09-Apr-2025\0\\#t h
 f aug-cc-pvdz iop(5/13=1,5/36=2,99/5=2) pseudo=read geom=check guess=(
 read,tcheck) scf=(maxcycle=1)\\title\\0,1\S,0,-1.977548,-0.90889,-0.10
 548\Si,0,-0.8947,0.962619,0.126078\C,0,0.877776,0.671087,-0.428654\H,0
 ,-3.146027,-0.431816,0.359064\C,0,1.684923,-0.34249,0.404174\H,0,1.375
 606,1.649938,-0.407473\H,0,0.862259,0.367843,-1.482771\C,0,3.131729,-0
 .492323,-0.07758\H,0,1.19121,-1.319472,0.375305\H,0,1.68289,-0.035058,
 1.456016\H,0,3.167555,-0.834424,-1.116416\H,0,3.679446,-1.216986,0.531

 Normal termination of Gaussian 16 at Wed Apr  9 00:12:55 2025.
