 Gaussian 16, Revision C.01,

 ----------------------------------------------------------------------
 #t hf aug-cc-pvdz symm=none int=(grid=ultrafine) guess=(read,tcheck) s
 table=(opt,rrhf)
 ----------------------------------------------------------------------
 -----
 title
 -----
 Symbolic Z-matrix:
 Charge =  0 Multiplicity = 1

 SCF Done:  E(RHF) =  -1007.42731746     A.U. after   18 cycles
 Normal termination of Gaussian 16 at Tue Apr  8 23:31:08 2025.
 Gaussian 16:  ES64L-G16RevC.01  3-Jul-2019

 ----------------------------------------------------------------------
 #t hf aug-cc-pvdz iop(5/13=1,5/36=2,99/5=2) pseudo=read geom=check gue
 ss=(read,tcheck) scf=(maxcycle=1)
 ----------------------------------------------------------------------
 -----
 title
 -----
 Structure from the checkpoint file:  "BDE49_nonexpt_1412_mol1.chk"
 Charge =  0 Multiplicity = 1

                         Standard orientation:
 ---------------------------------------------------------------------
 Center     Atomic      Atomic             Coordinates (Angstroms)
 Number     Number       Type             X           Y           Z
 ---------------------------------------------------------------------
      1          6           0       -3.143075   -0.092207    0.000634
      2          6           0       -2.385666   -1.220625   -0.305370
      3          6           0       -0.997336   -1.151503   -0.295817
      4          6           0       -2.503022    1.109845    0.305216
      5          6           0       -1.117813    1.186394    0.296506
      6          6           0       -0.337526    0.055253   -0.001774
      7          1           0       -4.225712   -0.148226    0.002492
      8          1           0       -2.875546   -2.155370   -0.552254
      9          1           0       -0.425102   -2.035403   -0.553878
     10          1           0       -3.087796    1.989280    0.549438
     11          1           0       -0.616218    2.117332    0.527450
     12          6           0        1.138171    0.141351   -0.001927
     13         15           0        2.079688   -1.446070    0.144923
     14         16           0        1.963946    1.538602   -0.264548
     15          1           0        1.471982   -1.953284    1.321254
     16          1           0        3.217536   -0.911959    0.779624
 ---------------------------------------------------------------------

 SCF Done:  E(RHF) =  -1007.54243858     A.U. after    2 cycles

 The electronic state is 1-A.
 Alpha  occ. eigenvalues --  -93.51619 -81.27738 -11.34018 -11.27540 -11.27162
 Alpha  occ. eigenvalues --  -11.26924 -11.26497 -11.26218 -11.26018  -8.81482
 Alpha  occ. eigenvalues --   -7.78183  -6.15639  -6.15280  -6.15067  -4.92211
 Alpha  occ. eigenvalues --   -4.92161  -4.91825  -1.17053  -1.08583  -1.03162
 Alpha  occ. eigenvalues --   -0.99889  -0.87345  -0.85168  -0.81896  -0.75127
 Alpha  occ. eigenvalues --   -0.70191  -0.65454  -0.63757  -0.61142  -0.59480
 Alpha  occ. eigenvalues --   -0.54420  -0.53297  -0.52669  -0.51586  -0.49549
 Alpha  occ. eigenvalues --   -0.45189  -0.36600  -0.35983  -0.33969  -0.32568
 Alpha virt. eigenvalues --    0.01554   0.02913   0.03890   0.04269   0.05455
 Alpha virt. eigenvalues --    0.06299   0.07267   0.07291   0.08126   0.09346
 Alpha virt. eigenvalues --    0.09730   0.10293   0.11092   0.11801   0.12297

 Mulliken charges:
               1
     1  C    0.442088
     2  C    0.612484
     3  C    0.227691
     4  C    0.583734
     5  C    0.075554
     6  C    1.132735
     7  H   -0.428821
     8  H   -0.442617
     9  H   -0.646232
    10  H   -0.429309
    11  H   -0.495547
    12  C   -0.852908
    13  P   -0.088263
    14  S   -0.056944
    15  H    0.208169
    16  H    0.158186
 Sum of Mulliken charges =  -0.00000

 Dipole moment (field-independent basis, Debye):
    X=             -2.5666    Y=             -1.7776    Z=              0.9568  Tot=              3.2654

 Test job not archived.
 1\1\GINC-SE343\SP\RHF\Aug-CC-pVDZ\C7H7P1S1\OHZDE\08-Apr-2025\0\\#t hf
 aug-cc-pvdz iop(5/13=1,5/36=2,99/5=2) pseudo=read geom=check guess=(re
 ad,tcheck) scf=(maxcycle=1)\\title\\0,1\C,0,-3.143075,-0.092207,0.0006
 34\C,0,-2.385666,-1.220625,-0.30537\C,0,-0.997336,-1.151503,-0.295817\
 C,0,-2.503022,1.109845,0.305216\C,0,-1.117813,1.186394,0.296506\C,0,-0
 .337526,0.055253,-0.001774\H,0,-4.225712,-0.148226,0.002492\H,0,-2.875
 546,-2.15537,-0.552254\H,0,-0.425102,-2.035403,-0.553878\H,0,-3.087796
 ,1.98928,0.549438\H,0,-0.616218,2.117332,0.52745\C,0,1.138171,0.141351

 Normal termination of Gaussian 16 at Tue Apr  8 23:31:16 2025.
