 Gaussian 16, Revision C.01,

 ----------------------------------------------------------------------
 #t hf aug-cc-pvdz symm=none int=(grid=ultrafine) guess=(read,tcheck) s
 table=(opt,rrhf)
 ----------------------------------------------------------------------
 -----
 title
 -----
 Symbolic Z-matrix:
 Charge =  0 Multiplicity = 1

 SCF Done:  E(RHF) =  -1194.58894693     A.U. after   15 cycles
 Normal termination of Gaussian 16 at Tue Apr  8 23:44:50 2025.
 Gaussian 16:  ES64L-G16RevC.01  3-Jul-2019

 ----------------------------------------------------------------------
 #t hf aug-cc-pvdz iop(5/13=1,5/36=2,99/5=2) pseudo=read geom=check gue
 ss=(read,tcheck) scf=(maxcycle=1)
 ----------------------------------------------------------------------
 -----
 title
 -----
 Structure from the checkpoint file:  "BDE49_nonexpt_1721_mol1.chk"
 Charge =  0 Multiplicity = 1

                         Standard orientation:
 ---------------------------------------------------------------------
 Center     Atomic      Atomic             Coordinates (Angstroms)
 Number     Number       Type             X           Y           Z
 ---------------------------------------------------------------------
      1          6           0        2.543459   -0.304269   -0.315141
      2          6           0        1.142398    0.177551    0.033431
      3         16           0       -0.149232   -0.727888   -0.824146
      4          8           0        0.945210    1.079255    0.825521
      5         15           0       -1.956367   -0.024310    0.155975
      6          8           0       -2.433553   -0.966747    1.168095
      7          6           0        3.112881   -1.065386    0.898417
      8          1           0        3.181497   -0.403915    1.764621
      9          1           0        4.113623   -1.435011    0.663369
     10          1           0        2.487457   -1.920297    1.165167
     11          6           0        3.423418    0.891148   -0.711265
     12          1           0        2.466980   -0.996697   -1.158662
     13          1           0        3.479724    1.611621    0.106564
     14          1           0        3.029509    1.403237   -1.592448
     15          1           0        4.433981    0.546340   -0.942155
     16          8           0       -2.945353    0.169660   -1.082874
     17          1           0       -3.672141   -0.464734   -1.044258
     18          8           0       -1.621465    1.459518    0.540669
     19          1           0       -0.679070    1.542568    0.840576
 ---------------------------------------------------------------------

 SCF Done:  E(RHF) =  -1194.81994368     A.U. after    2 cycles

 The electronic state is 1-A.
 Alpha  occ. eigenvalues --  -93.57525 -81.44845 -20.63070 -20.61363 -20.61275
 Alpha  occ. eigenvalues --  -20.53934 -11.41420 -11.28501 -11.25526 -11.25287
 Alpha  occ. eigenvalues --   -8.87525  -7.92969  -6.21655  -6.21411  -6.21115
 Alpha  occ. eigenvalues --   -5.07590  -5.07531  -5.07211  -1.41152  -1.39046
 Alpha  occ. eigenvalues --   -1.35583  -1.27351  -1.11017  -1.02518  -0.95712
 Alpha  occ. eigenvalues --   -0.88799  -0.85753  -0.78483  -0.74048  -0.70759
 Alpha  occ. eigenvalues --   -0.69967  -0.67928  -0.66690  -0.63658  -0.63000
 Alpha  occ. eigenvalues --   -0.61534  -0.59177  -0.58206  -0.57728  -0.56722
 Alpha  occ. eigenvalues --   -0.55804  -0.52747  -0.51598  -0.51198  -0.49995
 Alpha  occ. eigenvalues --   -0.45634  -0.44985  -0.41011
 Alpha virt. eigenvalues --    0.02811   0.03980   0.04434   0.04547   0.05478
 Alpha virt. eigenvalues --    0.06662   0.07098   0.07338   0.07501   0.08716
 Alpha virt. eigenvalues --    0.09278   0.10469   0.10835   0.11321   0.12571

 Mulliken charges:
               1
     1  C   -0.611830
     2  C   -0.145430
     3  S   -0.098541
     4  O   -0.633985
     5  P    2.308857
     6  O   -0.914183
     7  C    0.667468
     8  H    0.020318
     9  H   -0.075778
    10  H   -0.072030
    11  C    0.719190
    12  H   -0.071941
    13  H    0.011234
    14  H   -0.073649
    15  H   -0.056139
    16  O   -0.682097
    17  H    0.162996
    18  O   -0.780675
    19  H    0.326217
 Sum of Mulliken charges =  -0.00000

 Dipole moment (field-independent basis, Debye):
    X=              3.6422    Y=             -0.9177    Z=             -2.9450  Tot=              4.7729

 Test job not archived.
 1\1\GINC-SE173\SP\RHF\Aug-CC-pVDZ\C4H9O4P1S1\OHZDE\08-Apr-2025\0\\#t h
 f aug-cc-pvdz iop(5/13=1,5/36=2,99/5=2) pseudo=read geom=check guess=(
 read,tcheck) scf=(maxcycle=1)\\title\\0,1\C,0,2.543459,-0.304269,-0.31
 5141\C,0,1.142398,0.177551,0.033431\S,0,-0.149232,-0.727888,-0.824146\
 O,0,0.94521,1.079255,0.825521\P,0,-1.956367,-0.02431,0.155975\O,0,-2.4
 33553,-0.966747,1.168095\C,0,3.112881,-1.065386,0.898417\H,0,3.181497,
 -0.403915,1.764621\H,0,4.113623,-1.435011,0.663369\H,0,2.487457,-1.920
 297,1.165167\C,0,3.423418,0.891148,-0.711265\H,0,2.46698,-0.996697,-1.

 Normal termination of Gaussian 16 at Tue Apr  8 23:45:01 2025.
