 Gaussian 16, Revision C.01,

 ----------------------------------------------------------------------
 #t hf aug-cc-pvdz symm=none int=(grid=ultrafine) guess=(read,tcheck) s
 table=(opt,rrhf)
 ----------------------------------------------------------------------
 -----
 title
 -----
 Symbolic Z-matrix:
 Charge =  0 Multiplicity = 1

 SCF Done:  E(RHF) =  -1151.04195883     A.U. after   17 cycles
 Normal termination of Gaussian 16 at Tue Apr  8 23:38:57 2025.
 Gaussian 16:  ES64L-G16RevC.01  3-Jul-2019

 ----------------------------------------------------------------------
 #t hf aug-cc-pvdz iop(5/13=1,5/36=2,99/5=2) pseudo=read geom=check gue
 ss=(read,tcheck) scf=(maxcycle=1)
 ----------------------------------------------------------------------
 -----
 title
 -----
 Structure from the checkpoint file:  "BDE49_nonexpt_1618_mol1.chk"
 Charge =  0 Multiplicity = 1

                         Standard orientation:
 ---------------------------------------------------------------------
 Center     Atomic      Atomic             Coordinates (Angstroms)
 Number     Number       Type             X           Y           Z
 ---------------------------------------------------------------------
      1         15           0        0.574761    0.674523   -0.870020
      2          7           0        1.707727   -0.567844   -0.014628
      3          6           0        0.881377    2.118942    0.228032
      4         15           0       -1.333824   -0.082650   -0.003291
      5          1           0        1.888591    2.492544    0.043563
      6          1           0        0.759681    1.873986    1.282229
      7          1           0        0.161702    2.890271   -0.059956
      8          8           0        1.384566   -1.757559   -0.061982
      9          8           0        2.746023   -0.155618    0.457853
     10          8           0       -2.471313    0.743586   -0.414979
     11          8           0       -1.371938   -1.597437   -0.465400
     12          8           0       -1.082924   -0.126163    1.588892
     13          1           0       -1.798560    0.303055    2.076214
     14          1           0       -0.503139   -2.031155   -0.343245
 ---------------------------------------------------------------------

 SCF Done:  E(RHF) =  -1151.27675337     A.U. after    2 cycles

 The electronic state is 1-A.
 Alpha  occ. eigenvalues --  -81.44646 -81.35236 -20.65343 -20.64264 -20.64000
 Alpha  occ. eigenvalues --  -20.62831 -20.55263 -15.92730 -11.28782  -7.93002
 Alpha  occ. eigenvalues --   -7.85340  -5.07644  -5.07531  -5.07172  -4.99342
 Alpha  occ. eigenvalues --   -4.99077  -4.98805  -1.56881  -1.40104  -1.38958
 Alpha  occ. eigenvalues --   -1.36620  -1.28547  -1.03306  -0.96347  -0.86527
 Alpha  occ. eigenvalues --   -0.84040  -0.78935  -0.76183  -0.74263  -0.73766
 Alpha  occ. eigenvalues --   -0.69001  -0.66413  -0.65575  -0.61964  -0.61528
 Alpha  occ. eigenvalues --   -0.60347  -0.57856  -0.55125  -0.54543  -0.51634
 Alpha  occ. eigenvalues --   -0.51068  -0.50394  -0.47135  -0.41058
 Alpha virt. eigenvalues --    0.02595   0.03658   0.04607   0.05376   0.05795
 Alpha virt. eigenvalues --    0.06459   0.07403   0.07702   0.09047   0.10039
 Alpha virt. eigenvalues --    0.10568   0.12281   0.12548   0.13428   0.14420

 Mulliken charges:
               1
     1  P    0.562217
     2  N    0.517928
     3  C    0.193032
     4  P    2.238491
     5  H   -0.123950
     6  H   -0.090384
     7  H   -0.081284
     8  O   -0.661019
     9  O   -0.550562
    10  O   -0.900363
    11  O   -0.734440
    12  O   -0.784647
    13  H    0.178485
    14  H    0.236496
 Sum of Mulliken charges =  -0.00000

 Dipole moment (field-independent basis, Debye):
    X=              0.9053    Y=              2.8365    Z=              1.1900  Tot=              3.2065

 Test job not archived.
 1\1\GINC-SE435\SP\RHF\Aug-CC-pVDZ\C1H5N1O5P2\OHZDE\08-Apr-2025\0\\#t h
 f aug-cc-pvdz iop(5/13=1,5/36=2,99/5=2) pseudo=read geom=check guess=(
 read,tcheck) scf=(maxcycle=1)\\title\\0,1\P,0,0.574761,0.674523,-0.870
 02\N,0,1.707727,-0.567844,-0.014628\C,0,0.881377,2.118942,0.228032\P,0
 ,-1.333824,-0.08265,-0.003291\H,0,1.888591,2.492544,0.043563\H,0,0.759
 681,1.873986,1.282229\H,0,0.161702,2.890271,-0.059956\O,0,1.384566,-1.
 757559,-0.061982\O,0,2.746023,-0.155618,0.457853\O,0,-2.471313,0.74358
 7,-0.414979\O,0,-1.371938,-1.597437,-0.4654\O,0,-1.082924,-0.126163,1.

 Normal termination of Gaussian 16 at Tue Apr  8 23:39:03 2025.
