 Gaussian 16, Revision C.01,

 ----------------------------------------------------------------------
 #t hf aug-cc-pvdz symm=none int=(grid=ultrafine) guess=(read,tcheck) s
 table=opt
 ----------------------------------------------------------------------
 -----
 title
 -----
 Symbolic Z-matrix:
 Charge =  0 Multiplicity = 2

 SCF Done:  E(UHF) =  -841.360417902     A.U. after   24 cycles
 Normal termination of Gaussian 16 at Tue Apr  8 23:44:13 2025.
 Gaussian 16:  ES64L-G16RevC.01  3-Jul-2019

 ----------------------------------------------------------------------
 #t hf aug-cc-pvdz iop(5/13=1,5/36=2,99/5=2) pseudo=read geom=check gue
 ss=(read,tcheck) scf=(maxcycle=1)
 ----------------------------------------------------------------------
 -----
 title
 -----
 Structure from the checkpoint file:  "BDE49_nonexpt_1762_mol2.chk"
 Charge =  0 Multiplicity = 2

                         Standard orientation:
 ---------------------------------------------------------------------
 Center     Atomic      Atomic             Coordinates (Angstroms)
 Number     Number       Type             X           Y           Z
 ---------------------------------------------------------------------
      1          6           0        1.561261   -0.110544    0.029167
      2         14           0       -0.012738    0.828489   -0.123375
      3          7           0        2.585252   -0.651731    0.024500
      4         17           0       -1.600484   -0.482182    0.024385
      5          1           0       -0.077769    1.823633    0.966209
 ---------------------------------------------------------------------

 SCF Done:  E(UHF) =  -841.428525873     A.U. after    2 cycles

 The electronic state is 2-A.
 Alpha  occ. eigenvalues -- -103.68651 -69.17679 -15.67908 -11.28449 -10.72084
 Alpha  occ. eigenvalues --   -8.37843  -8.37570  -8.37499  -6.92480  -4.03685
 Alpha  occ. eigenvalues --   -4.02993  -4.02852  -1.21971  -1.17228  -0.80970
 Alpha  occ. eigenvalues --   -0.64393  -0.57927  -0.57353  -0.53887  -0.51188
 Alpha  occ. eigenvalues --   -0.50318  -0.49583  -0.38358
 Alpha virt. eigenvalues --    0.03643   0.03866   0.05305   0.05465   0.08103
 Alpha virt. eigenvalues --    0.08817   0.10494   0.11637   0.12630   0.12803
 Alpha virt. eigenvalues --    0.13721   0.15333   0.16926   0.18194   0.18705

  Beta  occ. eigenvalues -- -103.68555 -69.17045 -15.66686 -11.29192 -10.71980
  Beta  occ. eigenvalues --   -8.37671  -8.37448  -8.37306  -6.91472  -4.02535
  Beta  occ. eigenvalues --   -4.02415  -4.01520  -1.19970  -1.16415  -0.78800
  Beta  occ. eigenvalues --   -0.62946  -0.56778  -0.55627  -0.51547  -0.49933
  Beta  occ. eigenvalues --   -0.48555  -0.48323
  Beta virt. eigenvalues --   -0.00383   0.04170   0.04514   0.05489   0.05925
  Beta virt. eigenvalues --    0.09362   0.10136   0.10995   0.12406   0.12985
  Beta virt. eigenvalues --    0.13649   0.14854   0.16703   0.17120   0.18537

 Mulliken charges and spin densities:
               1          2
     1  C   -0.192480  -0.415379
     2  Si   0.843896   0.884777
     3  N   -0.147634   0.419748
     4  Cl  -0.457779   0.037030
     5  H   -0.046004   0.073823
 Sum of Mulliken charges =  -0.00000   1.00000

 Dipole moment (field-independent basis, Debye):
    X=             -1.8447    Y=              2.4147    Z=             -0.1963  Tot=              3.0450
                          Isotropic Fermi Contact Couplings
        Atom                 a.u.       MegaHertz       Gauss      10(-4) cm-1
     1  C(13)             -0.03811     -42.84491     -15.28813     -14.29153
     2  Si(29)             0.79753    -708.78563    -252.91234    -236.42544
     3  N(14)              0.08793      28.41127      10.13785       9.47698
     4  Cl(35)             0.05307      23.26801       8.30260       7.76137
     5  H(1)               0.01500      67.04251      23.92243      22.36297
 --------------------------------------------------------
       Center         ----  Spin Dipole Couplings  ----
                      3XX-RR        3YY-RR        3ZZ-RR

 Normal termination of Gaussian 16 at Tue Apr  8 23:44:15 2025.
