 Gaussian 16, Revision C.01,

 ----------------------------------------------------------------------
 #t hf aug-cc-pvdz symm=none int=(grid=ultrafine) guess=(read,tcheck) s
 table=(opt,rrhf)
 ----------------------------------------------------------------------
 -----
 title
 -----
 Symbolic Z-matrix:
 Charge =  0 Multiplicity = 1

 SCF Done:  E(RHF) =  -1171.02749767     A.U. after   13 cycles
 Normal termination of Gaussian 16 at Tue Apr  8 23:50:03 2025.
 Gaussian 16:  ES64L-G16RevC.01  3-Jul-2019

 ----------------------------------------------------------------------
 #t hf aug-cc-pvdz iop(5/13=1,5/36=2,99/5=2) pseudo=read geom=check gue
 ss=(read,tcheck) scf=(maxcycle=1)
 ----------------------------------------------------------------------
 -----
 title
 -----
 Structure from the checkpoint file:  "BDE49_nonexpt_188_mol1.chk"
 Charge =  0 Multiplicity = 1

                         Standard orientation:
 ---------------------------------------------------------------------
 Center     Atomic      Atomic             Coordinates (Angstroms)
 Number     Number       Type             X           Y           Z
 ---------------------------------------------------------------------
      1         17           0        1.561880   -1.520351   -0.121082
      2         17           0        1.561796    1.520392   -0.121080
      3          5           0        0.707629   -0.000003    0.014762
      4          6           0       -0.843368   -0.000048    0.351833
      5          8           0       -1.239010   -0.000008    1.493984
      6          8           0       -1.636333   -0.000028   -0.731354
      7          6           0       -3.060216   -0.000014   -0.479381
      8          1           0       -3.526980   -0.000002   -1.460932
      9          1           0       -3.344691    0.889364    0.084069
     10          1           0       -3.344711   -0.889396    0.084056
 ---------------------------------------------------------------------

 SCF Done:  E(RHF) =  -1171.14363950     A.U. after    2 cycles

 The electronic state is 1-A.
 Alpha  occ. eigenvalues -- -103.68962-103.68962 -20.63697 -20.58345 -11.40025
 Alpha  occ. eigenvalues --  -11.31156 -10.72455 -10.72421  -8.38138  -8.38131
 Alpha  occ. eigenvalues --   -8.37903  -8.37901  -8.37867  -8.37865  -7.76021
 Alpha  occ. eigenvalues --   -1.43525  -1.34287  -1.20236  -1.16638  -1.00047
 Alpha  occ. eigenvalues --   -0.83898  -0.77175  -0.70614  -0.69840  -0.67655
 Alpha  occ. eigenvalues --   -0.61310  -0.61237  -0.56442  -0.55725  -0.54564
 Alpha  occ. eigenvalues --   -0.52677  -0.50133  -0.49246  -0.48776  -0.45999
 Alpha virt. eigenvalues --    0.03395   0.04993   0.05258   0.05280   0.06434
 Alpha virt. eigenvalues --    0.06580   0.07051   0.07155   0.11848   0.11938
 Alpha virt. eigenvalues --    0.12589   0.12964   0.14514   0.14610   0.15638

 Mulliken charges:
               1
     1  Cl  -0.268530
     2  Cl  -0.268527
     3  B    0.564529
     4  C    0.515860
     5  O   -0.443837
     6  O   -0.498530
     7  C    0.775204
     8  H   -0.224387
     9  H   -0.075891
    10  H   -0.075891
 Sum of Mulliken charges =  -0.00000

 Dipole moment (field-independent basis, Debye):
    X=             -1.3380    Y=             -0.0001    Z=             -1.8454  Tot=              2.2794

 Test job not archived.
 1\1\GINC-SE195\SP\RHF\Aug-CC-pVDZ\C2H3B1Cl2O2\OHZDE\08-Apr-2025\0\\#t
 hf aug-cc-pvdz iop(5/13=1,5/36=2,99/5=2) pseudo=read geom=check guess=
 (read,tcheck) scf=(maxcycle=1)\\title\\0,1\Cl,0,-1.56188,1.520351,-0.1
 21082\Cl,0,-1.561796,-1.520392,-0.12108\B,0,-0.707629,0.000003,0.01476
 2\C,0,0.843368,0.000048,0.351833\O,0,1.23901,0.000008,1.493984\O,0,1.6
 36333,0.000028,-0.731354\C,0,3.060216,0.000014,-0.479381\H,0,3.52698,0
 .000001,-1.460932\H,0,3.344691,-0.889365,0.084069\H,0,3.344711,0.88939
 5,0.084056\\Version=ES64L-G16RevC.01\State=1-A\HF=-1171.1436395\RMSD=2

 Normal termination of Gaussian 16 at Tue Apr  8 23:50:07 2025.
