 Gaussian 16, Revision C.01,

 ----------------------------------------------------------------------
 #t hf aug-cc-pvdz symm=none int=(grid=ultrafine) guess=(read,tcheck) s
 table=(opt,rrhf)
 ----------------------------------------------------------------------
 -----
 title
 -----
 Symbolic Z-matrix:
 Charge =  0 Multiplicity = 1

 SCF Done:  E(RHF) =  -885.719501896     A.U. after   13 cycles
 Normal termination of Gaussian 16 at Tue Apr  8 22:54:16 2025.
 Gaussian 16:  ES64L-G16RevC.01  3-Jul-2019

 ----------------------------------------------------------------------
 #t hf aug-cc-pvdz iop(5/13=1,5/36=2,99/5=2) pseudo=read geom=check gue
 ss=(read,tcheck) scf=(maxcycle=1)
 ----------------------------------------------------------------------
 -----
 title
 -----
 Structure from the checkpoint file:  "BDE49_expt_1874_mol1.chk"
 Charge =  0 Multiplicity = 1

                         Standard orientation:
 ---------------------------------------------------------------------
 Center     Atomic      Atomic             Coordinates (Angstroms)
 Number     Number       Type             X           Y           Z
 ---------------------------------------------------------------------
      1          8           0        0.906685   -0.567427   -0.934653
      2          8           0        2.151728   -0.868866   -0.302516
      3          6           0        2.840782    0.289942   -0.072345
      4          6           0       -0.048873   -0.343811    0.031602
      5          8           0       -1.183194   -0.189514   -0.698273
      6          8           0        0.103955   -0.299606    1.201132
      7          8           0        2.510313    1.400829   -0.256210
      8          9           0        4.000919   -0.118775    0.417936
      9          6           0       -2.367536    0.095219   -0.024023
     10          9           0       -2.695553   -0.884654    0.812414
     11          9           0       -3.299420    0.206197   -0.957887
     12          9           0       -2.279516    1.235961    0.651177
 ---------------------------------------------------------------------

 SCF Done:  E(RHF) =  -886.028362020     A.U. after    2 cycles

 The electronic state is 1-A.
 Alpha  occ. eigenvalues --  -26.21521 -26.21023 -26.20884 -26.20865 -20.75859
 Alpha  occ. eigenvalues --  -20.75680 -20.71364 -20.63949 -20.63825 -11.63033
 Alpha  occ. eigenvalues --  -11.53853 -11.52676  -1.81738  -1.76880  -1.74146
 Alpha  occ. eigenvalues --   -1.73947  -1.58091  -1.51028  -1.44988  -1.42993
 Alpha  occ. eigenvalues --   -1.33514  -1.08875  -1.00170  -0.96038  -0.94030
 Alpha  occ. eigenvalues --   -0.93627  -0.89153  -0.86163  -0.83762  -0.82963
 Alpha  occ. eigenvalues --   -0.82372  -0.81964  -0.79925  -0.77626  -0.77395
 Alpha  occ. eigenvalues --   -0.77064  -0.75918  -0.75264  -0.72496  -0.70849
 Alpha  occ. eigenvalues --   -0.69247  -0.66062  -0.62624  -0.58913  -0.58136
 Alpha  occ. eigenvalues --   -0.57319  -0.56537
 Alpha virt. eigenvalues --    0.06398   0.06899   0.07915   0.08070   0.08957
 Alpha virt. eigenvalues --    0.09490   0.09559   0.12429   0.12671   0.13005
 Alpha virt. eigenvalues --    0.13793   0.13984   0.14499   0.17863   0.19044

 Mulliken charges:
               1
     1  O   -0.343728
     2  O   -0.303287
     3  C    0.733913
     4  C    0.815222
     5  O   -0.520376
     6  O   -0.250162
     7  O   -0.250388
     8  F   -0.234466
     9  C    1.131549
    10  F   -0.272466
    11  F   -0.237239
    12  F   -0.268572
 Sum of Mulliken charges =  -0.00000

 Dipole moment (field-independent basis, Debye):
    X=             -0.2217    Y=             -1.1402    Z=             -1.1586  Tot=              1.6406

 Test job not archived.
 1\1\GINC-SE072\SP\RHF\Aug-CC-pVDZ\C3F4O5\OHZDE\08-Apr-2025\0\\#t hf au
 g-cc-pvdz iop(5/13=1,5/36=2,99/5=2) pseudo=read geom=check guess=(read
 ,tcheck) scf=(maxcycle=1)\\title\\0,1\O,0,0.906685,-0.567427,-0.934653
 \O,0,2.151728,-0.868866,-0.302516\C,0,2.840782,0.289942,-0.072345\C,0,
 -0.048873,-0.343811,0.031602\O,0,-1.183194,-0.189514,-0.698273\O,0,0.1
 03955,-0.299606,1.201132\O,0,2.510313,1.400829,-0.25621\F,0,4.000919,-
 0.118775,0.417936\C,0,-2.367536,0.095219,-0.024023\F,0,-2.695553,-0.88
 4654,0.812414\F,0,-3.29942,0.206197,-0.957887\F,0,-2.279516,1.235961,0

 Normal termination of Gaussian 16 at Tue Apr  8 22:54:25 2025.
