 Gaussian 16, Revision C.01,

 ----------------------------------------------------------------------
 #t hf aug-cc-pvdz symm=none int=(grid=ultrafine) guess=(read,tcheck) s
 table=(opt,rrhf)
 ----------------------------------------------------------------------
 -----
 title
 -----
 Symbolic Z-matrix:
 Charge =  0 Multiplicity = 1

 SCF Done:  E(RHF) =  -287.507535326     A.U. after   15 cycles
 Normal termination of Gaussian 16 at Tue Apr  8 23:18:49 2025.
 Gaussian 16:  ES64L-G16RevC.01  3-Jul-2019

 ----------------------------------------------------------------------
 #t hf aug-cc-pvdz iop(5/13=1,5/36=2,99/5=2) pseudo=read geom=check gue
 ss=(read,tcheck) scf=(maxcycle=1)
 ----------------------------------------------------------------------
 -----
 title
 -----
 Structure from the checkpoint file:  "BDE49_nonexpt_1130_mol1.chk"
 Charge =  0 Multiplicity = 1

                         Standard orientation:
 ---------------------------------------------------------------------
 Center     Atomic      Atomic             Coordinates (Angstroms)
 Number     Number       Type             X           Y           Z
 ---------------------------------------------------------------------
      1          9           0       -1.317615   -0.508282   -0.000000
      2          8           0       -0.564265    0.704468   -0.000000
      3          6           0        0.777566    0.425665   -0.000000
      4          8           0        1.308733   -0.630637   -0.000000
      5          1           0        1.237400    1.429903    0.000001
 ---------------------------------------------------------------------

 SCF Done:  E(RHF) =  -287.606092202     A.U. after    2 cycles

 The electronic state is 1-A.
 Alpha  occ. eigenvalues --  -26.20612 -20.75407 -20.61997 -11.44588  -1.71094
 Alpha  occ. eigenvalues --   -1.44545  -1.36217  -0.92295  -0.82860  -0.81342
 Alpha  occ. eigenvalues --   -0.75948  -0.71944  -0.66915  -0.66783  -0.55752
 Alpha  occ. eigenvalues --   -0.52668
 Alpha virt. eigenvalues --    0.03071   0.07264   0.07420   0.09061   0.10120
 Alpha virt. eigenvalues --    0.13526   0.14787   0.19648   0.20690   0.22347
 Alpha virt. eigenvalues --    0.22367   0.26253   0.27626   0.29095   0.30009

 Mulliken charges:
               1
     1  F   -0.289416
     2  O   -0.076509
     3  C    0.747454
     4  O   -0.291014
     5  H   -0.090514
 Sum of Mulliken charges =  -0.00000

 Dipole moment (field-independent basis, Debye):
    X=              0.8066    Y=              2.9810    Z=              0.0000  Tot=              3.0882

 Test job not archived.
 1\1\GINC-SE341\SP\RHF\Aug-CC-pVDZ\C1H1F1O2\OHZDE\08-Apr-2025\0\\#t hf
 aug-cc-pvdz iop(5/13=1,5/36=2,99/5=2) pseudo=read geom=check guess=(re
 ad,tcheck) scf=(maxcycle=1)\\title\\0,1\F,0,1.317615,-0.508282,0.\O,0,
 0.564265,0.704468,0.\C,0,-0.777566,0.425665,0.\O,0,-1.308733,-0.630637
 ,0.\H,0,-1.2374,1.429903,-0.000001\\Version=ES64L-G16RevC.01\State=1-A
 \HF=-287.6060922\RMSD=4.360e-03\Dipole=-0.3173281,1.1728041,-0.0000002
 \Quadrupole=-1.5061361,0.8101095,0.6960266,-2.9232938,0.0000006,-0.000
 0006\PG=C01 [X(C1H1F1O2)]\\@

 Normal termination of Gaussian 16 at Tue Apr  8 23:18:51 2025.
