 Gaussian 16, Revision C.01,

 ----------------------------------------------------------------------
 #t hf aug-cc-pvdz symm=none int=(grid=ultrafine) guess=(read,tcheck) s
 table=(opt,rrhf)
 ----------------------------------------------------------------------
 -----
 title
 -----
 Symbolic Z-matrix:
 Charge =  0 Multiplicity = 1

 SCF Done:  E(RHF) =  -266.879942072     A.U. after   13 cycles
 Normal termination of Gaussian 16 at Tue Apr  8 22:33:23 2025.
 Gaussian 16:  ES64L-G16RevC.01  3-Jul-2019

 ----------------------------------------------------------------------
 #t hf aug-cc-pvdz iop(5/13=1,5/36=2,99/5=2) pseudo=read geom=check gue
 ss=(read,tcheck) scf=(maxcycle=1)
 ----------------------------------------------------------------------
 -----
 title
 -----
 Structure from the checkpoint file:  "BDE49_expt_1113_mol1.chk"
 Charge =  0 Multiplicity = 1

                         Standard orientation:
 ---------------------------------------------------------------------
 Center     Atomic      Atomic             Coordinates (Angstroms)
 Number     Number       Type             X           Y           Z
 ---------------------------------------------------------------------
      1          6           0       -0.653807   -0.740079    0.000008
      2          6           0        0.579841    0.153484    0.000030
      3          8           0        0.558938    1.350524   -0.000005
      4          8           0        1.771709   -0.507563   -0.000020
      5          1           0        1.623674   -1.460584   -0.000027
      6          6           0       -1.960951    0.047267   -0.000001
      7          1           0       -0.594924   -1.397871    0.876217
      8          1           0       -0.594906   -1.397861   -0.876207
      9          1           0       -2.026023    0.689567    0.879561
     10          1           0       -2.817481   -0.630543   -0.000015
     11          1           0       -2.026004    0.689579   -0.879556
 ---------------------------------------------------------------------

 SCF Done:  E(RHF) =  -266.966512772     A.U. after    2 cycles

 The electronic state is 1-A.
 Alpha  occ. eigenvalues --  -20.62691 -20.56254 -11.39981 -11.27287 -11.24156
 Alpha  occ. eigenvalues --   -1.42047  -1.33315  -1.06275  -0.90767  -0.83441
 Alpha  occ. eigenvalues --   -0.72766  -0.67580  -0.67289  -0.62361  -0.60708
 Alpha  occ. eigenvalues --   -0.54266  -0.53737  -0.51690  -0.50048  -0.46578
 Alpha virt. eigenvalues --    0.02449   0.04014   0.04575   0.05595   0.06991
 Alpha virt. eigenvalues --    0.07679   0.09972   0.11818   0.11889   0.12943
 Alpha virt. eigenvalues --    0.13729   0.14847   0.16128   0.16517   0.16735

 Mulliken charges:
               1
     1  C   -0.096167
     2  C    0.604068
     3  O   -0.434239
     4  O   -0.513948
     5  H    0.178805
     6  C    0.438148
     7  H   -0.031449
     8  H   -0.031462
     9  H   -0.034956
    10  H   -0.043847
    11  H   -0.034953
 Sum of Mulliken charges =  -0.00000

 Dipole moment (field-independent basis, Debye):
    X=             -1.9382    Y=             -4.4969    Z=              0.0001  Tot=              4.8968

 Test job not archived.
 1\1\GINC-SE457\SP\RHF\Aug-CC-pVDZ\C3H6O2\OHZDE\08-Apr-2025\0\\#t hf au
 g-cc-pvdz iop(5/13=1,5/36=2,99/5=2) pseudo=read geom=check guess=(read
 ,tcheck) scf=(maxcycle=1)\\title\\0,1\C,0,0.653807,-0.740079,-0.000008
 \C,0,-0.579841,0.153484,-0.00003\O,0,-0.558938,1.350524,0.000005\O,0,-
 1.771709,-0.507562,0.00002\H,0,-1.623674,-1.460583,0.000027\C,0,1.9609
 51,0.047267,0.000001\H,0,0.594924,-1.397871,-0.876217\H,0,0.594906,-1.
 397861,0.876207\H,0,2.026023,0.689567,-0.879561\H,0,2.817481,-0.630543
 ,0.000015\H,0,2.026004,0.689579,0.879556\\Version=ES64L-G16RevC.01\Sta

 Normal termination of Gaussian 16 at Tue Apr  8 22:33:26 2025.
