 Gaussian 16, Revision C.01,

 ----------------------------------------------------------------------
 #t hf aug-cc-pvdz symm=none int=(grid=ultrafine) guess=(read,tcheck) s
 table=(opt,rrhf)
 ----------------------------------------------------------------------
 -----
 title
 -----
 Symbolic Z-matrix:
 Charge =  0 Multiplicity = 1

 SCF Done:  E(RHF) =  -995.465523226     A.U. after   13 cycles
 Normal termination of Gaussian 16 at Tue Apr  8 23:23:40 2025.
 Gaussian 16:  ES64L-G16RevC.01  3-Jul-2019

 ----------------------------------------------------------------------
 #t hf aug-cc-pvdz iop(5/13=1,5/36=2,99/5=2) pseudo=read geom=check gue
 ss=(read,tcheck) scf=(maxcycle=1)
 ----------------------------------------------------------------------
 -----
 title
 -----
 Structure from the checkpoint file:  "BDE49_nonexpt_1254_mol1.chk"
 Charge =  0 Multiplicity = 1

                         Standard orientation:
 ---------------------------------------------------------------------
 Center     Atomic      Atomic             Coordinates (Angstroms)
 Number     Number       Type             X           Y           Z
 ---------------------------------------------------------------------
      1         17           0       -2.013258   -0.524896   -0.000000
      2         15           0       -0.026009   -1.300670    0.000000
      3          6           0        0.702956   -0.330777    1.408700
      4          6           0        0.702956    1.198713    1.281409
      5          6           0        1.383893    1.699512    0.000000
      6          6           0        0.702956    1.198713   -1.281409
      7          6           0        0.702956   -0.330777   -1.408700
      8          1           0        1.733101   -0.709024    1.477452
      9          1           0        0.195857   -0.656312    2.320931
     10          1           0        1.207584    1.624321   -2.155655
     11          1           0       -0.329209    1.561624   -1.311802
     12          1           0        1.733101   -0.709024   -1.477452
     13          1           0        0.195857   -0.656312   -2.320931
     14          1           0        1.207584    1.624321    2.155655
     15          1           0       -0.329209    1.561624    1.311802
     16          1           0        2.436505    1.385850    0.000000
     17          1           0        1.390041    2.793901    0.000000
 ---------------------------------------------------------------------

 SCF Done:  E(RHF) =  -995.564437540     A.U. after    2 cycles

 The electronic state is 1-A'.
 Alpha  occ. eigenvalues -- -103.63953 -81.30064 -11.25027 -11.25025 -11.24071
 Alpha  occ. eigenvalues --  -11.24069 -11.23795 -10.67277  -8.32971  -8.32719
 Alpha  occ. eigenvalues --   -8.32710  -7.79934  -4.93841  -4.93730  -4.93429
 Alpha  occ. eigenvalues --   -1.12427  -1.08840  -1.01410  -0.95790  -0.84730
 Alpha  occ. eigenvalues --   -0.79978  -0.71075  -0.64800  -0.61900  -0.61006
 Alpha  occ. eigenvalues --   -0.58572  -0.55133  -0.53231  -0.51183  -0.50440
 Alpha  occ. eigenvalues --   -0.49090  -0.47222  -0.46491  -0.46039  -0.41822
 Alpha  occ. eigenvalues --   -0.34200
 Alpha virt. eigenvalues --    0.03205   0.04199   0.04401   0.05151   0.06200
 Alpha virt. eigenvalues --    0.06663   0.06803   0.07120   0.07605   0.09128
 Alpha virt. eigenvalues --    0.09487   0.10037   0.12051   0.13074   0.13436

 Mulliken charges:
               1
     1  Cl  -0.495994
     2  P    0.704134
     3  C    0.002147
     4  C    0.224175
     5  C    0.217086
     6  C    0.224175
     7  C    0.002147
     8  H   -0.031641
     9  H   -0.105212
    10  H   -0.092012
    11  H   -0.103918
    12  H   -0.031641
    13  H   -0.105212
    14  H   -0.092012
    15  H   -0.103918
    16  H   -0.119983
    17  H   -0.092320
 Sum of Mulliken charges =   0.00000

 Dipole moment (field-independent basis, Debye):
    X=              2.8832    Y=              1.1012    Z=             -0.0000  Tot=              3.0864

 Test job not archived.
 1\1\GINC-SE094\SP\RHF\Aug-CC-pVDZ\C5H10Cl1P1\OHZDE\08-Apr-2025\0\\#t h
 f aug-cc-pvdz iop(5/13=1,5/36=2,99/5=2) pseudo=read geom=check guess=(
 read,tcheck) scf=(maxcycle=1)\\title\\0,1\Cl,0,-2.013258,-0.524896,0.\
 P,0,-0.026009,-1.30067,0.\C,0,0.702956,-0.330777,1.4087\C,0,0.702956,1
 .198713,1.281409\C,0,1.383893,1.699512,0.\C,0,0.702956,1.198713,-1.281
 409\C,0,0.702956,-0.330777,-1.4087\H,0,1.733101,-0.709024,1.477452\H,0
 ,0.195857,-0.656312,2.320931\H,0,1.207584,1.624321,-2.155655\H,0,-0.32
 9209,1.561624,-1.311802\H,0,1.733101,-0.709024,-1.477452\H,0,0.195857,

 Normal termination of Gaussian 16 at Tue Apr  8 23:23:45 2025.
