 Gaussian 16, Revision C.01,

 ----------------------------------------------------------------------
 #t hf aug-cc-pvdz symm=none int=(grid=ultrafine) guess=(read,tcheck) s
 table=opt
 ----------------------------------------------------------------------
 -----
 title
 -----
 Symbolic Z-matrix:
 Charge =  0 Multiplicity = 2

 SCF Done:  E(UHF) =  -272.647100242     A.U. after   18 cycles
 Normal termination of Gaussian 16 at Wed Apr  9 00:32:50 2025.
 Gaussian 16:  ES64L-G16RevC.01  3-Jul-2019

 ----------------------------------------------------------------------
 #t hf aug-cc-pvdz iop(5/13=1,5/36=2,99/5=2) pseudo=read geom=check gue
 ss=(read,tcheck) scf=(maxcycle=1)
 ----------------------------------------------------------------------
 -----
 title
 -----
 Structure from the checkpoint file:  "BDE49_nonexpt_425_mol2.chk"
 Charge =  0 Multiplicity = 2

                         Standard orientation:
 ---------------------------------------------------------------------
 Center     Atomic      Atomic             Coordinates (Angstroms)
 Number     Number       Type             X           Y           Z
 ---------------------------------------------------------------------
      1          9           0       -2.512927    0.209468    0.000077
      2          5           0       -1.235190   -0.038859   -0.000829
      3          7           0       -0.006277   -0.262836    0.000837
      4          7           0        1.229541   -0.674721   -0.000310
      5          6           0        2.167245    0.445634   -0.000043
      6          1           0        2.022269    1.077209   -0.886571
      7          1           0        3.180536    0.044871   -0.000818
      8          1           0        2.023170    1.076097    0.887413
 ---------------------------------------------------------------------

 SCF Done:  E(UHF) =  -272.743848236     A.U. after    2 cycles

 The electronic state is 2-A.
 Alpha  occ. eigenvalues --  -26.18436 -15.69160 -15.64849 -11.26422  -7.71905
 Alpha  occ. eigenvalues --   -1.72370  -1.28510  -1.03779  -0.90281  -0.87495
 Alpha  occ. eigenvalues --   -0.79830  -0.79447  -0.68796  -0.65707  -0.61750
 Alpha  occ. eigenvalues --   -0.52421  -0.51903  -0.37656  -0.35551
 Alpha virt. eigenvalues --    0.03232   0.04151   0.04584   0.05023   0.07241
 Alpha virt. eigenvalues --    0.07745   0.08142   0.11558   0.14724   0.14968
 Alpha virt. eigenvalues --    0.16278   0.17307   0.18872   0.19750   0.20968

  Beta  occ. eigenvalues --  -26.18331 -15.66009 -15.65542 -11.26728  -7.71455
  Beta  occ. eigenvalues --   -1.72120  -1.24112  -1.02018  -0.88179  -0.87045
  Beta  occ. eigenvalues --   -0.79209  -0.78637  -0.66121  -0.61221  -0.58714
  Beta  occ. eigenvalues --   -0.50947  -0.47915  -0.36140
  Beta virt. eigenvalues --    0.03314   0.04187   0.04436   0.05020   0.07253
  Beta virt. eigenvalues --    0.07757   0.08217   0.10025   0.11680   0.14911
  Beta virt. eigenvalues --    0.15254   0.16345   0.17407   0.18913   0.19818

 Mulliken charges and spin densities:
               1          2
     1  F   -0.310223   0.012229
     2  B   -0.064486   0.266162
     3  N    0.321074  -0.209408
     4  N   -0.413021   1.020216
     5  C    0.722990  -0.173740
     6  H   -0.042691   0.037323
     7  H   -0.170910   0.009920
     8  H   -0.042732   0.037298
 Sum of Mulliken charges =  -0.00000   1.00000

 Dipole moment (field-independent basis, Debye):
    X=              0.2375    Y=              1.4811    Z=             -0.0036  Tot=              1.5000
                          Isotropic Fermi Contact Couplings
        Atom                 a.u.       MegaHertz       Gauss      10(-4) cm-1
     1  F(19)              0.01064      44.76801      15.97434      14.93300
     2  B(11)              0.02482      35.60073      12.70323      11.87513
     3  N(14)             -0.14152     -45.72507     -16.31584     -15.25224
     4  N(14)              0.29419      95.05502      33.91799      31.70694
     5  C(13)             -0.05326     -59.87029     -21.36321     -19.97058
     6  H(1)               0.01658      74.09201      26.43787      24.71443
     7  H(1)               0.00096       4.31338       1.53912       1.43879
     8  H(1)               0.01657      74.06780      26.42923      24.70636

 Normal termination of Gaussian 16 at Wed Apr  9 00:32:54 2025.
