 Gaussian 16, Revision C.01,

 ----------------------------------------------------------------------
 #t hf aug-cc-pvdz symm=none int=(grid=ultrafine) guess=(read,tcheck) s
 table=(opt,rrhf)
 ----------------------------------------------------------------------
 -----
 title
 -----
 Symbolic Z-matrix:
 Charge =  0 Multiplicity = 1

 SCF Done:  E(RHF) =  -615.052374419     A.U. after   13 cycles

 1\1\GINC-SE367\Stability\RHF\Aug-CC-pVDZ\C4H7Cl1\OHZDE\08-Apr-2025\0\\
 #t hf aug-cc-pvdz symm=none int=(grid=ultrafine) guess=(read,tcheck) s
 table=(opt,rrhf)\\title\\0,1\C,0,2.909407,-0.275309,-0.32321\C,0,1.893
 208,0.326436,0.287325\C,0,0.523976,-0.272726,0.470414\C,0,-0.526573,0.
 518761,-0.305462\H,0,0.252006,-0.268835,1.531512\H,0,0.516501,-1.31330
 9,0.136416\Cl,0,-2.198551,-0.146642,-0.035226\H,0,-0.351835,0.472424,-
 1.378855\H,0,-0.565599,1.561204,0.00825\H,0,3.875948,0.204827,-0.42559
 9\H,0,2.813902,-1.275375,-0.735486\H,0,2.034332,1.329006,0.688204\\Ver

 Normal termination of Gaussian 16 at Tue Apr  8 22:29:23 2025.
 Gaussian 16:  ES64L-G16RevC.01  3-Jul-2019

 ----------------------------------------------------------------------
 #t hf aug-cc-pvdz iop(5/13=1,5/36=2,99/5=2) pseudo=read geom=check gue
 ss=(read,tcheck) scf=(maxcycle=1)
 ----------------------------------------------------------------------
 -----
 title
 -----
 Structure from the checkpoint file:  "BDE49_expt_1033_mol1.chk"
 Charge =  0 Multiplicity = 1

                         Standard orientation:
 ---------------------------------------------------------------------
 Center     Atomic      Atomic             Coordinates (Angstroms)
 Number     Number       Type             X           Y           Z
 ---------------------------------------------------------------------
      1          6           0        2.909407   -0.275309   -0.323210
      2          6           0        1.893208    0.326436    0.287325
      3          6           0        0.523976   -0.272726    0.470414
      4          6           0       -0.526573    0.518761   -0.305462
      5          1           0        0.252006   -0.268835    1.531512
      6          1           0        0.516501   -1.313309    0.136416
      7         17           0       -2.198551   -0.146642   -0.035226
      8          1           0       -0.351835    0.472424   -1.378855
      9          1           0       -0.565599    1.561204    0.008250
     10          1           0        3.875948    0.204827   -0.425599
     11          1           0        2.813902   -1.275375   -0.735486
     12          1           0        2.034332    1.329006    0.688204
 ---------------------------------------------------------------------

 SCF Done:  E(RHF) =  -615.120112104     A.U. after    2 cycles

 The electronic state is 1-A.
 Alpha  occ. eigenvalues -- -103.64657 -11.30879 -11.25814 -11.25654 -11.24648
 Alpha  occ. eigenvalues --  -10.67924  -8.33640  -8.33359  -8.33352  -1.16021
 Alpha  occ. eigenvalues --   -1.07996  -0.98461  -0.85944  -0.77570  -0.67559
 Alpha  occ. eigenvalues --   -0.63676  -0.60912  -0.57403  -0.55240  -0.52228
 Alpha  occ. eigenvalues --   -0.49799  -0.44630  -0.44437  -0.37996
 Alpha virt. eigenvalues --    0.03337   0.04355   0.04939   0.05122   0.06878
 Alpha virt. eigenvalues --    0.07041   0.07615   0.09093   0.10638   0.12281
 Alpha virt. eigenvalues --    0.13562   0.14141   0.14958   0.15353   0.15836

 Mulliken charges:
               1
     1  C    0.410997
     2  C    0.608579
     3  C    0.235663
     4  C   -0.105777
     5  H    0.017195
     6  H   -0.108132
     7  Cl  -0.162736
     8  H    0.034830
     9  H    0.005048
    10  H   -0.288203
    11  H   -0.265634
    12  H   -0.381829
 Sum of Mulliken charges =  -0.00000

 Dipole moment (field-independent basis, Debye):
    X=              2.2711    Y=              0.7314    Z=             -0.1709  Tot=              2.3920

 Test job not archived.
 1\1\GINC-SE367\SP\RHF\Aug-CC-pVDZ\C4H7Cl1\OHZDE\08-Apr-2025\0\\#t hf a
 ug-cc-pvdz iop(5/13=1,5/36=2,99/5=2) pseudo=read geom=check guess=(rea
 d,tcheck) scf=(maxcycle=1)\\title\\0,1\C,0,2.909407,-0.275309,-0.32321
 \C,0,1.893208,0.326436,0.287325\C,0,0.523976,-0.272726,0.470414\C,0,-0
 .526573,0.518761,-0.305462\H,0,0.252006,-0.268835,1.531512\H,0,0.51650
 1,-1.313309,0.136416\Cl,0,-2.198551,-0.146642,-0.035226\H,0,-0.351835,
 0.472424,-1.378855\H,0,-0.565599,1.561204,0.00825\H,0,3.875948,0.20482
 7,-0.425599\H,0,2.813902,-1.275375,-0.735486\H,0,2.034332,1.329006,0.6

 Normal termination of Gaussian 16 at Tue Apr  8 22:29:26 2025.
