 Gaussian 16, Revision C.01,

 ----------------------------------------------------------------------
 #t hf aug-cc-pvdz symm=none int=(grid=ultrafine) guess=(read,tcheck) s
 table=(opt,rrhf)
 ----------------------------------------------------------------------
 -----
 title
 -----
 Symbolic Z-matrix:
 Charge =  0 Multiplicity = 1

 SCF Done:  E(RHF) =  -838.852481107     A.U. after   13 cycles
 Normal termination of Gaussian 16 at Wed Apr  9 00:19:34 2025.
 Gaussian 16:  ES64L-G16RevC.01  3-Jul-2019

 ----------------------------------------------------------------------
 #t hf aug-cc-pvdz iop(5/13=1,5/36=2,99/5=2) pseudo=read geom=check gue
 ss=(read,tcheck) scf=(maxcycle=1)
 ----------------------------------------------------------------------
 -----
 title
 -----
 Structure from the checkpoint file:  "BDE49_nonexpt_2628_mol1.chk"
 Charge =  0 Multiplicity = 1

                         Standard orientation:
 ---------------------------------------------------------------------
 Center     Atomic      Atomic             Coordinates (Angstroms)
 Number     Number       Type             X           Y           Z
 ---------------------------------------------------------------------
      1          9           0        1.531511   -0.750862   -0.000050
      2         16           0        0.596569    0.648160    0.000045
      3         15           0       -1.301715   -0.300877   -0.000149
      4          1           0       -1.902020    0.451311   -1.040196
      5          1           0       -1.900951    0.449042    1.042168
 ---------------------------------------------------------------------

 SCF Done:  E(RHF) =  -838.931060369     A.U. after    2 cycles

 The electronic state is 1-A.
 Alpha  occ. eigenvalues --  -93.62722 -81.30817 -26.12759  -8.91652  -7.81096
 Alpha  occ. eigenvalues --   -6.25787  -6.25413  -6.25017  -4.94934  -4.94884
 Alpha  occ. eigenvalues --   -4.94653  -1.63590  -0.98655  -0.81013  -0.73073
 Alpha  occ. eigenvalues --   -0.72922  -0.66723  -0.56204  -0.49812  -0.39410
 Alpha  occ. eigenvalues --   -0.39268
 Alpha virt. eigenvalues --    0.03306   0.05342   0.05675   0.06393   0.09860
 Alpha virt. eigenvalues --    0.09979   0.11250   0.13622   0.14133   0.16177
 Alpha virt. eigenvalues --    0.16746   0.18559   0.22398   0.23506   0.27714

 Mulliken charges:
               1
     1  F   -0.582492
     2  S    0.302572
     3  P   -0.169459
     4  H    0.224609
     5  H    0.224770
 Sum of Mulliken charges =  -0.00000

 Dipole moment (field-independent basis, Debye):
    X=             -2.7924    Y=              1.4549    Z=              0.0006  Tot=              3.1487

 Test job not archived.
 1\1\GINC-SE103\SP\RHF\Aug-CC-pVDZ\F1H2P1S1\OHZDE\09-Apr-2025\0\\#t hf
 aug-cc-pvdz iop(5/13=1,5/36=2,99/5=2) pseudo=read geom=check guess=(re
 ad,tcheck) scf=(maxcycle=1)\\title\\0,1\F,0,1.531511,-0.750862,-0.0000
 5\S,0,0.596569,0.64816,0.000045\P,0,-1.301715,-0.300877,-0.000149\H,0,
 -1.90202,0.451311,-1.040196\H,0,-1.900951,0.449042,1.042168\\Version=E
 S64L-G16RevC.01\State=1-A\HF=-838.9310604\RMSD=1.101e-02\Dipole=-1.098
 6003,0.5724073,0.0002333\Quadrupole=0.5916988,-0.8289073,0.2372085,0.5
 673773,-0.0001398,-0.0017911\PG=C01 [X(F1H2P1S1)]\\@

 Normal termination of Gaussian 16 at Wed Apr  9 00:19:36 2025.
