 Gaussian 16, Revision C.01,

 ----------------------------------------------------------------------
 #t hf aug-cc-pvdz symm=none int=(grid=ultrafine) guess=(read,tcheck) s
 table=opt
 ----------------------------------------------------------------------
 -----
 title
 -----
 Symbolic Z-matrix:
 Charge =  0 Multiplicity = 2

 SCF Done:  E(UHF) =  -817.515873245     A.U. after   18 cycles
 Normal termination of Gaussian 16 at Wed Apr  9 00:15:41 2025.
 Gaussian 16:  ES64L-G16RevC.01  3-Jul-2019

 ----------------------------------------------------------------------
 #t hf aug-cc-pvdz iop(5/13=1,5/36=2,99/5=2) pseudo=read geom=check gue
 ss=(read,tcheck) scf=(maxcycle=1)
 ----------------------------------------------------------------------
 -----
 title
 -----
 Structure from the checkpoint file:  "BDE49_nonexpt_2536_mol2.chk"
 Charge =  0 Multiplicity = 2

                         Standard orientation:
 ---------------------------------------------------------------------
 Center     Atomic      Atomic             Coordinates (Angstroms)
 Number     Number       Type             X           Y           Z
 ---------------------------------------------------------------------
      1         16           0       -0.169679   -1.646501   -0.000000
      2         15           0        0.430411    0.242808    0.000000
      3          6           0       -0.169679    1.198665    1.456034
      4          6           0       -0.169679    1.198665   -1.456034
      5          1           0        0.141082    0.683864    2.365157
      6          1           0       -1.259907    1.274450    1.442453
      7          1           0        0.266251    2.200644    1.441883
      8          1           0        0.141082    0.683864   -2.365157
      9          1           0        0.266251    2.200644   -1.441883
     10          1           0       -1.259907    1.274450   -1.442453
 ---------------------------------------------------------------------

 SCF Done:  E(UHF) =  -817.587578139     A.U. after    2 cycles

 The electronic state is 2-A'.
 Alpha  occ. eigenvalues --  -93.51397 -81.31358 -11.26022 -11.26020  -8.81241
 Alpha  occ. eigenvalues --   -7.81428  -6.15938  -6.15013  -6.14676  -4.95749
 Alpha  occ. eigenvalues --   -4.95211  -4.95177  -1.01994  -0.96206  -0.92682
 Alpha  occ. eigenvalues --   -0.70207  -0.61388  -0.60799  -0.58829  -0.58318
 Alpha  occ. eigenvalues --   -0.50527  -0.48321  -0.42480  -0.35790  -0.33020
 Alpha virt. eigenvalues --    0.03102   0.04591   0.05180   0.06053   0.07273
 Alpha virt. eigenvalues --    0.07419   0.08583   0.08847   0.12369   0.12814
 Alpha virt. eigenvalues --    0.14177   0.15125   0.15173   0.16322   0.16338

  Beta  occ. eigenvalues --  -93.50860 -81.30986 -11.25899 -11.25897  -8.80647
  Beta  occ. eigenvalues --   -7.80930  -6.14796  -6.14321  -6.13524  -4.95079
  Beta  occ. eigenvalues --   -4.95016  -4.94125  -1.00794  -0.95789  -0.89296
  Beta  occ. eigenvalues --   -0.66289  -0.60487  -0.60426  -0.58640  -0.57912
  Beta  occ. eigenvalues --   -0.49754  -0.45882  -0.34488  -0.33633
  Beta virt. eigenvalues --    0.01029   0.03903   0.04621   0.05337   0.06083
  Beta virt. eigenvalues --    0.07277   0.07432   0.08867   0.09065   0.12666
  Beta virt. eigenvalues --    0.13333   0.14390   0.15149   0.15409   0.16362

 Mulliken charges and spin densities:
               1          2
     1  S   -0.423037   0.613162
     2  P    0.768285   0.330400
     3  C    0.142767   0.025512
     4  C    0.142767   0.025512
     5  H   -0.122151  -0.005591
     6  H   -0.079538   0.016700
     7  H   -0.113702  -0.008402
     8  H   -0.122151  -0.005591
     9  H   -0.113702  -0.008402
    10  H   -0.079538   0.016700
 Sum of Mulliken charges =  -0.00000   1.00000

 Dipole moment (field-independent basis, Debye):
    X=             -0.2159    Y=              3.8883    Z=             -0.0000  Tot=              3.8943
                          Isotropic Fermi Contact Couplings
        Atom                 a.u.       MegaHertz       Gauss      10(-4) cm-1
     1  S(33)              0.11969      41.11171      14.66968      13.71339
     2  P(31)              0.39823     721.23315     257.35392     240.57748
     3  C(13)              0.02619      29.44343      10.50615       9.82127
     4  C(13)              0.02619      29.44343      10.50615       9.82127
     5  H(1)              -0.00084      -3.77600      -1.34737      -1.25954
     6  H(1)               0.00614      27.42730       9.78674       9.14876
     7  H(1)              -0.00069      -3.08586      -1.10111      -1.02933
     8  H(1)              -0.00084      -3.77600      -1.34737      -1.25954

 Normal termination of Gaussian 16 at Wed Apr  9 00:15:43 2025.
