 Gaussian 16, Revision C.01,

 ----------------------------------------------------------------------
 #t hf aug-cc-pvdz symm=none int=(grid=ultrafine) guess=(read,tcheck) s
 table=(opt,rrhf)
 ----------------------------------------------------------------------
 -----
 title
 -----
 Symbolic Z-matrix:
 Charge =  0 Multiplicity = 1

 SCF Done:  E(RHF) =  -1454.78329387     A.U. after   15 cycles
 Normal termination of Gaussian 16 at Tue Apr  8 23:47:05 2025.
 Gaussian 16:  ES64L-G16RevC.01  3-Jul-2019

 ----------------------------------------------------------------------
 #t hf aug-cc-pvdz iop(5/13=1,5/36=2,99/5=2) pseudo=read geom=check gue
 ss=(read,tcheck) scf=(maxcycle=1)
 ----------------------------------------------------------------------
 -----
 title
 -----
 Structure from the checkpoint file:  "BDE49_nonexpt_1797_mol1.chk"
 Charge =  0 Multiplicity = 1

                         Standard orientation:
 ---------------------------------------------------------------------
 Center     Atomic      Atomic             Coordinates (Angstroms)
 Number     Number       Type             X           Y           Z
 ---------------------------------------------------------------------
      1          6           0        2.662764    1.069672   -0.723349
      2          6           0        1.281951    1.076990   -0.541601
      3          6           0        3.404758    0.030310   -0.173401
      4          6           0        2.736057   -0.964345    0.540722
      5          7           0        1.415184   -0.969313    0.721459
      6          6           0        0.697582    0.036715    0.184911
      7          1           0        3.149052    1.861033   -1.282515
      8          1           0        0.669660    1.871456   -0.950919
      9         14           0       -1.126580   -0.167826    0.539480
     10         17           0       -2.116793    1.625728    0.189680
     11         17           0       -1.943791   -1.609164   -0.702240
     12          1           0        4.481128   -0.013855   -0.289861
     13          1           0        3.284235   -1.789366    0.986337
     14          1           0       -1.387014   -0.572163    1.923851
 ---------------------------------------------------------------------

 SCF Done:  E(RHF) =  -1454.91541707     A.U. after    2 cycles

 The electronic state is 1-A.
 Alpha  occ. eigenvalues -- -103.66144-103.65737 -69.16009 -15.65319 -11.30194
 Alpha  occ. eigenvalues --  -11.29334 -11.28449 -11.27208 -11.27198 -10.69596
 Alpha  occ. eigenvalues --  -10.69183  -8.35286  -8.35063  -8.35058  -8.34878
 Alpha  occ. eigenvalues --   -8.34644  -8.34643  -6.90418  -4.01260  -4.01170
 Alpha  occ. eigenvalues --   -4.01048  -1.24778  -1.15525  -1.13257  -1.09389
 Alpha  occ. eigenvalues --   -1.04345  -0.87556  -0.86957  -0.74761  -0.69635
 Alpha  occ. eigenvalues --   -0.68440  -0.65222  -0.60413  -0.58672  -0.57373
 Alpha  occ. eigenvalues --   -0.55484  -0.54604  -0.52626  -0.48773  -0.48465
 Alpha  occ. eigenvalues --   -0.46849  -0.46432  -0.42223  -0.40021  -0.36799
 Alpha virt. eigenvalues --    0.02649   0.03764   0.04576   0.05602   0.05991
 Alpha virt. eigenvalues --    0.06031   0.06874   0.07847   0.08196   0.08742
 Alpha virt. eigenvalues --    0.09811   0.10979   0.11401   0.12952   0.13557

 Mulliken charges:
               1
     1  C   -0.191349
     2  C    1.010266
     3  C    0.885904
     4  C    0.497732
     5  N   -0.355062
     6  C   -0.260497
     7  H   -0.402542
     8  H   -0.507767
     9  Si   1.076634
    10  Cl  -0.515976
    11  Cl  -0.526844
    12  H   -0.398574
    13  H   -0.376497
    14  H    0.064570
 Sum of Mulliken charges =  -0.00000

 Dipole moment (field-independent basis, Debye):
    X=              3.6833    Y=              1.2677    Z=             -0.1841  Tot=              3.8997

 Test job not archived.
 1\1\GINC-SE331\SP\RHF\Aug-CC-pVDZ\C5H5Cl2N1Si1\OHZDE\08-Apr-2025\0\\#t
  hf aug-cc-pvdz iop(5/13=1,5/36=2,99/5=2) pseudo=read geom=check guess
 =(read,tcheck) scf=(maxcycle=1)\\title\\0,1\C,0,2.662764,1.069672,-0.7
 23349\C,0,1.281951,1.07699,-0.541601\C,0,3.404758,0.03031,-0.173401\C,
 0,2.736057,-0.964345,0.540722\N,0,1.415184,-0.969313,0.721459\C,0,0.69
 7582,0.036715,0.184911\H,0,3.149052,1.861033,-1.282515\H,0,0.66966,1.8
 71456,-0.950919\Si,0,-1.12658,-0.167826,0.53948\Cl,0,-2.116793,1.62572
 8,0.18968\Cl,0,-1.943791,-1.609164,-0.70224\H,0,4.481128,-0.013855,-0.

 Normal termination of Gaussian 16 at Tue Apr  8 23:47:12 2025.
