 Gaussian 16, Revision C.01,

 ----------------------------------------------------------------------
 #t hf aug-cc-pvdz symm=none int=(grid=ultrafine) guess=(read,tcheck) s
 table=(opt,rrhf)
 ----------------------------------------------------------------------
 -----
 title
 -----
 Symbolic Z-matrix:
 Charge =  0 Multiplicity = 1

 SCF Done:  E(RHF) =  -803.541924721     A.U. after   17 cycles
 Normal termination of Gaussian 16 at Tue Apr  8 22:41:19 2025.
 Gaussian 16:  ES64L-G16RevC.01  3-Jul-2019

 ----------------------------------------------------------------------
 #t hf aug-cc-pvdz iop(5/13=1,5/36=2,99/5=2) pseudo=read geom=check gue
 ss=(read,tcheck) scf=(maxcycle=1)
 ----------------------------------------------------------------------
 -----
 title
 -----
 Structure from the checkpoint file:  "BDE49_expt_1402_mol1.chk"
 Charge =  0 Multiplicity = 1

                         Standard orientation:
 ---------------------------------------------------------------------
 Center     Atomic      Atomic             Coordinates (Angstroms)
 Number     Number       Type             X           Y           Z
 ---------------------------------------------------------------------
      1          6           0        2.304945   -0.934502   -0.000006
      2          6           0        1.855194    0.385285   -0.000005
      3          6           0        0.495456    0.658106   -0.000002
      4          6           0        1.380032   -1.971190   -0.000005
      5          6           0        0.011996   -1.701065   -0.000002
      6          6           0       -0.451939   -0.381953    0.000000
      7          1           0        3.368112   -1.141156   -0.000008
      8          1           0        2.554847    1.211436   -0.000006
      9         17           0       -0.054486    2.319423    0.000000
     10          1           0        1.714967   -3.001949   -0.000006
     11          1           0       -0.692613   -2.521542   -0.000001
     12          8           0       -1.757920   -0.022257    0.000002
     13          6           0       -2.746405   -1.043321    0.000012
     14          1           0       -3.703104   -0.524418    0.000018
     15          1           0       -2.674128   -1.671336    0.894704
     16          1           0       -2.674142   -1.671339   -0.894679
 ---------------------------------------------------------------------

 SCF Done:  E(RHF) =  -803.666065191     A.U. after    2 cycles

 The electronic state is 1-A.
 Alpha  occ. eigenvalues -- -103.65878 -20.60963 -11.32927 -11.30525 -11.30481
 Alpha  occ. eigenvalues --  -11.26191 -11.25971 -11.25399 -11.24908 -10.69134
 Alpha  occ. eigenvalues --   -8.34875  -8.34566  -8.34550  -1.38295  -1.19010
 Alpha  occ. eigenvalues --   -1.13033  -1.02840  -1.00985  -0.95172  -0.83975
 Alpha  occ. eigenvalues --   -0.82507  -0.73715  -0.69238  -0.67640  -0.67323
 Alpha  occ. eigenvalues --   -0.63480  -0.60524  -0.59351  -0.55748  -0.54463
 Alpha  occ. eigenvalues --   -0.53840  -0.50189  -0.50084  -0.47194  -0.45898
 Alpha  occ. eigenvalues --   -0.34955  -0.32574
 Alpha virt. eigenvalues --    0.03074   0.03776   0.04434   0.05606   0.05676
 Alpha virt. eigenvalues --    0.06460   0.08492   0.08792   0.09495   0.10567
 Alpha virt. eigenvalues --    0.11212   0.12509   0.13183   0.13314   0.13659

 Mulliken charges:
               1
     1  C    0.768294
     2  C    0.556972
     3  C   -0.162295
     4  C    0.246805
     5  C    0.869654
     6  C    0.436482
     7  H   -0.435886
     8  H   -0.410706
     9  Cl  -0.389161
    10  H   -0.448950
    11  H   -0.751763
    12  O   -0.623309
    13  C    0.818822
    14  H   -0.305405
    15  H   -0.084776
    16  H   -0.084778
 Sum of Mulliken charges =  -0.00000

 Dipole moment (field-independent basis, Debye):
    X=             -0.2278    Y=             -3.2440    Z=              0.0000  Tot=              3.2520

 Test job not archived.
 1\1\GINC-SE361\SP\RHF\Aug-CC-pVDZ\C7H7Cl1O1\OHZDE\08-Apr-2025\0\\#t hf
  aug-cc-pvdz iop(5/13=1,5/36=2,99/5=2) pseudo=read geom=check guess=(r
 ead,tcheck) scf=(maxcycle=1)\\title\\0,1\C,0,2.304946,-0.934501,-0.000
 006\C,0,1.855194,0.385286,-0.000005\C,0,0.495456,0.658106,-0.000002\C,
 0,1.380033,-1.971189,-0.000005\C,0,0.011997,-1.701065,-0.000002\C,0,-0
 .451939,-0.381953,0.\H,0,3.368113,-1.141154,-0.000008\H,0,2.554846,1.2
 11437,-0.000006\Cl,0,-0.054487,2.319423,0.\H,0,1.714969,-3.001948,-0.0
 00006\H,0,-0.692611,-2.521543,-0.000001\O,0,-1.75792,-0.022258,0.00000

 Normal termination of Gaussian 16 at Tue Apr  8 22:41:26 2025.
