 Gaussian 16, Revision C.01,

 ----------------------------------------------------------------------
 #t hf aug-cc-pvdz symm=none int=(grid=ultrafine) guess=(read,tcheck) s
 table=opt
 ----------------------------------------------------------------------
 -----
 title
 -----
 Symbolic Z-matrix:
 Charge =  0 Multiplicity = 2

 SCF Done:  E(UHF) =  -523.788178228     a.u. after   13 cycles
 Normal termination of Gaussian 16 at Tue Apr  8 22:54:24 2025.
 Gaussian 16:  ES64L-G16RevC.01  3-Jul-2019

 ----------------------------------------------------------------------
 #t hf aug-cc-pvdz iop(5/13=1,5/36=2,99/5=2) pseudo=read geom=check gue
 ss=(read,tcheck) scf=(maxcycle=1)
 ----------------------------------------------------------------------
 -----
 title
 -----
 Structure from the checkpoint file:  "BDE49_expt_1873_mol2.chk"
 Charge =  0 Multiplicity = 2

                         Standard orientation:
 ---------------------------------------------------------------------
 Center     Atomic      Atomic             Coordinates (Angstroms)
 Number     Number       Type             X           Y           Z
 ---------------------------------------------------------------------
      1          8           0        1.622932   -1.051398   -0.000827
      2          6           0        0.952643    0.000004   -0.011417
      3          8           0        1.622935    1.051397   -0.000828
      4          6           0       -0.587964    0.000001   -0.005407
      5          9           0       -1.048285   -1.090320   -0.623427
      6          9           0       -1.048290    1.090335   -0.623398
      7          9           0       -1.031759   -0.000018    1.259512
 ---------------------------------------------------------------------

 SCF Done:  E(UHF) =  -523.971274292     A.U. after    2 cycles

 The electronic state is 2-A.
 Alpha  occ. eigenvalues --  -26.21694 -26.21348 -26.20952 -20.76282 -20.61736
 Alpha  occ. eigenvalues --  -11.59141 -11.46724  -1.81164  -1.74259  -1.73710
 Alpha  occ. eigenvalues --   -1.56531  -1.37027  -1.10826  -0.97328  -0.93038
 Alpha  occ. eigenvalues --   -0.92889  -0.87724  -0.82695  -0.81682  -0.81355
 Alpha  occ. eigenvalues --   -0.77722  -0.77515  -0.76184  -0.75152  -0.74063
 Alpha  occ. eigenvalues --   -0.65210  -0.54267  -0.54139
 Alpha virt. eigenvalues --    0.06648   0.07144   0.07215   0.08809   0.09562
 Alpha virt. eigenvalues --    0.11573   0.11737   0.11909   0.18895   0.19992
 Alpha virt. eigenvalues --    0.20331   0.24055   0.24898   0.25569   0.27401

  Beta  occ. eigenvalues --  -26.21698 -26.21337 -26.20916 -20.72070 -20.61356
  Beta  occ. eigenvalues --  -11.59038 -11.47017  -1.81112  -1.74243  -1.73635
  Beta  occ. eigenvalues --   -1.46624  -1.32099  -1.10028  -0.96114  -0.92963
  Beta  occ. eigenvalues --   -0.92791  -0.82647  -0.81932  -0.81478  -0.77654
  Beta  occ. eigenvalues --   -0.77458  -0.76154  -0.73238  -0.71524  -0.68749
  Beta  occ. eigenvalues --   -0.53025  -0.52006
  Beta virt. eigenvalues --   -0.02115   0.06777   0.07241   0.07361   0.09284
  Beta virt. eigenvalues --    0.09483   0.11641   0.11777   0.12106   0.19001
  Beta virt. eigenvalues --    0.20194   0.20412   0.24550   0.25074   0.25837

 Mulliken charges and spin densities:
               1          2
     1  O   -0.133039   1.067023
     2  C    0.308500  -0.182380
     3  O   -0.453199   0.057229
     4  C    1.065194   0.051135
     5  F   -0.262246   0.002390
     6  F   -0.257764   0.003707
     7  F   -0.267446   0.000896
 Sum of Mulliken charges =  -0.00000   1.00000

 Dipole moment (field-independent basis, Debye):
    X=             -0.8176    Y=             -1.9726    Z=             -0.0891  Tot=              2.1372
                          Isotropic Fermi Contact Couplings
        Atom                 a.u.       MegaHertz       Gauss      10(-4) cm-1
     1  O(17)              0.28561    -173.13463     -61.77874     -57.75150
     2  C(13)             -0.05824     -65.46971     -23.36122     -21.83834
     3  O(17)              0.02877     -17.43951      -6.22285      -5.81720
     4  C(13)              0.02297      25.82540       9.21515       8.61443
     5  F(19)             -0.00088      -3.70819      -1.32317      -1.23692
     6  F(19)              0.00507      21.34197       7.61535       7.11892
     7  F(19)              0.00173       7.29693       2.60373       2.43399
 --------------------------------------------------------

 Normal termination of Gaussian 16 at Tue Apr  8 22:54:27 2025.
