 Gaussian 16, Revision C.01,

 ----------------------------------------------------------------------
 #t hf aug-cc-pvdz symm=none int=(grid=ultrafine) guess=(read,tcheck) s
 table=opt
 ----------------------------------------------------------------------
 -----
 title
 -----
 Symbolic Z-matrix:
 Charge =  0 Multiplicity = 2

 SCF Done:  E(UHF) =  -735.267941895     A.U. after   17 cycles
 Normal termination of Gaussian 16 at Tue Apr  8 22:38:27 2025.
 Gaussian 16:  ES64L-G16RevC.01  3-Jul-2019

 ----------------------------------------------------------------------
 #t hf aug-cc-pvdz iop(5/13=1,5/36=2,99/5=2) pseudo=read geom=check gue
 ss=(read,tcheck) scf=(maxcycle=1)
 ----------------------------------------------------------------------
 -----
 title
 -----
 Structure from the checkpoint file:  "BDE49_expt_129_mol2.chk"
 Charge =  0 Multiplicity = 2

                         Standard orientation:
 ---------------------------------------------------------------------
 Center     Atomic      Atomic             Coordinates (Angstroms)
 Number     Number       Type             X           Y           Z
 ---------------------------------------------------------------------
      1          6           0       -0.412939   -0.011576   -0.000002
      2          6           0       -0.976843    1.338132   -0.000015
      3          9           0       -0.766453   -0.721555    1.091226
      4         17           0        1.429541    0.077454    0.000005
      5          9           0       -0.766444   -0.721574   -1.091220
      6          1           0       -1.083719    1.856065    0.941568
      7          1           0       -1.083708    1.856050   -0.941607
 ---------------------------------------------------------------------

 SCF Done:  E(UHF) =  -735.383228336     A.U. after    2 cycles

 The electronic state is 2-A.
 Alpha  occ. eigenvalues -- -103.67768 -26.17148 -26.17138 -11.51090 -11.29924
 Alpha  occ. eigenvalues --  -10.71093  -8.36968  -8.36483  -8.36449  -1.74235
 Alpha  occ. eigenvalues --   -1.69451  -1.19233  -1.07857  -0.94629  -0.85953
 Alpha  occ. eigenvalues --   -0.82257  -0.81048  -0.76460  -0.73056  -0.67738
 Alpha  occ. eigenvalues --   -0.63589  -0.57541  -0.50408  -0.49173  -0.42507
 Alpha virt. eigenvalues --    0.03471   0.04976   0.07982   0.08796   0.10521
 Alpha virt. eigenvalues --    0.12049   0.12172   0.13299   0.15588   0.16507
 Alpha virt. eigenvalues --    0.17254   0.17790   0.19813   0.21335   0.25354

  Beta  occ. eigenvalues -- -103.67626 -26.17099 -26.17088 -11.51460 -11.27446
  Beta  occ. eigenvalues --  -10.70941  -8.36538  -8.36364  -8.36271  -1.74099
  Beta  occ. eigenvalues --   -1.69289  -1.18037  -1.03734  -0.91912  -0.85796
  Beta  occ. eigenvalues --   -0.81917  -0.79288  -0.76319  -0.72887  -0.66426
  Beta  occ. eigenvalues --   -0.62134  -0.55669  -0.48907  -0.48623
  Beta virt. eigenvalues --    0.03439   0.04025   0.05011   0.08135   0.09868
  Beta virt. eigenvalues --    0.11483   0.12176   0.12218   0.13921   0.15646
  Beta virt. eigenvalues --    0.17295   0.17432   0.18293   0.21072   0.21606

 Mulliken charges and spin densities:
               1          2
     1  C    0.626751  -0.130548
     2  C    0.422749   1.267581
     3  F   -0.316656   0.000006
     4  Cl  -0.156347   0.071669
     5  F   -0.316656   0.000006
     6  H   -0.129920  -0.104356
     7  H   -0.129921  -0.104356
 Sum of Mulliken charges =  -0.00000   1.00000

 Dipole moment (field-independent basis, Debye):
    X=             -0.8851    Y=              2.5098    Z=             -0.0000  Tot=              2.6613
                          Isotropic Fermi Contact Couplings
        Atom                 a.u.       MegaHertz       Gauss      10(-4) cm-1
     1  C(13)             -0.07503     -84.34593     -30.09673     -28.13477
     2  C(13)              0.21075     236.92321      84.54009      79.02908
     3  F(19)              0.01010      42.50918      15.16833      14.17954
     4  Cl(35)             0.06286      27.56339       9.83530       9.19416
     5  F(19)              0.01010      42.50974      15.16853      14.17972
     6  H(1)              -0.02482    -110.95357     -39.59099     -37.01013
     7  H(1)              -0.02482    -110.95344     -39.59095     -37.01008
 --------------------------------------------------------

 Normal termination of Gaussian 16 at Tue Apr  8 22:38:29 2025.
