 Gaussian 16, Revision C.01,

 ----------------------------------------------------------------------
 #t hf aug-cc-pvdz symm=none int=(grid=ultrafine) guess=(read,tcheck) s
 table=(opt,rrhf)
 ----------------------------------------------------------------------
 -----
 title
 -----
 Symbolic Z-matrix:
 Charge =  0 Multiplicity = 1

 SCF Done:  E(RHF) =  -1474.91699860     A.U. after   13 cycles
 Normal termination of Gaussian 16 at Tue Apr  8 23:47:53 2025.
 Gaussian 16:  ES64L-G16RevC.01  3-Jul-2019

 ----------------------------------------------------------------------
 #t hf aug-cc-pvdz iop(5/13=1,5/36=2,99/5=2) pseudo=read geom=check gue
 ss=(read,tcheck) scf=(maxcycle=1)
 ----------------------------------------------------------------------
 -----
 title
 -----
 Structure from the checkpoint file:  "BDE49_nonexpt_1812_mol1.chk"
 Charge =  0 Multiplicity = 1

                         Standard orientation:
 ---------------------------------------------------------------------
 Center     Atomic      Atomic             Coordinates (Angstroms)
 Number     Number       Type             X           Y           Z
 ---------------------------------------------------------------------
      1          6           0        0.619584   -0.000108    0.925565
      2          8           0        1.007566   -0.000143    2.068949
      3         14           0       -1.250467   -0.000018    0.517599
      4          8           0        1.407193   -0.000024   -0.156848
      5         17           0       -1.736753   -1.689983   -0.562530
      6         17           0       -1.736635    1.690098   -0.562349
      7          6           0        2.847954   -0.000035    0.075207
      8          6           0        3.524443    0.000070   -1.278393
      9          1           0        3.098543   -0.883450    0.666137
     10          1           0        3.098535    0.883292    0.666271
     11          1           0        3.247048   -0.885979   -1.852828
     12          1           0        4.609595    0.000065   -1.147224
     13          1           0        3.247040    0.886204   -1.852694
     14          1           0       -2.016587   -0.000059    1.765811
 ---------------------------------------------------------------------

 SCF Done:  E(RHF) =  -1475.06556417     A.U. after    2 cycles

 The electronic state is 1-A.
 Alpha  occ. eigenvalues -- -103.67543-103.67543 -69.18021 -20.63293 -20.58858
 Alpha  occ. eigenvalues --  -11.40241 -11.31398 -11.24538 -10.70991 -10.70978
 Alpha  occ. eigenvalues --   -8.36683  -8.36675  -8.36445  -8.36440  -8.36436
 Alpha  occ. eigenvalues --   -8.36435  -6.92386  -4.03241  -4.03160  -4.03047
 Alpha  occ. eigenvalues --   -1.43394  -1.34453  -1.17087  -1.14882  -1.05146
 Alpha  occ. eigenvalues --   -0.90270  -0.81569  -0.76486  -0.70940  -0.70400
 Alpha  occ. eigenvalues --   -0.66708  -0.61017  -0.58526  -0.57353  -0.57151
 Alpha  occ. eigenvalues --   -0.56113  -0.53213  -0.53201  -0.52443  -0.50026
 Alpha  occ. eigenvalues --   -0.48785  -0.48734  -0.48404  -0.44669
 Alpha virt. eigenvalues --    0.03415   0.04824   0.04875   0.05313   0.05923
 Alpha virt. eigenvalues --    0.06232   0.06453   0.07681   0.09214   0.09233
 Alpha virt. eigenvalues --    0.09493   0.11709   0.12230   0.13153   0.13672

 Mulliken charges:
               1
     1  C    0.247280
     2  O   -0.452976
     3  Si   1.065896
     4  O   -0.410391
     5  Cl  -0.487895
     6  Cl  -0.487895
     7  C    0.717217
     8  C    0.210499
     9  H   -0.158560
    10  H   -0.158559
    11  H   -0.051406
    12  H   -0.018932
    13  H   -0.051405
    14  H    0.037128
 Sum of Mulliken charges =  -0.00000

 Dipole moment (field-independent basis, Debye):
    X=              1.5938    Y=              0.0000    Z=             -0.8805  Tot=              1.8208

 Test job not archived.
 1\1\GINC-SE105\SP\RHF\Aug-CC-pVDZ\C3H6Cl2O2Si1\OHZDE\08-Apr-2025\0\\#t
  hf aug-cc-pvdz iop(5/13=1,5/36=2,99/5=2) pseudo=read geom=check guess
 =(read,tcheck) scf=(maxcycle=1)\\title\\0,1\C,0,0.619584,-0.000108,0.9
 25565\O,0,1.007566,-0.000143,2.068949\Si,0,-1.250467,-0.000018,0.51759
 9\O,0,1.407193,-0.000024,-0.156848\Cl,0,-1.736753,-1.689983,-0.56253\C
 l,0,-1.736635,1.690098,-0.562349\C,0,2.847954,-0.000035,0.075207\C,0,3
 .524443,0.00007,-1.278393\H,0,3.098543,-0.88345,0.666137\H,0,3.098535,
 0.883292,0.666271\H,0,3.247048,-0.885979,-1.852828\H,0,4.609595,0.0000

 Normal termination of Gaussian 16 at Tue Apr  8 23:47:59 2025.
