 Gaussian 16, Revision C.01,

 ----------------------------------------------------------------------
 #t hf aug-cc-pvdz symm=none int=(grid=ultrafine) guess=(read,tcheck) s
 table=(opt,rrhf)
 ----------------------------------------------------------------------
 -----
 title
 -----
 Symbolic Z-matrix:
 Charge =  0 Multiplicity = 1

 SCF Done:  E(RHF) =  -835.266544336     A.U. after   13 cycles
 Normal termination of Gaussian 16 at Tue Apr  8 22:45:27 2025.
 Gaussian 16:  ES64L-G16RevC.01  3-Jul-2019

 ----------------------------------------------------------------------
 #t hf aug-cc-pvdz iop(5/13=1,5/36=2,99/5=2) pseudo=read geom=check gue
 ss=(read,tcheck) scf=(maxcycle=1)
 ----------------------------------------------------------------------
 -----
 title
 -----
 Structure from the checkpoint file:  "BDE49_expt_1590_mol1.chk"
 Charge =  0 Multiplicity = 1

                         Standard orientation:
 ---------------------------------------------------------------------
 Center     Atomic      Atomic             Coordinates (Angstroms)
 Number     Number       Type             X           Y           Z
 ---------------------------------------------------------------------
      1          6           0       -1.664501    0.690282   -0.004594
      2         16           0       -0.485713   -0.707072    0.014339
      3          1           0       -2.657222    0.234921   -0.048817
      4          1           0       -1.511281    1.310595   -0.886418
      5          1           0       -1.580040    1.286830    0.903136
      6         16           0        1.370544    0.244083   -0.087604
      7          1           0        1.578244    0.433797    1.231895
 ---------------------------------------------------------------------

 SCF Done:  E(RHF) =  -835.322270013     A.U. after    2 cycles

 The electronic state is 1-A.
 Alpha  occ. eigenvalues --  -93.56526 -93.56304 -11.27569  -8.86121  -8.85849
 Alpha  occ. eigenvalues --   -6.20233  -6.20018  -6.19934  -6.19686  -6.19654
 Alpha  occ. eigenvalues --   -6.19347  -1.05756  -0.95834  -0.81490  -0.60983
 Alpha  occ. eigenvalues --   -0.60248  -0.55940  -0.51076  -0.45087  -0.37487
 Alpha  occ. eigenvalues --   -0.36137
 Alpha virt. eigenvalues --    0.03556   0.04751   0.05982   0.06232   0.07409
 Alpha virt. eigenvalues --    0.10308   0.12342   0.13264   0.13471   0.14690
 Alpha virt. eigenvalues --    0.15200   0.16600   0.16830   0.17277   0.17947

 Mulliken charges:
               1
     1  C    0.075522
     2  S    0.064004
     3  H   -0.059526
     4  H   -0.043456
     5  H   -0.052374
     6  S   -0.110292
     7  H    0.126121
 Sum of Mulliken charges =  -0.00000

 Dipole moment (field-independent basis, Debye):
    X=             -1.1581    Y=              1.3270    Z=              0.8293  Tot=              1.9467

 Test job not archived.
 1\1\GINC-SE368\SP\RHF\Aug-CC-pVDZ\C1H4S2\OHZDE\08-Apr-2025\0\\#t hf au
 g-cc-pvdz iop(5/13=1,5/36=2,99/5=2) pseudo=read geom=check guess=(read
 ,tcheck) scf=(maxcycle=1)\\title\\0,1\C,0,-1.664501,0.690282,-0.004594
 \S,0,-0.485713,-0.707072,0.014339\H,0,-2.657222,0.234921,-0.048817\H,0
 ,-1.511281,1.310595,-0.886418\H,0,-1.58004,1.28683,0.903136\S,0,1.3705
 44,0.244083,-0.087604\H,0,1.578244,0.433797,1.231895\\Version=ES64L-G1
 6RevC.01\State=1-A\HF=-835.32227\RMSD=5.840e-03\Dipole=-0.4556121,0.52
 20638,0.3262879\Quadrupole=1.8247932,-1.6223065,-0.2024867,-0.2431226,

 Normal termination of Gaussian 16 at Tue Apr  8 22:45:29 2025.
