 Gaussian 16, Revision C.01,

 ----------------------------------------------------------------------
 #t hf aug-cc-pvdz symm=none int=(grid=ultrafine) guess=(read,tcheck) s
 table=(opt,rrhf)
 ----------------------------------------------------------------------
 -----
 title
 -----
 Symbolic Z-matrix:
 Charge =  0 Multiplicity = 1

 SCF Done:  E(RHF) =  -1012.93673576     A.U. after   11 cycles
 Normal termination of Gaussian 16 at Tue Apr  8 23:52:24 2025.
 Gaussian 16:  ES64L-G16RevC.01  3-Jul-2019

 ----------------------------------------------------------------------
 #t hf aug-cc-pvdz iop(5/13=1,5/36=2,99/5=2) pseudo=read geom=check gue
 ss=(read,tcheck) scf=(maxcycle=1)
 ----------------------------------------------------------------------
 -----
 title
 -----
 Structure from the checkpoint file:  "BDE49_nonexpt_1951_mol1.chk"
 Charge =  0 Multiplicity = 1

                         Standard orientation:
 ---------------------------------------------------------------------
 Center     Atomic      Atomic             Coordinates (Angstroms)
 Number     Number       Type             X           Y           Z
 ---------------------------------------------------------------------
      1         14           0       -0.640039    1.011058   -0.226733
      2          6           0        1.064729    0.775052    0.552967
      3         15           0        2.100951   -0.568903   -0.241736
      4          1           0        1.369452   -1.685684    0.241207
      5          1           0        3.089412   -0.682098    0.771662
      6         15           0       -1.977506   -0.787584    0.208132
      7          1           0       -0.493853    1.274641   -1.678272
      8          1           0       -1.299318    2.181117    0.403803
      9          1           0       -1.457666   -1.589952   -0.841310
     10          1           0       -3.049316   -0.290359   -0.579351
     11          1           0        0.951251    0.619661    1.628646
     12          1           0        1.610530    1.714854    0.414131
 ---------------------------------------------------------------------

 SCF Done:  E(RHF) =  -1013.01176011     A.U. after    2 cycles

 The electronic state is 1-A.
 Alpha  occ. eigenvalues --  -81.26282 -81.25029 -69.07840 -11.24215  -7.76569
 Alpha  occ. eigenvalues --   -7.75575  -6.83016  -4.90521  -4.90501  -4.90187
 Alpha  occ. eigenvalues --   -4.89514  -4.89430  -4.89211  -3.93776  -3.93757
 Alpha  occ. eigenvalues --   -3.93745  -0.96570  -0.80273  -0.76456  -0.66361
 Alpha  occ. eigenvalues --   -0.59593  -0.55383  -0.51568  -0.50070  -0.48236
 Alpha  occ. eigenvalues --   -0.44661  -0.42793  -0.35675  -0.35563
 Alpha virt. eigenvalues --    0.03279   0.04640   0.04807   0.05525   0.06493
 Alpha virt. eigenvalues --    0.07131   0.07672   0.08144   0.09092   0.09762
 Alpha virt. eigenvalues --    0.10293   0.10515   0.11531   0.11884   0.12533

 Mulliken charges:
               1
     1  Si   0.481154
     2  C   -0.079918
     3  P    0.089543
     4  H    0.084710
     5  H    0.093269
     6  P   -0.558054
     7  H    0.079690
     8  H   -0.008091
     9  H    0.180233
    10  H    0.156691
    11  H   -0.267867
    12  H   -0.251360
 Sum of Mulliken charges =  -0.00000

 Dipole moment (field-independent basis, Debye):
    X=              0.2521    Y=              0.6564    Z=              0.5106  Tot=              0.8690

 Test job not archived.
 1\1\GINC-SE333\SP\RHF\Aug-CC-pVDZ\C1H8P2Si1\OHZDE\08-Apr-2025\0\\#t hf
  aug-cc-pvdz iop(5/13=1,5/36=2,99/5=2) pseudo=read geom=check guess=(r
 ead,tcheck) scf=(maxcycle=1)\\title\\0,1\Si,0,0.640039,1.011058,0.2267
 33\C,0,-1.064729,0.775052,-0.552967\P,0,-2.100951,-0.568903,0.241736\H
 ,0,-1.369452,-1.685684,-0.241207\H,0,-3.089412,-0.682098,-0.771662\P,0
 ,1.977506,-0.787584,-0.208132\H,0,0.493853,1.274641,1.678272\H,0,1.299
 318,2.181117,-0.403803\H,0,1.457666,-1.589952,0.84131\H,0,3.049316,-0.
 290359,0.579351\H,0,-0.951251,0.619661,-1.628646\H,0,-1.61053,1.714854

 Normal termination of Gaussian 16 at Tue Apr  8 23:52:28 2025.
