 Gaussian 16, Revision C.01,

 ----------------------------------------------------------------------
 #t hf aug-cc-pvdz symm=none int=(grid=ultrafine) guess=(read,tcheck) s
 table=(opt,rrhf)
 ----------------------------------------------------------------------
 -----
 title
 -----
 Symbolic Z-matrix:
 Charge =  0 Multiplicity = 1

 SCF Done:  E(RHF) =  -420.549101513     A.U. after   12 cycles
 Normal termination of Gaussian 16 at Tue Apr  8 23:10:44 2025.
 Gaussian 16:  ES64L-G16RevC.01  3-Jul-2019

 ----------------------------------------------------------------------
 #t hf aug-cc-pvdz iop(5/13=1,5/36=2,99/5=2) pseudo=read geom=check gue
 ss=(read,tcheck) scf=(maxcycle=1)
 ----------------------------------------------------------------------
 -----
 title
 -----
 Structure from the checkpoint file:  "BDE49_expt_818_mol1.chk"
 Charge =  0 Multiplicity = 1

                         Standard orientation:
 ---------------------------------------------------------------------
 Center     Atomic      Atomic             Coordinates (Angstroms)
 Number     Number       Type             X           Y           Z
 ---------------------------------------------------------------------
      1         15           0        1.143208   -0.198778   -0.113283
      2          1           0        1.962217    0.905741    0.242324
      3          6           0       -0.517065    0.662031    0.045035
      4          1           0        1.186678   -0.757966    1.192268
      5          6           0       -1.682630   -0.332034   -0.014607
      6          1           0       -0.581377    1.362272   -0.793740
      7          1           0       -0.562339    1.253044    0.962026
      8          1           0       -1.656263   -0.923804   -0.933879
      9          1           0       -2.642671    0.190654    0.019033
     10          1           0       -1.656202   -1.028256    0.828652
 ---------------------------------------------------------------------

 SCF Done:  E(RHF) =  -420.597628909     A.U. after    2 cycles

 The electronic state is 1-A.
 Alpha  occ. eigenvalues --  -81.24985 -11.24491 -11.23461  -7.75340  -4.89307
 Alpha  occ. eigenvalues --   -4.89277  -4.88953  -1.02684  -0.86376  -0.74876
 Alpha  occ. eigenvalues --   -0.62116  -0.59039  -0.53523  -0.50992  -0.48552
 Alpha  occ. eigenvalues --   -0.45142  -0.34714
 Alpha virt. eigenvalues --    0.03478   0.04907   0.05072   0.05526   0.07106
 Alpha virt. eigenvalues --    0.07844   0.08265   0.10454   0.10886   0.12284
 Alpha virt. eigenvalues --    0.14250   0.15655   0.16305   0.16773   0.16965

 Mulliken charges:
               1
     1  P    0.102701
     2  H    0.086074
     3  C   -0.157169
     4  H    0.104648
     5  C    0.324633
     6  H   -0.105458
     7  H   -0.122627
     8  H   -0.075202
     9  H   -0.065657
    10  H   -0.091943
 Sum of Mulliken charges =  -0.00000

 Dipole moment (field-independent basis, Debye):
    X=             -0.8653    Y=              0.7117    Z=              0.5513  Tot=              1.2487

 Test job not archived.
 1\1\GINC-SE339\SP\RHF\Aug-CC-pVDZ\C2H7P1\OHZDE\08-Apr-2025\0\\#t hf au
 g-cc-pvdz iop(5/13=1,5/36=2,99/5=2) pseudo=read geom=check guess=(read
 ,tcheck) scf=(maxcycle=1)\\title\\0,1\P,0,1.143208,-0.198778,-0.113283
 \H,0,1.962217,0.90574,0.242324\C,0,-0.517065,0.662031,0.045035\H,0,1.1
 86678,-0.757966,1.192268\C,0,-1.68263,-0.332034,-0.014607\H,0,-0.58137
 7,1.362272,-0.79374\H,0,-0.562339,1.253044,0.962026\H,0,-1.656264,-0.9
 23804,-0.933879\H,0,-2.642671,0.190655,0.019033\H,0,-1.656203,-1.02825
 6,0.828652\\Version=ES64L-G16RevC.01\State=1-A\HF=-420.5976289\RMSD=9.

 Normal termination of Gaussian 16 at Tue Apr  8 23:10:47 2025.
