 Gaussian 16, Revision C.01,

 ----------------------------------------------------------------------
 #t hf aug-cc-pvdz symm=none int=(grid=ultrafine) guess=(read,tcheck) s
 table=(opt,rrhf)
 ----------------------------------------------------------------------
 -----
 title
 -----
 Symbolic Z-matrix:
 Charge =  0 Multiplicity = 1

 SCF Done:  E(RHF) =  -443.485599286     A.U. after   14 cycles
 Normal termination of Gaussian 16 at Tue Apr  8 22:41:13 2025.
 Gaussian 16:  ES64L-G16RevC.01  3-Jul-2019

 ----------------------------------------------------------------------
 #t hf aug-cc-pvdz iop(5/13=1,5/36=2,99/5=2) pseudo=read geom=check gue
 ss=(read,tcheck) scf=(maxcycle=1)
 ----------------------------------------------------------------------
 -----
 title
 -----
 Structure from the checkpoint file:  "BDE49_expt_1400_mol1.chk"
 Charge =  0 Multiplicity = 1

                         Standard orientation:
 ---------------------------------------------------------------------
 Center     Atomic      Atomic             Coordinates (Angstroms)
 Number     Number       Type             X           Y           Z
 ---------------------------------------------------------------------
      1          6           0        0.424763   -1.785341    0.000000
      2          6           0        1.519200   -0.929273    0.000000
      3          6           0        1.303278    0.440719    0.000000
      4          6           0       -0.869916   -1.302272    0.000000
      5          6           0       -1.087514    0.077605    0.000000
      6          6           0        0.000000    0.954743    0.000000
      7          9           0        0.635106   -3.124082    0.000000
      8          1           0        2.520786   -1.341034    0.000000
      9          1           0        2.132511    1.137122    0.000000
     10          1           0       -1.700452   -1.997182    0.000000
     11          1           0       -2.103646    0.447177    0.000000
     12          8           0       -0.098830    2.316117    0.000000
     13          6           0       -1.392660    2.898769    0.000000
     14          1           0       -1.234594    3.976043    0.000000
     15          1           0       -1.961412    2.617986    0.894082
     16          1           0       -1.961412    2.617986   -0.894082
 ---------------------------------------------------------------------

 SCF Done:  E(RHF) =  -443.627394943     A.U. after    2 cycles

 The electronic state is 1-A'.
 Alpha  occ. eigenvalues --  -26.12849 -20.60453 -11.33132 -11.31756 -11.30247
 Alpha  occ. eigenvalues --  -11.25926 -11.25900 -11.25604 -11.25255  -1.66561
 Alpha  occ. eigenvalues --   -1.37443  -1.15534  -1.03439  -1.02669  -0.95222
 Alpha  occ. eigenvalues --   -0.86833  -0.84422  -0.76700  -0.74642  -0.74372
 Alpha  occ. eigenvalues --   -0.73030  -0.67142  -0.66286  -0.63971  -0.61174
 Alpha  occ. eigenvalues --   -0.59123  -0.58464  -0.53906  -0.53695  -0.50138
 Alpha  occ. eigenvalues --   -0.48518  -0.35855  -0.32453
 Alpha virt. eigenvalues --    0.03132   0.04033   0.04303   0.05576   0.05801
 Alpha virt. eigenvalues --    0.05928   0.08466   0.09348   0.09530   0.10965
 Alpha virt. eigenvalues --    0.11487   0.12970   0.13772   0.13853   0.13896

 Mulliken charges:
               1
     1  C    0.286214
     2  C    0.530770
     3  C    0.561327
     4  C    0.337264
     5  C    0.488807
     6  C    0.550725
     7  F   -0.340854
     8  H   -0.401787
     9  H   -0.532980
    10  H   -0.415373
    11  H   -0.715598
    12  O   -0.691102
    13  C    0.819280
    14  H   -0.300439
    15  H   -0.088127
    16  H   -0.088127
 Sum of Mulliken charges =  -0.00000

 Dipole moment (field-independent basis, Debye):
    X=             -1.7216    Y=              2.1962    Z=              0.0000  Tot=              2.7906

 Test job not archived.
 1\1\GINC-SE424\SP\RHF\Aug-CC-pVDZ\C7H7F1O1\OHZDE\08-Apr-2025\0\\#t hf
 aug-cc-pvdz iop(5/13=1,5/36=2,99/5=2) pseudo=read geom=check guess=(re
 ad,tcheck) scf=(maxcycle=1)\\title\\0,1\C,0,-0.424763,-1.785341,0.\C,0
 ,-1.5192,-0.929273,0.\C,0,-1.303278,0.440719,0.\C,0,0.869916,-1.302272
 ,0.\C,0,1.087514,0.077605,0.\C,0,0.,0.954743,0.\F,0,-0.635106,-3.12408
 2,0.\H,0,-2.520786,-1.341034,0.\H,0,-2.132511,1.137122,0.\H,0,1.700452
 ,-1.997182,0.\H,0,2.103646,0.447177,0.\O,0,0.09883,2.316117,0.\C,0,1.3
 9266,2.898769,0.\H,0,1.234594,3.976043,0.\H,0,1.961412,2.617986,-0.894

 Normal termination of Gaussian 16 at Tue Apr  8 22:41:19 2025.
