 Gaussian 16, Revision C.01,

 ----------------------------------------------------------------------
 #t hf aug-cc-pvdz symm=none int=(grid=ultrafine) guess=(read,tcheck) s
 table=opt
 ----------------------------------------------------------------------
 -----
 title
 -----
 Symbolic Z-matrix:
 Charge =  0 Multiplicity = 2

 SCF Done:  E(UHF) =  -1813.86131718     A.U. after   18 cycles

 1\1\GINC-SE120\Stability\UHF\Aug-CC-pVDZ\C1Cl3S1\OHZDE\09-Apr-2025\0\\
 #t hf aug-cc-pvdz symm=none int=(grid=ultrafine) guess=(read,tcheck) s
 table=opt\\title\\0,2\S,0,1.118185,0.,-1.438193\C,0,-0.011227,0.,-0.05
 4566\Cl,0,-1.067398,-1.456443,-0.005097\Cl,0,-1.067398,1.456443,-0.005
 097\Cl,0,1.086348,0.,1.383047\\Version=ES64L-G16RevC.01\HF=-1813.86131
 72\S2=0.762949\S2-1=0.\S2A=0.750069\RMSD=7.306e-09\Dipole=0.1484834,0.
 ,-0.1815558\Quadrupole=0.4335324,-1.1543808,0.7208484,0.,0.1624412,0.\
 PG=Unknown\\@

 Normal termination of Gaussian 16 at Wed Apr  9 00:15:37 2025.
 Gaussian 16:  ES64L-G16RevC.01  3-Jul-2019

 ----------------------------------------------------------------------
 #t hf aug-cc-pvdz iop(5/13=1,5/36=2,99/5=2) pseudo=read geom=check gue
 ss=(read,tcheck) scf=(maxcycle=1)
 ----------------------------------------------------------------------
 -----
 title
 -----
 Structure from the checkpoint file:  "BDE49_nonexpt_2538_mol2.chk"
 Charge =  0 Multiplicity = 2

                         Standard orientation:
 ---------------------------------------------------------------------
 Center     Atomic      Atomic             Coordinates (Angstroms)
 Number     Number       Type             X           Y           Z
 ---------------------------------------------------------------------
      1         16           0       -1.814635   -0.160739   -0.000000
      2          6           0       -0.039783    0.038998   -0.000000
      3         17           0        0.573978    0.899952    1.456443
      4         17           0        0.573978    0.899952   -1.456443
      5         17           0        0.573978   -1.662384    0.000000
 ---------------------------------------------------------------------

 SCF Done:  E(UHF) =  -1813.94556048     A.U. after    2 cycles

 The electronic state is 2-A'.
 Alpha  occ. eigenvalues -- -103.70621-103.69883-103.69882 -93.60489 -11.48182
 Alpha  occ. eigenvalues --  -10.73894 -10.73187 -10.73164  -8.90251  -8.39694
 Alpha  occ. eigenvalues --   -8.39299  -8.39226  -8.38908  -8.38900  -8.38548
 Alpha  occ. eigenvalues --   -8.38547  -8.38535  -8.38533  -6.25562  -6.23914
 Alpha  occ. eigenvalues --   -6.23364  -1.27621  -1.17312  -1.16502  -1.03891
 Alpha  occ. eigenvalues --   -0.82238  -0.66291  -0.65367  -0.62666  -0.54522
 Alpha  occ. eigenvalues --   -0.52904  -0.49610  -0.48871  -0.48220  -0.47371
 Alpha  occ. eigenvalues --   -0.46040  -0.41471
 Alpha virt. eigenvalues --    0.04793   0.07490   0.08134   0.08386   0.08554
 Alpha virt. eigenvalues --    0.10309   0.10760   0.12819   0.14407   0.14797
 Alpha virt. eigenvalues --    0.17438   0.17515   0.18368   0.18674   0.18880

  Beta  occ. eigenvalues -- -103.70517-103.69871-103.69870 -93.59566 -11.48379
  Beta  occ. eigenvalues --  -10.73782 -10.73175 -10.73152  -8.89223  -8.39447
  Beta  occ. eigenvalues --   -8.39165  -8.39076  -8.38867  -8.38860  -8.38534
  Beta  occ. eigenvalues --   -8.38531  -8.38524  -8.38523  -6.23398  -6.22802
  Beta  occ. eigenvalues --   -6.21496  -1.27219  -1.16713  -1.16406  -0.98121
  Beta  occ. eigenvalues --   -0.79381  -0.65261  -0.64895  -0.60952  -0.52685
  Beta  occ. eigenvalues --   -0.52672  -0.48829  -0.48734  -0.47396  -0.47309
  Beta  occ. eigenvalues --   -0.39335
  Beta virt. eigenvalues --   -0.02164   0.05028   0.07602   0.08462   0.08540
  Beta virt. eigenvalues --    0.08781   0.10772   0.11008   0.13187   0.14855
  Beta virt. eigenvalues --    0.14932   0.17497   0.18100   0.18684   0.18857

 Mulliken charges and spin densities:
               1          2
     1  S    0.565099   1.044827
     2  C   -1.057260  -0.102190
     3  Cl   0.168144   0.004648
     4  Cl   0.168144   0.004648
     5  Cl   0.155872   0.048067
 Sum of Mulliken charges =  -0.00000   1.00000

 Dipole moment (field-independent basis, Debye):
    X=             -0.7422    Y=             -0.0730    Z=             -0.0000  Tot=              0.7458
                          Isotropic Fermi Contact Couplings
        Atom                 a.u.       MegaHertz       Gauss      10(-4) cm-1
     1  S(33)              0.21444      73.65474      26.28184      24.56858
     2  C(13)             -0.03603     -40.51004     -14.45499     -13.51269
     3  Cl(35)             0.00146       0.63977       0.22829       0.21340
     4  Cl(35)             0.00146       0.63977       0.22829       0.21340
     5  Cl(35)             0.05396      23.65904       8.44213       7.89181
 --------------------------------------------------------
       Center         ----  Spin Dipole Couplings  ----
                      3XX-RR        3YY-RR        3ZZ-RR

 Normal termination of Gaussian 16 at Wed Apr  9 00:15:40 2025.
