 Gaussian 16, Revision C.01,

 ----------------------------------------------------------------------
 #t hf aug-cc-pvdz symm=none int=(grid=ultrafine) guess=(read,tcheck) s
 table=(opt,rrhf)
 ----------------------------------------------------------------------
 -----
 title
 -----
 Symbolic Z-matrix:
 Charge =  0 Multiplicity = 1

 SCF Done:  E(RHF) =  -1292.98606006     A.U. after   15 cycles
 Normal termination of Gaussian 16 at Wed Apr  9 00:16:34 2025.
 Gaussian 16:  ES64L-G16RevC.01  3-Jul-2019

 ----------------------------------------------------------------------
 #t hf aug-cc-pvdz iop(5/13=1,5/36=2,99/5=2) pseudo=read geom=check gue
 ss=(read,tcheck) scf=(maxcycle=1)
 ----------------------------------------------------------------------
 -----
 title
 -----
 Structure from the checkpoint file:  "BDE49_nonexpt_2573_mol1.chk"
 Charge =  0 Multiplicity = 1

                         Standard orientation:
 ---------------------------------------------------------------------
 Center     Atomic      Atomic             Coordinates (Angstroms)
 Number     Number       Type             X           Y           Z
 ---------------------------------------------------------------------
      1         17           0       -1.544448   -0.830772   -0.000014
      2         16           0       -0.715136    1.043948    0.000008
      3          6           0        0.999016    0.781930    0.000011
      4         16           0        1.891334   -0.566016    0.000001
      5          1           0        1.442345    1.784619    0.000023
 ---------------------------------------------------------------------

 SCF Done:  E(RHF) =  -1293.05843104     A.U. after    2 cycles

 The electronic state is 1-A.
 Alpha  occ. eigenvalues -- -103.70236 -93.63802 -93.54070 -11.37703 -10.73409
 Alpha  occ. eigenvalues --   -8.93263  -8.83956  -8.39144  -8.38766  -8.38745
 Alpha  occ. eigenvalues --   -6.27331  -6.27043  -6.26680  -6.18106  -6.17716
 Alpha  occ. eigenvalues --   -6.17452  -1.20276  -1.09780  -0.96085  -0.78819
 Alpha  occ. eigenvalues --   -0.63611  -0.58668  -0.55551  -0.53250  -0.48217
 Alpha  occ. eigenvalues --   -0.47053  -0.36895  -0.35902
 Alpha virt. eigenvalues --    0.02900   0.03009   0.03796   0.07361   0.08118
 Alpha virt. eigenvalues --    0.10850   0.11420   0.12778   0.14078   0.14584
 Alpha virt. eigenvalues --    0.15173   0.15820   0.16132   0.16429   0.18293

 Mulliken charges:
               1
     1  Cl  -0.242103
     2  S    0.523708
     3  C   -0.289199
     4  S    0.206464
     5  H   -0.198871
 Sum of Mulliken charges =  -0.00000

 Dipole moment (field-independent basis, Debye):
    X=             -0.3666    Y=              2.1234    Z=              0.0000  Tot=              2.1548

 Test job not archived.
 1\1\GINC-SE253\SP\RHF\Aug-CC-pVDZ\C1H1Cl1S2\OHZDE\09-Apr-2025\0\\#t hf
  aug-cc-pvdz iop(5/13=1,5/36=2,99/5=2) pseudo=read geom=check guess=(r
 ead,tcheck) scf=(maxcycle=1)\\title\\0,1\Cl,0,-1.544448,-0.830772,-0.0
 00014\S,0,-0.715136,1.043948,0.000008\C,0,0.999016,0.78193,0.000011\S,
 0,1.891334,-0.566015,0.000001\H,0,1.442344,1.784619,0.000023\\Version=
 ES64L-G16RevC.01\State=1-A\HF=-1293.058431\RMSD=6.222e-03\Dipole=-0.14
 42291,0.8353957,0.000008\Quadrupole=-1.9366149,3.0654415,-1.1288266,1.
 4737682,0.000012,0.0000475\PG=C01 [X(C1H1Cl1S2)]\\@

 Normal termination of Gaussian 16 at Wed Apr  9 00:16:36 2025.
