 Gaussian 16, Revision C.01,

 ----------------------------------------------------------------------
 #t hf aug-cc-pvdz symm=none int=(grid=ultrafine) guess=(read,tcheck) s
 table=(opt,rrhf)
 ----------------------------------------------------------------------
 -----
 title
 -----
 Symbolic Z-matrix:
 Charge =  0 Multiplicity = 1

 SCF Done:  E(RHF) =  -563.360926249     A.U. after   12 cycles
 Normal termination of Gaussian 16 at Wed Apr  9 00:00:06 2025.
 Gaussian 16:  ES64L-G16RevC.01  3-Jul-2019

 ----------------------------------------------------------------------
 #t hf aug-cc-pvdz iop(5/13=1,5/36=2,99/5=2) pseudo=read geom=check gue
 ss=(read,tcheck) scf=(maxcycle=1)
 ----------------------------------------------------------------------
 -----
 title
 -----
 Structure from the checkpoint file:  "BDE49_nonexpt_2088_mol1.chk"
 Charge =  0 Multiplicity = 1

                         Standard orientation:
 ---------------------------------------------------------------------
 Center     Atomic      Atomic             Coordinates (Angstroms)
 Number     Number       Type             X           Y           Z
 ---------------------------------------------------------------------
      1          6           0       -0.962396   -1.381438   -0.148914
      2          6           0       -2.346537   -0.967279    0.370380
      3          6           0       -2.754322    0.415348   -0.155721
      4          6           0       -1.684228    1.467743    0.163063
      5          6           0       -0.300495    1.046665   -0.353737
      6          6           0        1.499169   -0.781663   -0.371463
      7          6           0        0.124953   -0.337242    0.172161
      8         14           0        3.005230    0.229534    0.157644
      9          1           0       -1.008535   -1.517351   -1.238236
     10          1           0       -0.676377   -2.351556    0.272323
     11          1           0       -2.328544   -0.944781    1.467784
     12          1           0       -3.092694   -1.717282    0.088261
     13          1           0       -3.718657    0.714227    0.267826
     14          1           0       -2.894527    0.360825   -1.243216
     15          1           0       -1.633546    1.612636    1.250011
     16          1           0       -1.963457    2.435819   -0.265321
     17          1           0        0.441673    1.803513   -0.079904
     18          1           0       -0.317166    1.015344   -1.452069
     19          1           0        1.471111   -0.810747   -1.468767
     20          1           0        1.695367   -1.814017   -0.054116
     21          1           0        0.197276   -0.267456    1.267538
     22          1           0        3.013115    1.591912   -0.427999
     23          1           0        4.242555   -0.461707   -0.281405
     24          1           0        3.042335    0.364342    1.635673
 ---------------------------------------------------------------------

 SCF Done:  E(RHF) =  -563.466400588     A.U. after    2 cycles

 The electronic state is 1-A.
 Alpha  occ. eigenvalues --  -69.05350 -11.23728 -11.22577 -11.22529 -11.22508
 Alpha  occ. eigenvalues --  -11.22447 -11.22417 -11.21965  -6.80676  -3.91452
 Alpha  occ. eigenvalues --   -3.91444  -3.91432  -1.10870  -1.02266  -0.99479
 Alpha  occ. eigenvalues --   -0.91367  -0.83171  -0.80280  -0.75299  -0.68475
 Alpha  occ. eigenvalues --   -0.64583  -0.61183  -0.60465  -0.59578  -0.55633
 Alpha  occ. eigenvalues --   -0.53459  -0.52717  -0.51267  -0.48454  -0.47865
 Alpha  occ. eigenvalues --   -0.46931  -0.46461  -0.45448  -0.44924  -0.42782
 Alpha  occ. eigenvalues --   -0.40911
 Alpha virt. eigenvalues --    0.03348   0.04055   0.04193   0.04341   0.05522
 Alpha virt. eigenvalues --    0.06011   0.06069   0.06571   0.06623   0.07987
 Alpha virt. eigenvalues --    0.08383   0.08449   0.08915   0.09128   0.09700

 Mulliken charges:
               1
     1  C    0.576446
     2  C    0.349165
     3  C    0.291256
     4  C    0.332855
     5  C    0.403099
     6  C    0.453024
     7  C   -0.869599
     8  Si   0.067492
     9  H   -0.072404
    10  H   -0.172756
    11  H   -0.096067
    12  H   -0.102271
    13  H   -0.125964
    14  H   -0.099521
    15  H   -0.093018
    16  H   -0.105269
    17  H   -0.197422
    18  H   -0.112674
    19  H   -0.169614
    20  H   -0.120482
    21  H   -0.276739
    22  H    0.052442
    23  H    0.025380
    24  H    0.062638
 Sum of Mulliken charges =  -0.00000

 Dipole moment (field-independent basis, Debye):
    X=             -0.8674    Y=             -0.3542    Z=             -0.1837  Tot=              0.9547

 Test job not archived.
 1\1\GINC-SE329\SP\RHF\Aug-CC-pVDZ\C7H16Si1\OHZDE\09-Apr-2025\0\\#t hf
 aug-cc-pvdz iop(5/13=1,5/36=2,99/5=2) pseudo=read geom=check guess=(re
 ad,tcheck) scf=(maxcycle=1)\\title\\0,1\C,0,-0.962396,-1.381438,-0.148
 914\C,0,-2.346537,-0.967279,0.37038\C,0,-2.754322,0.415348,-0.155721\C
 ,0,-1.684228,1.467743,0.163063\C,0,-0.300495,1.046665,-0.353737\C,0,1.
 499169,-0.781663,-0.371463\C,0,0.124953,-0.337242,0.172161\Si,0,3.0052
 3,0.229534,0.157644\H,0,-1.008535,-1.517351,-1.238236\H,0,-0.676377,-2
 .351556,0.272323\H,0,-2.328544,-0.944781,1.467784\H,0,-3.092694,-1.717

 Normal termination of Gaussian 16 at Wed Apr  9 00:00:19 2025.
