 Gaussian 16, Revision C.01,

 ----------------------------------------------------------------------
 #t hf aug-cc-pvdz symm=none int=(grid=ultrafine) guess=(read,tcheck) s
 table=(opt,rrhf)
 ----------------------------------------------------------------------
 -----
 title
 -----
 Symbolic Z-matrix:
 Charge =  0 Multiplicity = 1

 SCF Done:  E(RHF) =  -1083.17185683     A.U. after   18 cycles
 Normal termination of Gaussian 16 at Tue Apr  8 23:31:04 2025.
 Gaussian 16:  ES64L-G16RevC.01  3-Jul-2019

 ----------------------------------------------------------------------
 #t hf aug-cc-pvdz iop(5/13=1,5/36=2,99/5=2) pseudo=read geom=check gue
 ss=(read,tcheck) scf=(maxcycle=1)
 ----------------------------------------------------------------------
 -----
 title
 -----
 Structure from the checkpoint file:  "BDE49_nonexpt_1393_mol1.chk"
 Charge =  0 Multiplicity = 1

                         Standard orientation:
 ---------------------------------------------------------------------
 Center     Atomic      Atomic             Coordinates (Angstroms)
 Number     Number       Type             X           Y           Z
 ---------------------------------------------------------------------
      1          6           0        1.961472   -1.430428    0.050819
      2          6           0        3.253564   -0.927287    0.163692
      3          6           0        3.471088    0.451734    0.146699
      4          6           0        2.392938    1.315364    0.030249
      5          6           0        1.076558    0.826389   -0.061707
      6          6           0        0.863957   -0.571105   -0.049110
      7         15           0       -0.806636   -1.259545   -0.336636
      8          6           0       -1.913161    0.157220   -0.013346
      9          1           0        4.477693    0.845880    0.221777
     10          1           0        4.091026   -1.609382    0.255521
     11          1           0        2.555895    2.387901    0.016103
     12         16           0       -3.525108   -0.114252    0.234155
     13          6           0       -0.025308    1.768633   -0.132555
     14          6           0       -1.352551    1.483616   -0.107770
     15          1           0        0.257628    2.816997   -0.166500
     16          1           0       -2.067776    2.299753   -0.101452
     17          1           0        1.806676   -2.504730    0.041841
     18          1           0       -0.991218   -1.960028    0.873941
 ---------------------------------------------------------------------

 SCF Done:  E(RHF) =  -1083.30770958     A.U. after    2 cycles

 The electronic state is 1-A.
 Alpha  occ. eigenvalues --  -93.50773 -81.28200 -11.33172 -11.29438 -11.28136
 Alpha  occ. eigenvalues --  -11.28001 -11.27338 -11.27233 -11.26990 -11.26892
 Alpha  occ. eigenvalues --  -11.26693  -8.80593  -7.78650  -6.14763  -6.14373
 Alpha  occ. eigenvalues --   -6.14176  -4.92774  -4.92701  -4.92334  -1.17969
 Alpha  occ. eigenvalues --   -1.12106  -1.05637  -1.03845  -0.99556  -0.89192
 Alpha  occ. eigenvalues --   -0.86353  -0.81966  -0.81117  -0.71873  -0.70023
 Alpha  occ. eigenvalues --   -0.68324  -0.63981  -0.62150  -0.60996  -0.58989
 Alpha  occ. eigenvalues --   -0.56167  -0.54109  -0.52859  -0.51060  -0.48382
 Alpha  occ. eigenvalues --   -0.47077  -0.41079  -0.38801  -0.34369  -0.32866
 Alpha  occ. eigenvalues --   -0.30264
 Alpha virt. eigenvalues --    0.00685   0.02587   0.03321   0.04010   0.05276
 Alpha virt. eigenvalues --    0.05768   0.06759   0.07580   0.07896   0.07969
 Alpha virt. eigenvalues --    0.08331   0.09583   0.10122   0.10408   0.10888

 Mulliken charges:
               1
     1  C    0.634706
     2  C    0.282824
     3  C    0.293602
     4  C    0.750620
     5  C    0.316301
     6  C   -0.033107
     7  P    0.402592
     8  C   -0.448261
     9  H   -0.437491
    10  H   -0.436315
    11  H   -0.589719
    12  S   -0.094792
    13  C    0.341554
    14  C    0.447494
    15  H   -0.606633
    16  H   -0.472727
    17  H   -0.559253
    18  H    0.208605
 Sum of Mulliken charges =  -0.00000

 Dipole moment (field-independent basis, Debye):
    X=              5.2025    Y=              1.0150    Z=              0.2385  Tot=              5.3059

 Test job not archived.
 1\1\GINC-SE455\SP\RHF\Aug-CC-pVDZ\C9H7P1S1\OHZDE\08-Apr-2025\0\\#t hf
 aug-cc-pvdz iop(5/13=1,5/36=2,99/5=2) pseudo=read geom=check guess=(re
 ad,tcheck) scf=(maxcycle=1)\\title\\0,1\C,0,1.961472,-1.430428,0.05081
 9\C,0,3.253564,-0.927287,0.163692\C,0,3.471088,0.451734,0.146699\C,0,2
 .392938,1.315364,0.030249\C,0,1.076558,0.826389,-0.061707\C,0,0.863957
 ,-0.571105,-0.04911\P,0,-0.806636,-1.259545,-0.336636\C,0,-1.913161,0.
 15722,-0.013346\H,0,4.477693,0.84588,0.221777\H,0,4.091026,-1.609382,0
 .255521\H,0,2.555895,2.387901,0.016103\S,0,-3.525108,-0.114252,0.23415

 Normal termination of Gaussian 16 at Tue Apr  8 23:31:16 2025.
