 Gaussian 16, Revision C.01,

 ----------------------------------------------------------------------
 #t hf aug-cc-pvdz symm=none int=(grid=ultrafine) guess=(read,tcheck) s
 table=(opt,rrhf)
 ----------------------------------------------------------------------
 -----
 title
 -----
 Symbolic Z-matrix:
 Charge =  0 Multiplicity = 1

 SCF Done:  E(RHF) =  -463.734173014     A.U. after   17 cycles
 Normal termination of Gaussian 16 at Wed Apr  9 00:39:26 2025.
 Gaussian 16:  ES64L-G16RevC.01  3-Jul-2019

 ----------------------------------------------------------------------
 #t hf aug-cc-pvdz iop(5/13=1,5/36=2,99/5=2) pseudo=read geom=check gue
 ss=(read,tcheck) scf=(maxcycle=1)
 ----------------------------------------------------------------------
 -----
 title
 -----
 Structure from the checkpoint file:  "BDE49_nonexpt_556_mol1.chk"
 Charge =  0 Multiplicity = 1

                         Standard orientation:
 ---------------------------------------------------------------------
 Center     Atomic      Atomic             Coordinates (Angstroms)
 Number     Number       Type             X           Y           Z
 ---------------------------------------------------------------------
      1          6           0       -1.760836   -1.508220    0.000000
      2          6           0       -3.049209   -1.030318    0.000001
      3          6           0       -3.298021    0.361598    0.000001
      4          6           0       -2.248861    1.249536    0.000001
      5          6           0       -0.908553    0.789167    0.000000
      6          6           0       -0.655656   -0.617399    0.000000
      7          1           0       -1.572842   -2.576905    0.000000
      8          1           0       -3.883767   -1.722533    0.000001
      9          1           0       -4.319624    0.724036    0.000001
     10          1           0       -2.434049    2.318757    0.000001
     11          6           0        0.685395   -1.074166    0.000000
     12          6           0        1.747133   -0.194043    0.000000
     13          6           0        0.204150    1.671169    0.000001
     14          6           0        1.491645    1.203766    0.000000
     15          1           0        0.022002    2.740807    0.000001
     16          1           0        2.322534    1.895694    0.000001
     17          5           0        4.304602   -0.038700   -0.000007
     18          1           0        0.871217   -2.144704    0.000000
     19          7           0        3.069488   -0.696058    0.000000
     20          1           0        4.369292    1.147816   -0.000006
     21          1           0        5.284193   -0.715875    0.000004
     22          1           0        3.088498   -1.707719    0.000005
 ---------------------------------------------------------------------

 SCF Done:  E(RHF) =  -463.870134672     A.U. after    2 cycles

 The electronic state is 1-A.
 Alpha  occ. eigenvalues --  -15.64416 -11.29816 -11.25789 -11.25472 -11.25043
 Alpha  occ. eigenvalues --  -11.24894 -11.24863 -11.24640 -11.24547 -11.24374
 Alpha  occ. eigenvalues --  -11.24227  -7.61161  -1.20544  -1.15747  -1.09074
 Alpha  occ. eigenvalues --   -1.04431  -0.99906  -0.97520  -0.86294  -0.84195
 Alpha  occ. eigenvalues --   -0.82086  -0.74340  -0.71882  -0.70554  -0.67928
 Alpha  occ. eigenvalues --   -0.63598  -0.62291  -0.61168  -0.58962  -0.58368
 Alpha  occ. eigenvalues --   -0.55994  -0.55514  -0.53853  -0.50433  -0.50106
 Alpha  occ. eigenvalues --   -0.48701  -0.47285  -0.42570  -0.38726  -0.31477
 Alpha  occ. eigenvalues --   -0.28596
 Alpha virt. eigenvalues --    0.03009   0.03480   0.03715   0.04733   0.04814
 Alpha virt. eigenvalues --    0.04835   0.06296   0.06548   0.07479   0.08336
 Alpha virt. eigenvalues --    0.08951   0.09435   0.09894   0.10269   0.11132

 Mulliken charges:
               1
     1  C    0.671675
     2  C    0.073412
     3  C    0.248350
     4  C    0.518809
     5  C    0.611808
     6  C    0.417030
     7  H   -0.571899
     8  H   -0.456180
     9  H   -0.448408
    10  H   -0.581840
    11  C    0.381446
    12  C   -0.139809
    13  C    0.725294
    14  C    1.071243
    15  H   -0.619839
    16  H   -0.720289
    17  B   -0.833758
    18  H   -0.703732
    19  N   -0.363776
    20  H    0.284988
    21  H    0.466078
    22  H   -0.030603
 Sum of Mulliken charges =  -0.00000

 Dipole moment (field-independent basis, Debye):
    X=             -0.5102    Y=             -0.6063    Z=             -0.0000  Tot=              0.7924

 Test job not archived.
 1\1\GINC-SE071\SP\RHF\Aug-CC-pVDZ\C10H10B1N1\OHZDE\09-Apr-2025\0\\#t h
 f aug-cc-pvdz iop(5/13=1,5/36=2,99/5=2) pseudo=read geom=check guess=(
 read,tcheck) scf=(maxcycle=1)\\title\\0,1\C,0,1.760836,-1.50822,0.\C,0
 ,3.049209,-1.030318,-0.000001\C,0,3.298021,0.361598,-0.000001\C,0,2.24
 8861,1.249536,-0.000001\C,0,0.908553,0.789167,0.\C,0,0.655656,-0.61739
 9,0.\H,0,1.572842,-2.576905,0.\H,0,3.883767,-1.722533,-0.000001\H,0,4.
 319624,0.724036,-0.000001\H,0,2.434049,2.318757,-0.000001\C,0,-0.68539
 5,-1.074166,0.\C,0,-1.747133,-0.194043,0.\C,0,-0.20415,1.671169,-0.000

 Normal termination of Gaussian 16 at Wed Apr  9 00:39:42 2025.
