 Gaussian 16, Revision C.01,

 ----------------------------------------------------------------------
 #t hf aug-cc-pvdz symm=none int=(grid=ultrafine) guess=(read,tcheck) s
 table=(opt,rrhf)
 ----------------------------------------------------------------------
 -----
 title
 -----
 Symbolic Z-matrix:
 Charge =  0 Multiplicity = 1

 SCF Done:  E(RHF) =  -677.023940248     A.U. after   13 cycles
 Normal termination of Gaussian 16 at Wed Apr  9 00:33:58 2025.
 Gaussian 16:  ES64L-G16RevC.01  3-Jul-2019

 ----------------------------------------------------------------------
 #t hf aug-cc-pvdz iop(5/13=1,5/36=2,99/5=2) pseudo=read geom=check gue
 ss=(read,tcheck) scf=(maxcycle=1)
 ----------------------------------------------------------------------
 -----
 title
 -----
 Structure from the checkpoint file:  "BDE49_nonexpt_437_mol1.chk"
 Charge =  0 Multiplicity = 1

                         Standard orientation:
 ---------------------------------------------------------------------
 Center     Atomic      Atomic             Coordinates (Angstroms)
 Number     Number       Type             X           Y           Z
 ---------------------------------------------------------------------
      1          9           0       -3.655130    1.130234   -0.000215
      2          9           0       -3.655130   -1.130234   -0.000214
      3          5           0       -2.956709    0.000000    0.000244
      4          6           0       -1.409462    0.000000    0.000148
      5          6           0       -0.694437   -1.208890    0.000109
      6          1           0       -1.235825   -2.148193    0.000140
      7          6           0       -0.694437    1.208890    0.000108
      8          1           0       -1.235825    2.148193    0.000138
      9          9           0        3.655129   -1.130234    0.000012
     10          9           0        3.655130    1.130234    0.000011
     11          5           0        2.956709   -0.000000   -0.000089
     12          6           0        1.409462   -0.000000   -0.000003
     13          6           0        0.694437    1.208890    0.000035
     14          1           0        1.235825    2.148193    0.000006
     15          6           0        0.694437   -1.208890    0.000036
     16          1           0        1.235825   -2.148193    0.000008
 ---------------------------------------------------------------------

 SCF Done:  E(RHF) =  -677.268031355     A.U. after    2 cycles

 The electronic state is 1-A.
 Alpha  occ. eigenvalues --  -26.14405 -26.14405 -26.14397 -26.14397 -11.27579
 Alpha  occ. eigenvalues --  -11.27576 -11.27468 -11.27456 -11.26142 -11.26132
 Alpha  occ. eigenvalues --   -7.74577  -7.74576  -1.69668  -1.69661  -1.67417
 Alpha  occ. eigenvalues --   -1.67416  -1.16854  -1.04223  -1.03866  -0.89721
 Alpha  occ. eigenvalues --   -0.88176  -0.86329  -0.85539  -0.82658  -0.81481
 Alpha  occ. eigenvalues --   -0.78933  -0.78850  -0.77417  -0.77408  -0.72730
 Alpha  occ. eigenvalues --   -0.72728  -0.72383  -0.71958  -0.70319  -0.66195
 Alpha  occ. eigenvalues --   -0.65018  -0.61689  -0.58216  -0.53348  -0.52008
 Alpha  occ. eigenvalues --   -0.50882  -0.38059  -0.36568
 Alpha virt. eigenvalues --    0.02764   0.03043   0.03991   0.04062   0.04850
 Alpha virt. eigenvalues --    0.05779   0.06086   0.06196   0.07066   0.07470
 Alpha virt. eigenvalues --    0.07982   0.08689   0.09142   0.10212   0.12963

 Mulliken charges:
               1
     1  F   -0.518871
     2  F   -0.518871
     3  B    0.963287
     4  C    0.494768
     5  C    0.376992
     6  H   -0.587149
     7  C    0.376992
     8  H   -0.587149
     9  F   -0.518870
    10  F   -0.518871
    11  B    0.963285
    12  C    0.494768
    13  C    0.376992
    14  H   -0.587149
    15  C    0.376993
    16  H   -0.587149
 Sum of Mulliken charges =  -0.00000

 Dipole moment (field-independent basis, Debye):
    X=              0.0000    Y=             -0.0000    Z=              0.0013  Tot=              0.0013

 Test job not archived.
 1\1\GINC-SE362\SP\RHF\Aug-CC-pVDZ\C6H4B2F4\OHZDE\09-Apr-2025\0\\#t hf
 aug-cc-pvdz iop(5/13=1,5/36=2,99/5=2) pseudo=read geom=check guess=(re
 ad,tcheck) scf=(maxcycle=1)\\title\\0,1\F,0,-3.65513,-1.130234,0.00021
 5\F,0,-3.65513,1.130234,0.000214\B,0,-2.956709,0.,-0.000244\C,0,-1.409
 462,0.,-0.000148\C,0,-0.694437,1.20889,-0.000109\H,0,-1.235825,2.14819
 3,-0.00014\C,0,-0.694437,-1.20889,-0.000108\H,0,-1.235825,-2.148193,-0
 .000138\F,0,3.655129,1.130234,-0.000012\F,0,3.65513,-1.130234,-0.00001
 1\B,0,2.956709,0.,0.000089\C,0,1.409462,0.,0.000003\C,0,0.694437,-1.20

 Normal termination of Gaussian 16 at Wed Apr  9 00:34:06 2025.
