 Gaussian 16, Revision C.01,

 ----------------------------------------------------------------------
 #t hf aug-cc-pvdz symm=none int=(grid=ultrafine) guess=(read,tcheck) s
 table=(opt,rrhf)
 ----------------------------------------------------------------------
 -----
 title
 -----
 Symbolic Z-matrix:
 Charge =  0 Multiplicity = 1

 SCF Done:  E(RHF) =  -1069.19136312     A.U. after   14 cycles
 Normal termination of Gaussian 16 at Wed Apr  9 00:20:06 2025.
 Gaussian 16:  ES64L-G16RevC.01  3-Jul-2019

 ----------------------------------------------------------------------
 #t hf aug-cc-pvdz iop(5/13=1,5/36=2,99/5=2) pseudo=read geom=check gue
 ss=(read,tcheck) scf=(maxcycle=1)
 ----------------------------------------------------------------------
 -----
 title
 -----
 Structure from the checkpoint file:  "BDE49_nonexpt_2649_mol1.chk"
 Charge =  0 Multiplicity = 1

                         Standard orientation:
 ---------------------------------------------------------------------
 Center     Atomic      Atomic             Coordinates (Angstroms)
 Number     Number       Type             X           Y           Z
 ---------------------------------------------------------------------
      1          9           0       -2.290400    0.123040    0.000154
      2         16           0       -0.891175   -0.748928   -0.000170
      3          6           0        0.280266    0.541128   -0.000057
      4          8           0        0.167503    1.710468   -0.000043
      5         17           0        1.873575   -0.356178    0.000119
 ---------------------------------------------------------------------

 SCF Done:  E(RHF) =  -1069.30602689     A.U. after    2 cycles

 The electronic state is 1-A.
 Alpha  occ. eigenvalues -- -103.70923 -93.68721 -26.17309 -20.64616 -11.47488
 Alpha  occ. eigenvalues --  -10.74202  -8.97592  -8.39903  -8.39597  -8.39582
 Alpha  occ. eigenvalues --   -6.31757  -6.31379  -6.30923  -1.68716  -1.45483
 Alpha  occ. eigenvalues --   -1.20619  -1.06496  -0.84581  -0.77912  -0.77793
 Alpha  occ. eigenvalues --   -0.75637  -0.70426  -0.65652  -0.62832  -0.51826
 Alpha  occ. eigenvalues --   -0.51542  -0.48899  -0.44245
 Alpha virt. eigenvalues --    0.03995   0.05462   0.07466   0.07756   0.09536
 Alpha virt. eigenvalues --    0.10849   0.11063   0.12394   0.13256   0.13295
 Alpha virt. eigenvalues --    0.15458   0.16566   0.17854   0.22500   0.25082

 Mulliken charges:
               1
     1  F   -0.595688
     2  S    1.089443
     3  C   -0.178269
     4  O   -0.246553
     5  Cl  -0.068933
 Sum of Mulliken charges =  -0.00000

 Dipole moment (field-independent basis, Debye):
    X=              0.6053    Y=             -2.5590    Z=             -0.0004  Tot=              2.6296

 Test job not archived.
 1\1\GINC-SE015\SP\RHF\Aug-CC-pVDZ\C1Cl1F1O1S1\OHZDE\09-Apr-2025\0\\#t
 hf aug-cc-pvdz iop(5/13=1,5/36=2,99/5=2) pseudo=read geom=check guess=
 (read,tcheck) scf=(maxcycle=1)\\title\\0,1\F,0,-2.2904,0.123041,0.0001
 54\S,0,-0.891175,-0.748928,-0.00017\C,0,0.280266,0.541128,-0.000057\O,
 0,0.167503,1.710468,-0.000043\Cl,0,1.873575,-0.356178,0.000119\\Versio
 n=ES64L-G16RevC.01\State=1-A\HF=-1069.3060269\RMSD=4.267e-03\Dipole=0.
 2381519,-1.0067911,-0.0001612\Quadrupole=-0.617222,-0.7541633,1.371385
 3,0.8550399,0.0004729,0.0002585\PG=C01 [X(C1Cl1F1O1S1)]\\@

 Normal termination of Gaussian 16 at Wed Apr  9 00:20:08 2025.
