 Gaussian 16, Revision C.01,

 ----------------------------------------------------------------------
 #t hf aug-cc-pvdz symm=none int=(grid=ultrafine) guess=(read,tcheck) s
 table=(opt,rrhf)
 ----------------------------------------------------------------------
 -----
 title
 -----
 Symbolic Z-matrix:
 Charge =  0 Multiplicity = 1

 SCF Done:  E(RHF) =  -834.759733207     A.U. after   12 cycles
 Normal termination of Gaussian 16 at Tue Apr  8 22:26:40 2025.
 Gaussian 16:  ES64L-G16RevC.01  3-Jul-2019

 ----------------------------------------------------------------------
 #t hf aug-cc-pvdz iop(5/13=1,5/36=2,99/5=2) pseudo=read geom=check gue
 ss=(read,tcheck) scf=(maxcycle=1)
 ----------------------------------------------------------------------
 -----
 title
 -----
 Structure from the checkpoint file:  "BDE49_expt_1003_mol1.chk"
 Charge =  0 Multiplicity = 1

                         Standard orientation:
 ---------------------------------------------------------------------
 Center     Atomic      Atomic             Coordinates (Angstroms)
 Number     Number       Type             X           Y           Z
 ---------------------------------------------------------------------
      1          6           0        0.942712   -0.226810   -0.325031
      2          6           0       -0.257903    0.424773    0.359100
      3          1           0        0.852465   -0.232447   -1.413024
      4          9           0        1.086095   -1.498820    0.129847
      5          9           0        2.054818    0.475176    0.028471
      6         17           0       -1.763104   -0.446969   -0.059953
      7          9           0       -0.345310    1.716609   -0.071079
      8          1           0       -0.148982    0.406461    1.442673
 ---------------------------------------------------------------------

 SCF Done:  E(RHF) =  -834.911182474     A.U. after    2 cycles

 The electronic state is 1-A.
 Alpha  occ. eigenvalues -- -103.69064 -26.16555 -26.16469 -26.16250 -11.45786
 Alpha  occ. eigenvalues --  -11.43117 -10.72388  -8.38107  -8.37790  -8.37783
 Alpha  occ. eigenvalues --   -1.72912  -1.70483  -1.68239  -1.20840  -1.06983
 Alpha  occ. eigenvalues --   -0.95333  -0.85714  -0.84503  -0.84140  -0.80109
 Alpha  occ. eigenvalues --   -0.77654  -0.75358  -0.73614  -0.72122  -0.67788
 Alpha  occ. eigenvalues --   -0.59158  -0.57727  -0.50190  -0.48895
 Alpha virt. eigenvalues --    0.04110   0.04313   0.07328   0.08531   0.10673
 Alpha virt. eigenvalues --    0.11449   0.12429   0.13054   0.14808   0.15555
 Alpha virt. eigenvalues --    0.16213   0.17362   0.19099   0.19778   0.23286

 Mulliken charges:
               1
     1  C    1.018542
     2  C    0.237800
     3  H   -0.123062
     4  F   -0.335528
     5  F   -0.341108
     6  Cl  -0.113133
     7  F   -0.368459
     8  H    0.024949
 Sum of Mulliken charges =   0.00000

 Dipole moment (field-independent basis, Debye):
    X=             -0.4222    Y=             -0.2687    Z=             -0.1253  Tot=              0.5160

 Test job not archived.
 1\1\GINC-SE219\SP\RHF\Aug-CC-pVDZ\C2H2Cl1F3\OHZDE\08-Apr-2025\0\\#t hf
  aug-cc-pvdz iop(5/13=1,5/36=2,99/5=2) pseudo=read geom=check guess=(r
 ead,tcheck) scf=(maxcycle=1)\\title\\0,1\C,0,0.942712,-0.22681,-0.3250
 31\C,0,-0.257903,0.424773,0.3591\H,0,0.852465,-0.232447,-1.413024\F,0,
 1.086096,-1.49882,0.129847\F,0,2.054818,0.475177,0.028471\Cl,0,-1.7631
 04,-0.44697,-0.059953\F,0,-0.34531,1.716609,-0.071079\H,0,-0.148982,0.
 406461,1.442673\\Version=ES64L-G16RevC.01\State=1-A\HF=-834.9111825\RM
 SD=5.823e-03\Dipole=-0.1661175,-0.1057344,-0.0493142\Quadrupole=-1.820

 Normal termination of Gaussian 16 at Tue Apr  8 22:26:43 2025.
