 Gaussian 16, Revision C.01,

 ----------------------------------------------------------------------
 #t hf aug-cc-pvdz symm=none int=(grid=ultrafine) guess=(read,tcheck) s
 table=(opt,rrhf)
 ----------------------------------------------------------------------
 -----
 title
 -----
 Symbolic Z-matrix:
 Charge =  0 Multiplicity = 1

 SCF Done:  E(RHF) =  -924.489600010     A.U. after   15 cycles
 Normal termination of Gaussian 16 at Wed Apr  9 00:03:14 2025.
 Gaussian 16:  ES64L-G16RevC.01  3-Jul-2019

 ----------------------------------------------------------------------
 #t hf aug-cc-pvdz iop(5/13=1,5/36=2,99/5=2) pseudo=read geom=check gue
 ss=(read,tcheck) scf=(maxcycle=1)
 ----------------------------------------------------------------------
 -----
 title
 -----
 Structure from the checkpoint file:  "BDE49_nonexpt_2124_mol1.chk"
 Charge =  0 Multiplicity = 1

                         Standard orientation:
 ---------------------------------------------------------------------
 Center     Atomic      Atomic             Coordinates (Angstroms)
 Number     Number       Type             X           Y           Z
 ---------------------------------------------------------------------
      1          7           0       -0.349811   -0.971604   -0.127830
      2          7           0        0.301200   -0.068715   -0.705795
      3         14           0       -2.155929   -0.804432   -0.100102
      4          6           0       -2.797953    0.738421   -0.962037
      5          6           0       -2.514335    2.073640   -0.250737
      6          1           0       -3.877496    0.605395   -1.109091
      7          1           0       -2.356021    0.753082   -1.964767
      8          1           0       -1.439377    2.240649   -0.154993
      9          1           0       -2.950621    2.100693    0.752109
     10         14           0        2.103941   -0.262678   -0.759051
     11          6           0        2.818104    1.311458   -0.010423
     12          6           0        2.578071    1.493315    1.499077
     13          1           0        2.395399    2.157377   -0.564154
     14          1           0        3.893931    1.321715   -0.224777
     15          1           0        3.029274    0.684104    2.080040
     16          1           0        1.510611    1.510770    1.735724
     17          6           0       -2.649067   -0.927610    1.705521
     18          1           0       -2.301812   -0.062572    2.277125
     19          1           0       -2.220597   -1.825768    2.157286
     20          1           0       -3.737076   -0.983547    1.805477
     21          6           0        2.697954   -1.830633    0.073618
     22          1           0        2.454964   -1.832461    1.138961
     23          1           0        3.781503   -1.937777   -0.035180
     24          1           0        2.218639   -2.704977   -0.373201
     25          1           0        3.008106    2.432178    1.859669
     26          1           0       -2.932006    2.916694   -0.809180
     27          1           0        2.403043   -0.285542   -2.213558
     28          1           0       -2.609002   -2.019784   -0.824084
 ---------------------------------------------------------------------

 SCF Done:  E(RHF) =  -924.651823000     A.U. after    2 cycles

 The electronic state is 1-A.
 Alpha  occ. eigenvalues --  -69.06363 -69.06335 -15.66026 -15.65909 -11.23145
 Alpha  occ. eigenvalues --  -11.22637 -11.22024 -11.21735 -11.21574 -11.21246
 Alpha  occ. eigenvalues --   -6.81538  -6.81518  -3.92367  -3.92344  -3.92278
 Alpha  occ. eigenvalues --   -3.92260  -3.92255  -3.92238  -1.25958  -1.01527
 Alpha  occ. eigenvalues --   -1.01002  -0.94225  -0.93511  -0.86224  -0.84130
 Alpha  occ. eigenvalues --   -0.83002  -0.67671  -0.63728  -0.60966  -0.60831
 Alpha  occ. eigenvalues --   -0.59122  -0.57834  -0.57510  -0.56873  -0.55018
 Alpha  occ. eigenvalues --   -0.54697  -0.53696  -0.53172  -0.51458  -0.51378
 Alpha  occ. eigenvalues --   -0.50126  -0.49496  -0.48890  -0.45118  -0.43816
 Alpha  occ. eigenvalues --   -0.42098  -0.41633  -0.31104
 Alpha virt. eigenvalues --    0.03016   0.03401   0.04002   0.04139   0.05705
 Alpha virt. eigenvalues --    0.05754   0.05952   0.06584   0.06639   0.07282
 Alpha virt. eigenvalues --    0.07408   0.07691   0.07952   0.08285   0.09209

 Mulliken charges:
               1
     1  N   -0.669678
     2  N   -0.680710
     3  Si   1.302263
     4  C    0.224717
     5  C    0.344106
     6  H   -0.222577
     7  H   -0.199524
     8  H   -0.159028
     9  H   -0.112025
    10  Si   1.149886
    11  C    0.209841
    12  C    0.374697
    13  H   -0.264096
    14  H   -0.222321
    15  H   -0.118117
    16  H   -0.167126
    17  C    0.372435
    18  H   -0.195643
    19  H   -0.308485
    20  H   -0.268242
    21  C    0.404028
    22  H   -0.177836
    23  H   -0.236412
    24  H   -0.286846
    25  H   -0.102132
    26  H   -0.108100
    27  H    0.082565
    28  H    0.034361
 Sum of Mulliken charges =  -0.00000

 Dipole moment (field-independent basis, Debye):
    X=              0.1104    Y=              0.6002    Z=              0.8162  Tot=              1.0191

 Test job not archived.
 1\1\GINC-SE453\SP\RHF\Aug-CC-pVDZ\C6H18N2Si2\OHZDE\09-Apr-2025\0\\#t h
 f aug-cc-pvdz iop(5/13=1,5/36=2,99/5=2) pseudo=read geom=check guess=(
 read,tcheck) scf=(maxcycle=1)\\title\\0,1\N,0,-0.349811,-0.971604,-0.1
 2783\N,0,0.3012,-0.068715,-0.705795\Si,0,-2.155929,-0.804432,-0.100102
 \C,0,-2.797953,0.738421,-0.962037\C,0,-2.514335,2.07364,-0.250737\H,0,
 -3.877496,0.605395,-1.109091\H,0,-2.356021,0.753082,-1.964767\H,0,-1.4
 39377,2.240649,-0.154993\H,0,-2.950621,2.100693,0.752109\Si,0,2.103941
 ,-0.262678,-0.759051\C,0,2.818104,1.311458,-0.010423\C,0,2.578071,1.49

 Normal termination of Gaussian 16 at Wed Apr  9 00:03:35 2025.
