 Gaussian 16, Revision C.01,

 ----------------------------------------------------------------------
 #t hf aug-cc-pvdz symm=none int=(grid=ultrafine) guess=(read,tcheck) s
 table=opt
 ----------------------------------------------------------------------
 -----
 title
 -----
 Symbolic Z-matrix:
 Charge =  0 Multiplicity = 2

 SCF Done:  E(UHF) =  -233.604416509     A.U. after   16 cycles
 Normal termination of Gaussian 16 at Tue Apr  8 22:40:09 2025.
 Gaussian 16:  ES64L-G16RevC.01  3-Jul-2019

 ----------------------------------------------------------------------
 #t hf aug-cc-pvdz iop(5/13=1,5/36=2,99/5=2) pseudo=read geom=check gue
 ss=(read,tcheck) scf=(maxcycle=1)
 ----------------------------------------------------------------------
 -----
 title
 -----
 Structure from the checkpoint file:  "BDE49_expt_1345_mol2.chk"
 Charge =  0 Multiplicity = 2

                         Standard orientation:
 ---------------------------------------------------------------------
 Center     Atomic      Atomic             Coordinates (Angstroms)
 Number     Number       Type             X           Y           Z
 ---------------------------------------------------------------------
      1          6           0        0.049118    0.792543    1.288499
      2          6           0        0.049118   -0.750500    1.267973
      3          6           0        0.538141    1.371052    0.000000
      4          1           0        0.640173    1.164542    2.131215
      5          1           0       -0.987610    1.129872    1.478043
      6          6           0       -0.623499   -1.294495   -0.000000
      7          1           0       -0.451683   -1.135486    2.162131
      8          1           0        1.085158   -1.107758    1.305284
      9          6           0        0.049118    0.792543   -1.288499
     10          6           0        0.049118   -0.750500   -1.267973
     11          1           0       -1.684047   -1.008859   -0.000000
     12          1           0       -0.596479   -2.389065   -0.000000
     13          1           0        0.640173    1.164542   -2.131215
     14          1           0       -0.987610    1.129872   -1.478043
     15          1           0       -0.451683   -1.135486   -2.162131
     16          1           0        1.085158   -1.107758   -1.305284
     17          1           0        1.041763    2.331723    0.000000
 ---------------------------------------------------------------------

 SCF Done:  E(UHF) =  -233.674980919     A.U. after    2 cycles

 The electronic state is 2-A'.
 Alpha  occ. eigenvalues --  -11.22974 -11.22564 -11.22555 -11.22488 -11.22485
 Alpha  occ. eigenvalues --  -11.22358  -1.10469  -0.99695  -0.99531  -0.83274
 Alpha  occ. eigenvalues --   -0.82356  -0.73831  -0.65663  -0.60933  -0.59966
 Alpha  occ. eigenvalues --   -0.57914  -0.53741  -0.53416  -0.52396  -0.48330
 Alpha  occ. eigenvalues --   -0.46630  -0.44067  -0.43776  -0.32364
 Alpha virt. eigenvalues --    0.03630   0.04421   0.04449   0.04711   0.06255
 Alpha virt. eigenvalues --    0.06446   0.06942   0.06956   0.07452   0.09060
 Alpha virt. eigenvalues --    0.09288   0.13713   0.13814   0.14545   0.14818

  Beta  occ. eigenvalues --  -11.22881 -11.22876 -11.22426 -11.22393 -11.22350
  Beta  occ. eigenvalues --  -11.20489  -1.09094  -0.99410  -0.96990  -0.83150
  Beta  occ. eigenvalues --   -0.79992  -0.71337  -0.65156  -0.60354  -0.59368
  Beta  occ. eigenvalues --   -0.55589  -0.53104  -0.52498  -0.51941  -0.47671
  Beta  occ. eigenvalues --   -0.46064  -0.43692  -0.43352
  Beta virt. eigenvalues --    0.03572   0.04442   0.04456   0.04746   0.06241
  Beta virt. eigenvalues --    0.06448   0.06858   0.06969   0.07316   0.09063
  Beta virt. eigenvalues --    0.09295   0.11387   0.13789   0.14026   0.14559

 Mulliken charges and spin densities:
               1          2
     1  C    0.157370  -0.272983
     2  C    0.210786   0.011967
     3  C    0.419245   1.511324
     4  H   -0.117397   0.003668
     5  H   -0.029228   0.048014
     6  C    0.211403   0.008412
     7  H   -0.098887   0.001495
     8  H   -0.121108  -0.002497
     9  C    0.157370  -0.272983
    10  C    0.210786   0.011967
    11  H   -0.126770  -0.000228
    12  H   -0.094630   0.001221
    13  H   -0.117397   0.003668
    14  H   -0.029228   0.048014
    15  H   -0.098887   0.001495
    16  H   -0.121108  -0.002497
    17  H   -0.412317  -0.100057
 Sum of Mulliken charges =  -0.00000   1.00000

 Dipole moment (field-independent basis, Debye):
    X=             -0.1597    Y=             -0.0461    Z=              0.0000  Tot=              0.1662
                          Isotropic Fermi Contact Couplings
        Atom                 a.u.       MegaHertz       Gauss      10(-4) cm-1
     1  C(13)             -0.06020     -67.67291     -24.14738     -22.57325
     2  C(13)              0.02178      24.48673       8.73748       8.16790
     3  C(13)              0.23280     261.71618      93.38684      87.29912
     4  H(1)               0.00456      20.37631       7.27077       6.79681
     5  H(1)               0.02434     108.78076      38.81568      36.28536
     6  C(13)             -0.00389      -4.37245      -1.56020      -1.45849
     7  H(1)              -0.00047      -2.12218      -0.75724      -0.70788
     8  H(1)              -0.00100      -4.47139      -1.59550      -1.49150

 Normal termination of Gaussian 16 at Tue Apr  8 22:40:13 2025.
