 Gaussian 16, Revision C.01,

 ----------------------------------------------------------------------
 #t hf aug-cc-pvdz symm=none int=(grid=ultrafine) guess=(read,tcheck) s
 table=opt
 ----------------------------------------------------------------------
 -----
 title
 -----
 Symbolic Z-matrix:
 Charge =  0 Multiplicity = 2

 SCF Done:  E(UHF) =  -534.269667854     A.U. after   17 cycles
 Normal termination of Gaussian 16 at Tue Apr  8 22:42:24 2025.
 Gaussian 16:  ES64L-G16RevC.01  3-Jul-2019

 ----------------------------------------------------------------------
 #t hf aug-cc-pvdz iop(5/13=1,5/36=2,99/5=2) pseudo=read geom=check gue
 ss=(read,tcheck) scf=(maxcycle=1)
 ----------------------------------------------------------------------
 -----
 title
 -----
 Structure from the checkpoint file:  "BDE49_expt_1476_mol3.chk"
 Charge =  0 Multiplicity = 2

                         Standard orientation:
 ---------------------------------------------------------------------
 Center     Atomic      Atomic             Coordinates (Angstroms)
 Number     Number       Type             X           Y           Z
 ---------------------------------------------------------------------
      1          8           0        0.000000    0.000000   -1.094922
      2         17           0        0.000000    0.000000    0.515257
 ---------------------------------------------------------------------

 SCF Done:  E(UHF) =  -534.317752655     A.U. after    2 cycles

 Unable to determine electronic state:  an orbital has unidentified symmetry.
 Alpha  occ. eigenvalues -- -103.74565 -20.72188 -10.77426  -8.43083  -8.42965
 Alpha  occ. eigenvalues --   -8.42694  -1.45279  -1.10822  -0.76265  -0.68609
 Alpha  occ. eigenvalues --   -0.68237  -0.50891  -0.48064
 Alpha virt. eigenvalues --    0.05719   0.12613   0.12830   0.13156   0.16645
 Alpha virt. eigenvalues --    0.21369   0.22123   0.23156   0.39053   0.42930
 Alpha virt. eigenvalues --    0.42940   0.50958   0.52196   0.67057   0.84290

  Beta  occ. eigenvalues -- -103.74515 -20.67906 -10.77373  -8.43404  -8.42669
  Beta  occ. eigenvalues --   -8.42435  -1.34909  -1.04071  -0.65262  -0.64069
  Beta  occ. eigenvalues --   -0.53722  -0.46373
  Beta virt. eigenvalues --    0.03205   0.06680   0.12777   0.12962   0.13147
  Beta virt. eigenvalues --    0.18056   0.21388   0.23415   0.26553   0.39753
  Beta virt. eigenvalues --    0.43391   0.43413   0.51867   0.54010   0.67824

 Mulliken charges and spin densities:
               1          2
     1  O   -0.401574   1.000561
     2  Cl   0.401574  -0.000561
 Sum of Mulliken charges =  -0.00000   1.00000

 Dipole moment (field-independent basis, Debye):
    X=             -0.0000    Y=             -0.0000    Z=              0.8712  Tot=              0.8712
                          Isotropic Fermi Contact Couplings
        Atom                 a.u.       MegaHertz       Gauss      10(-4) cm-1
     1  O(17)              0.25183    -152.65730     -54.47192     -50.92099
     2  Cl(35)             0.05355      23.47947       8.37806       7.83191
 --------------------------------------------------------
       Center         ----  Spin Dipole Couplings  ----
                      3XX-RR        3YY-RR        3ZZ-RR
 --------------------------------------------------------
     1   Atom       -1.031230      2.663227     -1.631997
     2   Atom        0.068956      0.883288     -0.952243

 Normal termination of Gaussian 16 at Tue Apr  8 22:42:25 2025.
