 Gaussian 16, Revision C.01,

 ----------------------------------------------------------------------
 #t hf aug-cc-pvdz symm=none int=(grid=ultrafine) guess=(read,tcheck) s
 table=(opt,rrhf)
 ----------------------------------------------------------------------
 -----
 title
 -----
 Symbolic Z-matrix:
 Charge =  0 Multiplicity = 1

 SCF Done:  E(RHF) =  -587.609590608     A.U. after   20 cycles
 Normal termination of Gaussian 16 at Tue Apr  8 23:51:25 2025.
 Gaussian 16:  ES64L-G16RevC.01  3-Jul-2019

 ----------------------------------------------------------------------
 #t hf aug-cc-pvdz iop(5/13=1,5/36=2,99/5=2) pseudo=read geom=check gue
 ss=(read,tcheck) scf=(maxcycle=1)
 ----------------------------------------------------------------------
 -----
 title
 -----
 Structure from the checkpoint file:  "BDE49_nonexpt_1921_mol1.chk"
 Charge =  0 Multiplicity = 1

                         Standard orientation:
 ---------------------------------------------------------------------
 Center     Atomic      Atomic             Coordinates (Angstroms)
 Number     Number       Type             X           Y           Z
 ---------------------------------------------------------------------
      1          6           0        0.715334   -0.602115    0.217396
      2         14           0       -0.492025    0.845326   -0.000983
      3          7           0       -2.253167    0.190534    0.033905
      4          8           0       -2.362958   -1.011404   -0.040788
      5          1           0       -0.377978    1.485017   -1.326816
      6          1           0       -0.412730    1.844354    1.082435
      7          7           0        1.962231   -0.308628   -0.510894
      8          8           0        2.899445   -0.046841    0.202259
      9          1           0        0.224677   -1.450780   -0.274329
     10          1           0        0.907037   -0.807847    1.275244
 ---------------------------------------------------------------------

 SCF Done:  E(RHF) =  -587.723379661     A.U. after    2 cycles

 The electronic state is 1-A.
 Alpha  occ. eigenvalues --  -69.12434 -20.66823 -20.65549 -15.78669 -15.75867
 Alpha  occ. eigenvalues --  -11.29025  -6.87573  -3.98391  -3.98314  -3.98290
 Alpha  occ. eigenvalues --   -1.48186  -1.47337  -1.07827  -0.94856  -0.86715
 Alpha  occ. eigenvalues --   -0.76211  -0.70975  -0.70285  -0.68636  -0.66259
 Alpha  occ. eigenvalues --   -0.61479  -0.60906  -0.58343  -0.51685  -0.49424
 Alpha  occ. eigenvalues --   -0.42492  -0.38841
 Alpha virt. eigenvalues --    0.03393   0.04135   0.04527   0.05099   0.05458
 Alpha virt. eigenvalues --    0.06841   0.07279   0.07799   0.09320   0.11140
 Alpha virt. eigenvalues --    0.11780   0.13542   0.14397   0.15427   0.15727

 Mulliken charges:
               1
     1  C    0.406888
     2  Si   0.977466
     3  N   -0.270674
     4  O   -0.357522
     5  H   -0.001836
     6  H    0.007456
     7  N   -0.179193
     8  O   -0.407489
     9  H   -0.056017
    10  H   -0.119081
 Sum of Mulliken charges =   0.00000

 Dipole moment (field-independent basis, Debye):
    X=             -0.4914    Y=              0.7963    Z=              0.5105  Tot=              1.0660

 Test job not archived.
 1\1\GINC-SE252\SP\RHF\Aug-CC-pVDZ\C1H4N2O2Si1\OHZDE\08-Apr-2025\0\\#t
 hf aug-cc-pvdz iop(5/13=1,5/36=2,99/5=2) pseudo=read geom=check guess=
 (read,tcheck) scf=(maxcycle=1)\\title\\0,1\C,0,-0.715334,-0.602115,-0.
 217396\Si,0,0.492025,0.845326,0.000983\N,0,2.253167,0.190534,-0.033905
 \O,0,2.362958,-1.011404,0.040788\H,0,0.377978,1.485017,1.326816\H,0,0.
 41273,1.844354,-1.082435\N,0,-1.962231,-0.308628,0.510894\O,0,-2.89944
 5,-0.046841,-0.202259\H,0,-0.224677,-1.45078,0.274329\H,0,-0.907037,-0
 .807847,-1.275244\\Version=ES64L-G16RevC.01\State=1-A\HF=-587.7233797\

 Normal termination of Gaussian 16 at Tue Apr  8 23:51:29 2025.
