 Gaussian 16, Revision C.01,

 ----------------------------------------------------------------------
 #t hf aug-cc-pvdz symm=none int=(grid=ultrafine) guess=(read,tcheck) s
 table=(opt,rrhf)
 ----------------------------------------------------------------------
 -----
 title
 -----
 Symbolic Z-matrix:
 Charge =  0 Multiplicity = 1

 SCF Done:  E(RHF) =  -1768.37687183     A.U. after   12 cycles
 Normal termination of Gaussian 16 at Wed Apr  9 00:45:59 2025.
 Gaussian 16:  ES64L-G16RevC.01  3-Jul-2019

 ----------------------------------------------------------------------
 #t hf aug-cc-pvdz iop(5/13=1,5/36=2,99/5=2) pseudo=read geom=check gue
 ss=(read,tcheck) scf=(maxcycle=1)
 ----------------------------------------------------------------------
 -----
 title
 -----
 Structure from the checkpoint file:  "BDE49_nonexpt_843_mol1.chk"
 Charge =  0 Multiplicity = 1

                         Standard orientation:
 ---------------------------------------------------------------------
 Center     Atomic      Atomic             Coordinates (Angstroms)
 Number     Number       Type             X           Y           Z
 ---------------------------------------------------------------------
      1         14           0       -0.049787    0.000002   -0.075807
      2          5           0        1.605036    0.000031   -1.240252
      3         17           0       -1.193737   -1.674699   -0.507201
      4         17           0       -1.193709    1.674753   -0.507075
      5         17           0        0.342007   -0.000078    1.951528
      6          8           0        2.799170    0.000011   -0.626934
      7          1           0        3.555714    0.000038   -1.225176
      8          1           0        1.495228    0.000091   -2.430062
 ---------------------------------------------------------------------

 SCF Done:  E(RHF) =  -1768.49261592     A.U. after    2 cycles

 The electronic state is 1-A.
 Alpha  occ. eigenvalues -- -103.66881-103.66881-103.66735 -69.19035 -20.62976
 Alpha  occ. eigenvalues --  -10.70334 -10.70325 -10.70182  -8.36022  -8.36016
 Alpha  occ. eigenvalues --   -8.35876  -8.35786  -8.35784  -8.35781  -8.35779
 Alpha  occ. eigenvalues --   -8.35636  -8.35633  -7.68032  -6.93124  -4.03926
 Alpha  occ. eigenvalues --   -4.03924  -4.03697  -1.37171  -1.17386  -1.14210
 Alpha  occ. eigenvalues --   -1.14130  -0.82223  -0.71219  -0.68878  -0.60394
 Alpha  occ. eigenvalues --   -0.59816  -0.57507  -0.57418  -0.52932  -0.50760
 Alpha  occ. eigenvalues --   -0.50705  -0.48174  -0.48040  -0.46860  -0.42873
 Alpha virt. eigenvalues --    0.02427   0.04105   0.05211   0.05717   0.07324
 Alpha virt. eigenvalues --    0.07477   0.07852   0.08267   0.09459   0.10568
 Alpha virt. eigenvalues --    0.11030   0.12653   0.13458   0.14531   0.16246

 Mulliken charges:
               1
     1  Si   1.096443
     2  B    0.385692
     3  Cl  -0.481103
     4  Cl  -0.481102
     5  Cl  -0.497416
     6  O   -0.383981
     7  H    0.206783
     8  H    0.154684
 Sum of Mulliken charges =  -0.00000

 Dipole moment (field-independent basis, Debye):
    X=              3.0169    Y=              0.0001    Z=             -2.3710  Tot=              3.8371

 Test job not archived.
 1\1\GINC-SE038\SP\RHF\Aug-CC-pVDZ\B1Cl3H2O1Si1\OHZDE\09-Apr-2025\0\\#t
  hf aug-cc-pvdz iop(5/13=1,5/36=2,99/5=2) pseudo=read geom=check guess
 =(read,tcheck) scf=(maxcycle=1)\\title\\0,1\Si,0,-0.049787,0.000002,-0
 .075807\B,0,1.605036,0.000031,-1.240252\Cl,0,-1.193737,-1.674699,-0.50
 7201\Cl,0,-1.19371,1.674753,-0.507075\Cl,0,0.342007,-0.000078,1.951528
 \O,0,2.79917,0.000012,-0.626934\H,0,3.555714,0.000039,-1.225176\H,0,1.
 495228,0.000091,-2.430062\\Version=ES64L-G16RevC.01\State=1-A\HF=-1768
 .4926159\RMSD=4.250e-03\Dipole=1.1869333,0.0000299,-0.9328422\Quadrupo

 Normal termination of Gaussian 16 at Wed Apr  9 00:46:02 2025.
