 Gaussian 16, Revision C.01,

 ----------------------------------------------------------------------
 #t hf aug-cc-pvdz symm=none int=(grid=ultrafine) guess=(read,tcheck) s
 table=opt
 ----------------------------------------------------------------------
 -----
 title
 -----
 Symbolic Z-matrix:
 Charge =  0 Multiplicity = 2

 SCF Done:  E(UHF) =  -775.969459014     A.U. after   15 cycles
 Normal termination of Gaussian 16 at Tue Apr  8 23:11:42 2025.
 Gaussian 16:  ES64L-G16RevC.01  3-Jul-2019

 ----------------------------------------------------------------------
 #t hf aug-cc-pvdz iop(5/13=1,5/36=2,99/5=2) pseudo=read geom=check gue
 ss=(read,tcheck) scf=(maxcycle=1)
 ----------------------------------------------------------------------
 -----
 title
 -----
 Structure from the checkpoint file:  "BDE49_expt_803_mol2.chk"
 Charge =  0 Multiplicity = 2

                         Standard orientation:
 ---------------------------------------------------------------------
 Center     Atomic      Atomic             Coordinates (Angstroms)
 Number     Number       Type             X           Y           Z
 ---------------------------------------------------------------------
      1         14           0        0.219994   -0.980604   -0.000000
      2         14           0       -0.747842    1.179484    0.000000
      3          6           0       -0.350845   -1.913707    1.541835
      4          6           0        2.114777   -0.914485   -0.000000
      5          6           0       -0.350845   -1.913707   -1.541835
      6          6           0       -0.350845    2.208575   -1.545877
      7          6           0       -0.350845    2.208575    1.545877
      8          1           0       -1.440455   -2.000950   -1.573702
      9          1           0        0.067338   -2.925915   -1.556040
     10          1           0       -0.029310   -1.410804   -2.458652
     11          1           0       -0.029310   -1.410804    2.458652
     12          1           0        0.067338   -2.925915    1.556040
     13          1           0       -1.440455   -2.000950    1.573702
     14          1           0        0.711908    2.477012    1.577735
     15          1           0       -0.587613    1.662994    2.462768
     16          1           0       -0.926355    3.139092    1.552526
     17          1           0        0.711908    2.477012   -1.577735
     18          1           0       -0.926355    3.139092   -1.552526
     19          1           0       -0.587613    1.662994   -2.462768
     20          1           0        2.497893   -0.395947    0.883622
     21          1           0        2.497893   -0.395947   -0.883622
     22          1           0        2.534696   -1.926785   -0.000000
 ---------------------------------------------------------------------

 SCF Done:  E(UHF) =  -776.079296454     A.U. after    2 cycles

 The electronic state is 2-A'.
 Alpha  occ. eigenvalues --  -69.04356 -69.04352 -11.21394 -11.21391 -11.20980
 Alpha  occ. eigenvalues --  -11.20822 -11.20818  -6.79732  -6.79556  -3.91071
 Alpha  occ. eigenvalues --   -3.90337  -3.90312  -3.90281  -3.90201  -3.90129
 Alpha  occ. eigenvalues --   -0.95881  -0.94395  -0.91795  -0.91627  -0.91515
 Alpha  occ. eigenvalues --   -0.65570  -0.58915  -0.57221  -0.56578  -0.56282
 Alpha  occ. eigenvalues --   -0.56135  -0.55190  -0.54831  -0.54480  -0.54104
 Alpha  occ. eigenvalues --   -0.53716  -0.53058  -0.43962  -0.43080  -0.42288
 Alpha  occ. eigenvalues --   -0.37221  -0.28004
 Alpha virt. eigenvalues --    0.03253   0.04012   0.04365   0.04581   0.06079
 Alpha virt. eigenvalues --    0.06129   0.06340   0.06456   0.06631   0.08052
 Alpha virt. eigenvalues --    0.08392   0.08542   0.08816   0.09153   0.09207

  Beta  occ. eigenvalues --  -69.04338 -69.03836 -11.21403 -11.21399 -11.20899
  Beta  occ. eigenvalues --  -11.20836 -11.20833  -6.79526  -6.78979  -3.90305
  Beta  occ. eigenvalues --   -3.90290  -3.90238  -3.89837  -3.89795  -3.88986
  Beta  occ. eigenvalues --   -0.95694  -0.93948  -0.91655  -0.91503  -0.91485
  Beta  occ. eigenvalues --   -0.63460  -0.57872  -0.56797  -0.56220  -0.56110
  Beta  occ. eigenvalues --   -0.55424  -0.54707  -0.54404  -0.53959  -0.53928
  Beta  occ. eigenvalues --   -0.53698  -0.53029  -0.43680  -0.42625  -0.42165
  Beta  occ. eigenvalues --   -0.35774
  Beta virt. eigenvalues --    0.03093   0.03906   0.04355   0.04400   0.06006
  Beta virt. eigenvalues --    0.06149   0.06310   0.06473   0.06501   0.07581
  Beta virt. eigenvalues --    0.08056   0.08456   0.08826   0.09001   0.09192

 Mulliken charges and spin densities:
               1          2
     1  Si   1.983180  -0.033702
     2  Si   0.736987   1.108147
     3  C    0.392193  -0.008754
     4  C    0.423825   0.013248
     5  C    0.392193  -0.008754
     6  C    0.250711  -0.016622
     7  C    0.250711  -0.016622
     8  H   -0.315546  -0.004769
     9  H   -0.306955  -0.003638
    10  H   -0.330905   0.005171
    11  H   -0.330905   0.005171
    12  H   -0.306955  -0.003638
    13  H   -0.315546  -0.004769
    14  H   -0.213558   0.009849
    15  H   -0.291452  -0.007579
    16  H   -0.265197  -0.010359
    17  H   -0.213558   0.009849
    18  H   -0.265197  -0.010359
    19  H   -0.291452  -0.007579
    20  H   -0.333733  -0.009026
    21  H   -0.333733  -0.009026
    22  H   -0.315108   0.003760
 Sum of Mulliken charges =   0.00000   1.00000

 Dipole moment (field-independent basis, Debye):
    X=              0.5571    Y=              0.0013    Z=              0.0000  Tot=              0.5571
                          Isotropic Fermi Contact Couplings
        Atom                 a.u.       MegaHertz       Gauss      10(-4) cm-1
     1  Si(29)             0.02290     -20.35515      -7.26322      -6.78975
     2  Si(29)             0.40933    -363.78290    -129.80678    -121.34491
     3  C(13)             -0.00374      -4.20415      -1.50014      -1.40235
     4  C(13)              0.01836      20.64066       7.36510       6.88498
     5  C(13)             -0.00374      -4.20415      -1.50014      -1.40235
     6  C(13)              0.00030       0.33478       0.11946       0.11167
     7  C(13)              0.00030       0.33478       0.11946       0.11167
     8  H(1)              -0.00006      -0.27199      -0.09705      -0.09073

 Normal termination of Gaussian 16 at Tue Apr  8 23:11:50 2025.
