 Gaussian 16, Revision C.01,

 ----------------------------------------------------------------------
 #t hf aug-cc-pvdz symm=none int=(grid=ultrafine) guess=(read,tcheck) s
 table=(opt,rrhf)
 ----------------------------------------------------------------------
 -----
 title
 -----
 Symbolic Z-matrix:
 Charge =  0 Multiplicity = 1

 SCF Done:  E(RHF) =  -2876.24404983     A.U. after   11 cycles
 Normal termination of Gaussian 16 at Wed Apr  9 00:07:36 2025.
 Gaussian 16:  ES64L-G16RevC.01  3-Jul-2019

 ----------------------------------------------------------------------
 #t hf aug-cc-pvdz iop(5/13=1,5/36=2,99/5=2) pseudo=read geom=check gue
 ss=(read,tcheck) scf=(maxcycle=1)
 ----------------------------------------------------------------------
 -----
 title
 -----
 Structure from the checkpoint file:  "BDE49_nonexpt_2317_mol1.chk"
 Charge =  0 Multiplicity = 1

                         Standard orientation:
 ---------------------------------------------------------------------
 Center     Atomic      Atomic             Coordinates (Angstroms)
 Number     Number       Type             X           Y           Z
 ---------------------------------------------------------------------
      1         14           0       -0.918351    1.155877    0.000000
      2         14           0        0.186116   -0.922043   -0.000000
      3         17           0       -0.370941   -1.986430    1.674780
      4         17           0       -0.370941    2.200526    1.693396
      5         17           0        2.226874   -0.679767    0.000000
      6         17           0       -0.370941    2.200526   -1.693396
      7         17           0       -0.370941   -1.986430   -1.674780
      8          1           0       -2.381594    1.003100   -0.000000
 ---------------------------------------------------------------------

 SCF Done:  E(RHF) =  -2876.38498346     A.U. after    2 cycles

 The electronic state is 1-A'.
 Alpha  occ. eigenvalues -- -103.68754-103.68754-103.68711-103.68231-103.68231
 Alpha  occ. eigenvalues --  -69.21950 -69.18444 -10.72200 -10.72190 -10.72154
 Alpha  occ. eigenvalues --  -10.71677 -10.71665  -8.37890  -8.37884  -8.37849
 Alpha  occ. eigenvalues --   -8.37646  -8.37644  -8.37643  -8.37638  -8.37602
 Alpha  occ. eigenvalues --   -8.37599  -8.37369  -8.37362  -8.37126  -8.37123
 Alpha  occ. eigenvalues --   -8.37120  -8.37120  -6.95895  -6.92848  -4.06712
 Alpha  occ. eigenvalues --   -4.06712  -4.06514  -4.03700  -4.03591  -4.03470
 Alpha  occ. eigenvalues --   -1.19421  -1.17643  -1.16114  -1.16109  -1.15563
 Alpha  occ. eigenvalues --   -0.75935  -0.69859  -0.60041  -0.59983  -0.58224
 Alpha  occ. eigenvalues --   -0.57837  -0.57774  -0.52633  -0.52526  -0.52411
 Alpha  occ. eigenvalues --   -0.50934  -0.49958  -0.49928  -0.49771  -0.48961
 Alpha  occ. eigenvalues --   -0.48588  -0.43010
 Alpha virt. eigenvalues --    0.04126   0.04797   0.05138   0.05272   0.07116
 Alpha virt. eigenvalues --    0.07520   0.07616   0.08779   0.08943   0.09275
 Alpha virt. eigenvalues --    0.10185   0.11565   0.12890   0.13967   0.14330

 Mulliken charges:
               1
     1  Si   1.094226
     2  Si   1.339014
     3  Cl  -0.483023
     4  Cl  -0.507401
     5  Cl  -0.466657
     6  Cl  -0.507401
     7  Cl  -0.483023
     8  H    0.014266
 Sum of Mulliken charges =  -0.00000

 Dipole moment (field-independent basis, Debye):
    X=             -1.1245    Y=             -0.0351    Z=              0.0000  Tot=              1.1251

 Test job not archived.
 1\1\GINC-SE361\SP\RHF\Aug-CC-pVDZ\Cl5H1Si2\OHZDE\09-Apr-2025\0\\#t hf
 aug-cc-pvdz iop(5/13=1,5/36=2,99/5=2) pseudo=read geom=check guess=(re
 ad,tcheck) scf=(maxcycle=1)\\title\\0,1\Si,0,-0.918351,1.155877,0.\Si,
 0,0.186116,-0.922043,0.\Cl,0,-0.370941,-1.98643,1.67478\Cl,0,-0.370941
 ,2.200526,1.693396\Cl,0,2.226874,-0.679767,0.\Cl,0,-0.370941,2.200526,
 -1.693396\Cl,0,-0.370941,-1.98643,-1.67478\H,0,-2.381594,1.0031,0.\\Ve
 rsion=ES64L-G16RevC.01\State=1-A'\HF=-2876.3849835\RMSD=4.008e-03\Dipo
 le=-0.4424317,-0.0137943,0.\Quadrupole=2.3292654,-1.6764494,-0.652816,

 Normal termination of Gaussian 16 at Wed Apr  9 00:07:40 2025.
