 Gaussian 16, Revision C.01,

 ----------------------------------------------------------------------
 #t hf aug-cc-pvdz symm=none int=(grid=ultrafine) guess=(read,tcheck) s
 table=(opt,rrhf)
 ----------------------------------------------------------------------
 -----
 title
 -----
 Symbolic Z-matrix:
 Charge =  0 Multiplicity = 1

 SCF Done:  E(RHF) =  -1223.45571777     A.U. after   15 cycles
 Normal termination of Gaussian 16 at Wed Apr  9 00:23:08 2025.
 Gaussian 16:  ES64L-G16RevC.01  3-Jul-2019

 ----------------------------------------------------------------------
 #t hf aug-cc-pvdz iop(5/13=1,5/36=2,99/5=2) pseudo=read geom=check gue
 ss=(read,tcheck) scf=(maxcycle=1)
 ----------------------------------------------------------------------
 -----
 title
 -----
 Structure from the checkpoint file:  "BDE49_nonexpt_2700_mol1.chk"
 Charge =  0 Multiplicity = 1

                         Standard orientation:
 ---------------------------------------------------------------------
 Center     Atomic      Atomic             Coordinates (Angstroms)
 Number     Number       Type             X           Y           Z
 ---------------------------------------------------------------------
      1          9           0       -3.621239   -0.134035    1.150600
      2         16           0       -3.127534   -0.147620   -0.469420
      3          6           0       -1.386623    0.008668   -0.276712
      4          6           0       -0.791739    1.278445   -0.194668
      5          1           0       -1.417659    2.161291   -0.230154
      6          6           0       -0.573301   -1.132273   -0.230698
      7          1           0       -1.031915   -2.111579   -0.290064
      8          9           0        3.635308   -1.076880    0.117333
      9         16           0        3.112989    0.498178    0.132724
     10          6           0        1.380213    0.251626   -0.025736
     11          6           0        0.805398   -1.020067   -0.108441
     12          1           0        1.431927   -1.900307   -0.074986
     13          6           0        0.581643    1.405081   -0.067691
     14          1           0        1.030208    2.391011   -0.005378
 ---------------------------------------------------------------------

 SCF Done:  E(RHF) =  -1223.63792446     A.U. after    2 cycles

 The electronic state is 1-A.
 Alpha  occ. eigenvalues --  -93.65101 -93.62349 -26.15541 -26.11610 -11.32768
 Alpha  occ. eigenvalues --  -11.29635 -11.29133 -11.29025 -11.28357 -11.27761
 Alpha  occ. eigenvalues --   -8.93995  -8.91167  -6.28227  -6.27869  -6.27372
 Alpha  occ. eigenvalues --   -6.25357  -6.25058  -6.24622  -1.66815  -1.62288
 Alpha  occ. eigenvalues --   -1.19372  -1.10060  -1.05332  -1.00945  -0.93243
 Alpha  occ. eigenvalues --   -0.87574  -0.83402  -0.77301  -0.75976  -0.74186
 Alpha  occ. eigenvalues --   -0.72593  -0.71852  -0.70346  -0.67539  -0.65951
 Alpha  occ. eigenvalues --   -0.63577  -0.63081  -0.55965  -0.54199  -0.52973
 Alpha  occ. eigenvalues --   -0.49529  -0.45347  -0.38766  -0.37972  -0.34710
 Alpha virt. eigenvalues --    0.03187   0.03426   0.03723   0.04988   0.05108
 Alpha virt. eigenvalues --    0.06968   0.07527   0.07830   0.08098   0.08852
 Alpha virt. eigenvalues --    0.10070   0.10964   0.12269   0.13094   0.13648

 Mulliken charges:
               1
     1  F   -0.616504
     2  S    0.646158
     3  C    0.365970
     4  C    0.342679
     5  H   -0.468518
     6  C    0.365772
     7  H   -0.462213
     8  F   -0.627847
     9  S    0.669498
    10  C    0.137838
    11  C    0.486469
    12  H   -0.519247
    13  C    0.189910
    14  H   -0.509966
 Sum of Mulliken charges =  -0.00000

 Dipole moment (field-independent basis, Debye):
    X=              1.6831    Y=              1.5630    Z=             -1.6722  Tot=              2.8411

 Test job not archived.
 1\1\GINC-SE162\SP\RHF\Aug-CC-pVDZ\C6H4F2S2\OHZDE\09-Apr-2025\0\\#t hf
 aug-cc-pvdz iop(5/13=1,5/36=2,99/5=2) pseudo=read geom=check guess=(re
 ad,tcheck) scf=(maxcycle=1)\\title\\0,1\F,0,-3.621239,-0.134035,1.1506
 \S,0,-3.127534,-0.14762,-0.46942\C,0,-1.386623,0.008668,-0.276712\C,0,
 -0.791739,1.278445,-0.194668\H,0,-1.417659,2.161291,-0.230154\C,0,-0.5
 73301,-1.132273,-0.230698\H,0,-1.031915,-2.111579,-0.290064\F,0,3.6353
 08,-1.07688,0.117333\S,0,3.112989,0.498178,0.132724\C,0,1.380213,0.251
 626,-0.025736\C,0,0.805398,-1.020067,-0.108441\H,0,1.431927,-1.900307,

 Normal termination of Gaussian 16 at Wed Apr  9 00:23:15 2025.
