 Gaussian 16, Revision C.01,

 ----------------------------------------------------------------------
 #t hf aug-cc-pvdz symm=none int=(grid=ultrafine) guess=(read,tcheck) s
 table=(opt,rrhf)
 ----------------------------------------------------------------------
 -----
 title
 -----
 Symbolic Z-matrix:
 Charge =  0 Multiplicity = 1

 SCF Done:  E(RHF) =  -1390.23262466     A.U. after   13 cycles
 Normal termination of Gaussian 16 at Tue Apr  8 23:37:10 2025.
 Gaussian 16:  ES64L-G16RevC.01  3-Jul-2019

 ----------------------------------------------------------------------
 #t hf aug-cc-pvdz iop(5/13=1,5/36=2,99/5=2) pseudo=read geom=check gue
 ss=(read,tcheck) scf=(maxcycle=1)
 ----------------------------------------------------------------------
 -----
 title
 -----
 Structure from the checkpoint file:  "BDE49_nonexpt_1568_mol1.chk"
 Charge =  0 Multiplicity = 1

                         Standard orientation:
 ---------------------------------------------------------------------
 Center     Atomic      Atomic             Coordinates (Angstroms)
 Number     Number       Type             X           Y           Z
 ---------------------------------------------------------------------
      1         15           0        0.099447   -0.117175    0.873523
      2          7           0       -0.687986    1.338121    0.535641
      3         17           0        1.832184   -0.126284   -0.344723
      4         17           0       -1.114679   -1.381892   -0.276281
      5          8           0       -0.844696    1.792942   -0.799233
      6          1           0       -1.762631    1.572190   -1.001998
      7          1           0       -0.353184    2.114042    1.100602
 ---------------------------------------------------------------------

 SCF Done:  E(RHF) =  -1390.33755379     A.U. after    2 cycles

 The electronic state is 1-A.
 Alpha  occ. eigenvalues -- -103.67511-103.66419 -81.39870 -20.64533 -15.71682
 Alpha  occ. eigenvalues --  -10.70883 -10.69777  -8.36581  -8.36291  -8.36280
 Alpha  occ. eigenvalues --   -8.35467  -8.35188  -8.35173  -7.89008  -5.02808
 Alpha  occ. eigenvalues --   -5.02612  -5.02351  -1.39736  -1.17269  -1.13512
 Alpha  occ. eigenvalues --   -1.10395  -0.80619  -0.73896  -0.69718  -0.64646
 Alpha  occ. eigenvalues --   -0.58233  -0.54830  -0.52339  -0.49959  -0.49027
 Alpha  occ. eigenvalues --   -0.46531  -0.44079  -0.39715
 Alpha virt. eigenvalues --    0.03374   0.04119   0.06518   0.07281   0.08233
 Alpha virt. eigenvalues --    0.10531   0.11644   0.13150   0.13174   0.14834
 Alpha virt. eigenvalues --    0.15492   0.16610   0.16859   0.17930   0.18743

 Mulliken charges:
               1
     1  P    1.174034
     2  N   -0.191638
     3  Cl  -0.413702
     4  Cl  -0.395177
     5  O   -0.474783
     6  H    0.202020
     7  H    0.099246
 Sum of Mulliken charges =   0.00000

 Dipole moment (field-independent basis, Debye):
    X=             -1.6072    Y=              1.6782    Z=              1.6003  Tot=              2.8214

 Test job not archived.
 1\1\GINC-SE165\SP\RHF\Aug-CC-pVDZ\Cl2H2N1O1P1\OHZDE\08-Apr-2025\0\\#t
 hf aug-cc-pvdz iop(5/13=1,5/36=2,99/5=2) pseudo=read geom=check guess=
 (read,tcheck) scf=(maxcycle=1)\\title\\0,1\P,0,0.099447,-0.117175,0.87
 3523\N,0,-0.687987,1.338121,0.535641\Cl,0,1.832184,-0.126283,-0.344723
 \Cl,0,-1.114678,-1.381892,-0.276281\O,0,-0.844697,1.792942,-0.799233\H
 ,0,-1.762632,1.572189,-1.001998\H,0,-0.353185,2.114042,1.100602\\Versi
 on=ES64L-G16RevC.01\State=1-A\HF=-1390.3375538\RMSD=4.051e-03\Dipole=-
 0.6323148,0.6602662,0.6295971\Quadrupole=-0.1764444,0.1405562,0.035888

 Normal termination of Gaussian 16 at Tue Apr  8 23:37:14 2025.
