 Gaussian 16, Revision C.01,

 ----------------------------------------------------------------------
 #t hf aug-cc-pvdz symm=none int=(grid=ultrafine) guess=(read,tcheck) s
 table=(opt,rrhf)
 ----------------------------------------------------------------------
 -----
 title
 -----
 Symbolic Z-matrix:
 Charge =  0 Multiplicity = 1

 SCF Done:  E(RHF) =  -1258.16302131     A.U. after   13 cycles
 Normal termination of Gaussian 16 at Wed Apr  9 00:48:02 2025.
 Gaussian 16:  ES64L-G16RevC.01  3-Jul-2019

 ----------------------------------------------------------------------
 #t hf aug-cc-pvdz iop(5/13=1,5/36=2,99/5=2) pseudo=read geom=check gue
 ss=(read,tcheck) scf=(maxcycle=1)
 ----------------------------------------------------------------------
 -----
 title
 -----
 Structure from the checkpoint file:  "BDE49_nonexpt_894_mol1.chk"
 Charge =  0 Multiplicity = 1

                         Standard orientation:
 ---------------------------------------------------------------------
 Center     Atomic      Atomic             Coordinates (Angstroms)
 Number     Number       Type             X           Y           Z
 ---------------------------------------------------------------------
      1          6           0       -2.515769   -0.053349    0.000010
      2         16           0       -1.035945   -1.135238    0.000015
      3          1           0       -2.541189    0.567813    0.894466
      4          1           0       -3.378244   -0.719110    0.000012
      5          1           0       -2.541189    0.567805   -0.894452
      6          5           0        0.372211   -0.004967    0.000010
      7         16           0        2.064886   -0.680751   -0.000008
      8         16           0        0.129029    1.801028   -0.000014
      9          1           0        1.740152   -1.986425   -0.000001
     10          1           0        1.426504    2.154241   -0.000025
 ---------------------------------------------------------------------

 SCF Done:  E(RHF) =  -1258.23928876     A.U. after    2 cycles

 The electronic state is 1-A.
 Alpha  occ. eigenvalues --  -93.54772 -93.54460 -93.53942 -11.27905  -8.84733
 Alpha  occ. eigenvalues --   -8.84414  -8.83904  -7.69715  -6.18921  -6.18674
 Alpha  occ. eigenvalues --   -6.18599  -6.18408  -6.18353  -6.18093  -6.18055
 Alpha  occ. eigenvalues --   -6.17824  -6.17587  -1.04608  -0.99283  -0.95309
 Alpha  occ. eigenvalues --   -0.87140  -0.65127  -0.61068  -0.60468  -0.56998
 Alpha  occ. eigenvalues --   -0.55489  -0.47710  -0.45012  -0.44729  -0.43449
 Alpha  occ. eigenvalues --   -0.37502  -0.36046
 Alpha virt. eigenvalues --    0.03561   0.04607   0.05166   0.06039   0.06487
 Alpha virt. eigenvalues --    0.07415   0.07864   0.08556   0.09730   0.10148
 Alpha virt. eigenvalues --    0.12074   0.12794   0.13301   0.13520   0.14247

 Mulliken charges:
               1
     1  C    0.039313
     2  S    0.029925
     3  H   -0.095575
     4  H   -0.122060
     5  H   -0.095575
     6  B    0.699909
     7  S   -0.270701
     8  S   -0.174041
     9  H    0.005416
    10  H   -0.016610
 Sum of Mulliken charges =  -0.00000

 Dipole moment (field-independent basis, Debye):
    X=             -1.1047    Y=              0.2833    Z=              0.0000  Tot=              1.1405

 Test job not archived.
 1\1\GINC-SE187\SP\RHF\Aug-CC-pVDZ\C1H5B1S3\OHZDE\09-Apr-2025\0\\#t hf
 aug-cc-pvdz iop(5/13=1,5/36=2,99/5=2) pseudo=read geom=check guess=(re
 ad,tcheck) scf=(maxcycle=1)\\title\\0,1\C,0,-2.515769,-0.053351,0.0000
 1\S,0,-1.035944,-1.135239,0.000015\H,0,-2.541189,0.567811,0.894466\H,0
 ,-3.378244,-0.719112,0.000012\H,0,-2.541189,0.567803,-0.894452\B,0,0.3
 72211,-0.004967,0.00001\S,0,2.064886,-0.68075,-0.000008\S,0,0.129028,1
 .801028,-0.000014\H,0,1.740153,-1.986424,-0.000001\H,0,1.426503,2.1542
 42,-0.000025\\Version=ES64L-G16RevC.01\State=1-A\HF=-1258.2392888\RMSD

 Normal termination of Gaussian 16 at Wed Apr  9 00:48:06 2025.
