 Gaussian 16, Revision C.01,

 ----------------------------------------------------------------------
 #t hf aug-cc-pvdz symm=none int=(grid=ultrafine) guess=(read,tcheck) s
 table=(opt,rrhf)
 ----------------------------------------------------------------------
 -----
 title
 -----
 Symbolic Z-matrix:
 Charge =  0 Multiplicity = 1

 SCF Done:  E(RHF) =  -102.098728926     A.U. after   12 cycles
 Normal termination of Gaussian 16 at Wed Apr  9 00:34:44 2025.
 Gaussian 16:  ES64L-G16RevC.01  3-Jul-2019

 ----------------------------------------------------------------------
 #t hf aug-cc-pvdz iop(5/13=1,5/36=2,99/5=2) pseudo=read geom=check gue
 ss=(read,tcheck) scf=(maxcycle=1)
 ----------------------------------------------------------------------
 -----
 title
 -----
 Structure from the checkpoint file:  "BDE49_nonexpt_486_mol1.chk"
 Charge =  0 Multiplicity = 1

                         Standard orientation:
 ---------------------------------------------------------------------
 Center     Atomic      Atomic             Coordinates (Angstroms)
 Number     Number       Type             X           Y           Z
 ---------------------------------------------------------------------
      1          1           0        1.988695   -1.030705    0.000002
      2          1           0        1.988672    1.030733    0.000002
      3          5           0        1.394295    0.000007   -0.000002
      4          6           0       -0.108015   -0.000010    0.000000
      5          6           0       -1.319526   -0.000017    0.000000
      6          1           0       -2.383590    0.000094    0.000001
 ---------------------------------------------------------------------

 SCF Done:  E(RHF) =  -102.132635228     A.U. after    2 cycles

 The electronic state is 1-A.
 Alpha  occ. eigenvalues --  -11.26664 -11.23771  -7.63862  -1.03097  -0.78764
 Alpha  occ. eigenvalues --   -0.71072  -0.56521  -0.52579  -0.42149  -0.40062
 Alpha virt. eigenvalues --    0.03343   0.03366   0.04895   0.05211   0.06536
 Alpha virt. eigenvalues --    0.06548   0.09782   0.10852   0.12380   0.13763
 Alpha virt. eigenvalues --    0.14264   0.17003   0.18129   0.18869   0.19909

 Mulliken charges:
               1
     1  H    0.188735
     2  H    0.188746
     3  B   -0.449547
     4  C   -0.741770
     5  C    1.202444
     6  H   -0.388607
 Sum of Mulliken charges =   0.00000

 Dipole moment (field-independent basis, Debye):
    X=             -0.7754    Y=              0.0002    Z=             -0.0000  Tot=              0.7754

 Test job not archived.
 1\1\GINC-SE090\SP\RHF\Aug-CC-pVDZ\C2H3B1\OHZDE\09-Apr-2025\0\\#t hf au
 g-cc-pvdz iop(5/13=1,5/36=2,99/5=2) pseudo=read geom=check guess=(read
 ,tcheck) scf=(maxcycle=1)\\title\\0,1\H,0,-1.988695,-1.030705,-0.00000
 2\H,0,-1.988672,1.030733,-0.000002\B,0,-1.394295,0.000007,0.000002\C,0
 ,0.108015,-0.00001,0.\C,0,1.319526,-0.000017,0.\H,0,2.38359,0.000094,-
 0.000001\\Version=ES64L-G16RevC.01\State=1-A\HF=-102.1326352\RMSD=1.05
 1e-02\Dipole=0.3050528,0.0000599,0.0000028\Quadrupole=2.7109582,-2.093
 6174,-0.6173409,0.0002571,-0.0000114,0.\PG=C01 [X(C2H3B1)]\\@

 Normal termination of Gaussian 16 at Wed Apr  9 00:34:46 2025.
