 Gaussian 16, Revision C.01,

 ----------------------------------------------------------------------
 #t hf aug-cc-pvdz symm=none int=(grid=ultrafine) guess=(read,tcheck) s
 table=(opt,rrhf)
 ----------------------------------------------------------------------
 -----
 title
 -----
 Symbolic Z-matrix:
 Charge =  0 Multiplicity = 1

 SCF Done:  E(RHF) =  -840.987700895     A.U. after   17 cycles
 Normal termination of Gaussian 16 at Wed Apr  9 00:22:56 2025.
 Gaussian 16:  ES64L-G16RevC.01  3-Jul-2019

 ----------------------------------------------------------------------
 #t hf aug-cc-pvdz iop(5/13=1,5/36=2,99/5=2) pseudo=read geom=check gue
 ss=(read,tcheck) scf=(maxcycle=1)
 ----------------------------------------------------------------------
 -----
 title
 -----
 Structure from the checkpoint file:  "BDE49_nonexpt_2694_mol1.chk"
 Charge =  0 Multiplicity = 1

                         Standard orientation:
 ---------------------------------------------------------------------
 Center     Atomic      Atomic             Coordinates (Angstroms)
 Number     Number       Type             X           Y           Z
 ---------------------------------------------------------------------
      1          9           0        3.042979   -0.103416   -0.000017
      2         16           0        1.672324   -1.059307   -0.000003
      3          6           0        0.461734    0.229281   -0.000006
      4          6           0       -0.872415   -0.208824    0.000006
      5          6           0       -1.909731    0.715931    0.000005
      6          1           0       -2.940832    0.388037    0.000014
      7          6           0       -1.610023    2.082129   -0.000008
      8          6           0        0.754752    1.586991   -0.000020
      9          1           0        1.787233    1.908354   -0.000029
     10          6           0       -0.289669    2.514256   -0.000021
     11          1           0       -0.061065    3.573291   -0.000031
     12          1           0       -2.420006    2.801812   -0.000009
     13          8           0       -1.000569   -1.570101    0.000017
     14          6           0       -2.304629   -2.139629    0.000041
     15          1           0       -2.159097   -3.218085    0.000054
     16          1           0       -2.862907   -1.846893   -0.895111
     17          1           0       -2.862883   -1.846869    0.895200
 ---------------------------------------------------------------------

 SCF Done:  E(RHF) =  -841.150526385     A.U. after    2 cycles

 The electronic state is 1-A.
 Alpha  occ. eigenvalues --  -93.62391 -26.12514 -20.61956 -11.32901 -11.31178
 Alpha  occ. eigenvalues --  -11.28696 -11.26017 -11.25879 -11.25733 -11.25031
 Alpha  occ. eigenvalues --   -8.91194  -6.25424  -6.25067  -6.24555  -1.63685
 Alpha  occ. eigenvalues --   -1.38859  -1.16143  -1.06331  -1.02951  -0.96793
 Alpha  occ. eigenvalues --   -0.94447  -0.84085  -0.82463  -0.75217  -0.72976
 Alpha  occ. eigenvalues --   -0.72208  -0.70993  -0.68380  -0.68136  -0.65040
 Alpha  occ. eigenvalues --   -0.62991  -0.60685  -0.56446  -0.55613  -0.54316
 Alpha  occ. eigenvalues --   -0.52606  -0.49549  -0.48286  -0.42508  -0.34541
 Alpha  occ. eigenvalues --   -0.31193
 Alpha virt. eigenvalues --    0.02910   0.03732   0.04479   0.05388   0.05564
 Alpha virt. eigenvalues --    0.06433   0.07902   0.08560   0.08742   0.09336
 Alpha virt. eigenvalues --    0.10995   0.11232   0.11980   0.12746   0.12865

 Mulliken charges:
               1
     1  F   -0.654920
     2  S    0.573429
     3  C    0.051658
     4  C    0.032066
     5  C    0.771576
     6  H   -0.713311
     7  C    0.350764
     8  C    0.528730
     9  H   -0.474723
    10  C    0.677507
    11  H   -0.441893
    12  H   -0.448796
    13  O   -0.616509
    14  C    0.833190
    15  H   -0.296981
    16  H   -0.085896
    17  H   -0.085894
 Sum of Mulliken charges =  -0.00000

 Dipole moment (field-independent basis, Debye):
    X=             -4.3578    Y=             -0.0895    Z=              0.0000  Tot=              4.3587

 Test job not archived.
 1\1\GINC-SE460\SP\RHF\Aug-CC-pVDZ\C7H7F1O1S1\OHZDE\09-Apr-2025\0\\#t h
 f aug-cc-pvdz iop(5/13=1,5/36=2,99/5=2) pseudo=read geom=check guess=(
 read,tcheck) scf=(maxcycle=1)\\title\\0,1\F,0,3.042979,-0.103416,-0.00
 0017\S,0,1.672324,-1.059307,-0.000003\C,0,0.461734,0.229281,-0.000006\
 C,0,-0.872415,-0.208824,0.000006\C,0,-1.909731,0.715931,0.000005\H,0,-
 2.940832,0.388037,0.000014\C,0,-1.610023,2.082129,-0.000008\C,0,0.7547
 52,1.586991,-0.00002\H,0,1.787233,1.908354,-0.000029\C,0,-0.289669,2.5
 14256,-0.000021\H,0,-0.061065,3.573291,-0.000031\H,0,-2.420006,2.80181

 Normal termination of Gaussian 16 at Wed Apr  9 00:23:05 2025.
