 Gaussian 16, Revision C.01,

 ----------------------------------------------------------------------
 #t hf aug-cc-pvdz symm=none int=(grid=ultrafine) guess=(read,tcheck) s
 table=(opt,rrhf)
 ----------------------------------------------------------------------
 -----
 title
 -----
 Symbolic Z-matrix:
 Charge =  0 Multiplicity = 1

 SCF Done:  E(RHF) =  -1234.44852459     A.U. after   18 cycles
 Normal termination of Gaussian 16 at Tue Apr  8 23:32:48 2025.
 Gaussian 16:  ES64L-G16RevC.01  3-Jul-2019

 ----------------------------------------------------------------------
 #t hf aug-cc-pvdz iop(5/13=1,5/36=2,99/5=2) pseudo=read geom=check gue
 ss=(read,tcheck) scf=(maxcycle=1)
 ----------------------------------------------------------------------
 -----
 title
 -----
 Structure from the checkpoint file:  "BDE49_nonexpt_1439_mol1.chk"
 Charge =  0 Multiplicity = 1

                         Standard orientation:
 ---------------------------------------------------------------------
 Center     Atomic      Atomic             Coordinates (Angstroms)
 Number     Number       Type             X           Y           Z
 ---------------------------------------------------------------------
      1          6           0        0.103251   -1.889785   -0.035418
      2          6           0        1.447302   -1.537621   -0.019331
      3          6           0        1.846965   -0.195590    0.010472
      4          6           0       -0.887261   -0.909592   -0.020277
      5          6           0       -0.493704    0.432849    0.000307
      6          6           0        0.853329    0.782904    0.004168
      7          1           0        2.194125   -2.323590   -0.043387
      8         15           0        3.658762    0.186848    0.004962
      9          1           0       -0.193034   -2.929818   -0.075200
     10          7           0       -1.461434    1.553258    0.035730
     11          8           0       -1.154850    2.561165   -0.586641
     12          8           0       -2.472302    1.411695    0.702059
     13         17           0       -2.546470   -1.421701   -0.105949
     14          1           0        1.098221    1.836460    0.000218
     15          1           0        3.789958    0.476542    1.389180
     16          1           0        3.547256    1.551918   -0.357083
 ---------------------------------------------------------------------

 SCF Done:  E(RHF) =  -1234.61503989     A.U. after    2 cycles

 The electronic state is 1-A.
 Alpha  occ. eigenvalues -- -103.69093 -81.28487 -20.63042 -20.62685 -15.93166
 Alpha  occ. eigenvalues --  -11.36009 -11.34324 -11.30134 -11.29650 -11.29209
 Alpha  occ. eigenvalues --  -11.29068 -10.72368  -8.38110  -8.37777  -8.37765
 Alpha  occ. eigenvalues --   -7.78830  -4.92905  -4.92746  -4.92536  -1.56228
 Alpha  occ. eigenvalues --   -1.37829  -1.23675  -1.17250  -1.10037  -1.04602
 Alpha  occ. eigenvalues --   -0.96457  -0.88478  -0.85756  -0.81634  -0.76310
 Alpha  occ. eigenvalues --   -0.74924  -0.74168  -0.71105  -0.68802  -0.65574
 Alpha  occ. eigenvalues --   -0.60254  -0.58913  -0.57704  -0.54520  -0.53372
 Alpha  occ. eigenvalues --   -0.52725  -0.51466  -0.49938  -0.49075  -0.47214
 Alpha  occ. eigenvalues --   -0.40164  -0.39243  -0.36085
 Alpha virt. eigenvalues --    0.02635   0.03001   0.03636   0.05021   0.05378
 Alpha virt. eigenvalues --    0.05870   0.07015   0.07844   0.08310   0.09186
 Alpha virt. eigenvalues --    0.10487   0.10854   0.11061   0.11743   0.12929

 Mulliken charges:
               1
     1  C    0.913883
     2  C    0.626668
     3  C   -0.237225
     4  C   -0.512873
     5  C    1.142003
     6  C    0.825460
     7  H   -0.524667
     8  P   -0.146481
     9  H   -0.448250
    10  N    0.061471
    11  O   -0.551348
    12  O   -0.526433
    13  Cl  -0.302908
    14  H   -0.562913
    15  H    0.149057
    16  H    0.094555
 Sum of Mulliken charges =   0.00000

 Dipole moment (field-independent basis, Debye):
    X=              4.0023    Y=             -2.9595    Z=              0.2893  Tot=              4.9861

 Test job not archived.
 1\1\GINC-SE073\SP\RHF\Aug-CC-pVDZ\C6H5Cl1N1O2P1\OHZDE\08-Apr-2025\0\\#
 t hf aug-cc-pvdz iop(5/13=1,5/36=2,99/5=2) pseudo=read geom=check gues
 s=(read,tcheck) scf=(maxcycle=1)\\title\\0,1\C,0,0.103251,-1.889785,-0
 .035418\C,0,1.447302,-1.537621,-0.019331\C,0,1.846965,-0.19559,0.01047
 2\C,0,-0.887261,-0.909592,-0.020277\C,0,-0.493704,0.432849,0.000307\C,
 0,0.853329,0.782904,0.004168\H,0,2.194125,-2.32359,-0.043387\P,0,3.658
 762,0.186848,0.004962\H,0,-0.193034,-2.929818,-0.0752\N,0,-1.461434,1.
 553258,0.03573\O,0,-1.15485,2.561165,-0.586641\O,0,-2.472302,1.411695,

 Normal termination of Gaussian 16 at Tue Apr  8 23:32:58 2025.
