 Gaussian 16, Revision C.01,

 ----------------------------------------------------------------------
 #t hf aug-cc-pvdz symm=none int=(grid=ultrafine) guess=(read,tcheck) s
 table=(opt,rrhf)
 ----------------------------------------------------------------------
 -----
 title
 -----
 Symbolic Z-matrix:
 Charge =  0 Multiplicity = 1

 SCF Done:  E(RHF) =  -1060.65670702     A.U. after   14 cycles
 Normal termination of Gaussian 16 at Tue Apr  8 22:32:23 2025.
 Gaussian 16:  ES64L-G16RevC.01  3-Jul-2019

 ----------------------------------------------------------------------
 #t hf aug-cc-pvdz iop(5/13=1,5/36=2,99/5=2) pseudo=read geom=check gue
 ss=(read,tcheck) scf=(maxcycle=1)
 ----------------------------------------------------------------------
 -----
 title
 -----
 Structure from the checkpoint file:  "BDE49_expt_1043_mol1.chk"
 Charge =  0 Multiplicity = 1

                         Standard orientation:
 ---------------------------------------------------------------------
 Center     Atomic      Atomic             Coordinates (Angstroms)
 Number     Number       Type             X           Y           Z
 ---------------------------------------------------------------------
      1          6           0        0.670787    0.059334    0.000000
      2          6           0       -0.007286   -1.163608    0.000001
      3          6           0       -1.392400   -1.229729    0.000001
      4          6           0       -2.133266   -0.052397    0.000000
      5          6           0       -1.483816    1.174173   -0.000001
      6          6           0       -0.092354    1.227906   -0.000001
      7          9           0        0.465402    2.438094   -0.000002
      8          9           0       -3.461651   -0.103397    0.000000
      9          9           0       -2.194805    2.302046   -0.000002
     10          9           0        0.677438   -2.308702    0.000002
     11          9           0       -2.014222   -2.408487    0.000002
     12          6           0        2.185730    0.037694    0.000000
     13          9           0        2.722750    1.263715   -0.000003
     14          9           0        2.653412   -0.609429   -1.085343
     15          9           0        2.653412   -0.609423    1.085346
 ---------------------------------------------------------------------

 SCF Done:  E(RHF) =  -1061.02357680     A.U. after    2 cycles

 The electronic state is 1-A.
 Alpha  occ. eigenvalues --  -26.20048 -26.19456 -26.19315 -26.19256 -26.19170
 Alpha  occ. eigenvalues --  -26.18828 -26.18470 -26.18461 -11.56520 -11.41990
 Alpha  occ. eigenvalues --  -11.41911 -11.41705 -11.40502 -11.40436 -11.33773
 Alpha  occ. eigenvalues --   -1.78416  -1.74622  -1.73984  -1.73758  -1.72921
 Alpha  occ. eigenvalues --   -1.72689  -1.71300  -1.70962  -1.24672  -1.14065
 Alpha  occ. eigenvalues --   -1.10975  -1.05033  -0.98121  -0.97655  -0.91106
 Alpha  occ. eigenvalues --   -0.90342  -0.90099  -0.89647  -0.88402  -0.84867
 Alpha  occ. eigenvalues --   -0.83715  -0.83104  -0.83051  -0.81788  -0.81563
 Alpha  occ. eigenvalues --   -0.80937  -0.79720  -0.79240  -0.79218  -0.78764
 Alpha  occ. eigenvalues --   -0.77530  -0.77317  -0.74638  -0.74451  -0.73552
 Alpha  occ. eigenvalues --   -0.72219  -0.69597  -0.65222  -0.63016  -0.57638
 Alpha  occ. eigenvalues --   -0.42347  -0.40755
 Alpha virt. eigenvalues --    0.04609   0.05121   0.06632   0.06793   0.07742
 Alpha virt. eigenvalues --    0.07953   0.08370   0.09036   0.10236   0.11110
 Alpha virt. eigenvalues --    0.11271   0.12256   0.12390   0.14228   0.14816

 Mulliken charges:
               1
     1  C    0.328196
     2  C   -0.187481
     3  C    0.154396
     4  C    0.467722
     5  C    0.135897
     6  C    0.518929
     7  F   -0.238459
     8  F   -0.241428
     9  F   -0.223420
    10  F   -0.236702
    11  F   -0.212725
    12  C    0.619630
    13  F   -0.269893
    14  F   -0.307331
    15  F   -0.307330
 Sum of Mulliken charges =  -0.00000

 Dipole moment (field-independent basis, Debye):
    X=             -0.9583    Y=              0.1420    Z=              0.0000  Tot=              0.9687

 Test job not archived.
 1\1\GINC-SE102\SP\RHF\Aug-CC-pVDZ\C7F8\OHZDE\08-Apr-2025\0\\#t hf aug-
 cc-pvdz iop(5/13=1,5/36=2,99/5=2) pseudo=read geom=check guess=(read,t
 check) scf=(maxcycle=1)\\title\\0,1\C,0,0.670787,0.059334,0.\C,0,-0.00
 7286,-1.163608,0.000001\C,0,-1.3924,-1.229729,0.000001\C,0,-2.133266,-
 0.052397,0.\C,0,-1.483816,1.174173,-0.000001\C,0,-0.092354,1.227906,-0
 .000001\F,0,0.465401,2.438094,-0.000002\F,0,-3.461651,-0.103398,0.\F,0
 ,-2.194806,2.302046,-0.000002\F,0,0.677438,-2.308702,0.000002\F,0,-2.0
 14222,-2.408487,0.000002\C,0,2.18573,0.037694,0.\F,0,2.72275,1.263715,

 Normal termination of Gaussian 16 at Tue Apr  8 22:32:35 2025.
