 Gaussian 16, Revision C.01,

 ----------------------------------------------------------------------
 #t hf aug-cc-pvdz symm=none int=(grid=ultrafine) guess=(read,tcheck) s
 table=(opt,rrhf)
 ----------------------------------------------------------------------
 -----
 title
 -----
 Symbolic Z-matrix:
 Charge =  0 Multiplicity = 1

 SCF Done:  E(RHF) =  -293.417711672     A.U. after   13 cycles
 Normal termination of Gaussian 16 at Wed Apr  9 00:24:18 2025.
 Gaussian 16:  ES64L-G16RevC.01  3-Jul-2019

 ----------------------------------------------------------------------
 #t hf aug-cc-pvdz iop(5/13=1,5/36=2,99/5=2) pseudo=read geom=check gue
 ss=(read,tcheck) scf=(maxcycle=1)
 ----------------------------------------------------------------------
 -----
 title
 -----
 Structure from the checkpoint file:  "BDE49_nonexpt_276_mol1.chk"
 Charge =  0 Multiplicity = 1

                         Standard orientation:
 ---------------------------------------------------------------------
 Center     Atomic      Atomic             Coordinates (Angstroms)
 Number     Number       Type             X           Y           Z
 ---------------------------------------------------------------------
      1          6           0        0.716690   -0.154084   -0.385317
      2          5           0       -0.826102    0.052953   -0.079087
      3          8           0       -1.375612    1.219134    0.393766
      4          8           0       -1.677905   -0.993125   -0.294102
      5          6           0        1.285500   -1.330503    0.437646
      6          1           0        0.698637   -2.238267    0.284405
      7          1           0        1.274935   -1.105571    1.509850
      8          6           0        1.567294    1.114297   -0.203626
      9          1           0        0.773474   -0.447932   -1.443149
     10          1           0        1.557512    1.458120    0.838245
     11          1           0        1.217177    1.938893   -0.834196
     12          1           0        2.614656    0.934362   -0.464490
     13          1           0        2.322653   -1.542901    0.158177
     14          1           0       -0.729728    1.916796    0.531386
     15          1           0       -2.587574   -0.764584   -0.074323
 ---------------------------------------------------------------------

 SCF Done:  E(RHF) =  -293.517340947     A.U. after    2 cycles

 The electronic state is 1-A.
 Alpha  occ. eigenvalues --  -20.58144 -20.57206 -11.23172 -11.22325 -11.21623
 Alpha  occ. eigenvalues --   -7.64809  -1.34106  -1.30201  -1.04577  -0.92677
 Alpha  occ. eigenvalues --   -0.81747  -0.76923  -0.73343  -0.65231  -0.61243
 Alpha  occ. eigenvalues --   -0.58560  -0.57784  -0.57527  -0.55124  -0.53692
 Alpha  occ. eigenvalues --   -0.51805  -0.47902  -0.47625  -0.44044
 Alpha virt. eigenvalues --    0.02986   0.04592   0.04853   0.04890   0.06450
 Alpha virt. eigenvalues --    0.06883   0.07241   0.07310   0.07450   0.09247
 Alpha virt. eigenvalues --    0.09849   0.10916   0.11744   0.14004   0.15427

 Mulliken charges:
               1
     1  C   -0.428936
     2  B    0.896521
     3  O   -0.422628
     4  O   -0.584684
     5  C    0.493949
     6  H   -0.126316
     7  H   -0.105736
     8  C    0.467112
     9  H   -0.137388
    10  H   -0.043415
    11  H   -0.122580
    12  H   -0.157322
    13  H   -0.082273
    14  H    0.175810
    15  H    0.177885
 Sum of Mulliken charges =  -0.00000

 Dipole moment (field-independent basis, Debye):
    X=              0.7057    Y=              1.2500    Z=              0.2323  Tot=              1.4541

 Test job not archived.
 1\1\GINC-SE229\SP\RHF\Aug-CC-pVDZ\C3H9B1O2\OHZDE\09-Apr-2025\0\\#t hf
 aug-cc-pvdz iop(5/13=1,5/36=2,99/5=2) pseudo=read geom=check guess=(re
 ad,tcheck) scf=(maxcycle=1)\\title\\0,1\C,0,0.71669,-0.154084,-0.38531
 7\B,0,-0.826102,0.052953,-0.079087\O,0,-1.375612,1.219134,0.393766\O,0
 ,-1.677905,-0.993125,-0.294102\C,0,1.2855,-1.330503,0.437646\H,0,0.698
 637,-2.238267,0.284405\H,0,1.274935,-1.105571,1.50985\C,0,1.567294,1.1
 14297,-0.203626\H,0,0.773474,-0.447932,-1.443149\H,0,1.557512,1.45812,
 0.838245\H,0,1.217177,1.938893,-0.834196\H,0,2.614656,0.934362,-0.4644

 Normal termination of Gaussian 16 at Wed Apr  9 00:24:24 2025.
