 Gaussian 16, Revision C.01,

 ----------------------------------------------------------------------
 #t hf aug-cc-pvdz symm=none int=(grid=ultrafine) guess=(read,tcheck) s
 table=(opt,rrhf)
 ----------------------------------------------------------------------
 -----
 title
 -----
 Symbolic Z-matrix:
 Charge =  0 Multiplicity = 1

 SCF Done:  E(RHF) =  -667.292198961     A.U. after   15 cycles
 Normal termination of Gaussian 16 at Tue Apr  8 22:46:16 2025.
 Gaussian 16:  ES64L-G16RevC.01  3-Jul-2019

 ----------------------------------------------------------------------
 #t hf aug-cc-pvdz iop(5/13=1,5/36=2,99/5=2) pseudo=read geom=check gue
 ss=(read,tcheck) scf=(maxcycle=1)
 ----------------------------------------------------------------------
 -----
 title
 -----
 Structure from the checkpoint file:  "BDE49_expt_1578_mol1.chk"
 Charge =  0 Multiplicity = 1

                         Standard orientation:
 ---------------------------------------------------------------------
 Center     Atomic      Atomic             Coordinates (Angstroms)
 Number     Number       Type             X           Y           Z
 ---------------------------------------------------------------------
      1          6           0        2.721496    0.858812    0.000007
      2         16           0        1.821948   -0.718051   -0.000009
      3          1           0        2.506462    1.442835   -0.895933
      4          1           0        2.506447    1.442823    0.895952
      5          6           0        0.111366   -0.228577   -0.000002
      6          6           0       -0.333971    1.096512   -0.000003
      7          6           0       -1.700943    1.374373    0.000001
      8          6           0       -0.833449   -1.265789    0.000003
      9          6           0       -2.191911   -0.978254    0.000006
     10          6           0       -2.635916    0.344865    0.000005
     11          1           0       -3.696525    0.566865    0.000008
     12          1           0       -2.029890    2.407815   -0.000000
     13          1           0        0.370368    1.917646   -0.000007
     14          1           0       -0.498402   -2.297404    0.000005
     15          1           0       -2.907965   -1.792571    0.000010
     16          1           0        3.778308    0.589160    0.000014
 ---------------------------------------------------------------------

 SCF Done:  E(RHF) =  -667.394141348     A.U. after    2 cycles

 The electronic state is 1-A.
 Alpha  occ. eigenvalues --  -93.53950 -11.28249 -11.27242 -11.25128 -11.25060
 Alpha  occ. eigenvalues --  -11.24869 -11.24733 -11.24367  -8.83714  -6.17909
 Alpha  occ. eigenvalues --   -6.17675  -6.17304  -1.15262  -1.05970  -1.01600
 Alpha  occ. eigenvalues --   -0.99332  -0.88045  -0.83338  -0.79212  -0.70417
 Alpha  occ. eigenvalues --   -0.64053  -0.63542  -0.61096  -0.60061  -0.59291
 Alpha  occ. eigenvalues --   -0.55219  -0.51861  -0.50971  -0.49353  -0.44463
 Alpha  occ. eigenvalues --   -0.40114  -0.34654  -0.30023
 Alpha virt. eigenvalues --    0.03358   0.03785   0.04272   0.05406   0.05893
 Alpha virt. eigenvalues --    0.06007   0.07258   0.09125   0.10021   0.10282
 Alpha virt. eigenvalues --    0.10677   0.11624   0.12603   0.13807   0.14021

 Mulliken charges:
               1
     1  C    0.135597
     2  S    0.273960
     3  H   -0.003467
     4  H   -0.003466
     5  C    0.460651
     6  C    0.255886
     7  C    0.739755
     8  C   -0.211408
     9  C    0.716597
    10  C    0.390189
    11  H   -0.441826
    12  H   -0.450652
    13  H   -0.699474
    14  H   -0.517011
    15  H   -0.437028
    16  H   -0.208304
 Sum of Mulliken charges =  -0.00000

 Dipole moment (field-independent basis, Debye):
    X=             -0.0052    Y=              1.4808    Z=              0.0000  Tot=              1.4808

 Test job not archived.
 1\1\GINC-SE227\SP\RHF\Aug-CC-pVDZ\C7H8S1\OHZDE\08-Apr-2025\0\\#t hf au
 g-cc-pvdz iop(5/13=1,5/36=2,99/5=2) pseudo=read geom=check guess=(read
 ,tcheck) scf=(maxcycle=1)\\title\\0,1\C,0,2.721496,0.858812,0.000007\S
 ,0,1.821948,-0.718051,-0.000009\H,0,2.506462,1.442835,-0.895933\H,0,2.
 506447,1.442823,0.895952\C,0,0.111366,-0.228577,-0.000002\C,0,-0.33397
 1,1.096512,-0.000003\C,0,-1.700943,1.374373,0.000001\C,0,-0.833449,-1.
 265789,0.000003\C,0,-2.191911,-0.978254,0.000006\C,0,-2.635916,0.34486
 5,0.000005\H,0,-3.696525,0.566865,0.000008\H,0,-2.02989,2.407815,0.\H,

 Normal termination of Gaussian 16 at Tue Apr  8 22:46:23 2025.
