 Gaussian 16, Revision C.01,

 ----------------------------------------------------------------------
 #t hf aug-cc-pvdz symm=none int=(grid=ultrafine) guess=(read,tcheck) s
 table=(opt,rrhf)
 ----------------------------------------------------------------------
 -----
 title
 -----
 Symbolic Z-matrix:
 Charge =  0 Multiplicity = 1

 SCF Done:  E(RHF) =  -894.248548019     A.U. after   15 cycles
 Normal termination of Gaussian 16 at Tue Apr  8 23:24:06 2025.
 Gaussian 16:  ES64L-G16RevC.01  3-Jul-2019

 ----------------------------------------------------------------------
 #t hf aug-cc-pvdz iop(5/13=1,5/36=2,99/5=2) pseudo=read geom=check gue
 ss=(read,tcheck) scf=(maxcycle=1)
 ----------------------------------------------------------------------
 -----
 title
 -----
 Structure from the checkpoint file:  "BDE49_nonexpt_1196_mol1.chk"
 Charge =  0 Multiplicity = 1

                         Standard orientation:
 ---------------------------------------------------------------------
 Center     Atomic      Atomic             Coordinates (Angstroms)
 Number     Number       Type             X           Y           Z
 ---------------------------------------------------------------------
      1          6           0        2.372232    0.813687   -0.106459
      2          8           0        1.561213    1.589369   -0.511803
      3          8           0        2.267520   -0.564419   -0.243166
      4         16           0        0.847367   -1.183534   -0.923486
      5          6           0       -0.257878   -1.002298    0.487454
      6          8           0        0.095746   -0.498627    1.517858
      7          6           0        3.645806    1.129842    0.630167
      8          1           0        3.821661    2.202921    0.596110
      9          1           0        4.486733    0.586380    0.197375
     10          1           0        3.536702    0.805182    1.667662
     11          6           0       -1.650128   -1.526757    0.194105
     12          6           0       -2.728001   -0.466480    0.483463
     13          1           0       -1.796603   -2.399740    0.839267
     14          1           0       -1.714870   -1.875253   -0.843490
     15          6           0       -2.680020    0.736993   -0.465290
     16          1           0       -2.604402   -0.128647    1.516861
     17          1           0       -3.709851   -0.948019    0.421338
     18          6           0       -3.762276    1.774429   -0.155411
     19          1           0       -2.792900    0.387103   -1.498766
     20          1           0       -1.694292    1.210890   -0.408822
     21          1           0       -4.764365    1.341464   -0.237490
     22          1           0       -3.707688    2.620145   -0.845451
     23          1           0       -3.652242    2.167046    0.859905
 ---------------------------------------------------------------------

 SCF Done:  E(RHF) =  -894.428911458     A.U. after    2 cycles

 The electronic state is 1-A.
 Alpha  occ. eigenvalues --  -93.61363 -20.64320 -20.58483 -20.57488 -11.40816
 Alpha  occ. eigenvalues --  -11.38512 -11.26817 -11.25774 -11.24600 -11.23300
 Alpha  occ. eigenvalues --  -11.22494  -8.90537  -6.24775  -6.24374  -6.24042
 Alpha  occ. eigenvalues --   -1.42497  -1.38205  -1.33800  -1.09221  -1.04661
 Alpha  occ. eigenvalues --   -1.01711  -0.97085  -0.89587  -0.82417  -0.79389
 Alpha  occ. eigenvalues --   -0.74471  -0.71202  -0.70033  -0.68327  -0.66518
 Alpha  occ. eigenvalues --   -0.63551  -0.62621  -0.61950  -0.59260  -0.59095
 Alpha  occ. eigenvalues --   -0.56942  -0.55669  -0.54858  -0.53841  -0.52518
 Alpha  occ. eigenvalues --   -0.51483  -0.48855  -0.47813  -0.47623  -0.47394
 Alpha  occ. eigenvalues --   -0.41974  -0.39270
 Alpha virt. eigenvalues --    0.03324   0.03976   0.04345   0.04861   0.05739
 Alpha virt. eigenvalues --    0.06009   0.06353   0.06652   0.07223   0.07838
 Alpha virt. eigenvalues --    0.08352   0.09329   0.10164   0.10467   0.11394

 Mulliken charges:
               1
     1  C    0.376698
     2  O   -0.402835
     3  O   -0.842081
     4  S    0.738081
     5  C    0.108538
     6  O   -0.583697
     7  C    0.241332
     8  H    0.003443
     9  H    0.012226
    10  H    0.068554
    11  C    0.327258
    12  C    0.198457
    13  H    0.069922
    14  H   -0.103687
    15  C    0.147854
    16  H   -0.142517
    17  H   -0.122302
    18  C    0.429974
    19  H   -0.139233
    20  H   -0.181241
    21  H   -0.086627
    22  H   -0.055131
    23  H   -0.062985
 Sum of Mulliken charges =  -0.00000

 Dipole moment (field-independent basis, Debye):
    X=             -0.3703    Y=             -1.6705    Z=             -0.6527  Tot=              1.8313

 Test job not archived.
 1\1\GINC-SE329\SP\RHF\Aug-CC-pVDZ\C7H12O3S1\OHZDE\08-Apr-2025\0\\#t hf
  aug-cc-pvdz iop(5/13=1,5/36=2,99/5=2) pseudo=read geom=check guess=(r
 ead,tcheck) scf=(maxcycle=1)\\title\\0,1\C,0,2.372232,0.813687,-0.1064
 59\O,0,1.561213,1.589369,-0.511803\O,0,2.26752,-0.564419,-0.243166\S,0
 ,0.847367,-1.183534,-0.923486\C,0,-0.257878,-1.002298,0.487454\O,0,0.0
 95746,-0.498627,1.517858\C,0,3.645806,1.129842,0.630167\H,0,3.821661,2
 .202921,0.59611\H,0,4.486733,0.58638,0.197375\H,0,3.536702,0.805182,1.
 667662\C,0,-1.650128,-1.526757,0.194105\C,0,-2.728001,-0.46648,0.48346

 Normal termination of Gaussian 16 at Tue Apr  8 23:24:21 2025.
