 Gaussian 16, Revision C.01,

 ----------------------------------------------------------------------
 #t hf aug-cc-pvdz symm=none int=(grid=ultrafine) guess=(read,tcheck) s
 table=(opt,rrhf)
 ----------------------------------------------------------------------
 -----
 title
 -----
 Symbolic Z-matrix:
 Charge =  0 Multiplicity = 1

 SCF Done:  E(RHF) =  -572.331336689     A.U. after   15 cycles
 Normal termination of Gaussian 16 at Tue Apr  8 23:27:22 2025.
 Gaussian 16:  ES64L-G16RevC.01  3-Jul-2019

 ----------------------------------------------------------------------
 #t hf aug-cc-pvdz iop(5/13=1,5/36=2,99/5=2) pseudo=read geom=check gue
 ss=(read,tcheck) scf=(maxcycle=1)
 ----------------------------------------------------------------------
 -----
 title
 -----
 Structure from the checkpoint file:  "BDE49_nonexpt_1344_mol1.chk"
 Charge =  0 Multiplicity = 1

                         Standard orientation:
 ---------------------------------------------------------------------
 Center     Atomic      Atomic             Coordinates (Angstroms)
 Number     Number       Type             X           Y           Z
 ---------------------------------------------------------------------
      1          6           0        2.541693    0.176106    0.808054
      2          6           0        1.973963   -0.366473   -0.507015
      3          1           0        1.978576    1.046864    1.149976
      4          1           0        3.583727    0.482244    0.685472
      5          1           0        2.510083   -0.582795    1.596586
      6          6           0        0.523750   -0.848295   -0.394938
      7          1           0        2.588132   -1.202711   -0.856275
      8          1           0        2.026330    0.408431   -1.276398
      9          6           0       -0.498677    0.269825   -0.235836
     10          1           0        0.399968   -1.555192    0.435577
     11          1           0        0.228168   -1.402841   -1.295390
     12          8           0       -0.242502    1.434531   -0.417097
     13         15           0       -2.222497   -0.215199    0.384817
     14          1           0       -2.360562   -1.418041   -0.352555
     15          1           0       -2.921327    0.588801   -0.544058
 ---------------------------------------------------------------------

 SCF Done:  E(RHF) =  -572.424217347     A.U. after    2 cycles

 The electronic state is 1-A.
 Alpha  occ. eigenvalues --  -81.27128 -20.57616 -11.35581 -11.25697 -11.23923
 Alpha  occ. eigenvalues --  -11.22483  -7.77602  -4.91566  -4.91547  -4.91219
 Alpha  occ. eigenvalues --   -1.36731  -1.07079  -0.97015  -0.86592  -0.80883
 Alpha  occ. eigenvalues --   -0.73393  -0.66779  -0.63687  -0.62113  -0.59088
 Alpha  occ. eigenvalues --   -0.56497  -0.54079  -0.52917  -0.49792  -0.49021
 Alpha  occ. eigenvalues --   -0.48578  -0.42034  -0.36542
 Alpha virt. eigenvalues --    0.03114   0.04279   0.04821   0.05122   0.06403
 Alpha virt. eigenvalues --    0.06988   0.07057   0.07802   0.08309   0.09558
 Alpha virt. eigenvalues --    0.10519   0.10898   0.11503   0.13192   0.14327

 Mulliken charges:
               1
     1  C    0.340316
     2  C    0.346385
     3  H   -0.088803
     4  H   -0.074972
     5  H   -0.067980
     6  C   -0.067180
     7  H   -0.069908
     8  H   -0.084891
     9  C    0.038276
    10  H   -0.056522
    11  H   -0.003774
    12  O   -0.524770
    13  P    0.022352
    14  H    0.131695
    15  H    0.159775
 Sum of Mulliken charges =   0.00000

 Dipole moment (field-independent basis, Debye):
    X=             -0.0469    Y=             -2.9830    Z=             -0.3447  Tot=              3.0032

 Test job not archived.
 1\1\GINC-SE435\SP\RHF\Aug-CC-pVDZ\C4H9O1P1\OHZDE\08-Apr-2025\0\\#t hf
 aug-cc-pvdz iop(5/13=1,5/36=2,99/5=2) pseudo=read geom=check guess=(re
 ad,tcheck) scf=(maxcycle=1)\\title\\0,1\C,0,2.541693,0.176106,0.808054
 \C,0,1.973963,-0.366473,-0.507015\H,0,1.978576,1.046864,1.149976\H,0,3
 .583727,0.482244,0.685472\H,0,2.510083,-0.582795,1.596586\C,0,0.52375,
 -0.848295,-0.394938\H,0,2.588132,-1.202711,-0.856275\H,0,2.02633,0.408
 431,-1.276398\C,0,-0.498677,0.269825,-0.235836\H,0,0.399968,-1.555192,
 0.435577\H,0,0.228168,-1.402841,-1.29539\O,0,-0.242502,1.434531,-0.417

 Normal termination of Gaussian 16 at Tue Apr  8 23:27:27 2025.
