 Gaussian 16, Revision C.01,

 ----------------------------------------------------------------------
 #t hf aug-cc-pvdz symm=none int=(grid=ultrafine) guess=(read,tcheck) s
 table=(opt,rrhf)
 ----------------------------------------------------------------------
 -----
 title
 -----
 Symbolic Z-matrix:
 Charge =  0 Multiplicity = 1

 SCF Done:  E(RHF) =  -525.276864505     A.U. after   15 cycles
 Normal termination of Gaussian 16 at Tue Apr  8 22:37:27 2025.
 Gaussian 16:  ES64L-G16RevC.01  3-Jul-2019

 ----------------------------------------------------------------------
 #t hf aug-cc-pvdz iop(5/13=1,5/36=2,99/5=2) pseudo=read geom=check gue
 ss=(read,tcheck) scf=(maxcycle=1)
 ----------------------------------------------------------------------
 -----
 title
 -----
 Structure from the checkpoint file:  "BDE49_expt_1214_mol1.chk"
 Charge =  0 Multiplicity = 1

                         Standard orientation:
 ---------------------------------------------------------------------
 Center     Atomic      Atomic             Coordinates (Angstroms)
 Number     Number       Type             X           Y           Z
 ---------------------------------------------------------------------
      1          6           0        0.000004    0.555940    0.000009
      2          7           0       -1.203748   -0.405097   -0.185287
      3          8           0       -2.186262   -0.213682    0.502800
      4          8           0       -1.076810   -1.250479   -1.050656
      5          6           0       -0.143337    1.363671    1.274306
      6          7           0        1.203718   -0.405160    0.185228
      7          8           0        2.186278   -0.213668   -0.502774
      8          8           0        1.076775   -1.250562    1.050578
      9          1           0       -0.279738    0.707405    2.131677
     10          1           0       -1.003306    2.027228    1.194023
     11          1           0        0.757685    1.964522    1.415926
     12          6           0        0.143372    1.363766   -1.274225
     13          1           0       -0.757628    1.964665   -1.415793
     14          1           0        0.279743    0.707562   -2.131648
     15          1           0        1.003367    2.027282   -1.193893
 ---------------------------------------------------------------------

 SCF Done:  E(RHF) =  -525.436912404     A.U. after    2 cycles

 The electronic state is 1-A.
 Alpha  occ. eigenvalues --  -20.64963 -20.64963 -20.64505 -20.64504 -15.94240
 Alpha  occ. eigenvalues --  -15.94237 -11.41465 -11.28634 -11.28627  -1.58815
 Alpha  occ. eigenvalues --   -1.57279  -1.40033  -1.39874  -1.18959  -1.00455
 Alpha  occ. eigenvalues --   -0.99064  -0.96209  -0.84113  -0.82216  -0.77088
 Alpha  occ. eigenvalues --   -0.76798  -0.75940  -0.73573  -0.71331  -0.63670
 Alpha  occ. eigenvalues --   -0.62274  -0.61961  -0.60552  -0.56507  -0.54662
 Alpha  occ. eigenvalues --   -0.53973  -0.52505  -0.51402  -0.50072  -0.49424
 Alpha virt. eigenvalues --    0.02492   0.03642   0.04244   0.04968   0.05994
 Alpha virt. eigenvalues --    0.06109   0.07024   0.07584   0.09528   0.11628
 Alpha virt. eigenvalues --    0.12679   0.13334   0.13714   0.14457   0.15108

 Mulliken charges:
               1
     1  C   -0.699970
     2  N    0.363828
     3  O   -0.549579
     4  O   -0.560449
     5  C    0.814651
     6  N    0.363822
     7  O   -0.549582
     8  O   -0.560450
     9  H    0.079082
    10  H    0.146079
    11  H    0.056396
    12  C    0.814622
    13  H    0.056395
    14  H    0.079075
    15  H    0.146080
 Sum of Mulliken charges =  -0.00000

 Dipole moment (field-independent basis, Debye):
    X=             -0.0000    Y=              5.2757    Z=              0.0001  Tot=              5.2757

 Test job not archived.
 1\1\GINC-SE029\SP\RHF\Aug-CC-pVDZ\C3H6N2O4\OHZDE\08-Apr-2025\0\\#t hf
 aug-cc-pvdz iop(5/13=1,5/36=2,99/5=2) pseudo=read geom=check guess=(re
 ad,tcheck) scf=(maxcycle=1)\\title\\0,1\C,0,0.000004,0.55594,0.000009\
 N,0,-1.203748,-0.405096,-0.185287\O,0,-2.186262,-0.213681,0.5028\O,0,-
 1.07681,-1.250479,-1.050656\C,0,-0.143337,1.363671,1.274306\N,0,1.2037
 18,-0.40516,0.185228\O,0,2.186278,-0.213669,-0.502774\O,0,1.076775,-1.
 250562,1.050578\H,0,-0.279738,0.707405,2.131677\H,0,-1.003305,2.027228
 ,1.194023\H,0,0.757686,1.964522,1.415926\C,0,0.143372,1.363766,-1.2742

 Normal termination of Gaussian 16 at Tue Apr  8 22:37:33 2025.
