 Gaussian 16, Revision C.01,

 ----------------------------------------------------------------------
 #t hf aug-cc-pvdz symm=none int=(grid=ultrafine) guess=(read,tcheck) s
 table=(opt,rrhf)
 ----------------------------------------------------------------------
 -----
 title
 -----
 Symbolic Z-matrix:
 Charge =  0 Multiplicity = 1

 SCF Done:  E(RHF) =  -175.665143368     A.U. after   12 cycles
 Normal termination of Gaussian 16 at Tue Apr  8 22:43:27 2025.
 Gaussian 16:  ES64L-G16RevC.01  3-Jul-2019

 ----------------------------------------------------------------------
 #t hf aug-cc-pvdz iop(5/13=1,5/36=2,99/5=2) pseudo=read geom=check gue
 ss=(read,tcheck) scf=(maxcycle=1)
 ----------------------------------------------------------------------
 -----
 title
 -----
 Structure from the checkpoint file:  "BDE49_expt_1507_mol1.chk"
 Charge =  0 Multiplicity = 1

                         Standard orientation:
 ---------------------------------------------------------------------
 Center     Atomic      Atomic             Coordinates (Angstroms)
 Number     Number       Type             X           Y           Z
 ---------------------------------------------------------------------
      1          6           0        0.000000    0.000000   -0.095222
      2          9           0        0.000000    0.000000    1.183547
      3          6           0        0.000000    0.000000   -1.288535
      4          1           0        0.000000    0.000000   -2.349376
 ---------------------------------------------------------------------

 SCF Done:  E(RHF) =  -175.730844961     A.U. after    2 cycles

 The electronic state is 1-SG.
 Alpha  occ. eigenvalues --  -26.21058 -11.35636 -11.26240  -1.75596  -1.05769
 Alpha  occ. eigenvalues --   -0.91236  -0.81992  -0.81992  -0.72857  -0.42709
 Alpha  occ. eigenvalues --   -0.42709
 Alpha virt. eigenvalues --    0.03352   0.06621   0.11107   0.11107   0.11929
 Alpha virt. eigenvalues --    0.11929   0.13221   0.15257   0.21460   0.23835
 Alpha virt. eigenvalues --    0.23835   0.29396   0.31123   0.31834   0.31834

 Mulliken charges:
               1
     1  C   -0.435859
     2  F   -0.207861
     3  C    0.954399
     4  H   -0.310680
 Sum of Mulliken charges =   0.00000

 Dipole moment (field-independent basis, Debye):
    X=             -0.0000    Y=             -0.0000    Z=             -1.2032  Tot=              1.2032

 Test job not archived.
 1\1\GINC-SE083\SP\RHF\Aug-CC-pVDZ\C2H1F1\OHZDE\08-Apr-2025\0\\#t hf au
 g-cc-pvdz iop(5/13=1,5/36=2,99/5=2) pseudo=read geom=check guess=(read
 ,tcheck) scf=(maxcycle=1)\\title\\0,1\C,0,0.,0.,-0.095222\F,0,0.,0.,1.
 183547\C,0,0.,0.,-1.288535\H,0,0.,0.,-2.349376\\Version=ES64L-G16RevC.
 01\State=1-SG\HF=-175.730845\RMSD=1.492e-02\Dipole=0.,0.,-0.4733779\Qu
 adrupole=-1.0659568,-1.0659568,2.1319135,0.,0.,0.\PG=C*V [C*(H1C1C1F1)
 ]\\@

 Normal termination of Gaussian 16 at Tue Apr  8 22:43:31 2025.
