 Gaussian 16, Revision C.01,

 ----------------------------------------------------------------------
 #t hf aug-cc-pvdz symm=none int=(grid=ultrafine) guess=(read,tcheck) s
 table=(opt,rrhf)
 ----------------------------------------------------------------------
 -----
 title
 -----
 Symbolic Z-matrix:
 Charge =  0 Multiplicity = 1

 SCF Done:  E(RHF) =  -321.786471085     A.U. after   15 cycles
 Normal termination of Gaussian 16 at Tue Apr  8 22:50:49 2025.
 Gaussian 16:  ES64L-G16RevC.01  3-Jul-2019

 ----------------------------------------------------------------------
 #t hf aug-cc-pvdz iop(5/13=1,5/36=2,99/5=2) pseudo=read geom=check gue
 ss=(read,tcheck) scf=(maxcycle=1)
 ----------------------------------------------------------------------
 -----
 title
 -----
 Structure from the checkpoint file:  "BDE49_expt_1780_mol1.chk"
 Charge =  0 Multiplicity = 1

                         Standard orientation:
 ---------------------------------------------------------------------
 Center     Atomic      Atomic             Coordinates (Angstroms)
 Number     Number       Type             X           Y           Z
 ---------------------------------------------------------------------
      1          8           0       -0.503418   -0.488365   -0.452990
      2          7           0       -1.874059   -0.606148   -0.191655
      3          8           0       -2.340099    0.289223    0.421525
      4          6           0        0.158005    0.697227    0.056450
      5          6           0        1.628903    0.584483   -0.310297
      6          1           0        0.007805    0.747476    1.139536
      7          1           0       -0.310589    1.579177   -0.389306
      8          6           0        2.341915   -0.590752    0.363606
      9          1           0        2.108115    1.528146   -0.026477
     10          1           0        1.714250    0.505758   -1.398431
     11          1           0        2.303559   -0.502217    1.453672
     12          1           0        3.393277   -0.629155    0.069228
     13          1           0        1.877193   -1.538755    0.086519
 ---------------------------------------------------------------------

 SCF Done:  E(RHF) =  -321.887761747     A.U. after    2 cycles

 The electronic state is 1-A.
 Alpha  occ. eigenvalues --  -20.66398 -20.64195 -15.85068 -11.30606 -11.24833
 Alpha  occ. eigenvalues --  -11.23175  -1.54223  -1.35725  -1.07338  -0.97439
 Alpha  occ. eigenvalues --   -0.88909  -0.81690  -0.77233  -0.72025  -0.71043
 Alpha  occ. eigenvalues --   -0.63150  -0.61173  -0.59464  -0.56572  -0.52469
 Alpha  occ. eigenvalues --   -0.50969  -0.49742  -0.48228  -0.46034
 Alpha virt. eigenvalues --    0.03385   0.04440   0.04663   0.05543   0.07112
 Alpha virt. eigenvalues --    0.07512   0.07642   0.09196   0.11000   0.11642
 Alpha virt. eigenvalues --    0.13778   0.14453   0.15128   0.15845   0.16161

 Mulliken charges:
               1
     1  O   -0.570375
     2  N    0.306644
     3  O   -0.310004
     4  C    0.842118
     5  C    0.005968
     6  H   -0.172313
     7  H   -0.158376
     8  C    0.351323
     9  H   -0.024906
    10  H   -0.075318
    11  H   -0.069589
    12  H   -0.081651
    13  H   -0.043521
 Sum of Mulliken charges =  -0.00000

 Dipole moment (field-independent basis, Debye):
    X=              1.9721    Y=              1.0954    Z=              0.1819  Tot=              2.2633

 Test job not archived.
 1\1\GINC-SE109\SP\RHF\Aug-CC-pVDZ\C3H7N1O2\OHZDE\08-Apr-2025\0\\#t hf
 aug-cc-pvdz iop(5/13=1,5/36=2,99/5=2) pseudo=read geom=check guess=(re
 ad,tcheck) scf=(maxcycle=1)\\title\\0,1\O,0,-0.503418,-0.488365,-0.452
 99\N,0,-1.874059,-0.606148,-0.191655\O,0,-2.340099,0.289223,0.421525\C
 ,0,0.158005,0.697227,0.05645\C,0,1.628903,0.584483,-0.310297\H,0,0.007
 805,0.747476,1.139536\H,0,-0.310589,1.579177,-0.389306\C,0,2.341915,-0
 .590752,0.363606\H,0,2.108115,1.528146,-0.026477\H,0,1.71425,0.505758,
 -1.398431\H,0,2.303559,-0.502217,1.453672\H,0,3.393277,-0.629155,0.069

 Normal termination of Gaussian 16 at Tue Apr  8 22:50:53 2025.
