 Gaussian 16, Revision C.01,

 ----------------------------------------------------------------------
 #t hf aug-cc-pvdz symm=none int=(grid=ultrafine) guess=(read,tcheck) s
 table=(opt,rrhf)
 ----------------------------------------------------------------------
 -----
 title
 -----
 Symbolic Z-matrix:
 Charge =  0 Multiplicity = 1

 SCF Done:  E(RHF) =  -939.185895069     A.U. after   15 cycles
 Normal termination of Gaussian 16 at Wed Apr  9 00:05:16 2025.
 Gaussian 16:  ES64L-G16RevC.01  3-Jul-2019

 ----------------------------------------------------------------------
 #t hf aug-cc-pvdz iop(5/13=1,5/36=2,99/5=2) pseudo=read geom=check gue
 ss=(read,tcheck) scf=(maxcycle=1)
 ----------------------------------------------------------------------
 -----
 title
 -----
 Structure from the checkpoint file:  "BDE49_nonexpt_1971_mol1.chk"
 Charge =  0 Multiplicity = 1

                         Standard orientation:
 ---------------------------------------------------------------------
 Center     Atomic      Atomic             Coordinates (Angstroms)
 Number     Number       Type             X           Y           Z
 ---------------------------------------------------------------------
      1         14           0        0.503904    2.299681   -0.470921
      2          6           0       -0.960034    2.171091    0.736702
      3          6           0       -1.851002    0.974664    0.500025
      4          6           0       -2.914275    1.030870   -0.407048
      5          6           0       -1.627971   -0.242483    1.158606
      6          6           0       -2.429390   -1.354492    0.929313
      7          6           0       -3.485568   -1.275931    0.021114
      8          6           0       -3.725614   -0.075402   -0.647611
      9          1           0       -0.811347   -0.321533    1.868325
     10          1           0       -2.253532   -2.289279    1.447969
     11          6           0        1.718201    0.884209   -0.317697
     12          1           0        1.228587    3.566193   -0.189346
     13          1           0       -0.040824    2.348907   -1.850759
     14          6           0        1.485253   -0.359627   -0.925658
     15          6           0        2.900174    1.021121    0.432216
     16          6           0        3.803925   -0.023531    0.576882
     17          6           0        3.544188   -1.250586   -0.036866
     18          6           0        2.380351   -1.416126   -0.791126
     19          1           0        3.127332    1.968875    0.910537
     20          1           0        4.714248    0.090775    1.153094
     21          8           0       -4.246414   -2.398121   -0.168349
     22          8           0        4.461386   -2.246071    0.131277
     23          1           0       -3.119761    1.956943   -0.934392
     24          1           0        0.589383   -0.515173   -1.517503
     25          1           0       -4.548838   -0.000855   -1.352919
     26          1           0        2.176487   -2.368660   -1.272619
     27          1           0        4.166892   -3.032040   -0.340709
     28          1           0       -4.941024   -2.203127   -0.805452
     29          1           0       -1.534506    3.099757    0.645579
     30          1           0       -0.556963    2.154562    1.754567
 ---------------------------------------------------------------------

 SCF Done:  E(RHF) =  -939.401193826     A.U. after    2 cycles

 The electronic state is 1-A.
 Alpha  occ. eigenvalues --  -69.05758 -20.61113 -20.60380 -11.32111 -11.30996
 Alpha  occ. eigenvalues --  -11.25711 -11.25637 -11.24858 -11.24732 -11.24558
 Alpha  occ. eigenvalues --  -11.24488 -11.24456 -11.23988 -11.23827 -11.22652
 Alpha  occ. eigenvalues --  -11.22603  -6.81053  -3.91804  -3.91787  -3.91748
 Alpha  occ. eigenvalues --   -1.37432  -1.36546  -1.14275  -1.13889  -1.03242
 Alpha  occ. eigenvalues --   -1.01781  -1.01361  -1.00089  -0.92418  -0.85459
 Alpha  occ. eigenvalues --   -0.84946  -0.82897  -0.80851  -0.74879  -0.74337
 Alpha  occ. eigenvalues --   -0.70574  -0.68119  -0.67195  -0.64903  -0.63171
 Alpha  occ. eigenvalues --   -0.61465  -0.61129  -0.60567  -0.60343  -0.59641
 Alpha  occ. eigenvalues --   -0.59245  -0.58844  -0.57883  -0.54415  -0.53143
 Alpha  occ. eigenvalues --   -0.50549  -0.49783  -0.49232  -0.48797  -0.46527
 Alpha  occ. eigenvalues --   -0.45247  -0.44372  -0.35065  -0.34424  -0.32327
 Alpha  occ. eigenvalues --   -0.30329
 Alpha virt. eigenvalues --    0.02823   0.03357   0.03549   0.04493   0.04898
 Alpha virt. eigenvalues --    0.05212   0.05545   0.06061   0.06653   0.06848
 Alpha virt. eigenvalues --    0.07562   0.07955   0.08128   0.08994   0.09622

 Mulliken charges:
               1
     1  Si   0.317610
     2  C    0.145777
     3  C    0.735604
     4  C    0.304047
     5  C    0.933052
     6  C    0.395623
     7  C    0.344482
     8  C    0.550922
     9  H   -0.730062
    10  H   -0.538990
    11  C   -0.920031
    12  H    0.018341
    13  H    0.083812
    14  C    0.780342
    15  C    0.918246
    16  C    1.096995
    17  C    0.365704
    18  C    0.578971
    19  H   -0.686937
    20  H   -0.507210
    21  O   -0.570294
    22  O   -0.567849
    23  H   -0.654182
    24  H   -0.689160
    25  H   -0.586239
    26  H   -0.608911
    27  H    0.129972
    28  H    0.126990
    29  H   -0.436063
    30  H   -0.330561
 Sum of Mulliken charges =   0.00000

 Dipole moment (field-independent basis, Debye):
    X=             -1.1824    Y=             -0.1085    Z=             -1.2067  Tot=              1.6929

 Test job not archived.
 1\1\GINC-SE074\SP\RHF\Aug-CC-pVDZ\C13H14O2Si1\OHZDE\09-Apr-2025\0\\#t
 hf aug-cc-pvdz iop(5/13=1,5/36=2,99/5=2) pseudo=read geom=check guess=
 (read,tcheck) scf=(maxcycle=1)\\title\\0,1\Si,0,0.503904,2.299681,-0.4
 70921\C,0,-0.960034,2.171091,0.736702\C,0,-1.851002,0.974664,0.500025\
 C,0,-2.914275,1.03087,-0.407048\C,0,-1.627971,-0.242483,1.158606\C,0,-
 2.42939,-1.354492,0.929313\C,0,-3.485568,-1.275931,0.021114\C,0,-3.725
 614,-0.075402,-0.647611\H,0,-0.811347,-0.321533,1.868325\H,0,-2.253532
 ,-2.289279,1.447969\C,0,1.718201,0.884209,-0.317697\H,0,1.228587,3.566

 Normal termination of Gaussian 16 at Wed Apr  9 00:05:56 2025.
