 Gaussian 16, Revision C.01,

 ----------------------------------------------------------------------
 #t hf aug-cc-pvdz symm=none int=(grid=ultrafine) guess=(read,tcheck) s
 table=opt
 ----------------------------------------------------------------------
 -----
 title
 -----
 Symbolic Z-matrix:
 Charge =  0 Multiplicity = 2

 SCF Done:  E(UHF) =  -376.341685988     A.U. after   19 cycles
 Normal termination of Gaussian 16 at Tue Apr  8 23:03:21 2025.
 Gaussian 16:  ES64L-G16RevC.01  3-Jul-2019

 ----------------------------------------------------------------------
 #t hf aug-cc-pvdz iop(5/13=1,5/36=2,99/5=2) pseudo=read geom=check gue
 ss=(read,tcheck) scf=(maxcycle=1)
 ----------------------------------------------------------------------
 -----
 title
 -----
 Structure from the checkpoint file:  "BDE49_expt_371_mol2.chk"
 Charge =  0 Multiplicity = 2

                         Standard orientation:
 ---------------------------------------------------------------------
 Center     Atomic      Atomic             Coordinates (Angstroms)
 Number     Number       Type             X           Y           Z
 ---------------------------------------------------------------------
      1          7           0        2.794185    0.192710   -0.119914
      2          6           0        1.695961   -0.609879   -0.199741
      3          6           0        0.425979   -0.036722    0.128361
      4          1           0        1.812048   -1.651487   -0.456369
      5          8           0        0.269110    1.148341    0.416001
      6          8           0       -0.587822   -0.940808    0.086139
      7          6           0       -1.891153   -0.391671    0.397142
      8          7           0       -2.377188    0.447074   -0.661819
      9          1           0       -1.800038    0.113985    1.363601
     10          1           0       -2.526207   -1.270606    0.496225
     11          1           0        2.604509    1.178846    0.002157
     12          1           0        3.642853   -0.061858   -0.596904
     13          1           0       -2.110014    1.412908   -0.522092
     14          1           0       -3.377165    0.369090   -0.786184
 ---------------------------------------------------------------------

 SCF Done:  E(UHF) =  -376.460522249     A.U. after    2 cycles

 The electronic state is 2-A.
 Alpha  occ. eigenvalues --  -20.60069 -20.55209 -15.65206 -15.60953 -11.37949
 Alpha  occ. eigenvalues --  -11.32391 -11.28834  -1.40485  -1.31441  -1.20659
 Alpha  occ. eigenvalues --   -1.15005  -0.99235  -0.89323  -0.77408  -0.75296
 Alpha  occ. eigenvalues --   -0.70741  -0.68963  -0.67871  -0.65439  -0.60798
 Alpha  occ. eigenvalues --   -0.60464  -0.57107  -0.53470  -0.52390  -0.49990
 Alpha  occ. eigenvalues --   -0.47301  -0.40022  -0.30891
 Alpha virt. eigenvalues --    0.03252   0.03796   0.04580   0.05516   0.05844
 Alpha virt. eigenvalues --    0.06852   0.08701   0.10720   0.11304   0.13233
 Alpha virt. eigenvalues --    0.13329   0.14434   0.15344   0.16284   0.16454

  Beta  occ. eigenvalues --  -20.59936 -20.54291 -15.64378 -15.60945 -11.38250
  Beta  occ. eigenvalues --  -11.32407 -11.27092  -1.39816  -1.29886  -1.17835
  Beta  occ. eigenvalues --   -1.14938  -0.96219  -0.87296  -0.76361  -0.74836
  Beta  occ. eigenvalues --   -0.70329  -0.68054  -0.66946  -0.64961  -0.59890
  Beta  occ. eigenvalues --   -0.57106  -0.56274  -0.52800  -0.46415  -0.46203
  Beta  occ. eigenvalues --   -0.42625  -0.39974
  Beta virt. eigenvalues --    0.03285   0.03792   0.04607   0.05521   0.05861
  Beta virt. eigenvalues --    0.06858   0.07847   0.08725   0.11315   0.11548
  Beta virt. eigenvalues --    0.13300   0.13514   0.14556   0.15460   0.16397

 Mulliken charges and spin densities:
               1          2
     1  N   -0.321963   0.213384
     2  C    1.104074   0.859562
     3  C    0.327670  -0.189200
     4  H   -0.359268  -0.082054
     5  O   -0.564134   0.207223
     6  O   -0.572342   0.024711
     7  C    1.095460  -0.004545
     8  N   -0.350052   0.002565
     9  H   -0.085933  -0.000571
    10  H   -0.328282   0.000348
    11  H    0.023256  -0.015126
    12  H   -0.002996  -0.016560
    13  H    0.048115   0.000182
    14  H   -0.013605   0.000082
 Sum of Mulliken charges =  -0.00000   1.00000

 Dipole moment (field-independent basis, Debye):
    X=              0.5114    Y=             -0.8531    Z=             -0.3046  Tot=              1.0402
                          Isotropic Fermi Contact Couplings
        Atom                 a.u.       MegaHertz       Gauss      10(-4) cm-1
     1  N(14)              0.08045      25.99437       9.27544       8.67079
     2  C(13)              0.13169     148.04987      52.82787      49.38412
     3  C(13)             -0.05867     -65.95463     -23.53425     -22.00010
     4  H(1)              -0.01930     -86.28205     -30.78758     -28.78060
     5  O(17)              0.08085     -49.00818     -17.48734     -16.34737
     6  O(17)              0.00734      -4.45161      -1.58844      -1.48490
     7  C(13)             -0.00253      -2.84374      -1.01472      -0.94857
     8  N(14)              0.00264       0.85439       0.30487       0.28499

 Normal termination of Gaussian 16 at Tue Apr  8 23:03:26 2025.
