 Gaussian 16, Revision C.01,

 ----------------------------------------------------------------------
 #t hf aug-cc-pvdz symm=none int=(grid=ultrafine) guess=(read,tcheck) s
 table=(opt,rrhf)
 ----------------------------------------------------------------------
 -----
 title
 -----
 Symbolic Z-matrix:
 Charge =  0 Multiplicity = 1

 SCF Done:  E(RHF) =  -856.006657831     A.U. after   15 cycles
 Normal termination of Gaussian 16 at Tue Apr  8 22:48:10 2025.
 Gaussian 16:  ES64L-G16RevC.01  3-Jul-2019

 ----------------------------------------------------------------------
 #t hf aug-cc-pvdz iop(5/13=1,5/36=2,99/5=2) pseudo=read geom=check gue
 ss=(read,tcheck) scf=(maxcycle=1)
 ----------------------------------------------------------------------
 -----
 title
 -----
 Structure from the checkpoint file:  "BDE49_expt_1604_mol1.chk"
 Charge =  0 Multiplicity = 1

                         Standard orientation:
 ---------------------------------------------------------------------
 Center     Atomic      Atomic             Coordinates (Angstroms)
 Number     Number       Type             X           Y           Z
 ---------------------------------------------------------------------
      1         16           0       -1.914804    0.114463    0.042319
      2          6           0       -1.638776   -1.033881    1.395837
      3          8           0       -3.158276   -0.247039   -0.611364
      4          8           0       -1.716529    1.457318    0.553988
      5          1           0       -1.737012   -2.054328    1.027436
      6          1           0       -2.420354   -0.817430    2.124566
      7          1           0       -0.655033   -0.853496    1.825688
      8          6           0        0.816741   -0.110002   -0.605660
      9          6           0        1.608803   -1.243969   -0.396789
     10          6           0        1.345274    1.150411   -0.301323
     11          6           0        2.903668   -1.124838    0.103077
     12          6           0        2.637877    1.268612    0.199428
     13          6           0        3.420681    0.132839    0.403028
     14          1           0        1.214212   -2.226095   -0.637712
     15          1           0        3.507446   -2.012649    0.253249
     16          1           0        0.734006    2.033076   -0.444736
     17          1           0        3.035434    2.250289    0.430561
     18          1           0        4.428723    0.228750    0.790058
     19          6           0       -0.577530   -0.250700   -1.149708
     20          1           0       -0.790406    0.462194   -1.950871
     21          1           0       -0.782141   -1.254801   -1.523683
 ---------------------------------------------------------------------

 SCF Done:  E(RHF) =  -856.218188567     A.U. after    2 cycles

 The electronic state is 1-A.
 Alpha  occ. eigenvalues --  -93.77565 -20.55296 -20.55254 -11.29464 -11.28468
 Alpha  occ. eigenvalues --  -11.27544 -11.26525 -11.26193 -11.26085 -11.25955
 Alpha  occ. eigenvalues --  -11.25846  -9.04348  -6.38993  -6.38771  -6.38693
 Alpha  occ. eigenvalues --   -1.41399  -1.29971  -1.16685  -1.08109  -1.03078
 Alpha  occ. eigenvalues --   -1.02704  -0.97516  -0.84907  -0.84178  -0.80059
 Alpha  occ. eigenvalues --   -0.72200  -0.69205  -0.68501  -0.67279  -0.65625
 Alpha  occ. eigenvalues --   -0.64924  -0.61107  -0.60982  -0.60415  -0.59483
 Alpha  occ. eigenvalues --   -0.58061  -0.53485  -0.51913  -0.51509  -0.50811
 Alpha  occ. eigenvalues --   -0.50388  -0.48724  -0.45020  -0.35683  -0.35048
 Alpha virt. eigenvalues --    0.02570   0.03494   0.04100   0.04436   0.05463
 Alpha virt. eigenvalues --    0.05566   0.06685   0.06986   0.07771   0.08146
 Alpha virt. eigenvalues --    0.08803   0.09366   0.10204   0.11318   0.12568

 Mulliken charges:
               1
     1  S    2.304027
     2  C    0.038654
     3  O   -1.106956
     4  O   -1.180354
     5  H   -0.018196
     6  H    0.016455
     7  H    0.022176
     8  C    0.693968
     9  C    0.547882
    10  C    0.535154
    11  C    0.205807
    12  C    0.209073
    13  C    0.698408
    14  H   -0.617737
    15  H   -0.450473
    16  H   -0.625855
    17  H   -0.441459
    18  H   -0.437920
    19  C   -0.150555
    20  H   -0.025868
    21  H   -0.216230
 Sum of Mulliken charges =  -0.00000

 Dipole moment (field-independent basis, Debye):
    X=              4.4429    Y=             -3.2197    Z=              0.7487  Tot=              5.5377

 Test job not archived.
 1\1\GINC-SE126\SP\RHF\Aug-CC-pVDZ\C8H10O2S1\OHZDE\08-Apr-2025\0\\#t hf
  aug-cc-pvdz iop(5/13=1,5/36=2,99/5=2) pseudo=read geom=check guess=(r
 ead,tcheck) scf=(maxcycle=1)\\title\\0,1\S,0,-1.914804,0.114463,0.0423
 19\C,0,-1.638776,-1.033881,1.395837\O,0,-3.158276,-0.247039,-0.611364\
 O,0,-1.716529,1.457318,0.553988\H,0,-1.737012,-2.054328,1.027436\H,0,-
 2.420354,-0.81743,2.124566\H,0,-0.655033,-0.853496,1.825688\C,0,0.8167
 41,-0.110002,-0.60566\C,0,1.608803,-1.243969,-0.396789\C,0,1.345274,1.
 150411,-0.301323\C,0,2.903668,-1.124838,0.103077\C,0,2.637877,1.268612

 Normal termination of Gaussian 16 at Tue Apr  8 22:48:25 2025.
