 Gaussian 16, Revision C.01,

 ----------------------------------------------------------------------
 #t hf aug-cc-pvdz symm=none int=(grid=ultrafine) guess=(read,tcheck) s
 table=(opt,rrhf)
 ----------------------------------------------------------------------
 -----
 title
 -----
 Symbolic Z-matrix:
 Charge =  0 Multiplicity = 1

 SCF Done:  E(RHF) =  -518.624875336     A.U. after   16 cycles
 Normal termination of Gaussian 16 at Wed Apr  9 00:39:57 2025.
 Gaussian 16:  ES64L-G16RevC.01  3-Jul-2019

 ----------------------------------------------------------------------
 #t hf aug-cc-pvdz iop(5/13=1,5/36=2,99/5=2) pseudo=read geom=check gue
 ss=(read,tcheck) scf=(maxcycle=1)
 ----------------------------------------------------------------------
 -----
 title
 -----
 Structure from the checkpoint file:  "BDE49_nonexpt_637_mol1.chk"
 Charge =  0 Multiplicity = 1

                         Standard orientation:
 ---------------------------------------------------------------------
 Center     Atomic      Atomic             Coordinates (Angstroms)
 Number     Number       Type             X           Y           Z
 ---------------------------------------------------------------------
      1          5           0       -2.212190   -0.509950    0.000006
      2          8           0       -2.392478   -1.866532    0.000004
      3          8           0       -3.325459    0.278992   -0.000002
      4          8           0        2.932298   -1.877237    0.000022
      5          6           0       -0.808086    0.195018    0.000001
      6          6           0        0.388794   -0.523417   -0.000007
      7          6           0        1.629875    0.122771   -0.000011
      8          6           0        1.681714    1.519160   -0.000006
      9          6           0        0.501862    2.258186    0.000001
     10          6           0       -0.724903    1.600850    0.000005
     11          6           0        2.881276   -0.668371   -0.000021
     12          1           0        0.408283   -1.609707   -0.000012
     13          1           0        2.645041    2.020342   -0.000009
     14          1           0        0.538167    3.341576    0.000005
     15          1           0       -1.643985    2.175532    0.000011
     16          1           0        3.812150   -0.060709    0.000023
     17          1           0       -1.581853   -2.381379    0.000006
     18          1           0       -4.134928   -0.242872   -0.000002
 ---------------------------------------------------------------------

 SCF Done:  E(RHF) =  -518.786163939     A.U. after    2 cycles

 The electronic state is 1-A.
 Alpha  occ. eigenvalues --  -20.59148 -20.58476 -20.57566 -11.35294 -11.27827
 Alpha  occ. eigenvalues --  -11.27322 -11.27005 -11.26436 -11.26159 -11.24240
 Alpha  occ. eigenvalues --   -7.66779  -1.36257  -1.35268  -1.31469  -1.16533
 Alpha  occ. eigenvalues --   -1.04681  -1.03217  -0.89759  -0.85753  -0.80150
 Alpha  occ. eigenvalues --   -0.78904  -0.76323  -0.71886  -0.68671  -0.66904
 Alpha  occ. eigenvalues --   -0.64444  -0.62710  -0.62140  -0.60056  -0.58958
 Alpha  occ. eigenvalues --   -0.57246  -0.57008  -0.52971  -0.52900  -0.51146
 Alpha  occ. eigenvalues --   -0.49539  -0.44607  -0.36390  -0.35955
 Alpha virt. eigenvalues --    0.02892   0.03638   0.04221   0.05193   0.05272
 Alpha virt. eigenvalues --    0.05615   0.05896   0.06876   0.07327   0.07811
 Alpha virt. eigenvalues --    0.08480   0.09440   0.09797   0.10849   0.12828

 Mulliken charges:
               1
     1  B    0.682920
     2  O   -0.496080
     3  O   -0.551628
     4  O   -0.510336
     5  C    0.242050
     6  C   -0.190872
     7  C    0.851653
     8  C    0.851948
     9  C    0.436346
    10  C    0.169559
    11  C    0.746766
    12  H   -0.700024
    13  H   -0.573756
    14  H   -0.435079
    15  H   -0.647410
    16  H   -0.295095
    17  H    0.222987
    18  H    0.196051
 Sum of Mulliken charges =   0.00000

 Dipole moment (field-independent basis, Debye):
    X=             -0.3824    Y=              2.7074    Z=             -0.0000  Tot=              2.7342

 Test job not archived.
 1\1\GINC-SE054\SP\RHF\Aug-CC-pVDZ\C7H7B1O3\OHZDE\09-Apr-2025\0\\#t hf
 aug-cc-pvdz iop(5/13=1,5/36=2,99/5=2) pseudo=read geom=check guess=(re
 ad,tcheck) scf=(maxcycle=1)\\title\\0,1\B,0,-2.21219,-0.50995,0.000006
 \O,0,-2.392478,-1.866532,0.000004\O,0,-3.325459,0.278992,-0.000002\O,0
 ,2.932298,-1.877237,0.000022\C,0,-0.808086,0.195018,0.000001\C,0,0.388
 794,-0.523417,-0.000007\C,0,1.629875,0.122771,-0.000011\C,0,1.681714,1
 .51916,-0.000006\C,0,0.501862,2.258186,0.000001\C,0,-0.724903,1.60085,
 0.000005\C,0,2.881276,-0.668371,-0.000021\H,0,0.408283,-1.609707,-0.00

 Normal termination of Gaussian 16 at Wed Apr  9 00:40:08 2025.
