 Gaussian 16, Revision C.01,

 ----------------------------------------------------------------------
 #t hf aug-cc-pvdz symm=none int=(grid=ultrafine) guess=(read,tcheck) s
 table=(opt,rrhf)
 ----------------------------------------------------------------------
 -----
 title
 -----
 Symbolic Z-matrix:
 Charge =  0 Multiplicity = 1

 SCF Done:  E(RHF) =  -1148.56632271     A.U. after   15 cycles

 1\1\GINC-SE141\Stability\RHF\Aug-CC-pVDZ\C6H4Cl2\OHZDE\08-Apr-2025\0\\
 #t hf aug-cc-pvdz symm=none int=(grid=ultrafine) guess=(read,tcheck) s
 table=(opt,rrhf)\\title\\0,1\C,0,0.,0.699073,-0.025772\C,0,0.,1.391744
 ,1.183908\C,0,0.,0.696546,2.387623\C,0,0.,-0.696546,2.387623\C,0,0.,-1
 .391744,1.183908\C,0,0.,-0.699073,-0.025772\Cl,0,0.,1.608246,-1.515448
 \H,0,0.,1.245486,3.321548\H,0,0.,-1.245486,3.321548\H,0,0.,2.473891,1.
 166512\H,0,0.,-2.473891,1.166512\Cl,0,0.,-1.608246,-1.515448\\Version=
 ES64L-G16RevC.01\HF=-1148.5663227\RMSD=2.567e-09\Dipole=0.,0.,1.172193

 Normal termination of Gaussian 16 at Tue Apr  8 22:47:49 2025.
 Gaussian 16:  ES64L-G16RevC.01  3-Jul-2019

 ----------------------------------------------------------------------
 #t hf aug-cc-pvdz iop(5/13=1,5/36=2,99/5=2) pseudo=read geom=check gue
 ss=(read,tcheck) scf=(maxcycle=1)
 ----------------------------------------------------------------------
 -----
 title
 -----
 Structure from the checkpoint file:  "BDE49_expt_1672_mol1.chk"
 Charge =  0 Multiplicity = 1

                         Standard orientation:
 ---------------------------------------------------------------------
 Center     Atomic      Atomic             Coordinates (Angstroms)
 Number     Number       Type             X           Y           Z
 ---------------------------------------------------------------------
      1          6           0        0.000000    0.699073   -0.025772
      2          6           0        0.000000    1.391744    1.183908
      3          6           0        0.000000    0.696546    2.387623
      4          6           0       -0.000000   -0.696546    2.387623
      5          6           0       -0.000000   -1.391744    1.183908
      6          6           0       -0.000000   -0.699073   -0.025772
      7         17           0        0.000000    1.608246   -1.515448
      8          1           0        0.000000    1.245486    3.321548
      9          1           0       -0.000000   -1.245486    3.321548
     10          1           0        0.000000    2.473891    1.166512
     11          1           0       -0.000000   -2.473891    1.166512
     12         17           0       -0.000000   -1.608246   -1.515448
 ---------------------------------------------------------------------

 SCF Done:  E(RHF) =  -1148.67097587     A.U. after    2 cycles

 The electronic state is 1-A1.
 Alpha  occ. eigenvalues -- -103.67529-103.67528 -11.33113 -11.33001 -11.27434
 Alpha  occ. eigenvalues --  -11.27429 -11.27075 -11.26965 -10.70812 -10.70808
 Alpha  occ. eigenvalues --   -8.36552  -8.36544  -8.36233  -8.36226  -8.36217
 Alpha  occ. eigenvalues --   -8.36215  -1.22932  -1.17535  -1.14066  -1.02967
 Alpha  occ. eigenvalues --   -1.00857  -0.86012  -0.83537  -0.71944  -0.68138
 Alpha  occ. eigenvalues --   -0.65837  -0.61575  -0.60792  -0.58110  -0.53947
 Alpha  occ. eigenvalues --   -0.53795  -0.50372  -0.48704  -0.48287  -0.46488
 Alpha  occ. eigenvalues --   -0.36183  -0.35151
 Alpha virt. eigenvalues --    0.03056   0.03940   0.04929   0.06175   0.07879
 Alpha virt. eigenvalues --    0.08139   0.08669   0.10309   0.11304   0.11539
 Alpha virt. eigenvalues --    0.13192   0.13465   0.13494   0.13875   0.14517

 Mulliken charges:
               1
     1  C    0.005186
     2  C    0.639485
     3  C    0.518734
     4  C    0.518734
     5  C    0.639485
     6  C    0.005186
     7  Cl  -0.324157
     8  H   -0.420987
     9  H   -0.420987
    10  H   -0.418261
    11  H   -0.418261
    12  Cl  -0.324157
 Sum of Mulliken charges =  -0.00000

 Dipole moment (field-independent basis, Debye):
    X=              0.0000    Y=              0.0000    Z=              3.1184  Tot=              3.1184

 Test job not archived.
 1\1\GINC-SE141\SP\RHF\Aug-CC-pVDZ\C6H4Cl2\OHZDE\08-Apr-2025\0\\#t hf a
 ug-cc-pvdz iop(5/13=1,5/36=2,99/5=2) pseudo=read geom=check guess=(rea
 d,tcheck) scf=(maxcycle=1)\\title\\0,1\C,0,0.,0.699073,-0.025772\C,0,0
 .,1.391744,1.183908\C,0,0.,0.696546,2.387623\C,0,0.,-0.696546,2.387623
 \C,0,0.,-1.391744,1.183908\C,0,0.,-0.699073,-0.025772\Cl,0,0.,1.608246
 ,-1.515448\H,0,0.,1.245486,3.321548\H,0,0.,-1.245486,3.321548\H,0,0.,2
 .473891,1.166512\H,0,0.,-2.473891,1.166512\Cl,0,0.,-1.608246,-1.515448
 \\Version=ES64L-G16RevC.01\State=1-A1\HF=-1148.6709759\RMSD=1.420e-02\

 Normal termination of Gaussian 16 at Tue Apr  8 22:47:54 2025.
