 Gaussian 16, Revision C.01,

 ----------------------------------------------------------------------
 #t hf aug-cc-pvdz symm=none int=(grid=ultrafine) guess=(read,tcheck) s
 table=(opt,rrhf)
 ----------------------------------------------------------------------
 -----
 title
 -----
 Symbolic Z-matrix:
 Charge =  0 Multiplicity = 1

 SCF Done:  E(RHF) =  -874.302177277     A.U. after   13 cycles
 Normal termination of Gaussian 16 at Tue Apr  8 22:45:31 2025.
 Gaussian 16:  ES64L-G16RevC.01  3-Jul-2019

 ----------------------------------------------------------------------
 #t hf aug-cc-pvdz iop(5/13=1,5/36=2,99/5=2) pseudo=read geom=check gue
 ss=(read,tcheck) scf=(maxcycle=1)
 ----------------------------------------------------------------------
 -----
 title
 -----
 Structure from the checkpoint file:  "BDE49_expt_1591_mol1.chk"
 Charge =  0 Multiplicity = 1

                         Standard orientation:
 ---------------------------------------------------------------------
 Center     Atomic      Atomic             Coordinates (Angstroms)
 Number     Number       Type             X           Y           Z
 ---------------------------------------------------------------------
      1          6           0        0.981697    1.638087    0.797075
      2         16           0        0.981697    0.340471   -0.494338
      3          1           0        1.982927    2.075740    0.778776
      4          1           0        0.794418    1.214724    1.783365
      5          1           0        0.245582    2.406190    0.564810
      6         16           0       -0.981697   -0.340471   -0.494338
      7          6           0       -0.981697   -1.638087    0.797075
      8          1           0       -1.982927   -2.075740    0.778776
      9          1           0       -0.794418   -1.214724    1.783365
     10          1           0       -0.245582   -2.406190    0.564810
 ---------------------------------------------------------------------

 SCF Done:  E(RHF) =  -874.371704997     A.U. after    2 cycles

 The electronic state is 1-A.
 Alpha  occ. eigenvalues --  -93.55436 -93.55433 -11.27112 -11.27112  -8.85003
 Alpha  occ. eigenvalues --   -8.84987  -6.19158  -6.19060  -6.18855  -6.18828
 Alpha  occ. eigenvalues --   -6.18530  -6.18521  -1.06396  -0.99965  -0.89653
 Alpha  occ. eigenvalues --   -0.77768  -0.61018  -0.60000  -0.59809  -0.58335
 Alpha  occ. eigenvalues --   -0.52608  -0.48595  -0.43287  -0.35634  -0.34974
 Alpha virt. eigenvalues --    0.03515   0.04396   0.05643   0.05766   0.06752
 Alpha virt. eigenvalues --    0.07859   0.08829   0.09550   0.12372   0.13955
 Alpha virt. eigenvalues --    0.14099   0.14730   0.15559   0.15741   0.16586

 Mulliken charges:
               1
     1  C    0.074153
     2  S    0.091070
     3  H   -0.065930
     4  H   -0.068611
     5  H   -0.030681
     6  S    0.091070
     7  C    0.074153
     8  H   -0.065930
     9  H   -0.068611
    10  H   -0.030681
 Sum of Mulliken charges =   0.00000

 Dipole moment (field-independent basis, Debye):
    X=              0.0000    Y=              0.0000    Z=              2.2738  Tot=              2.2738

 Test job not archived.
 1\1\GINC-SE334\SP\RHF\Aug-CC-pVDZ\C2H6S2\OHZDE\08-Apr-2025\0\\#t hf au
 g-cc-pvdz iop(5/13=1,5/36=2,99/5=2) pseudo=read geom=check guess=(read
 ,tcheck) scf=(maxcycle=1)\\title\\0,1\C,0,0.981697,1.638087,0.797075\S
 ,0,0.981697,0.340471,-0.494338\H,0,1.982927,2.07574,0.778776\H,0,0.794
 418,1.214724,1.783365\H,0,0.245582,2.40619,0.56481\S,0,-0.981697,-0.34
 0471,-0.494338\C,0,-0.981697,-1.638087,0.797075\H,0,-1.982927,-2.07574
 ,0.778776\H,0,-0.794418,-1.214724,1.783365\H,0,-0.245582,-2.40619,0.56
 481\\Version=ES64L-G16RevC.01\State=1-A\HF=-874.371705\RMSD=4.554e-03\

 Normal termination of Gaussian 16 at Tue Apr  8 22:45:34 2025.
