 Gaussian 16, Revision C.01,

 ----------------------------------------------------------------------
 #t hf aug-cc-pvdz symm=none int=(grid=ultrafine) guess=(read,tcheck) s
 table=(opt,rrhf)
 ----------------------------------------------------------------------
 -----
 title
 -----
 Symbolic Z-matrix:
 Charge =  0 Multiplicity = 1

 SCF Done:  E(RHF) =  -545.097271894     A.U. after   13 cycles
 Normal termination of Gaussian 16 at Wed Apr  9 00:33:30 2025.
 Gaussian 16:  ES64L-G16RevC.01  3-Jul-2019

 ----------------------------------------------------------------------
 #t hf aug-cc-pvdz iop(5/13=1,5/36=2,99/5=2) pseudo=read geom=check gue
 ss=(read,tcheck) scf=(maxcycle=1)
 ----------------------------------------------------------------------
 -----
 title
 -----
 Structure from the checkpoint file:  "BDE49_nonexpt_426_mol1.chk"
 Charge =  0 Multiplicity = 1

                         Standard orientation:
 ---------------------------------------------------------------------
 Center     Atomic      Atomic             Coordinates (Angstroms)
 Number     Number       Type             X           Y           Z
 ---------------------------------------------------------------------
      1          9           0        2.200947   -0.939985    0.762337
      2          5           0        1.879213    0.112086    0.034828
      3          9           0        2.845907    0.926674   -0.360545
      4          8           0        0.601652    0.459684   -0.279081
      5          6           0       -0.467863   -0.434558   -0.233463
      6          8           0       -0.322140   -1.612458   -0.441538
      7          7           0       -1.636537    0.204898    0.018841
      8          6           0       -1.773818    1.632666    0.275832
      9          1           0       -2.141630    1.803155    1.293816
     10          1           0       -2.492636    2.067997   -0.425975
     11          1           0       -0.818748    2.132119    0.154494
     12          6           0       -2.862121   -0.582838    0.059429
     13          1           0       -3.575490   -0.210372   -0.682879
     14          1           0       -3.323968   -0.517079    1.050125
     15          1           0       -2.622809   -1.620163   -0.157566
 ---------------------------------------------------------------------

 SCF Done:  E(RHF) =  -545.296643328     A.U. after    2 cycles

 The electronic state is 1-A.
 Alpha  occ. eigenvalues --  -26.14419 -26.14399 -20.63433 -20.55804 -15.67500
 Alpha  occ. eigenvalues --  -11.44241 -11.29066 -11.28274  -7.78278  -1.69884
 Alpha  occ. eigenvalues --   -1.67731  -1.43679  -1.34163  -1.23829  -0.98936
 Alpha  occ. eigenvalues --   -0.97477  -0.88794  -0.85621  -0.82919  -0.78242
 Alpha  occ. eigenvalues --   -0.75749  -0.74087  -0.72910  -0.72208  -0.71133
 Alpha  occ. eigenvalues --   -0.69186  -0.63655  -0.62443  -0.61391  -0.58247
 Alpha  occ. eigenvalues --   -0.57637  -0.55184  -0.53727  -0.48952  -0.39807
 Alpha virt. eigenvalues --    0.02725   0.04047   0.04299   0.05357   0.06418
 Alpha virt. eigenvalues --    0.06654   0.07024   0.07471   0.08089   0.09074
 Alpha virt. eigenvalues --    0.11610   0.12399   0.13001   0.13966   0.14671

 Mulliken charges:
               1
     1  F   -0.407955
     2  B    0.995996
     3  F   -0.503392
     4  O   -0.562639
     5  C    0.558061
     6  O   -0.406806
     7  N   -0.412779
     8  C    0.828301
     9  H   -0.086276
    10  H   -0.107862
    11  H   -0.253641
    12  C    0.746915
    13  H   -0.084549
    14  H   -0.075483
    15  H   -0.227891
 Sum of Mulliken charges =  -0.00000

 Dipole moment (field-independent basis, Debye):
    X=             -3.6726    Y=              2.9724    Z=              0.8156  Tot=              4.7946

 Test job not archived.
 1\1\GINC-SE120\SP\RHF\Aug-CC-pVDZ\C3H6B1F2N1O2\OHZDE\09-Apr-2025\0\\#t
  hf aug-cc-pvdz iop(5/13=1,5/36=2,99/5=2) pseudo=read geom=check guess
 =(read,tcheck) scf=(maxcycle=1)\\title\\0,1\F,0,2.200947,-0.939985,0.7
 62337\B,0,1.879213,0.112086,0.034828\F,0,2.845907,0.926674,-0.360545\O
 ,0,0.601652,0.459684,-0.279081\C,0,-0.467863,-0.434558,-0.233463\O,0,-
 0.32214,-1.612458,-0.441538\N,0,-1.636537,0.204898,0.018841\C,0,-1.773
 818,1.632666,0.275832\H,0,-2.14163,1.803155,1.293816\H,0,-2.492636,2.0
 67997,-0.425975\H,0,-0.818748,2.132119,0.154494\C,0,-2.862121,-0.58283

 Normal termination of Gaussian 16 at Wed Apr  9 00:33:37 2025.
