 Gaussian 16, Revision C.01,

 ----------------------------------------------------------------------
 #t hf aug-cc-pvdz symm=none int=(grid=ultrafine) guess=(read,tcheck) s
 table=(opt,rrhf)
 ----------------------------------------------------------------------
 -----
 title
 -----
 Symbolic Z-matrix:
 Charge =  0 Multiplicity = 1

 SCF Done:  E(RHF) =  -423.187158853     A.U. after   12 cycles
 Normal termination of Gaussian 16 at Tue Apr  8 23:50:20 2025.
 Gaussian 16:  ES64L-G16RevC.01  3-Jul-2019

 ----------------------------------------------------------------------
 #t hf aug-cc-pvdz iop(5/13=1,5/36=2,99/5=2) pseudo=read geom=check gue
 ss=(read,tcheck) scf=(maxcycle=1)
 ----------------------------------------------------------------------
 -----
 title
 -----
 Structure from the checkpoint file:  "BDE49_nonexpt_1903_mol1.chk"
 Charge =  0 Multiplicity = 1

                         Standard orientation:
 ---------------------------------------------------------------------
 Center     Atomic      Atomic             Coordinates (Angstroms)
 Number     Number       Type             X           Y           Z
 ---------------------------------------------------------------------
      1         14           0        1.514219   -0.237073    0.011614
      2          6           0       -0.065502    0.795984   -0.217792
      3          6           0       -1.268522    0.160716    0.424081
      4          1           0        1.745087   -0.494374    1.451801
      5          1           0        2.671812    0.505712   -0.538923
      6          7           0       -2.212775   -0.480570   -0.131638
      7          1           0        1.377454   -1.528851   -0.697979
      8          1           0       -2.080536   -0.508004   -1.148317
      9          1           0       -1.313006    0.247199    1.515355
     10          1           0       -0.230006    0.942661   -1.290702
     11          1           0        0.123698    1.778475    0.229889
 ---------------------------------------------------------------------

 SCF Done:  E(RHF) =  -423.250806651     A.U. after    2 cycles

 The electronic state is 1-A.
 Alpha  occ. eigenvalues --  -69.07618 -15.61782 -11.30196 -11.24780  -6.82903
 Alpha  occ. eigenvalues --   -3.93682  -3.93673  -3.93664  -1.18244  -0.98746
 Alpha  occ. eigenvalues --   -0.80326  -0.70671  -0.64156  -0.62919  -0.55156
 Alpha  occ. eigenvalues --   -0.51615  -0.48759  -0.48440  -0.41848  -0.40597
 Alpha virt. eigenvalues --    0.03061   0.04190   0.04507   0.05391   0.06586
 Alpha virt. eigenvalues --    0.07248   0.07704   0.08200   0.08967   0.10519
 Alpha virt. eigenvalues --    0.12572   0.13120   0.13982   0.15298   0.15643

 Mulliken charges:
               1
     1  Si   0.412804
     2  C    0.023497
     3  C    0.545339
     4  H   -0.005861
     5  H   -0.032326
     6  N   -0.387665
     7  H   -0.003892
     8  H    0.009457
     9  H   -0.252529
    10  H   -0.223129
    11  H   -0.085696
 Sum of Mulliken charges =   0.00000

 Dipole moment (field-independent basis, Debye):
    X=              2.0689    Y=              1.5514    Z=             -0.6320  Tot=              2.6621

 Test job not archived.
 1\1\GINC-SE338\SP\RHF\Aug-CC-pVDZ\C2H7N1Si1\OHZDE\08-Apr-2025\0\\#t hf
  aug-cc-pvdz iop(5/13=1,5/36=2,99/5=2) pseudo=read geom=check guess=(r
 ead,tcheck) scf=(maxcycle=1)\\title\\0,1\Si,0,1.514219,-0.237073,0.011
 614\C,0,-0.065502,0.795984,-0.217792\C,0,-1.268522,0.160716,0.424081\H
 ,0,1.745087,-0.494374,1.451801\H,0,2.671812,0.505713,-0.538923\N,0,-2.
 212775,-0.48057,-0.131638\H,0,1.377454,-1.528851,-0.697979\H,0,-2.0805
 36,-0.508004,-1.148317\H,0,-1.313006,0.247199,1.515355\H,0,-0.230006,0
 .942661,-1.290702\H,0,0.123698,1.778475,0.229889\\Version=ES64L-G16Rev

 Normal termination of Gaussian 16 at Tue Apr  8 23:50:22 2025.
