 Gaussian 16, Revision C.01,

 ----------------------------------------------------------------------
 #t hf aug-cc-pvdz symm=none int=(grid=ultrafine) guess=(read,tcheck) s
 table=(opt,rrhf)
 ----------------------------------------------------------------------
 -----
 title
 -----
 Symbolic Z-matrix:
 Charge =  0 Multiplicity = 1

 SCF Done:  E(RHF) =  -589.849334675     A.U. after   14 cycles
 Normal termination of Gaussian 16 at Tue Apr  8 23:14:46 2025.
 Gaussian 16:  ES64L-G16RevC.01  3-Jul-2019

 ----------------------------------------------------------------------
 #t hf aug-cc-pvdz iop(5/13=1,5/36=2,99/5=2) pseudo=read geom=check gue
 ss=(read,tcheck) scf=(maxcycle=1)
 ----------------------------------------------------------------------
 -----
 title
 -----
 Structure from the checkpoint file:  "BDE49_nonexpt_1019_mol1.chk"
 Charge =  0 Multiplicity = 1

                         Standard orientation:
 ---------------------------------------------------------------------
 Center     Atomic      Atomic             Coordinates (Angstroms)
 Number     Number       Type             X           Y           Z
 ---------------------------------------------------------------------
      1         17           0        1.184013   -0.103216   -0.000018
      2          7           0       -1.605075   -0.253797    0.000011
      3          8           0       -0.680522    0.636512    0.000024
      4          1           0       -1.724328   -0.780400    0.863688
      5          1           0       -1.724193   -0.780444   -0.863659
 ---------------------------------------------------------------------

 SCF Done:  E(RHF) =  -589.905603874     A.U. after    2 cycles

 The electronic state is 1-A.
 Alpha  occ. eigenvalues -- -103.65986 -20.73536 -15.74577 -10.68840  -8.34511
 Alpha  occ. eigenvalues --   -8.34212  -8.34199  -1.46521  -1.11576  -1.04653
 Alpha  occ. eigenvalues --   -0.80008  -0.74984  -0.64859  -0.57618  -0.45678
 Alpha  occ. eigenvalues --   -0.45059  -0.40158
 Alpha virt. eigenvalues --   -0.00153   0.02915   0.04631   0.10150   0.12144
 Alpha virt. eigenvalues --    0.15967   0.16059   0.16595   0.17954   0.18576
 Alpha virt. eigenvalues --    0.20875   0.25061   0.27161   0.29888   0.30399

 Mulliken charges:
               1
     1  Cl  -0.106323
     2  N    0.195014
     3  O   -0.343112
     4  H    0.127212
     5  H    0.127209
 Sum of Mulliken charges =  -0.00000

 Dipole moment (field-independent basis, Debye):
    X=             -3.2893    Y=             -2.0875    Z=              0.0001  Tot=              3.8958

 Test job not archived.
 1\1\GINC-SE126\SP\RHF\Aug-CC-pVDZ\Cl1H2N1O1\OHZDE\08-Apr-2025\0\\#t hf
  aug-cc-pvdz iop(5/13=1,5/36=2,99/5=2) pseudo=read geom=check guess=(r
 ead,tcheck) scf=(maxcycle=1)\\title\\0,1\Cl,0,1.184013,-0.103216,-0.00
 0018\N,0,-1.605075,-0.253797,0.000011\O,0,-0.680522,0.636512,0.000024\
 H,0,-1.724328,-0.7804,0.863688\H,0,-1.724193,-0.780444,-0.863659\\Vers
 ion=ES64L-G16RevC.01\State=1-A\HF=-589.9056039\RMSD=2.689e-03\Dipole=-
 1.2940958,-0.821283,0.0000264\Quadrupole=0.6632277,-0.7307572,0.067529
 5,2.6453879,-0.0002704,0.0000452\PG=C01 [X(Cl1H2N1O1)]\\@

 Normal termination of Gaussian 16 at Tue Apr  8 23:14:47 2025.
