 Gaussian 16, Revision C.01,

 ----------------------------------------------------------------------
 #t hf aug-cc-pvdz symm=none int=(grid=ultrafine) guess=(read,tcheck) s
 table=(opt,rrhf)
 ----------------------------------------------------------------------
 -----
 title
 -----
 Symbolic Z-matrix:
 Charge =  0 Multiplicity = 1

 SCF Done:  E(RHF) =  -1067.13892329     A.U. after   15 cycles
 Normal termination of Gaussian 16 at Wed Apr  9 00:47:24 2025.
 Gaussian 16:  ES64L-G16RevC.01  3-Jul-2019

 ----------------------------------------------------------------------
 #t hf aug-cc-pvdz iop(5/13=1,5/36=2,99/5=2) pseudo=read geom=check gue
 ss=(read,tcheck) scf=(maxcycle=1)
 ----------------------------------------------------------------------
 -----
 title
 -----
 Structure from the checkpoint file:  "BDE49_nonexpt_864_mol1.chk"
 Charge =  0 Multiplicity = 1

                         Standard orientation:
 ---------------------------------------------------------------------
 Center     Atomic      Atomic             Coordinates (Angstroms)
 Number     Number       Type             X           Y           Z
 ---------------------------------------------------------------------
      1          1           0        4.246539   -0.152016   -0.056767
      2         16           0       -2.159573   -1.479830    0.312368
      3         16           0       -1.997138    1.566450   -0.348055
      4          5           0       -1.148123   -0.002728    0.007728
      5          7           0        2.494412   -1.146046   -0.487377
      6          6           0        3.162538   -0.081504   -0.032437
      7          6           0        2.538371    1.066134    0.450885
      8          1           0        3.129192    1.902145    0.806048
      9          6           0        1.150340    1.108537    0.466943
     10          1           0        0.639215    1.987940    0.843591
     11          6           0        0.411039    0.002686    0.013632
     12          6           0        1.162234   -1.091064   -0.455116
     13          1           0        0.655013   -1.968287   -0.848473
     14          1           0       -3.262323    1.170679   -0.120720
     15          1           0       -1.167645   -2.319160    0.656869
 ---------------------------------------------------------------------

 SCF Done:  E(RHF) =  -1067.25124296     A.U. after    2 cycles

 The electronic state is 1-A.
 Alpha  occ. eigenvalues --  -93.54765 -93.54596 -15.64008 -11.30042 -11.29993
 Alpha  occ. eigenvalues --  -11.28176 -11.25992 -11.24938  -8.84732  -8.84554
 Alpha  occ. eigenvalues --   -7.68030  -6.18923  -6.18756  -6.18670  -6.18496
 Alpha  occ. eigenvalues --   -6.18433  -6.18263  -1.24118  -1.08776  -1.04362
 Alpha  occ. eigenvalues --   -0.99607  -0.95380  -0.86681  -0.86463  -0.73612
 Alpha  occ. eigenvalues --   -0.68476  -0.67477  -0.62739  -0.60290  -0.58407
 Alpha  occ. eigenvalues --   -0.56567  -0.55158  -0.52693  -0.47356  -0.45582
 Alpha  occ. eigenvalues --   -0.43686  -0.41938  -0.39083  -0.37415  -0.35596
 Alpha virt. eigenvalues --    0.03077   0.03879   0.04579   0.05332   0.05416
 Alpha virt. eigenvalues --    0.05874   0.06531   0.07394   0.07798   0.07976
 Alpha virt. eigenvalues --    0.08730   0.09798   0.10463   0.11740   0.11943

 Mulliken charges:
               1
     1  H   -0.337247
     2  S   -0.259152
     3  S   -0.234621
     4  B    0.533369
     5  N   -0.417309
     6  C    0.563758
     7  C    0.749654
     8  H   -0.396080
     9  C   -0.047391
    10  H   -0.591821
    11  C    0.397376
    12  C    0.582556
    13  H   -0.559688
    14  H   -0.009300
    15  H    0.025895
 Sum of Mulliken charges =  -0.00000

 Dipole moment (field-independent basis, Debye):
    X=              0.2812    Y=              1.0360    Z=              1.1211  Tot=              1.5522

 Test job not archived.
 1\1\GINC-SE132\SP\RHF\Aug-CC-pVDZ\C5H6B1N1S2\OHZDE\09-Apr-2025\0\\#t h
 f aug-cc-pvdz iop(5/13=1,5/36=2,99/5=2) pseudo=read geom=check guess=(
 read,tcheck) scf=(maxcycle=1)\\title\\0,1\H,0,4.246539,-0.152016,-0.05
 6767\S,0,-2.159573,-1.47983,0.312368\S,0,-1.997138,1.56645,-0.348055\B
 ,0,-1.148123,-0.002728,0.007728\N,0,2.494412,-1.146046,-0.487377\C,0,3
 .162538,-0.081504,-0.032437\C,0,2.538371,1.066134,0.450885\H,0,3.12919
 2,1.902145,0.806048\C,0,1.15034,1.108537,0.466943\H,0,0.639215,1.98794
 ,0.843591\C,0,0.411039,0.002686,0.013632\C,0,1.162234,-1.091064,-0.455

 Normal termination of Gaussian 16 at Wed Apr  9 00:47:32 2025.
