 Gaussian 16, Revision C.01,

 ----------------------------------------------------------------------
 #t hf aug-cc-pvdz symm=none int=(grid=ultrafine) guess=(read,tcheck) s
 table=(opt,rrhf)
 ----------------------------------------------------------------------
 -----
 title
 -----
 Symbolic Z-matrix:
 Charge =  0 Multiplicity = 1

 SCF Done:  E(RHF) =  -475.584775288     A.U. after   12 cycles
 Normal termination of Gaussian 16 at Tue Apr  8 23:32:04 2025.
 Gaussian 16:  ES64L-G16RevC.01  3-Jul-2019

 ----------------------------------------------------------------------
 #t hf aug-cc-pvdz iop(5/13=1,5/36=2,99/5=2) pseudo=read geom=check gue
 ss=(read,tcheck) scf=(maxcycle=1)
 ----------------------------------------------------------------------
 -----
 title
 -----
 Structure from the checkpoint file:  "BDE49_nonexpt_1452_mol1.chk"
 Charge =  0 Multiplicity = 1

                         Standard orientation:
 ---------------------------------------------------------------------
 Center     Atomic      Atomic             Coordinates (Angstroms)
 Number     Number       Type             X           Y           Z
 ---------------------------------------------------------------------
      1          7           0       -2.382579   -0.124073   -0.096190
      2          6           0       -1.052258    0.482882    0.044103
      3          6           0        0.033921   -0.589369   -0.049716
      4          1           0       -0.923020    1.193990   -0.777572
      5          1           0       -2.601391   -0.678199    0.726979
      6          1           0       -3.093504    0.598574   -0.153945
      7         15           0        1.808044   -0.007050   -0.001206
      8          1           0       -0.075262   -1.311477    0.768078
      9          1           0       -0.097652   -1.157427   -0.975319
     10          1           0       -0.915877    1.051896    0.977950
     11          1           0        1.689171    0.872364    1.108922
     12          1           0        1.684941    1.043465   -0.949995
 ---------------------------------------------------------------------

 SCF Done:  E(RHF) =  -475.648375974     A.U. after    2 cycles

 The electronic state is 1-A.
 Alpha  occ. eigenvalues --  -81.25171 -15.61109 -11.26783 -11.24174  -7.75524
 Alpha  occ. eigenvalues --   -4.89471  -4.89447  -4.89173  -1.15203  -0.99428
 Alpha  occ. eigenvalues --   -0.84047  -0.75826  -0.66687  -0.62892  -0.58917
 Alpha  occ. eigenvalues --   -0.53897  -0.51055  -0.48585  -0.46504  -0.39344
 Alpha  occ. eigenvalues --   -0.34941
 Alpha virt. eigenvalues --    0.03331   0.04477   0.04602   0.05252   0.06932
 Alpha virt. eigenvalues --    0.07495   0.07874   0.09367   0.10736   0.11732
 Alpha virt. eigenvalues --    0.12271   0.12895   0.14785   0.16049   0.16686

 Mulliken charges:
               1
     1  N   -0.355761
     2  C    0.643861
     3  C   -0.132933
     4  H   -0.190972
     5  H    0.022347
     6  H   -0.017065
     7  P    0.094536
     8  H   -0.101062
     9  H   -0.048369
    10  H   -0.130422
    11  H    0.107407
    12  H    0.108432
 Sum of Mulliken charges =  -0.00000

 Dipole moment (field-independent basis, Debye):
    X=             -1.2671    Y=              0.9479    Z=              1.0868  Tot=              1.9197

 Test job not archived.
 1\1\GINC-SE343\SP\RHF\Aug-CC-pVDZ\C2H8N1P1\OHZDE\08-Apr-2025\0\\#t hf
 aug-cc-pvdz iop(5/13=1,5/36=2,99/5=2) pseudo=read geom=check guess=(re
 ad,tcheck) scf=(maxcycle=1)\\title\\0,1\N,0,-2.382579,-0.124073,-0.096
 19\C,0,-1.052258,0.482882,0.044103\C,0,0.033921,-0.589369,-0.049716\H,
 0,-0.92302,1.19399,-0.777572\H,0,-2.601391,-0.678199,0.726979\H,0,-3.0
 93504,0.598574,-0.153945\P,0,1.808044,-0.00705,-0.001206\H,0,-0.075262
 ,-1.311477,0.768078\H,0,-0.097652,-1.157427,-0.975319\H,0,-0.915877,1.
 051896,0.97795\H,0,1.689171,0.872364,1.108922\H,0,1.684941,1.043465,-0

 Normal termination of Gaussian 16 at Tue Apr  8 23:32:07 2025.
