 Gaussian 16, Revision C.01,

 ----------------------------------------------------------------------
 #t hf aug-cc-pvdz symm=none int=(grid=ultrafine) guess=(read,tcheck) s
 table=(opt,rrhf)
 ----------------------------------------------------------------------
 -----
 title
 -----
 Symbolic Z-matrix:
 Charge =  0 Multiplicity = 1

 SCF Done:  E(RHF) =  -797.527298453     A.U. after   14 cycles
 Normal termination of Gaussian 16 at Tue Apr  8 23:13:02 2025.
 Gaussian 16:  ES64L-G16RevC.01  3-Jul-2019

 ----------------------------------------------------------------------
 #t hf aug-cc-pvdz iop(5/13=1,5/36=2,99/5=2) pseudo=read geom=check gue
 ss=(read,tcheck) scf=(maxcycle=1)
 ----------------------------------------------------------------------
 -----
 title
 -----
 Structure from the checkpoint file:  "BDE49_expt_843_mol1.chk"
 Charge =  0 Multiplicity = 1

                         Standard orientation:
 ---------------------------------------------------------------------
 Center     Atomic      Atomic             Coordinates (Angstroms)
 Number     Number       Type             X           Y           Z
 ---------------------------------------------------------------------
      1          6           0       -3.203117    0.309059   -0.750542
      2          6           0       -1.883045    0.957194   -0.327505
      3          1           0       -3.116443   -0.136409   -1.745575
      4          1           0       -4.002263    1.053705   -0.785163
      5          1           0       -3.504801   -0.480829   -0.060511
      6          6           0       -0.674405    0.012876   -0.314762
      7          1           0       -1.995070    1.424161    0.658953
      8          1           0       -1.649437    1.772314   -1.024409
      9          6           0        0.664868    0.756627   -0.128274
     10          6           0        1.855994   -0.122285   -0.580969
     11          8           0        1.782828   -0.904446   -1.490942
     12          8           0        2.981555    0.113089    0.100004
     13          7           0        0.948949    1.309663    1.199337
     14         16           0       -0.844440   -1.374374    0.904697
     15          1           0       -0.606458   -0.507496   -1.272495
     16          1           0        0.667223    1.597900   -0.833491
     17          1           0        2.731599    0.762696    0.792901
     18          1           0        0.651088    0.658282    1.921588
     19          1           0        0.490661    2.199312    1.354206
     20          1           0       -1.474548   -0.671268    1.863296
 ---------------------------------------------------------------------

 SCF Done:  E(RHF) =  -797.669690889     A.U. after    2 cycles

 The electronic state is 1-A.
 Alpha  occ. eigenvalues --  -93.54631 -20.61240 -20.55510 -15.65135 -11.39326
 Alpha  occ. eigenvalues --  -11.31100 -11.29431 -11.26137 -11.23926  -8.84337
 Alpha  occ. eigenvalues --   -6.18519  -6.18294  -6.17999  -1.41584  -1.32688
 Alpha  occ. eigenvalues --   -1.19984  -1.09392  -1.00521  -0.95887  -0.89191
 Alpha  occ. eigenvalues --   -0.82868  -0.79800  -0.74757  -0.70258  -0.68185
 Alpha  occ. eigenvalues --   -0.64674  -0.63850  -0.63173  -0.60595  -0.59635
 Alpha  occ. eigenvalues --   -0.56884  -0.53410  -0.52715  -0.52024  -0.49802
 Alpha  occ. eigenvalues --   -0.48826  -0.47577  -0.44668  -0.42862  -0.37211
 Alpha virt. eigenvalues --    0.02176   0.03567   0.03798   0.04758   0.05712
 Alpha virt. eigenvalues --    0.06210   0.06364   0.07243   0.08506   0.08919
 Alpha virt. eigenvalues --    0.09196   0.10247   0.11193   0.12415   0.12926

 Mulliken charges:
               1
     1  C    0.527743
     2  C    0.217662
     3  H   -0.057851
     4  H   -0.045826
     5  H   -0.065433
     6  C   -0.189663
     7  H   -0.204013
     8  H   -0.095050
     9  C    0.341226
    10  C    0.716714
    11  O   -0.479171
    12  O   -0.490117
    13  N   -0.626955
    14  S    0.148633
    15  H   -0.201805
    16  H   -0.019211
    17  H    0.262516
    18  H    0.094541
    19  H    0.057501
    20  H    0.108562
 Sum of Mulliken charges =  -0.00000

 Dipole moment (field-independent basis, Debye):
    X=             -3.8097    Y=              4.7607    Z=              2.6944  Tot=              6.6662

 Test job not archived.
 1\1\GINC-SE362\SP\RHF\Aug-CC-pVDZ\C5H11N1O2S1\OHZDE\08-Apr-2025\0\\#t
 hf aug-cc-pvdz iop(5/13=1,5/36=2,99/5=2) pseudo=read geom=check guess=
 (read,tcheck) scf=(maxcycle=1)\\title\\0,1\C,0,-3.203117,0.309058,-0.7
 50542\C,0,-1.883045,0.957194,-0.327505\H,0,-3.116443,-0.13641,-1.74557
 5\H,0,-4.002263,1.053704,-0.785163\H,0,-3.504801,-0.48083,-0.060511\C,
 0,-0.674405,0.012876,-0.314762\H,0,-1.99507,1.424161,0.658953\H,0,-1.6
 49438,1.772314,-1.024409\C,0,0.664868,0.756627,-0.128274\C,0,1.855994,
 -0.122285,-0.580969\O,0,1.782828,-0.904446,-1.490942\O,0,2.981555,0.11

 Normal termination of Gaussian 16 at Tue Apr  8 23:13:11 2025.
