 Gaussian 16, Revision C.01,

 ----------------------------------------------------------------------
 #t hf aug-cc-pvdz symm=none int=(grid=ultrafine) guess=(read,tcheck) s
 table=(opt,rrhf)
 ----------------------------------------------------------------------
 -----
 title
 -----
 Symbolic Z-matrix:
 Charge =  0 Multiplicity = 1

 SCF Done:  E(RHF) =  -379.633366097     A.U. after   13 cycles
 Normal termination of Gaussian 16 at Tue Apr  8 23:00:57 2025.
 Gaussian 16:  ES64L-G16RevC.01  3-Jul-2019

 ----------------------------------------------------------------------
 #t hf aug-cc-pvdz iop(5/13=1,5/36=2,99/5=2) pseudo=read geom=check gue
 ss=(read,tcheck) scf=(maxcycle=1)
 ----------------------------------------------------------------------
 -----
 title
 -----
 Structure from the checkpoint file:  "BDE49_expt_267_mol1.chk"
 Charge =  0 Multiplicity = 1

                         Standard orientation:
 ---------------------------------------------------------------------
 Center     Atomic      Atomic             Coordinates (Angstroms)
 Number     Number       Type             X           Y           Z
 ---------------------------------------------------------------------
      1          6           0        2.342799   -0.767077    0.328269
      2          6           0        1.207731    0.090691   -0.157385
      3          1           0        3.289590   -0.298291    0.068633
      4          1           0        2.277208   -1.765105   -0.109109
      5          1           0        2.269947   -0.879626    1.413282
      6          8           0        1.284112    1.172900   -0.648197
      7          8           0       -0.000009   -0.595522   -0.000061
      8          6           0       -1.207718    0.090735    0.157298
      9          8           0       -1.284059    1.172889    0.648237
     10          6           0       -2.342841   -0.767046   -0.328204
     11          1           0       -2.277171   -1.765084    0.109140
     12          1           0       -2.270143   -0.879566   -1.413230
     13          1           0       -3.289603   -0.298283   -0.068420
 ---------------------------------------------------------------------

 SCF Done:  E(RHF) =  -379.756647159     A.U. after    2 cycles

 The electronic state is 1-A.
 Alpha  occ. eigenvalues --  -20.63801 -20.58150 -20.58150 -11.41542 -11.41512
 Alpha  occ. eigenvalues --  -11.26522 -11.26521  -1.45070  -1.38560  -1.33758
 Alpha  occ. eigenvalues --   -1.05415  -1.01526  -0.88314  -0.75203  -0.71775
 Alpha  occ. eigenvalues --   -0.71505  -0.70042  -0.64260  -0.63300  -0.60403
 Alpha  occ. eigenvalues --   -0.59546  -0.58441  -0.56570  -0.53924  -0.50477
 Alpha  occ. eigenvalues --   -0.49867  -0.46447
 Alpha virt. eigenvalues --    0.02861   0.04054   0.05050   0.05350   0.06258
 Alpha virt. eigenvalues --    0.06738   0.08080   0.11415   0.12171   0.12280
 Alpha virt. eigenvalues --    0.13099   0.13120   0.14070   0.14927   0.15484

 Mulliken charges:
               1
     1  C    0.275916
     2  C    0.359794
     3  H   -0.007818
     4  H    0.019929
     5  H    0.042131
     6  O   -0.384701
     7  O   -0.610473
     8  C    0.359757
     9  O   -0.384700
    10  C    0.275931
    11  H    0.019932
    12  H    0.042120
    13  H   -0.007817
 Sum of Mulliken charges =  -0.00000

 Dipole moment (field-independent basis, Debye):
    X=             -0.0001    Y=             -4.7378    Z=             -0.0001  Tot=              4.7378

 Test job not archived.
 1\1\GINC-SE038\SP\RHF\Aug-CC-pVDZ\C4H6O3\OHZDE\08-Apr-2025\0\\#t hf au
 g-cc-pvdz iop(5/13=1,5/36=2,99/5=2) pseudo=read geom=check guess=(read
 ,tcheck) scf=(maxcycle=1)\\title\\0,1\C,0,-2.342799,-0.767077,-0.32826
 9\C,0,-1.207731,0.090691,0.157385\H,0,-3.28959,-0.298291,-0.068633\H,0
 ,-2.277208,-1.765105,0.109109\H,0,-2.269947,-0.879626,-1.413282\O,0,-1
 .284112,1.1729,0.648197\O,0,0.000009,-0.595522,0.000061\C,0,1.207718,0
 .090735,-0.157298\O,0,1.284059,1.172889,-0.648237\C,0,2.342841,-0.7670
 46,0.328204\H,0,2.277171,-1.765084,-0.10914\H,0,2.270143,-0.879566,1.4

 Normal termination of Gaussian 16 at Tue Apr  8 23:01:02 2025.
