 Gaussian 16, Revision C.01,

 ----------------------------------------------------------------------
 #t hf aug-cc-pvdz symm=none int=(grid=ultrafine) guess=(read,tcheck) s
 table=(opt,rrhf)
 ----------------------------------------------------------------------
 -----
 title
 -----
 Symbolic Z-matrix:
 Charge =  0 Multiplicity = 1

 SCF Done:  E(RHF) =  -1059.93357062     A.U. after   15 cycles
 Normal termination of Gaussian 16 at Tue Apr  8 23:42:35 2025.
 Gaussian 16:  ES64L-G16RevC.01  3-Jul-2019

 ----------------------------------------------------------------------
 #t hf aug-cc-pvdz iop(5/13=1,5/36=2,99/5=2) pseudo=read geom=check gue
 ss=(read,tcheck) scf=(maxcycle=1)
 ----------------------------------------------------------------------
 -----
 title
 -----
 Structure from the checkpoint file:  "BDE49_nonexpt_1675_mol1.chk"
 Charge =  0 Multiplicity = 1

                         Standard orientation:
 ---------------------------------------------------------------------
 Center     Atomic      Atomic             Coordinates (Angstroms)
 Number     Number       Type             X           Y           Z
 ---------------------------------------------------------------------
      1          6           0       -0.987907   -0.399527    0.286221
      2         15           0        2.235248    0.142859   -0.740386
      3          9           0        1.996385    1.597747   -0.024680
      4          9           0        3.593135   -0.300796    0.050719
      5          6           0       -1.354587    0.931984    0.549704
      6          6           0       -1.950462   -1.256377   -0.271543
      7          6           0       -2.640808    1.385661    0.272446
      8          6           0       -3.584414    0.518838   -0.276993
      9          6           0       -3.237885   -0.802382   -0.549702
     10          1           0       -3.969147   -1.479548   -0.976813
     11          1           0       -1.695449   -2.288971   -0.486542
     12          1           0       -2.906905    2.415307    0.483656
     13          1           0       -4.586439    0.872932   -0.491951
     14          1           0       -0.630290    1.621220    0.971140
     15         14           0        0.747481   -1.002741    0.639429
     16          1           0        0.852599   -2.447694    0.325605
     17          1           0        1.172881   -0.739502    2.033536
 ---------------------------------------------------------------------

 SCF Done:  E(RHF) =  -1060.12378873     A.U. after    2 cycles

 The electronic state is 1-A.
 Alpha  occ. eigenvalues --  -81.38145 -69.08532 -26.13110 -26.13064 -11.26484
 Alpha  occ. eigenvalues --  -11.26306 -11.26240 -11.25773 -11.25725 -11.25155
 Alpha  occ. eigenvalues --   -7.86966  -6.83930  -5.01048  -5.00745  -5.00275
 Alpha  occ. eigenvalues --   -3.94648  -3.94633  -3.94602  -1.65874  -1.64630
 Alpha  occ. eigenvalues --   -1.15420  -1.02405  -1.02214  -0.88220  -0.84072
 Alpha  occ. eigenvalues --   -0.83880  -0.77964  -0.77033  -0.75642  -0.73240
 Alpha  occ. eigenvalues --   -0.72892  -0.70285  -0.68640  -0.64327  -0.64126
 Alpha  occ. eigenvalues --   -0.60533  -0.56830  -0.54565  -0.51553  -0.51120
 Alpha  occ. eigenvalues --   -0.49716  -0.46896  -0.37593  -0.35411  -0.34377
 Alpha virt. eigenvalues --    0.02967   0.03799   0.04270   0.05166   0.05477
 Alpha virt. eigenvalues --    0.05972   0.06701   0.07085   0.07801   0.08210
 Alpha virt. eigenvalues --    0.08929   0.09226   0.09999   0.10906   0.11992

 Mulliken charges:
               1
     1  C   -0.322189
     2  P    1.005875
     3  F   -0.651280
     4  F   -0.632533
     5  C    0.525428
     6  C    0.311696
     7  C    0.749658
     8  C    0.538096
     9  C    0.729874
    10  H   -0.440375
    11  H   -0.599883
    12  H   -0.435225
    13  H   -0.434523
    14  H   -0.597503
    15  Si   0.166133
    16  H   -0.027228
    17  H    0.113977
 Sum of Mulliken charges =   0.00000

 Dipole moment (field-independent basis, Debye):
    X=             -3.2550    Y=             -1.1929    Z=             -0.5343  Tot=              3.5076

 Test job not archived.
 1\1\GINC-SE084\SP\RHF\Aug-CC-pVDZ\C6H7F2P1Si1\OHZDE\08-Apr-2025\0\\#t
 hf aug-cc-pvdz iop(5/13=1,5/36=2,99/5=2) pseudo=read geom=check guess=
 (read,tcheck) scf=(maxcycle=1)\\title\\0,1\C,0,-0.987907,-0.399527,0.2
 86221\P,0,2.235248,0.142859,-0.740386\F,0,1.996385,1.597747,-0.02468\F
 ,0,3.593135,-0.300796,0.050719\C,0,-1.354587,0.931984,0.549704\C,0,-1.
 950462,-1.256377,-0.271543\C,0,-2.640808,1.385661,0.272446\C,0,-3.5844
 14,0.518838,-0.276993\C,0,-3.237885,-0.802382,-0.549702\H,0,-3.969147,
 -1.479548,-0.976813\H,0,-1.695449,-2.288971,-0.486542\H,0,-2.906905,2.

 Normal termination of Gaussian 16 at Tue Apr  8 23:42:46 2025.
