 Gaussian 16, Revision C.01,

 ----------------------------------------------------------------------
 #t hf aug-cc-pvdz symm=none int=(grid=ultrafine) guess=(read,tcheck) s
 table=opt
 ----------------------------------------------------------------------
 -----
 title
 -----
 Symbolic Z-matrix:
 Charge =  0 Multiplicity = 2

 SCF Done:  E(UHF) =  -537.536270522     A.U. after   16 cycles

 1\1\GINC-SE220\Stability\UHF\Aug-CC-pVDZ\C2H4Cl1\OHZDE\08-Apr-2025\0\\
 #t hf aug-cc-pvdz symm=none int=(grid=ultrafine) guess=(read,tcheck) s
 table=opt\\title\\0,2\C,0,-1.654338,-0.26453,0.007441\H,0,-1.605196,-1
 .07853,-0.722783\H,0,-2.548771,0.329917,-0.196323\H,0,-1.778919,-0.728
 02,0.997616\C,0,-0.450754,0.598485,-0.059506\Cl,0,1.118503,-0.128558,0
 .004966\H,0,-0.451108,1.658382,0.149457\\Version=ES64L-G16RevC.01\HF=-
 537.5362705\S2=0.766767\S2-1=0.\S2A=0.750218\RMSD=5.803e-09\Dipole=-0.
 7201965,0.2085356,0.066183\Quadrupole=0.2832818,0.594313,-0.8775948,-0

 Normal termination of Gaussian 16 at Tue Apr  8 22:29:18 2025.
 Gaussian 16:  ES64L-G16RevC.01  3-Jul-2019

 ----------------------------------------------------------------------
 #t hf aug-cc-pvdz iop(5/13=1,5/36=2,99/5=2) pseudo=read geom=check gue
 ss=(read,tcheck) scf=(maxcycle=1)
 ----------------------------------------------------------------------
 -----
 title
 -----
 Structure from the checkpoint file:  "BDE49_expt_1027_mol2.chk"
 Charge =  0 Multiplicity = 2

                         Standard orientation:
 ---------------------------------------------------------------------
 Center     Atomic      Atomic             Coordinates (Angstroms)
 Number     Number       Type             X           Y           Z
 ---------------------------------------------------------------------
      1          6           0       -1.654338   -0.264530    0.007441
      2          1           0       -1.605196   -1.078530   -0.722783
      3          1           0       -2.548771    0.329917   -0.196323
      4          1           0       -1.778919   -0.728020    0.997616
      5          6           0       -0.450754    0.598485   -0.059506
      6         17           0        1.118503   -0.128558    0.004966
      7          1           0       -0.451108    1.658382    0.149457
 ---------------------------------------------------------------------

 SCF Done:  E(UHF) =  -537.581484152     A.U. after    2 cycles

 The electronic state is 2-A.
 Alpha  occ. eigenvalues -- -103.66323 -11.30730 -11.24995 -10.69617  -8.35248
 Alpha  occ. eigenvalues --   -8.35165  -8.35039  -1.18740  -1.01788  -0.83885
 Alpha  occ. eigenvalues --   -0.64509  -0.61527  -0.59073  -0.53253  -0.51192
 Alpha  occ. eigenvalues --   -0.45796  -0.35515
 Alpha virt. eigenvalues --    0.03493   0.04797   0.05871   0.06284   0.09204
 Alpha virt. eigenvalues --    0.11622   0.13036   0.14553   0.14877   0.15737
 Alpha virt. eigenvalues --    0.16924   0.17631   0.18780   0.18837   0.21267

  Beta  occ. eigenvalues -- -103.66299 -11.27993 -11.25322 -10.69590  -8.35467
  Beta  occ. eigenvalues --   -8.35022  -8.34840  -1.16892  -0.99883  -0.78483
  Beta  occ. eigenvalues --   -0.63383  -0.57948  -0.57219  -0.52841  -0.47560
  Beta  occ. eigenvalues --   -0.45662
  Beta virt. eigenvalues --    0.03525   0.04853   0.05891   0.06299   0.08698
  Beta virt. eigenvalues --    0.09455   0.11915   0.14610   0.14917   0.15032
  Beta virt. eigenvalues --    0.16920   0.17547   0.17754   0.18796   0.19745

 Mulliken charges and spin densities:
               1          2
     1  C    0.381082  -0.207945
     2  H   -0.011033   0.020384
     3  H   -0.042939   0.003745
     4  H    0.021180   0.047172
     5  C    0.076908   1.265661
     6  Cl  -0.227295  -0.019345
     7  H   -0.197902  -0.109672
 Sum of Mulliken charges =   0.00000   1.00000

 Dipole moment (field-independent basis, Debye):
    X=             -1.8930    Y=              0.5445    Z=              0.1675  Tot=              1.9768
                          Isotropic Fermi Contact Couplings
        Atom                 a.u.       MegaHertz       Gauss      10(-4) cm-1
     1  C(13)             -0.05876     -66.05787     -23.57109     -22.03453
     2  H(1)               0.01283      57.32835      20.45618      19.12268
     3  H(1)               0.00339      15.15679       5.40832       5.05576
     4  H(1)               0.02552     114.06464      40.70110      38.04787
     5  C(13)              0.27735     311.79410     111.25589     104.00332
     6  Cl(35)             0.02618      11.47906       4.09602       3.82900
     7  H(1)              -0.02541    -113.59942     -40.53510     -37.89269
 --------------------------------------------------------

 Normal termination of Gaussian 16 at Tue Apr  8 22:29:20 2025.
