 Gaussian 16, Revision C.01,

 ----------------------------------------------------------------------
 #t hf aug-cc-pvdz symm=none int=(grid=ultrafine) guess=(read,tcheck) s
 table=(opt,rrhf)
 ----------------------------------------------------------------------
 -----
 title
 -----
 Symbolic Z-matrix:
 Charge =  0 Multiplicity = 1

 SCF Done:  E(RHF) =  -444.253376105     A.U. after   12 cycles
 Normal termination of Gaussian 16 at Wed Apr  9 00:00:27 2025.
 Gaussian 16:  ES64L-G16RevC.01  3-Jul-2019

 ----------------------------------------------------------------------
 #t hf aug-cc-pvdz iop(5/13=1,5/36=2,99/5=2) pseudo=read geom=check gue
 ss=(read,tcheck) scf=(maxcycle=1)
 ----------------------------------------------------------------------
 -----
 title
 -----
 Structure from the checkpoint file:  "BDE49_nonexpt_2166_mol1.chk"
 Charge =  0 Multiplicity = 1

                         Standard orientation:
 ---------------------------------------------------------------------
 Center     Atomic      Atomic             Coordinates (Angstroms)
 Number     Number       Type             X           Y           Z
 ---------------------------------------------------------------------
      1         14           0        0.762470   -0.510817    0.177607
      2          8           0        1.380547    0.971758   -0.235935
      3          1           0        2.265409    1.204698    0.051630
      4          6           0       -1.010779   -0.541601   -0.414297
      5          6           0       -1.908999    0.543082    0.207307
      6          1           0       -1.527354    1.542637   -0.013591
      7          1           0       -1.958551    0.442461    1.295542
      8          1           0       -2.931595    0.483118   -0.175989
      9          1           0       -1.412966   -1.539929   -0.199748
     10          1           0       -1.003370   -0.449292   -1.506645
     11          1           0        0.828825   -0.708238    1.650784
     12          1           0        1.539318   -1.606970   -0.459064
 ---------------------------------------------------------------------

 SCF Done:  E(RHF) =  -444.337541650     A.U. after    2 cycles

 The electronic state is 1-A.
 Alpha  occ. eigenvalues --  -69.08199 -20.56712 -11.22753 -11.21886  -6.83042
 Alpha  occ. eigenvalues --   -3.93968  -3.93818  -3.93802  -1.29631  -1.01086
 Alpha  occ. eigenvalues --   -0.84484  -0.74419  -0.64475  -0.59885  -0.58650
 Alpha  occ. eigenvalues --   -0.56009  -0.53959  -0.51034  -0.49264  -0.44904
 Alpha  occ. eigenvalues --   -0.42689
 Alpha virt. eigenvalues --    0.03246   0.04450   0.05193   0.05369   0.06762
 Alpha virt. eigenvalues --    0.07158   0.07529   0.07837   0.09681   0.10031
 Alpha virt. eigenvalues --    0.10461   0.13771   0.14274   0.15746   0.16704

 Mulliken charges:
               1
     1  Si   1.035248
     2  O   -0.808054
     3  H    0.112068
     4  C    0.099571
     5  C    0.214400
     6  H   -0.085749
     7  H   -0.112677
     8  H   -0.080517
     9  H   -0.165579
    10  H   -0.149542
    11  H   -0.009397
    12  H   -0.049772
 Sum of Mulliken charges =  -0.00000

 Dipole moment (field-independent basis, Debye):
    X=              0.5118    Y=             -0.3201    Z=              0.4298  Tot=              0.7410

 Test job not archived.
 1\1\GINC-SE073\SP\RHF\Aug-CC-pVDZ\C2H8O1Si1\OHZDE\09-Apr-2025\0\\#t hf
  aug-cc-pvdz iop(5/13=1,5/36=2,99/5=2) pseudo=read geom=check guess=(r
 ead,tcheck) scf=(maxcycle=1)\\title\\0,1\Si,0,0.76247,-0.510817,0.1776
 07\O,0,1.380547,0.971758,-0.235935\H,0,2.265409,1.204698,0.05163\C,0,-
 1.010779,-0.541601,-0.414297\C,0,-1.908999,0.543082,0.207307\H,0,-1.52
 7354,1.542637,-0.013591\H,0,-1.958551,0.442461,1.295542\H,0,-2.931595,
 0.483118,-0.175989\H,0,-1.412966,-1.539929,-0.199748\H,0,-1.00337,-0.4
 49292,-1.506645\H,0,0.828825,-0.708238,1.650784\H,0,1.539318,-1.60697,

 Normal termination of Gaussian 16 at Wed Apr  9 00:00:31 2025.
