 Gaussian 16, Revision C.01,

 ----------------------------------------------------------------------
 #t hf aug-cc-pvdz symm=none int=(grid=ultrafine) guess=(read,tcheck) s
 table=(opt,rrhf)
 ----------------------------------------------------------------------
 -----
 title
 -----
 Symbolic Z-matrix:
 Charge =  0 Multiplicity = 1

 SCF Done:  E(RHF) =  -1186.83092604     A.U. after   12 cycles
 Normal termination of Gaussian 16 at Tue Apr  8 23:46:15 2025.
 Gaussian 16:  ES64L-G16RevC.01  3-Jul-2019

 ----------------------------------------------------------------------
 #t hf aug-cc-pvdz iop(5/13=1,5/36=2,99/5=2) pseudo=read geom=check gue
 ss=(read,tcheck) scf=(maxcycle=1)
 ----------------------------------------------------------------------
 -----
 title
 -----
 Structure from the checkpoint file:  "BDE49_nonexpt_1799_mol1.chk"
 Charge =  0 Multiplicity = 1

                         Standard orientation:
 ---------------------------------------------------------------------
 Center     Atomic      Atomic             Coordinates (Angstroms)
 Number     Number       Type             X           Y           Z
 ---------------------------------------------------------------------
      1         14           0        0.472686   -0.812057    0.378653
      2          6           0       -1.889180    1.151526    0.371528
      3         16           0       -1.448228   -0.433798   -0.458496
      4          1           0       -2.902993    1.388920    0.051257
      5          1           0       -1.217244    1.948754    0.057931
      6          1           0       -1.872589    1.041973    1.455307
      7         17           0        1.914989    0.582018   -0.205313
      8          1           0        0.886353   -2.133998   -0.119771
      9          1           0        0.440791   -0.739543    1.851232
 ---------------------------------------------------------------------

 SCF Done:  E(RHF) =  -1186.90675690     A.U. after    2 cycles

 The electronic state is 1-A.
 Alpha  occ. eigenvalues -- -103.65414 -93.53692 -69.13817 -11.28373 -10.68858
 Alpha  occ. eigenvalues --   -8.83637  -8.34548  -8.34323  -8.34316  -6.88434
 Alpha  occ. eigenvalues --   -6.17735  -6.17551  -6.17275  -3.99272  -3.99186
 Alpha  occ. eigenvalues --   -3.99116  -1.13745  -1.03201  -0.87045  -0.69982
 Alpha  occ. eigenvalues --   -0.60790  -0.60735  -0.54960  -0.53747  -0.50839
 Alpha  occ. eigenvalues --   -0.48232  -0.46070  -0.42856  -0.37108
 Alpha virt. eigenvalues --    0.03493   0.04764   0.05303   0.05649   0.06668
 Alpha virt. eigenvalues --    0.07152   0.08280   0.09710   0.10399   0.12559
 Alpha virt. eigenvalues --    0.12777   0.13872   0.14494   0.14707   0.15714

 Mulliken charges:
               1
     1  Si   0.926954
     2  C    0.112604
     3  S   -0.164519
     4  H   -0.092371
     5  H   -0.089470
     6  H   -0.113981
     7  Cl  -0.529574
     8  H   -0.050266
     9  H    0.000625
 Sum of Mulliken charges =  -0.00000

 Dipole moment (field-independent basis, Debye):
    X=             -1.2943    Y=              0.2949    Z=              1.3316  Tot=              1.8803

 Test job not archived.
 1\1\GINC-SE419\SP\RHF\Aug-CC-pVDZ\C1H5Cl1S1Si1\OHZDE\08-Apr-2025\0\\#t
  hf aug-cc-pvdz iop(5/13=1,5/36=2,99/5=2) pseudo=read geom=check guess
 =(read,tcheck) scf=(maxcycle=1)\\title\\0,1\Si,0,0.472686,-0.812057,0.
 378653\C,0,-1.88918,1.151526,0.371528\S,0,-1.448228,-0.433798,-0.45849
 6\H,0,-2.902993,1.38892,0.051257\H,0,-1.217244,1.948754,0.057931\H,0,-
 1.872589,1.041973,1.455307\Cl,0,1.914989,0.582018,-0.205313\H,0,0.8863
 53,-2.133998,-0.119771\H,0,0.440791,-0.739543,1.851232\\Version=ES64L-
 G16RevC.01\State=1-A\HF=-1186.9067569\RMSD=5.180e-03\Dipole=-0.5092351

 Normal termination of Gaussian 16 at Tue Apr  8 23:46:18 2025.
