 Gaussian 16, Revision C.01,

 ----------------------------------------------------------------------
 #t hf aug-cc-pvdz symm=none int=(grid=ultrafine) guess=(read,tcheck) s
 table=opt
 ----------------------------------------------------------------------
 -----
 title
 -----
 Symbolic Z-matrix:
 Charge =  0 Multiplicity = 2

 SCF Done:  E(UHF) =  -1193.17296014     A.U. after   24 cycles
 Normal termination of Gaussian 16 at Tue Apr  8 23:11:45 2025.
 Gaussian 16:  ES64L-G16RevC.01  3-Jul-2019

 ----------------------------------------------------------------------
 #t hf aug-cc-pvdz iop(5/13=1,5/36=2,99/5=2) pseudo=read geom=check gue
 ss=(read,tcheck) scf=(maxcycle=1)
 ----------------------------------------------------------------------
 -----
 title
 -----
 Structure from the checkpoint file:  "BDE49_expt_845_mol2.chk"
 Charge =  0 Multiplicity = 2

                         Standard orientation:
 ---------------------------------------------------------------------
 Center     Atomic      Atomic             Coordinates (Angstroms)
 Number     Number       Type             X           Y           Z
 ---------------------------------------------------------------------
      1         16           0       -1.707052   -0.313711   -0.086069
      2         16           0        0.130676    0.788290    0.028286
      3          1           0       -1.668509   -0.759932    1.183504
      4         16           0        1.680658   -0.427082   -0.016186
 ---------------------------------------------------------------------

 SCF Done:  E(UHF) =  -1193.23369427     A.U. after    2 cycles

 The electronic state is 2-A.
 Alpha  occ. eigenvalues --  -93.62025 -93.58578 -93.58209  -8.91398  -8.88334
 Alpha  occ. eigenvalues --   -8.87822  -6.25355  -6.25256  -6.25023  -6.23351
 Alpha  occ. eigenvalues --   -6.22036  -6.21860  -6.21680  -6.21521  -6.21311
 Alpha  occ. eigenvalues --   -1.09539  -0.97431  -0.82205  -0.59247  -0.54034
 Alpha  occ. eigenvalues --   -0.51657  -0.50391  -0.40018  -0.38529  -0.37263
 Alpha virt. eigenvalues --    0.03812   0.04725   0.06743   0.10405   0.10569
 Alpha virt. eigenvalues --    0.12327   0.12830   0.13153   0.13454   0.14499
 Alpha virt. eigenvalues --    0.15177   0.17221   0.18381   0.20578   0.23922

  Beta  occ. eigenvalues --  -93.61791 -93.58237 -93.57755  -8.91133  -8.87852
  Beta  occ. eigenvalues --   -8.87419  -6.25226  -6.24942  -6.24208  -6.21942
  Beta  occ. eigenvalues --   -6.21738  -6.21561  -6.21334  -6.20987  -6.19781
  Beta  occ. eigenvalues --   -1.07114  -0.95327  -0.76711  -0.58125  -0.51694
  Beta  occ. eigenvalues --   -0.50647  -0.42262  -0.38754  -0.36854
  Beta virt. eigenvalues --   -0.00311   0.03932   0.05004   0.07064   0.10487
  Beta virt. eigenvalues --    0.10763   0.12494   0.13144   0.13604   0.13756
  Beta virt. eigenvalues --    0.15470   0.15683   0.17799   0.18616   0.20923

 Mulliken charges and spin densities:
               1          2
     1  S   -0.098243  -0.046434
     2  S   -0.058183   0.141695
     3  H    0.158844   0.010994
     4  S   -0.002418   0.893744
 Sum of Mulliken charges =  -0.00000   1.00000

 Dipole moment (field-independent basis, Debye):
    X=             -0.4654    Y=             -0.4052    Z=              0.7757  Tot=              0.9912
                          Isotropic Fermi Contact Couplings
        Atom                 a.u.       MegaHertz       Gauss      10(-4) cm-1
     1  S(33)             -0.00060      -0.20695      -0.07384      -0.06903
     2  S(33)              0.10118      34.75386      12.40104      11.59264
     3  H(1)               0.00401      17.90558       6.38915       5.97266
     4  S(33)              0.19723      67.74382      24.17268      22.59690
 --------------------------------------------------------
       Center         ----  Spin Dipole Couplings  ----
                      3XX-RR        3YY-RR        3ZZ-RR
 --------------------------------------------------------

 Normal termination of Gaussian 16 at Tue Apr  8 23:11:46 2025.
