 Gaussian 16, Revision C.01,

 ----------------------------------------------------------------------
 #t hf aug-cc-pvdz symm=none int=(grid=ultrafine) guess=(read,tcheck) s
 table=(opt,rrhf)
 ----------------------------------------------------------------------
 -----
 title
 -----
 Symbolic Z-matrix:
 Charge =  0 Multiplicity = 1

 SCF Done:  E(RHF) =  -582.297511675     A.U. after   13 cycles
 Normal termination of Gaussian 16 at Wed Apr  9 00:46:29 2025.
 Gaussian 16:  ES64L-G16RevC.01  3-Jul-2019

 ----------------------------------------------------------------------
 #t hf aug-cc-pvdz iop(5/13=1,5/36=2,99/5=2) pseudo=read geom=check gue
 ss=(read,tcheck) scf=(maxcycle=1)
 ----------------------------------------------------------------------
 -----
 title
 -----
 Structure from the checkpoint file:  "BDE49_nonexpt_846_mol1.chk"
 Charge =  0 Multiplicity = 1

                         Standard orientation:
 ---------------------------------------------------------------------
 Center     Atomic      Atomic             Coordinates (Angstroms)
 Number     Number       Type             X           Y           Z
 ---------------------------------------------------------------------
      1          5           0        1.756523    0.129023    0.017258
      2          8           0        2.917847   -0.478369   -0.387205
      3          8           0        1.784519    1.475764    0.214478
      4          6           0       -1.450357   -0.103450   -0.563916
      5          6           0       -2.211751    1.067072    0.036249
      6          6           0       -2.875662   -0.275104   -0.063591
      7          1           0       -2.536800    1.852406   -0.636068
      8          1           0       -1.916966    1.421333    1.017572
      9          1           0       -3.034928   -0.835811    0.850754
     10          1           0       -3.655914   -0.406793   -0.804438
     11          1           0        2.658142    1.850500    0.040323
     12          1           0        2.831236   -1.426814   -0.512083
     13         14           0       -0.000398   -0.857085    0.342600
     14          1           0       -0.329078   -0.856164    1.794517
     15          1           0        0.166274   -2.285942   -0.057849
     16          1           0       -1.351310   -0.068905   -1.646053
 ---------------------------------------------------------------------

 SCF Done:  E(RHF) =  -582.417987874     A.U. after    2 cycles

 The electronic state is 1-A.
 Alpha  occ. eigenvalues --  -69.04387 -20.59031 -20.58196 -11.23832 -11.23741
 Alpha  occ. eigenvalues --  -11.22613  -7.66027  -6.79843  -3.90623  -3.90615
 Alpha  occ. eigenvalues --   -3.90550  -1.34889  -1.31047  -1.12004  -0.81929
 Alpha  occ. eigenvalues --   -0.81742  -0.78674  -0.75389  -0.69600  -0.65620
 Alpha  occ. eigenvalues --   -0.62823  -0.59541  -0.58844  -0.58528  -0.52441
 Alpha  occ. eigenvalues --   -0.51598  -0.47902  -0.45675  -0.44549  -0.40881
 Alpha  occ. eigenvalues --   -0.39199
 Alpha virt. eigenvalues --    0.03057   0.04349   0.04652   0.04843   0.05909
 Alpha virt. eigenvalues --    0.06208   0.06709   0.07023   0.07445   0.08398
 Alpha virt. eigenvalues --    0.09357   0.09829   0.10207   0.10443   0.11837

 Mulliken charges:
               1
     1  B    0.964629
     2  O   -0.499727
     3  O   -0.523505
     4  C    0.364592
     5  C    0.642771
     6  C    0.712786
     7  H   -0.324123
     8  H   -0.362875
     9  H   -0.340090
    10  H   -0.312819
    11  H    0.170281
    12  H    0.185110
    13  Si  -0.385127
    14  H    0.111538
    15  H    0.087007
    16  H   -0.490450
 Sum of Mulliken charges =  -0.00000

 Dipole moment (field-independent basis, Debye):
    X=              0.3656    Y=             -0.5911    Z=             -0.8259  Tot=              1.0794

 Test job not archived.
 1\1\GINC-SE105\SP\RHF\Aug-CC-pVDZ\C3H9B1O2Si1\OHZDE\09-Apr-2025\0\\#t
 hf aug-cc-pvdz iop(5/13=1,5/36=2,99/5=2) pseudo=read geom=check guess=
 (read,tcheck) scf=(maxcycle=1)\\title\\0,1\B,0,1.756523,0.129023,0.017
 258\O,0,2.917847,-0.47837,-0.387205\O,0,1.784519,1.475764,0.214478\C,0
 ,-1.450357,-0.10345,-0.563916\C,0,-2.211751,1.067072,0.036249\C,0,-2.8
 75662,-0.275104,-0.063591\H,0,-2.5368,1.852406,-0.636068\H,0,-1.916966
 ,1.421333,1.017572\H,0,-3.034928,-0.835811,0.850754\H,0,-3.655914,-0.4
 06793,-0.804438\H,0,2.658142,1.8505,0.040323\H,0,2.831236,-1.426815,-0

 Normal termination of Gaussian 16 at Wed Apr  9 00:46:35 2025.
