 Gaussian 16, Revision C.01,

 ----------------------------------------------------------------------
 #t hf aug-cc-pvdz symm=none int=(grid=ultrafine) guess=(read,tcheck) s
 table=(opt,rrhf)
 ----------------------------------------------------------------------
 -----
 title
 -----
 Symbolic Z-matrix:
 Charge =  0 Multiplicity = 1

 SCF Done:  E(RHF) =  -1222.98745904     A.U. after   18 cycles
 Normal termination of Gaussian 16 at Tue Apr  8 23:31:10 2025.
 Gaussian 16:  ES64L-G16RevC.01  3-Jul-2019

 ----------------------------------------------------------------------
 #t hf aug-cc-pvdz iop(5/13=1,5/36=2,99/5=2) pseudo=read geom=check gue
 ss=(read,tcheck) scf=(maxcycle=1)
 ----------------------------------------------------------------------
 -----
 title
 -----
 Structure from the checkpoint file:  "BDE49_nonexpt_1377_mol1.chk"
 Charge =  0 Multiplicity = 1

                         Standard orientation:
 ---------------------------------------------------------------------
 Center     Atomic      Atomic             Coordinates (Angstroms)
 Number     Number       Type             X           Y           Z
 ---------------------------------------------------------------------
      1          9           0        2.606680    1.061410    0.135770
      2          9           0       -0.689565   -1.429388   -1.605186
      3          8           0        1.640903   -1.637871    1.258477
      4          8           0       -0.125840    2.411707   -0.243315
      5         15           0        1.499306    0.281068   -0.756832
      6         15           0       -0.875830   -1.477222    0.044715
      7          6           0        0.983965   -1.115264    0.406518
      8          6           0       -0.075346    1.212642   -0.208945
      9          6           0       -1.264136    0.343014    0.284938
     10          6           0       -2.560429    0.735465   -0.444682
     11          1           0       -2.503475    0.500828   -1.509303
     12          1           0       -2.725341    1.809630   -0.337475
     13          1           0       -3.416994    0.207325   -0.019077
     14          6           0       -1.385811    0.586819    1.809968
     15          1           0       -0.475145    0.319812    2.353589
     16          1           0       -1.582326    1.645951    1.987880
     17          1           0       -2.212864    0.003824    2.222817
 ---------------------------------------------------------------------

 SCF Done:  E(RHF) =  -1223.21192678     A.U. after    2 cycles

 The electronic state is 1-A.
 Alpha  occ. eigenvalues --  -81.36429 -81.36330 -26.14895 -26.14410 -20.62925
 Alpha  occ. eigenvalues --  -20.61192 -11.38888 -11.38516 -11.30607 -11.27342
 Alpha  occ. eigenvalues --  -11.26446  -7.85965  -7.85901  -5.00034  -5.00006
 Alpha  occ. eigenvalues --   -4.99718  -4.99627  -4.99506  -4.99422  -1.66735
 Alpha  occ. eigenvalues --   -1.66530  -1.41323  -1.40186  -1.12135  -0.97968
 Alpha  occ. eigenvalues --   -0.97062  -0.88517  -0.87459  -0.81418  -0.77916
 Alpha  occ. eigenvalues --   -0.76489  -0.76285  -0.75596  -0.74780  -0.72152
 Alpha  occ. eigenvalues --   -0.70759  -0.68851  -0.65463  -0.63902  -0.62780
 Alpha  occ. eigenvalues --   -0.59496  -0.58416  -0.57938  -0.56163  -0.54809
 Alpha  occ. eigenvalues --   -0.52352  -0.50037  -0.43886  -0.39637  -0.37070
 Alpha virt. eigenvalues --    0.02498   0.03030   0.04525   0.04964   0.05499
 Alpha virt. eigenvalues --    0.06177   0.06920   0.07099   0.07265   0.07925
 Alpha virt. eigenvalues --    0.08339   0.09697   0.09819   0.10823   0.10944

 Mulliken charges:
               1
     1  F   -0.656932
     2  F   -0.666726
     3  O   -0.469898
     4  O   -0.519030
     5  P    1.103704
     6  P    0.978529
     7  C   -0.025136
     8  C    0.164498
     9  C   -1.566285
    10  C    0.959173
    11  H   -0.047389
    12  H    0.032770
    13  H   -0.029183
    14  C    0.868176
    15  H   -0.077893
    16  H    0.001094
    17  H   -0.049471
 Sum of Mulliken charges =  -0.00000

 Dipole moment (field-independent basis, Debye):
    X=             -3.8341    Y=             -1.0342    Z=              0.1688  Tot=              3.9747

 Test job not archived.
 1\1\GINC-SE219\SP\RHF\Aug-CC-pVDZ\C5H6F2O2P2\OHZDE\08-Apr-2025\0\\#t h
 f aug-cc-pvdz iop(5/13=1,5/36=2,99/5=2) pseudo=read geom=check guess=(
 read,tcheck) scf=(maxcycle=1)\\title\\0,1\F,0,2.60668,-1.06141,-0.1357
 7\F,0,-0.689564,1.429388,1.605186\O,0,1.640904,1.637871,-1.258477\O,0,
 -0.12584,-2.411707,0.243315\P,0,1.499306,-0.281068,0.756832\P,0,-0.875
 829,1.477222,-0.044715\C,0,0.983965,1.115264,-0.406518\C,0,-0.075346,-
 1.212642,0.208945\C,0,-1.264136,-0.343014,-0.284938\C,0,-2.560429,-0.7
 35464,0.444682\H,0,-2.503475,-0.500827,1.509303\H,0,-2.725341,-1.80962

 Normal termination of Gaussian 16 at Tue Apr  8 23:31:21 2025.
