 Gaussian 16, Revision C.01,

 ----------------------------------------------------------------------
 #t hf aug-cc-pvdz symm=none int=(grid=ultrafine) guess=(read,tcheck) s
 table=(opt,rrhf)
 ----------------------------------------------------------------------
 -----
 title
 -----
 Symbolic Z-matrix:
 Charge =  0 Multiplicity = 1

 SCF Done:  E(RHF) =  -1984.97028545     A.U. after   16 cycles
 Normal termination of Gaussian 16 at Wed Apr  9 00:48:39 2025.
 Gaussian 16:  ES64L-G16RevC.01  3-Jul-2019

 ----------------------------------------------------------------------
 #t hf aug-cc-pvdz iop(5/13=1,5/36=2,99/5=2) pseudo=read geom=check gue
 ss=(read,tcheck) scf=(maxcycle=1)
 ----------------------------------------------------------------------
 -----
 title
 -----
 Structure from the checkpoint file:  "BDE49_nonexpt_870_mol1.chk"
 Charge =  0 Multiplicity = 1

                         Standard orientation:
 ---------------------------------------------------------------------
 Center     Atomic      Atomic             Coordinates (Angstroms)
 Number     Number       Type             X           Y           Z
 ---------------------------------------------------------------------
      1          5           0        1.884307    0.118344   -0.000003
      2         17           0       -3.407443   -0.714800    0.000013
      3         17           0       -0.458960   -1.948153    0.000030
      4         16           0        2.654748   -0.100808    1.618852
      5         16           0        2.654745   -0.100859   -1.618852
      6          7           0       -2.233349    1.622914   -0.000023
      7          6           0       -2.001285    0.328006   -0.000003
      8          6           0       -0.709327   -0.221180    0.000004
      9          6           0        0.393347    0.638260   -0.000010
     10          6           0        0.126591    2.014675   -0.000031
     11          1           0        0.939111    2.731529   -0.000043
     12          6           0       -1.189335    2.455677   -0.000037
     13          1           0       -1.425042    3.514879   -0.000053
     14          1           0        3.877429   -0.497158   -1.222647
     15          1           0        3.877432   -0.497120    1.222656
 ---------------------------------------------------------------------

 SCF Done:  E(RHF) =  -1985.11867679     A.U. after    2 cycles

 The electronic state is 1-A.
 Alpha  occ. eigenvalues -- -103.68343-103.67463 -93.56217 -93.56214 -15.66075
 Alpha  occ. eigenvalues --  -11.37179 -11.33991 -11.31235 -11.28913 -11.27835
 Alpha  occ. eigenvalues --  -10.71619 -10.70759  -8.86161  -8.86135  -8.37356
 Alpha  occ. eigenvalues --   -8.37047  -8.37021  -8.36494  -8.36166  -8.36164
 Alpha  occ. eigenvalues --   -7.70024  -6.20356  -6.20337  -6.20080  -6.20077
 Alpha  occ. eigenvalues --   -6.19864  -6.19839  -1.28493  -1.20207  -1.17310
 Alpha  occ. eigenvalues --   -1.09384  -1.02485  -1.01464  -0.96757  -0.88562
 Alpha  occ. eigenvalues --   -0.86816  -0.73779  -0.72033  -0.66594  -0.64909
 Alpha  occ. eigenvalues --   -0.61999  -0.61385  -0.59071  -0.55931  -0.54222
 Alpha  occ. eigenvalues --   -0.53321  -0.51582  -0.50135  -0.49424  -0.47074
 Alpha  occ. eigenvalues --   -0.45291  -0.44597  -0.43469  -0.39873  -0.38684
 Alpha  occ. eigenvalues --   -0.35975
 Alpha virt. eigenvalues --    0.02600   0.03794   0.05223   0.05314   0.06007
 Alpha virt. eigenvalues --    0.06016   0.06526   0.07546   0.08036   0.08351
 Alpha virt. eigenvalues --    0.08521   0.08764   0.09942   0.10864   0.11383

 Mulliken charges:
               1
     1  B    0.572521
     2  Cl  -0.212163
     3  Cl  -0.405105
     4  S   -0.240539
     5  S   -0.240537
     6  N   -0.395161
     7  C   -0.186046
     8  C    0.688990
     9  C   -0.330836
    10  C    1.150712
    11  H   -0.578252
    12  C    0.495204
    13  H   -0.336213
    14  H    0.008711
    15  H    0.008713
 Sum of Mulliken charges =  -0.00000

 Dipole moment (field-independent basis, Debye):
    X=              4.2496    Y=              1.4593    Z=             -0.0000  Tot=              4.4932

 Test job not archived.
 1\1\GINC-SE273\SP\RHF\Aug-CC-pVDZ\C5H4B1Cl2N1S2\OHZDE\09-Apr-2025\0\\#
 t hf aug-cc-pvdz iop(5/13=1,5/36=2,99/5=2) pseudo=read geom=check gues
 s=(read,tcheck) scf=(maxcycle=1)\\title\\0,1\B,0,-1.884307,0.118344,0.
 000003\Cl,0,3.407443,-0.7148,-0.000013\Cl,0,0.45896,-1.948153,-0.00003
 \S,0,-2.654748,-0.100808,-1.618852\S,0,-2.654745,-0.100859,1.618852\N,
 0,2.233349,1.622914,0.000023\C,0,2.001285,0.328006,0.000003\C,0,0.7093
 27,-0.22118,-0.000004\C,0,-0.393347,0.63826,0.00001\C,0,-0.126591,2.01
 4675,0.000031\H,0,-0.939111,2.731529,0.000043\C,0,1.189335,2.455677,0.

 Normal termination of Gaussian 16 at Wed Apr  9 00:48:50 2025.
