 Gaussian 16, Revision C.01,

 ----------------------------------------------------------------------
 #t hf aug-cc-pvdz symm=none int=(grid=ultrafine) guess=(read,tcheck) s
 table=(opt,rrhf)
 ----------------------------------------------------------------------
 -----
 title
 -----
 Symbolic Z-matrix:
 Charge =  0 Multiplicity = 1

 SCF Done:  E(RHF) =  -1429.27070296     A.U. after   14 cycles
 Normal termination of Gaussian 16 at Wed Apr  9 00:15:33 2025.
 Gaussian 16:  ES64L-G16RevC.01  3-Jul-2019

 ----------------------------------------------------------------------
 #t hf aug-cc-pvdz iop(5/13=1,5/36=2,99/5=2) pseudo=read geom=check gue
 ss=(read,tcheck) scf=(maxcycle=1)
 ----------------------------------------------------------------------
 -----
 title
 -----
 Structure from the checkpoint file:  "BDE49_nonexpt_2557_mol1.chk"
 Charge =  0 Multiplicity = 1

                         Standard orientation:
 ---------------------------------------------------------------------
 Center     Atomic      Atomic             Coordinates (Angstroms)
 Number     Number       Type             X           Y           Z
 ---------------------------------------------------------------------
      1         17           0       -2.293843    0.110496   -0.000119
      2         16           0       -0.475293   -0.857118    0.000182
      3          6           0        0.649459    0.505076    0.000070
      4          8           0        0.463882    1.665032    0.000072
      5         17           0        2.293659   -0.265603   -0.000111
 ---------------------------------------------------------------------

 SCF Done:  E(RHF) =  -1429.36662797     A.U. after    2 cycles

 The electronic state is 1-A.
 Alpha  occ. eigenvalues -- -103.71209-103.70631 -93.65302 -20.64187 -11.47162
 Alpha  occ. eigenvalues --  -10.74363 -10.73921  -8.94701  -8.40100  -8.39724
 Alpha  occ. eigenvalues --   -8.39695  -8.39625  -8.39310  -8.39302  -6.28746
 Alpha  occ. eigenvalues --   -6.28482  -6.28060  -1.45202  -1.21270  -1.19435
 Alpha  occ. eigenvalues --   -1.01845  -0.80167  -0.71343  -0.70608  -0.65626
 Alpha  occ. eigenvalues --   -0.56943  -0.54754  -0.52282  -0.51153  -0.50669
 Alpha  occ. eigenvalues --   -0.47511  -0.41957
 Alpha virt. eigenvalues --    0.02436   0.05671   0.07876   0.07890   0.09325
 Alpha virt. eigenvalues --    0.09713   0.11243   0.11295   0.13212   0.13430
 Alpha virt. eigenvalues --    0.13604   0.14846   0.17121   0.17796   0.18589

 Mulliken charges:
               1
     1  Cl  -0.260770
     2  S    0.667028
     3  C   -0.119029
     4  O   -0.229751
     5  Cl  -0.057477
 Sum of Mulliken charges =  -0.00000

 Dipole moment (field-independent basis, Debye):
    X=             -0.1518    Y=             -2.0223    Z=              0.0001  Tot=              2.0280

 Test job not archived.
 1\1\GINC-SE069\SP\RHF\Aug-CC-pVDZ\C1Cl2O1S1\OHZDE\09-Apr-2025\0\\#t hf
  aug-cc-pvdz iop(5/13=1,5/36=2,99/5=2) pseudo=read geom=check guess=(r
 ead,tcheck) scf=(maxcycle=1)\\title\\0,1\Cl,0,2.293843,0.110496,0.0001
 19\S,0,0.475293,-0.857118,-0.000182\C,0,-0.649459,0.505076,-0.00007\O,
 0,-0.463882,1.665032,-0.000072\Cl,0,-2.293659,-0.265603,0.000111\\Vers
 ion=ES64L-G16RevC.01\State=1-A\HF=-1429.366628\RMSD=3.810e-03\Dipole=0
 .0597089,-0.7956323,-0.000057\Quadrupole=1.3504478,-1.5946501,0.244202
 3,0.767604,0.0001146,0.0003867\PG=C01 [X(C1Cl2O1S1)]\\@

 Normal termination of Gaussian 16 at Wed Apr  9 00:15:36 2025.
