 Gaussian 16, Revision C.01,

 ----------------------------------------------------------------------
 #t hf aug-cc-pvdz symm=none int=(grid=ultrafine) guess=(read,tcheck) s
 table=opt
 ----------------------------------------------------------------------
 -----
 title
 -----
 Symbolic Z-matrix:
 Charge =  0 Multiplicity = 2

 SCF Done:  E(UHF) =  -192.444925919     A.U. after   18 cycles
 Normal termination of Gaussian 16 at Wed Apr  9 00:34:46 2025.
 Gaussian 16:  ES64L-G16RevC.01  3-Jul-2019

 ----------------------------------------------------------------------
 #t hf aug-cc-pvdz iop(5/13=1,5/36=2,99/5=2) pseudo=read geom=check gue
 ss=(read,tcheck) scf=(maxcycle=1)
 ----------------------------------------------------------------------
 -----
 title
 -----
 Structure from the checkpoint file:  "BDE49_nonexpt_510_mol2.chk"
 Charge =  0 Multiplicity = 2

                         Standard orientation:
 ---------------------------------------------------------------------
 Center     Atomic      Atomic             Coordinates (Angstroms)
 Number     Number       Type             X           Y           Z
 ---------------------------------------------------------------------
      1          1           0       -2.879287    0.564741    0.000004
      2          5           0       -1.981694   -0.213897    0.000001
      3          6           0        0.565519    0.007628   -0.000001
      4          8           0        1.731798   -0.011968    0.000000
      5          7           0       -0.637106    0.079245   -0.000001
 ---------------------------------------------------------------------

 SCF Done:  E(UHF) =  -192.507806611     A.U. after    2 cycles

 The electronic state is 2-A.
 Alpha  occ. eigenvalues --  -20.65028 -15.67229 -11.44987  -7.68757  -1.45431
 Alpha  occ. eigenvalues --   -1.24834  -0.88423  -0.76213  -0.69628  -0.67821
 Alpha  occ. eigenvalues --   -0.60974  -0.51667  -0.49008  -0.32818
 Alpha virt. eigenvalues --    0.03105   0.04439   0.04928   0.05173   0.07475
 Alpha virt. eigenvalues --    0.10214   0.10498   0.11505   0.12133   0.13596
 Alpha virt. eigenvalues --    0.19402   0.20193   0.21103   0.23254   0.24323

  Beta  occ. eigenvalues --  -20.64722 -15.67597 -11.44736  -7.66888  -1.44799
  Beta  occ. eigenvalues --   -1.24779  -0.86782  -0.75658  -0.67763  -0.67432
  Beta  occ. eigenvalues --   -0.58218  -0.49414  -0.48467
  Beta virt. eigenvalues --    0.03825   0.03947   0.04598   0.05161   0.08336
  Beta virt. eigenvalues --    0.08888   0.10279   0.11774   0.11918   0.12962
  Beta virt. eigenvalues --    0.14392   0.20104   0.20172   0.22713   0.25978

 Mulliken charges and spin densities:
               1          2
     1  H    0.321319   0.011387
     2  B   -0.314723   1.018468
     3  C    0.064121   0.114101
     4  O   -0.165181   0.053527
     5  N    0.094464  -0.197483
 Sum of Mulliken charges =  -0.00000   1.00000

 Dipole moment (field-independent basis, Debye):
    X=             -1.4478    Y=              0.3383    Z=             -0.0000  Tot=              1.4868
                          Isotropic Fermi Contact Couplings
        Atom                 a.u.       MegaHertz       Gauss      10(-4) cm-1
     1  H(1)               0.01549      69.24721      24.70913      23.09838
     2  B(11)              0.29834     427.92923     152.69579     142.74183
     3  C(13)              0.01512      16.99773       6.06521       5.66983
     4  O(17)              0.02795     -16.94524      -6.04648      -5.65232
     5  N(14)             -0.03710     -11.98645      -4.27706      -3.99825
 --------------------------------------------------------
       Center         ----  Spin Dipole Couplings  ----
                      3XX-RR        3YY-RR        3ZZ-RR

 Normal termination of Gaussian 16 at Wed Apr  9 00:34:48 2025.
