 Gaussian 16, Revision C.01,

 ----------------------------------------------------------------------
 #t hf aug-cc-pvdz symm=none int=(grid=ultrafine) guess=(read,tcheck) s
 table=opt
 ----------------------------------------------------------------------
 -----
 title
 -----
 Symbolic Z-matrix:
 Charge =  0 Multiplicity = 2

 SCF Done:  E(UHF) =  -453.129178392     A.U. after   15 cycles
 Normal termination of Gaussian 16 at Wed Apr  9 00:14:32 2025.
 Gaussian 16:  ES64L-G16RevC.01  3-Jul-2019

 ----------------------------------------------------------------------
 #t hf aug-cc-pvdz iop(5/13=1,5/36=2,99/5=2) pseudo=read geom=check gue
 ss=(read,tcheck) scf=(maxcycle=1)
 ----------------------------------------------------------------------
 -----
 title
 -----
 Structure from the checkpoint file:  "BDE49_nonexpt_2527_mol2.chk"
 Charge =  0 Multiplicity = 2

                         Standard orientation:
 ---------------------------------------------------------------------
 Center     Atomic      Atomic             Coordinates (Angstroms)
 Number     Number       Type             X           Y           Z
 ---------------------------------------------------------------------
      1          7           0        0.000000    0.000000   -1.010702
      2         16           0       -0.000000   -0.000000    0.634487
      3          1           0        0.000000    0.860823   -1.538438
      4          1           0       -0.000000   -0.860823   -1.538438
 ---------------------------------------------------------------------

 SCF Done:  E(UHF) =  -453.170173525     A.U. after    2 cycles

 The electronic state is 2-B1.
 Alpha  occ. eigenvalues --  -93.56246 -15.67814  -8.85672  -6.20657  -6.19506
 Alpha  occ. eigenvalues --   -6.18905  -1.19596  -0.90251  -0.71735  -0.58638
 Alpha  occ. eigenvalues --   -0.54934  -0.36769  -0.36203
 Alpha virt. eigenvalues --    0.03354   0.05090   0.08422   0.12032   0.14466
 Alpha virt. eigenvalues --    0.15550   0.17626   0.17875   0.20473   0.23299
 Alpha virt. eigenvalues --    0.26778   0.30364   0.31464   0.32133   0.39975

  Beta  occ. eigenvalues --  -93.55500 -15.66607  -8.84842  -6.19219  -6.18443
  Beta  occ. eigenvalues --   -6.17274  -1.16211  -0.84194  -0.71010  -0.55145
  Beta  occ. eigenvalues --   -0.43419  -0.34979
  Beta virt. eigenvalues --    0.03390   0.04768   0.05104   0.08754   0.14034
  Beta virt. eigenvalues --    0.14558   0.15669   0.18218   0.19016   0.20564
  Beta virt. eigenvalues --    0.24342   0.28017   0.30521   0.32078   0.32338

 Mulliken charges and spin densities:
               1          2
     1  N   -0.440566   0.257977
     2  S    0.363730   0.810561
     3  H    0.038418  -0.034269
     4  H    0.038418  -0.034269
 Sum of Mulliken charges =  -0.00000   1.00000

 Dipole moment (field-independent basis, Debye):
    X=             -0.0000    Y=              0.0000    Z=             -2.3565  Tot=              2.3565
                          Isotropic Fermi Contact Couplings
        Atom                 a.u.       MegaHertz       Gauss      10(-4) cm-1
     1  N(14)              0.11788      38.08807      13.59077      12.70481
     2  S(33)              0.20714      71.14610      25.38670      23.73178
     3  H(1)              -0.00926     -41.37022     -14.76192     -13.79962
     4  H(1)              -0.00926     -41.37022     -14.76192     -13.79962
 --------------------------------------------------------
       Center         ----  Spin Dipole Couplings  ----
                      3XX-RR        3YY-RR        3ZZ-RR
 --------------------------------------------------------

 Normal termination of Gaussian 16 at Wed Apr  9 00:14:34 2025.
