 Gaussian 16, Revision C.01,

 ----------------------------------------------------------------------
 #t hf aug-cc-pvdz symm=none int=(grid=ultrafine) guess=(read,tcheck) s
 table=(opt,rrhf)
 ----------------------------------------------------------------------
 -----
 title
 -----
 Symbolic Z-matrix:
 Charge =  0 Multiplicity = 1

 SCF Done:  E(RHF) =  -828.739203637     A.U. after   16 cycles
 Normal termination of Gaussian 16 at Tue Apr  8 23:36:05 2025.
 Gaussian 16:  ES64L-G16RevC.01  3-Jul-2019

 ----------------------------------------------------------------------
 #t hf aug-cc-pvdz iop(5/13=1,5/36=2,99/5=2) pseudo=read geom=check gue
 ss=(read,tcheck) scf=(maxcycle=1)
 ----------------------------------------------------------------------
 -----
 title
 -----
 Structure from the checkpoint file:  "BDE49_nonexpt_1517_mol1.chk"
 Charge =  0 Multiplicity = 1

                         Standard orientation:
 ---------------------------------------------------------------------
 Center     Atomic      Atomic             Coordinates (Angstroms)
 Number     Number       Type             X           Y           Z
 ---------------------------------------------------------------------
      1         15           0       -0.266947   -0.169373   -0.781724
      2          7           0        1.251450   -1.050338   -0.025815
      3          7           0       -0.172992    1.386846   -0.060960
      4          8           0        1.344149   -2.244168   -0.241377
      5          8           0        2.060611   -0.381485    0.615370
      6          8           0        0.115757    1.507337    1.304384
      7          8           0        0.692658    2.218349   -0.817796
      8          6           0       -1.458879   -0.963472    0.388873
      9          6           0       -2.899873   -0.506912    0.127366
     10          1           0       -1.156465   -0.745123    1.414860
     11          1           0       -1.349054   -2.038117    0.218981
     12          1           0       -3.015346    0.562158    0.313709
     13          1           0       -3.584836   -1.040370    0.790678
     14          1           0       -3.206975   -0.709260   -0.902202
     15          1           0        0.202825    3.048669   -0.882954
     16          1           0        1.011967    1.129123    1.398130
 ---------------------------------------------------------------------

 SCF Done:  E(RHF) =  -828.917338110     A.U. after    2 cycles

 The electronic state is 1-A.
 Alpha  occ. eigenvalues --  -81.35873 -20.64378 -20.63649 -20.63188 -20.62594
 Alpha  occ. eigenvalues --  -15.90176 -15.76403 -11.27655 -11.25878  -7.85573
 Alpha  occ. eigenvalues --   -4.99627  -4.99430  -4.99069  -1.54733  -1.44403
 Alpha  occ. eigenvalues --   -1.37062  -1.33685  -1.07948  -1.03560  -0.95094
 Alpha  occ. eigenvalues --   -0.88158  -0.82381  -0.77732  -0.75707  -0.74236
 Alpha  occ. eigenvalues --   -0.72066  -0.68495  -0.67034  -0.65942  -0.63210
 Alpha  occ. eigenvalues --   -0.58176  -0.55925  -0.54565  -0.53259  -0.52540
 Alpha  occ. eigenvalues --   -0.52175  -0.48695  -0.48111  -0.43216  -0.40771
 Alpha virt. eigenvalues --    0.02878   0.03651   0.04617   0.05387   0.06477
 Alpha virt. eigenvalues --    0.06549   0.07239   0.07747   0.08137   0.09686
 Alpha virt. eigenvalues --    0.10650   0.12441   0.13900   0.14596   0.15054

 Mulliken charges:
               1
     1  P    1.363353
     2  N    0.502434
     3  N   -0.023181
     4  O   -0.606806
     5  O   -0.612849
     6  O   -0.497376
     7  O   -0.475520
     8  C    0.053023
     9  C    0.210979
    10  H   -0.076124
    11  H   -0.114562
    12  H   -0.070943
    13  H   -0.049879
    14  H   -0.073196
    15  H    0.213481
    16  H    0.257166
 Sum of Mulliken charges =  -0.00000

 Dipole moment (field-independent basis, Debye):
    X=             -4.1978    Y=              1.5180    Z=             -0.7114  Tot=              4.5202

 Test job not archived.
 1\1\GINC-SE247\SP\RHF\Aug-CC-pVDZ\C2H7N2O4P1\OHZDE\08-Apr-2025\0\\#t h
 f aug-cc-pvdz iop(5/13=1,5/36=2,99/5=2) pseudo=read geom=check guess=(
 read,tcheck) scf=(maxcycle=1)\\title\\0,1\P,0,-0.266947,-0.169373,-0.7
 81724\N,0,1.25145,-1.050338,-0.025815\N,0,-0.172992,1.386846,-0.06096\
 O,0,1.34415,-2.244168,-0.241377\O,0,2.060611,-0.381484,0.61537\O,0,0.1
 15757,1.507337,1.304384\O,0,0.692657,2.218349,-0.817796\C,0,-1.458879,
 -0.963473,0.388873\C,0,-2.899873,-0.506913,0.127366\H,0,-1.156465,-0.7
 45123,1.41486\H,0,-1.349053,-2.038118,0.218981\H,0,-3.015346,0.562157,

 Normal termination of Gaussian 16 at Tue Apr  8 23:36:12 2025.
