 Gaussian 16, Revision C.01,

 ----------------------------------------------------------------------
 #t hf aug-cc-pvdz symm=none int=(grid=ultrafine) guess=(read,tcheck) s
 table=(opt,rrhf)
 ----------------------------------------------------------------------
 -----
 title
 -----
 Symbolic Z-matrix:
 Charge =  0 Multiplicity = 1

 SCF Done:  E(RHF) =  -689.699002028     A.U. after   15 cycles
 Normal termination of Gaussian 16 at Tue Apr  8 22:37:58 2025.
 Gaussian 16:  ES64L-G16RevC.01  3-Jul-2019

 ----------------------------------------------------------------------
 #t hf aug-cc-pvdz iop(5/13=1,5/36=2,99/5=2) pseudo=read geom=check gue
 ss=(read,tcheck) scf=(maxcycle=1)
 ----------------------------------------------------------------------
 -----
 title
 -----
 Structure from the checkpoint file:  "BDE49_expt_1216_mol1.chk"
 Charge =  0 Multiplicity = 1

                         Standard orientation:
 ---------------------------------------------------------------------
 Center     Atomic      Atomic             Coordinates (Angstroms)
 Number     Number       Type             X           Y           Z
 ---------------------------------------------------------------------
      1          6           0        0.000021   -0.000011    0.420123
      2          7           0       -1.343735   -0.493583   -0.166061
      3          8           0       -1.291620   -1.253324   -1.105724
      4          8           0       -2.329677   -0.046761    0.380942
      5          6           0        0.000088   -0.000008    1.921249
      6          7           0        1.099319   -0.916931   -0.166146
      7          8           0        1.205050   -1.994371    0.380563
      8          8           0        1.731486   -0.491760   -1.105553
      9          1           0       -0.118012   -1.022014    2.278232
     10          1           0       -0.825930    0.613289    2.278246
     11          1           0        0.944248    0.408716    2.278169
     12          7           0        0.244400    1.410520   -0.166029
     13          8           0       -0.440105    1.745545   -1.105229
     14          8           0        1.124761    2.040681    0.380597
 ---------------------------------------------------------------------

 SCF Done:  E(RHF) =  -689.907364183     A.U. after    2 cycles

 The electronic state is 1-A.
 Alpha  occ. eigenvalues --  -20.68210 -20.68209 -20.68209 -20.67746 -20.67745
 Alpha  occ. eigenvalues --  -20.67745 -15.98249 -15.98249 -15.98246 -11.49513
 Alpha  occ. eigenvalues --  -11.31589  -1.63260  -1.60867  -1.60867  -1.43684
 Alpha  occ. eigenvalues --   -1.43683  -1.43614  -1.23217  -1.03625  -1.00283
 Alpha  occ. eigenvalues --   -1.00282  -0.87487  -0.85994  -0.85993  -0.80300
 Alpha  occ. eigenvalues --   -0.79431  -0.79431  -0.77691  -0.77336  -0.77336
 Alpha  occ. eigenvalues --   -0.69801  -0.64997  -0.64997  -0.59450  -0.57645
 Alpha  occ. eigenvalues --   -0.57644  -0.57138  -0.54661  -0.54661  -0.53861
 Alpha  occ. eigenvalues --   -0.51916  -0.51916
 Alpha virt. eigenvalues --    0.01801   0.01802   0.02521   0.03283   0.05020
 Alpha virt. eigenvalues --    0.05020   0.08056   0.10628   0.11233   0.11233
 Alpha virt. eigenvalues --    0.12436   0.12436   0.14093   0.15986   0.15987

 Mulliken charges:
               1
     1  C    1.438931
     2  N    0.332546
     3  O   -0.520910
     4  O   -0.559299
     5  C    0.570906
     6  N    0.332587
     7  O   -0.559326
     8  O   -0.520914
     9  H    0.077709
    10  H    0.077692
    11  H    0.077697
    12  N    0.332600
    13  O   -0.520893
    14  O   -0.559325
 Sum of Mulliken charges =  -0.00000

 Dipole moment (field-independent basis, Debye):
    X=              0.0002    Y=              0.0002    Z=              4.3008  Tot=              4.3008

 Test job not archived.
 1\1\GINC-SE102\SP\RHF\Aug-CC-pVDZ\C2H3N3O6\OHZDE\08-Apr-2025\0\\#t hf
 aug-cc-pvdz iop(5/13=1,5/36=2,99/5=2) pseudo=read geom=check guess=(re
 ad,tcheck) scf=(maxcycle=1)\\title\\0,1\C,0,-0.000021,0.000011,0.42012
 3\N,0,1.34369,0.493705,-0.166061\O,0,1.291506,1.253442,-1.105724\O,0,2
 .329673,0.046973,0.380942\C,0,-0.000088,0.000008,1.921249\N,0,-1.09940
 2,0.916831,-0.166146\O,0,-1.205231,1.994262,0.380563\O,0,-1.731531,0.4
 91603,-1.105553\H,0,0.117919,1.022025,2.278232\H,0,0.825986,-0.613214,
 2.278246\H,0,-0.944211,-0.408802,2.278169\N,0,-0.244272,-1.410542,-0.1

 Normal termination of Gaussian 16 at Tue Apr  8 22:38:06 2025.
