 Gaussian 16, Revision C.01,

 ----------------------------------------------------------------------
 #t hf aug-cc-pvdz symm=none int=(grid=ultrafine) guess=(read,tcheck) s
 table=(opt,rrhf)
 ----------------------------------------------------------------------
 -----
 title
 -----
 Symbolic Z-matrix:
 Charge =  0 Multiplicity = 1

 SCF Done:  E(RHF) =  -489.117905374     A.U. after   10 cycles

 1\1\GINC-SE419\Stability\RHF\Aug-CC-pVDZ\F2H2Si1\OHZDE\08-Apr-2025\0\\
 #t hf aug-cc-pvdz symm=none int=(grid=ultrafine) guess=(read,tcheck) s
 table=(opt,rrhf)\\title\\0,1\Si,0,0.,0.,0.450113\F,0,0.,1.29063,-0.487
 796\F,0,0.,-1.29063,-0.487796\H,0,-1.237675,0.,1.239369\H,0,1.237675,0
 .,1.239369\\Version=ES64L-G16RevC.01\HF=-489.1179054\RMSD=2.565e-09\Di
 pole=0.,0.,0.7297364\Quadrupole=1.058572,-1.9129558,0.8543838,0.,0.,0.
 \PG=Unknown\\@
 The archive entry for this job was punched.

 Normal termination of Gaussian 16 at Tue Apr  8 23:54:16 2025.
 Gaussian 16:  ES64L-G16RevC.01  3-Jul-2019

 ----------------------------------------------------------------------
 #t hf aug-cc-pvdz iop(5/13=1,5/36=2,99/5=2) pseudo=read geom=check gue
 ss=(read,tcheck) scf=(maxcycle=1)
 ----------------------------------------------------------------------
 -----
 title
 -----
 Structure from the checkpoint file:  "BDE49_nonexpt_1986_mol1.chk"
 Charge =  0 Multiplicity = 1

                         Standard orientation:
 ---------------------------------------------------------------------
 Center     Atomic      Atomic             Coordinates (Angstroms)
 Number     Number       Type             X           Y           Z
 ---------------------------------------------------------------------
      1         14           0       -0.000000   -0.000000    0.450113
      2          9           0        0.000000    1.290630   -0.487796
      3          9           0       -0.000000   -1.290630   -0.487796
      4          1           0       -1.237675    0.000000    1.239369
      5          1           0        1.237675   -0.000000    1.239369
 ---------------------------------------------------------------------

 SCF Done:  E(RHF) =  -489.232844711     A.U. after    2 cycles

 The electronic state is 1-A1.
 Alpha  occ. eigenvalues --  -69.17316 -26.12767 -26.12765  -6.91450  -4.02458
 Alpha  occ. eigenvalues --   -4.02322  -4.02153  -1.66253  -1.65078  -0.84765
 Alpha  occ. eigenvalues --   -0.78316  -0.75626  -0.75416  -0.72935  -0.71429
 Alpha  occ. eigenvalues --   -0.61457  -0.51073
 Alpha virt. eigenvalues --    0.04319   0.05344   0.05425   0.06254   0.08916
 Alpha virt. eigenvalues --    0.13142   0.15554   0.16205   0.20742   0.22518
 Alpha virt. eigenvalues --    0.24487   0.24691   0.25738   0.28894   0.31535

 Mulliken charges:
               1
     1  Si   1.692734
     2  F   -0.752837
     3  F   -0.752837
     4  H   -0.093530
     5  H   -0.093530
 Sum of Mulliken charges =  -0.00000

 Dipole moment (field-independent basis, Debye):
    X=              0.0000    Y=              0.0000    Z=              2.0289  Tot=              2.0289

 Test job not archived.
 1\1\GINC-SE419\SP\RHF\Aug-CC-pVDZ\F2H2Si1\OHZDE\08-Apr-2025\0\\#t hf a
 ug-cc-pvdz iop(5/13=1,5/36=2,99/5=2) pseudo=read geom=check guess=(rea
 d,tcheck) scf=(maxcycle=1)\\title\\0,1\Si,0,0.,0.,0.450113\F,0,0.,1.29
 063,-0.487796\F,0,0.,-1.29063,-0.487796\H,0,-1.237675,0.,1.239369\H,0,
 1.237675,0.,1.239369\\Version=ES64L-G16RevC.01\State=1-A1\HF=-489.2328
 447\RMSD=6.231e-03\Dipole=0.,0.,0.7982358\Quadrupole=1.1676616,-2.1049
 329,0.9372713,0.,0.,0.\PG=C02V [C2(Si1),SGV(F2),SGV'(H2)]\\@

 Normal termination of Gaussian 16 at Tue Apr  8 23:54:17 2025.
