 Gaussian 16, Revision C.01,

 ----------------------------------------------------------------------
 #t hf aug-cc-pvdz symm=none int=(grid=ultrafine) guess=(read,tcheck) s
 table=(opt,rrhf)
 ----------------------------------------------------------------------
 -----
 title
 -----
 Symbolic Z-matrix:
 Charge =  0 Multiplicity = 1

 SCF Done:  E(RHF) =  -457.409410566     A.U. after   16 cycles
 Normal termination of Gaussian 16 at Tue Apr  8 22:35:08 2025.
 Gaussian 16:  ES64L-G16RevC.01  3-Jul-2019

 ----------------------------------------------------------------------
 #t hf aug-cc-pvdz iop(5/13=1,5/36=2,99/5=2) pseudo=read geom=check gue
 ss=(read,tcheck) scf=(maxcycle=1)
 ----------------------------------------------------------------------
 -----
 title
 -----
 Structure from the checkpoint file:  "BDE49_expt_1120_mol1.chk"
 Charge =  0 Multiplicity = 1

                         Standard orientation:
 ---------------------------------------------------------------------
 Center     Atomic      Atomic             Coordinates (Angstroms)
 Number     Number       Type             X           Y           Z
 ---------------------------------------------------------------------
      1          6           0       -0.903942   -1.105467   -0.521499
      2          6           0       -2.226157   -1.194316   -0.089957
      3          6           0       -2.898476   -0.052363    0.338709
      4          6           0       -2.242282    1.177420    0.334536
      5          6           0       -0.920815    1.263760   -0.094781
      6          6           0       -0.232523    0.124408   -0.530298
      7          1           0       -0.389140   -1.997268   -0.865175
      8          1           0       -2.760890    2.070834    0.663293
      9          1           0       -0.416408    2.224458   -0.097051
     10          1           0       -2.731341   -2.153447   -0.096092
     11          1           0       -3.928041   -0.119026    0.670866
     12          6           0        2.271334   -0.020746    0.126526
     13          8           0        3.433989    0.201134   -0.057375
     14          8           0        1.833964   -0.516034    1.306069
     15          1           0        0.870448   -0.605842    1.285463
     16          6           0        1.211155    0.212836   -0.964649
     17          1           0        1.425029   -0.523263   -1.745553
     18          1           0        1.436946    1.189565   -1.396828
 ---------------------------------------------------------------------

 SCF Done:  E(RHF) =  -457.547702791     A.U. after    2 cycles

 The electronic state is 1-A.
 Alpha  occ. eigenvalues --  -20.62227 -20.55621 -11.39966 -11.27902 -11.27475
 Alpha  occ. eigenvalues --  -11.26975 -11.26880 -11.26852 -11.26763 -11.26644
 Alpha  occ. eigenvalues --   -1.41827  -1.32956  -1.17206  -1.07536  -1.03387
 Alpha  occ. eigenvalues --   -0.98153  -0.85468  -0.84919  -0.82719  -0.74247
 Alpha  occ. eigenvalues --   -0.71614  -0.68126  -0.67762  -0.65639  -0.64033
 Alpha  occ. eigenvalues --   -0.61423  -0.60640  -0.57681  -0.56799  -0.53525
 Alpha  occ. eigenvalues --   -0.51916  -0.51746  -0.49083  -0.46481  -0.36500
 Alpha  occ. eigenvalues --   -0.35943
 Alpha virt. eigenvalues --    0.02572   0.03423   0.03745   0.05134   0.05412
 Alpha virt. eigenvalues --    0.05959   0.07198   0.07893   0.08634   0.08762
 Alpha virt. eigenvalues --    0.09028   0.10964   0.11583   0.12728   0.13036

 Mulliken charges:
               1
     1  C    0.587829
     2  C    0.219393
     3  C    0.632814
     4  C    0.282906
     5  C    0.507446
     6  C    0.311968
     7  H   -0.588946
     8  H   -0.437150
     9  H   -0.569782
    10  H   -0.437648
    11  H   -0.431795
    12  C    0.460785
    13  O   -0.475350
    14  O   -0.448589
    15  H    0.226882
    16  C    0.157916
    17  H    0.017333
    18  H   -0.016012
 Sum of Mulliken charges =   0.00000

 Dipole moment (field-independent basis, Debye):
    X=             -5.6386    Y=             -0.1559    Z=             -1.0699  Tot=              5.7413

 Test job not archived.
 1\1\GINC-SE102\SP\RHF\Aug-CC-pVDZ\C8H8O2\OHZDE\08-Apr-2025\0\\#t hf au
 g-cc-pvdz iop(5/13=1,5/36=2,99/5=2) pseudo=read geom=check guess=(read
 ,tcheck) scf=(maxcycle=1)\\title\\0,1\C,0,-0.903942,-1.105467,-0.52149
 9\C,0,-2.226157,-1.194316,-0.089957\C,0,-2.898476,-0.052363,0.338709\C
 ,0,-2.242282,1.17742,0.334536\C,0,-0.920815,1.26376,-0.094781\C,0,-0.2
 32523,0.124408,-0.530298\H,0,-0.38914,-1.997268,-0.865175\H,0,-2.76089
 ,2.070834,0.663293\H,0,-0.416408,2.224458,-0.097051\H,0,-2.731341,-2.1
 53447,-0.096092\H,0,-3.928041,-0.119026,0.670866\C,0,2.271334,-0.02074

 Normal termination of Gaussian 16 at Tue Apr  8 22:35:18 2025.
