 Gaussian 16, Revision C.01,

 ----------------------------------------------------------------------
 #t hf aug-cc-pvdz symm=none int=(grid=ultrafine) guess=(read,tcheck) s
 table=(opt,rrhf)
 ----------------------------------------------------------------------
 -----
 title
 -----
 Symbolic Z-matrix:
 Charge =  0 Multiplicity = 1

 SCF Done:  E(RHF) =  -436.369506853     A.U. after   17 cycles
 Normal termination of Gaussian 16 at Tue Apr  8 22:41:47 2025.
 Gaussian 16:  ES64L-G16RevC.01  3-Jul-2019

 ----------------------------------------------------------------------
 #t hf aug-cc-pvdz iop(5/13=1,5/36=2,99/5=2) pseudo=read geom=check gue
 ss=(read,tcheck) scf=(maxcycle=1)
 ----------------------------------------------------------------------
 -----
 title
 -----
 Structure from the checkpoint file:  "BDE49_expt_1420_mol1.chk"
 Charge =  0 Multiplicity = 1

                         Standard orientation:
 ---------------------------------------------------------------------
 Center     Atomic      Atomic             Coordinates (Angstroms)
 Number     Number       Type             X           Y           Z
 ---------------------------------------------------------------------
      1          6           0       -1.545306   -0.026068   -0.000000
      2          6           0       -0.966511    1.255968   -0.000000
      3          6           0        0.407027    1.401311   -0.000000
      4          6           0       -0.711530   -1.149396   -0.000000
      5          6           0        0.671697   -1.008249   -0.000000
      6          6           0        1.239284    0.271386   -0.000000
      7          1           0       -1.150010   -2.139661   -0.000000
      8          1           0        1.292042   -1.893660   -0.000000
      9          8           0        2.570353    0.523616   -0.000000
     10          6           0        3.478598   -0.572722    0.000001
     11          1           0        4.473219   -0.131233    0.000001
     12          1           0        3.356661   -1.191993   -0.894884
     13          1           0        3.356661   -1.191993    0.894885
     14          1           0       -1.605106    2.130534   -0.000000
     15          1           0        0.868788    2.380646   -0.000000
     16          6           0       -2.965285   -0.178887   -0.000000
     17          7           0       -4.114703   -0.301660   -0.000000
 ---------------------------------------------------------------------

 SCF Done:  E(RHF) =  -436.500726785     A.U. after    2 cycles

 The electronic state is 1-A.
 Alpha  occ. eigenvalues --  -20.62452 -15.63475 -11.34455 -11.31618 -11.28866
 Alpha  occ. eigenvalues --  -11.28610 -11.28590 -11.28311 -11.26664 -11.26211
 Alpha  occ. eigenvalues --   -1.39587  -1.19620  -1.16523  -1.05730  -1.04505
 Alpha  occ. eigenvalues --   -0.97471  -0.87470  -0.85837  -0.76946  -0.74091
 Alpha  occ. eigenvalues --   -0.70584  -0.68775  -0.65264  -0.62535  -0.61490
 Alpha  occ. eigenvalues --   -0.59215  -0.56332  -0.55542  -0.53921  -0.52752
 Alpha  occ. eigenvalues --   -0.51726  -0.46519  -0.46141  -0.37354  -0.33757
 Alpha virt. eigenvalues --    0.02470   0.03590   0.04035   0.04997   0.05495
 Alpha virt. eigenvalues --    0.06035   0.07440   0.08005   0.08565   0.08645
 Alpha virt. eigenvalues --    0.10310   0.10375   0.11557   0.12212   0.13179

 Mulliken charges:
               1
     1  C    2.160363
     2  C    0.117095
     3  C    0.987443
     4  C   -0.086291
     5  C    0.862049
     6  C   -0.051650
     7  H   -0.573031
     8  H   -0.686174
     9  O   -0.655114
    10  C    0.820942
    11  H   -0.303385
    12  H   -0.078237
    13  H   -0.078239
    14  H   -0.548596
    15  H   -0.562601
    16  C   -1.206445
    17  N   -0.118128
 Sum of Mulliken charges =  -0.00000

 Dipole moment (field-independent basis, Debye):
    X=              5.8161    Y=             -0.8623    Z=              0.0000  Tot=              5.8797

 Test job not archived.
 1\1\GINC-SE073\SP\RHF\Aug-CC-pVDZ\C8H7N1O1\OHZDE\08-Apr-2025\0\\#t hf
 aug-cc-pvdz iop(5/13=1,5/36=2,99/5=2) pseudo=read geom=check guess=(re
 ad,tcheck) scf=(maxcycle=1)\\title\\0,1\C,0,-1.545306,-0.026068,0.\C,0
 ,-0.966511,1.255968,0.\C,0,0.407027,1.401311,0.\C,0,-0.71153,-1.149396
 ,0.\C,0,0.671697,-1.008249,0.\C,0,1.239284,0.271386,0.\H,0,-1.15001,-2
 .139661,0.\H,0,1.292042,-1.89366,0.\O,0,2.570353,0.523616,0.\C,0,3.478
 598,-0.572722,0.000001\H,0,4.473219,-0.131233,0.000001\H,0,3.356661,-1
 .191993,-0.894884\H,0,3.356661,-1.191993,0.894885\H,0,-1.605106,2.1305

 Normal termination of Gaussian 16 at Tue Apr  8 22:41:56 2025.
