 Gaussian 16, Revision C.01,

 ----------------------------------------------------------------------
 #t hf aug-cc-pvdz symm=none int=(grid=ultrafine) guess=(read,tcheck) s
 table=(opt,rrhf)
 ----------------------------------------------------------------------
 -----
 title
 -----
 Symbolic Z-matrix:
 Charge =  0 Multiplicity = 1

 SCF Done:  E(RHF) =  -749.710812852     A.U. after   12 cycles
 Normal termination of Gaussian 16 at Tue Apr  8 23:39:30 2025.
 Gaussian 16:  ES64L-G16RevC.01  3-Jul-2019

 ----------------------------------------------------------------------
 #t hf aug-cc-pvdz iop(5/13=1,5/36=2,99/5=2) pseudo=read geom=check gue
 ss=(read,tcheck) scf=(maxcycle=1)
 ----------------------------------------------------------------------
 -----
 title
 -----
 Structure from the checkpoint file:  "BDE49_nonexpt_1636_mol1.chk"
 Charge =  0 Multiplicity = 1

                         Standard orientation:
 ---------------------------------------------------------------------
 Center     Atomic      Atomic             Coordinates (Angstroms)
 Number     Number       Type             X           Y           Z
 ---------------------------------------------------------------------
      1         15           0        1.249540   -1.436037   -0.236891
      2         14           0        0.183615    0.491080    0.393494
      3          6           0       -1.536617    0.537982   -0.387650
      4          6           0       -2.498141   -0.576866    0.059268
      5          1           0       -1.419908    0.519875   -1.477845
      6          1           0       -1.969215    1.518091   -0.149589
      7          1           0       -2.128239   -1.566272   -0.224132
      8          1           0       -3.485780   -0.457458   -0.395394
      9          6           0        1.222894    1.948840   -0.190284
     10          1           0        2.210592    1.945549    0.278590
     11          1           0        0.735644    2.894570    0.066004
     12          1           0        1.364582    1.925624   -1.274518
     13          1           0       -2.634316   -0.576652    1.144631
     14          1           0        0.519276   -2.281588    0.639109
     15          1           0        2.323956   -1.268349    0.676643
     16          1           0        0.040880    0.552308    1.872952
 ---------------------------------------------------------------------

 SCF Done:  E(RHF) =  -749.792407561     A.U. after    2 cycles

 The electronic state is 1-A.
 Alpha  occ. eigenvalues --  -81.23902 -69.06294 -11.23270 -11.22322 -11.21933
 Alpha  occ. eigenvalues --   -7.74448  -6.81465  -4.88421  -4.88326  -4.88094
 Alpha  occ. eigenvalues --   -3.92227  -3.92200  -3.92191  -1.01514  -0.94205
 Alpha  occ. eigenvalues --   -0.84437  -0.78714  -0.64270  -0.61025  -0.57250
 Alpha  occ. eigenvalues --   -0.56365  -0.56316  -0.51692  -0.50925  -0.49979
 Alpha  occ. eigenvalues --   -0.46138  -0.43035  -0.40830  -0.34341
 Alpha virt. eigenvalues --    0.03254   0.04401   0.04777   0.05095   0.06487
 Alpha virt. eigenvalues --    0.06571   0.06874   0.06982   0.08614   0.09309
 Alpha virt. eigenvalues --    0.09330   0.10212   0.10536   0.10917   0.11663

 Mulliken charges:
               1
     1  P   -0.578455
     2  Si   0.844902
     3  C    0.208544
     4  C    0.203706
     5  H   -0.185337
     6  H   -0.218219
     7  H   -0.121839
     8  H   -0.076554
     9  C    0.322120
    10  H   -0.267701
    11  H   -0.259829
    12  H   -0.192416
    13  H   -0.111326
    14  H    0.171788
    15  H    0.171082
    16  H    0.089535
 Sum of Mulliken charges =  -0.00000

 Dipole moment (field-independent basis, Debye):
    X=             -0.6065    Y=              1.0022    Z=              0.1983  Tot=              1.1881

 Test job not archived.
 1\1\GINC-SE252\SP\RHF\Aug-CC-pVDZ\C3H11P1Si1\OHZDE\08-Apr-2025\0\\#t h
 f aug-cc-pvdz iop(5/13=1,5/36=2,99/5=2) pseudo=read geom=check guess=(
 read,tcheck) scf=(maxcycle=1)\\title\\0,1\P,0,1.24954,-1.436037,-0.236
 891\Si,0,0.183615,0.49108,0.393494\C,0,-1.536617,0.537982,-0.38765\C,0
 ,-2.498141,-0.576866,0.059268\H,0,-1.419908,0.519875,-1.477845\H,0,-1.
 969215,1.518091,-0.149589\H,0,-2.128239,-1.566272,-0.224132\H,0,-3.485
 78,-0.457457,-0.395394\C,0,1.222894,1.94884,-0.190284\H,0,2.210592,1.9
 45549,0.27859\H,0,0.735644,2.89457,0.066004\H,0,1.364582,1.925624,-1.2

 Normal termination of Gaussian 16 at Tue Apr  8 23:39:36 2025.
