 Gaussian 16, Revision C.01,

 ----------------------------------------------------------------------
 #t hf aug-cc-pvdz symm=none int=(grid=ultrafine) guess=(read,tcheck) s
 table=(opt,rrhf)
 ----------------------------------------------------------------------
 -----
 title
 -----
 Symbolic Z-matrix:
 Charge =  0 Multiplicity = 1

 SCF Done:  E(RHF) =  -792.942804627     A.U. after   16 cycles
 Normal termination of Gaussian 16 at Wed Apr  9 00:51:26 2025.
 Gaussian 16:  ES64L-G16RevC.01  3-Jul-2019

 ----------------------------------------------------------------------
 #t hf aug-cc-pvdz iop(5/13=1,5/36=2,99/5=2) pseudo=read geom=check gue
 ss=(read,tcheck) scf=(maxcycle=1)
 ----------------------------------------------------------------------
 -----
 title
 -----
 Structure from the checkpoint file:  "BDE49_nonexpt_979_mol1.chk"
 Charge =  0 Multiplicity = 1

                         Standard orientation:
 ---------------------------------------------------------------------
 Center     Atomic      Atomic             Coordinates (Angstroms)
 Number     Number       Type             X           Y           Z
 ---------------------------------------------------------------------
      1         16           0        0.693114   -1.095114   -0.215349
      2          7           0        1.711235    0.440263   -0.021057
      3          8           0        1.193924    1.506196   -0.228164
      4          8           0        2.850556    0.190552    0.310028
      5          8           0       -0.732223   -0.457464   -0.715489
      6          6           0       -1.712028   -0.009765    0.204839
      7          6           0       -1.593742   -0.068221    1.523045
      8          6           0       -2.861561    0.528020   -0.582118
      9          1           0       -3.651163    0.874715    0.084047
     10          1           0       -3.266055   -0.241662   -1.245445
     11          1           0       -2.530220    1.361321   -1.207765
     12          1           0       -0.715541   -0.465441    2.012602
     13          1           0       -2.399567    0.296566    2.143943
 ---------------------------------------------------------------------

 SCF Done:  E(RHF) =  -793.093890734     A.U. after    2 cycles

 The electronic state is 1-A.
 Alpha  occ. eigenvalues --  -93.67584 -20.66560 -20.64655 -20.64029 -15.94394
 Alpha  occ. eigenvalues --  -11.34020 -11.25740 -11.24731  -8.96273  -6.30431
 Alpha  occ. eigenvalues --   -6.30143  -6.29652  -1.57617  -1.40994  -1.40050
 Alpha  occ. eigenvalues --   -1.09948  -1.03050  -0.96952  -0.88646  -0.81648
 Alpha  occ. eigenvalues --   -0.76053  -0.75252  -0.74232  -0.69153  -0.67455
 Alpha  occ. eigenvalues --   -0.64571  -0.59153  -0.58132  -0.56620  -0.55033
 Alpha  occ. eigenvalues --   -0.53557  -0.50034  -0.48120  -0.42231  -0.38140
 Alpha virt. eigenvalues --    0.03106   0.04213   0.04669   0.05905   0.06532
 Alpha virt. eigenvalues --    0.06855   0.07112   0.08611   0.09837   0.10584
 Alpha virt. eigenvalues --    0.11483   0.11903   0.13939   0.15167   0.15548

 Mulliken charges:
               1
     1  S    0.991424
     2  N    0.379258
     3  O   -0.479169
     4  O   -0.544858
     5  O   -0.849612
     6  C    0.217410
     7  C    0.884037
     8  C    0.099246
     9  H   -0.073628
    10  H    0.022021
    11  H    0.041457
    12  H   -0.386218
    13  H   -0.301367
 Sum of Mulliken charges =  -0.00000

 Dipole moment (field-independent basis, Debye):
    X=             -3.5313    Y=             -1.7842    Z=              0.4122  Tot=              3.9779

 Test job not archived.
 1\1\GINC-SE462\SP\RHF\Aug-CC-pVDZ\C3H5N1O3S1\OHZDE\09-Apr-2025\0\\#t h
 f aug-cc-pvdz iop(5/13=1,5/36=2,99/5=2) pseudo=read geom=check guess=(
 read,tcheck) scf=(maxcycle=1)\\title\\0,1\S,0,0.693114,-1.095114,-0.21
 5349\N,0,1.711235,0.440263,-0.021057\O,0,1.193924,1.506196,-0.228164\O
 ,0,2.850556,0.190552,0.310028\O,0,-0.732223,-0.457464,-0.715489\C,0,-1
 .712028,-0.009765,0.204839\C,0,-1.593742,-0.068221,1.523045\C,0,-2.861
 561,0.52802,-0.582118\H,0,-3.651163,0.874715,0.084047\H,0,-3.266055,-0
 .241662,-1.245445\H,0,-2.53022,1.361321,-1.207765\H,0,-0.715541,-0.465

 Normal termination of Gaussian 16 at Wed Apr  9 00:51:30 2025.
