 Gaussian 16, Revision C.01,

 ----------------------------------------------------------------------
 #t hf aug-cc-pvdz symm=none int=(grid=ultrafine) guess=(read,tcheck) s
 table=(opt,rrhf)
 ----------------------------------------------------------------------
 -----
 title
 -----
 Symbolic Z-matrix:
 Charge =  0 Multiplicity = 1

 SCF Done:  E(RHF) =  -1219.46442543     A.U. after   14 cycles
 Normal termination of Gaussian 16 at Wed Apr  9 00:23:18 2025.
 Gaussian 16:  ES64L-G16RevC.01  3-Jul-2019

 ----------------------------------------------------------------------
 #t hf aug-cc-pvdz iop(5/13=1,5/36=2,99/5=2) pseudo=read geom=check gue
 ss=(read,tcheck) scf=(maxcycle=1)
 ----------------------------------------------------------------------
 -----
 title
 -----
 Structure from the checkpoint file:  "BDE49_nonexpt_2726_mol1.chk"
 Charge =  0 Multiplicity = 1

                         Standard orientation:
 ---------------------------------------------------------------------
 Center     Atomic      Atomic             Coordinates (Angstroms)
 Number     Number       Type             X           Y           Z
 ---------------------------------------------------------------------
      1         16           0       -0.880328    0.933587    0.544640
      2         16           0        0.880297    0.933509   -0.544849
      3          6           0        1.784984   -0.381344    0.275816
      4          6           0       -1.784942   -0.381549   -0.275669
      5          9           0       -2.994461   -0.428662    0.322607
      6          8           0       -1.460283   -1.098938   -1.148104
      7          8           0        1.460479   -1.098319    1.148647
      8          9           0        2.994315   -0.428907   -0.322818
 ---------------------------------------------------------------------

 SCF Done:  E(RHF) =  -1219.65264728     A.U. after    2 cycles

 The electronic state is 1-A.
 Alpha  occ. eigenvalues --  -93.63789 -93.63786 -26.19550 -26.19550 -20.63563
 Alpha  occ. eigenvalues --  -20.63563 -11.49613 -11.49613  -8.93390  -8.93372
 Alpha  occ. eigenvalues --   -6.27518  -6.27430  -6.27247  -6.27190  -6.26860
 Alpha  occ. eigenvalues --   -6.26857  -1.73944  -1.73938  -1.44484  -1.44336
 Alpha  occ. eigenvalues --   -1.12786  -1.02652  -0.94166  -0.89826  -0.82659
 Alpha  occ. eigenvalues --   -0.81094  -0.81078  -0.79651  -0.76726  -0.75132
 Alpha  occ. eigenvalues --   -0.67796  -0.65969  -0.61657  -0.61117  -0.56575
 Alpha  occ. eigenvalues --   -0.52619  -0.51065  -0.45022  -0.43609
 Alpha virt. eigenvalues --    0.04133   0.05229   0.07582   0.07882   0.08623
 Alpha virt. eigenvalues --    0.08742   0.10194   0.10397   0.10948   0.11215
 Alpha virt. eigenvalues --    0.11399   0.12831   0.13639   0.14500   0.14748

 Mulliken charges:
               1
     1  S    0.250529
     2  S    0.250520
     3  C    0.308708
     4  C    0.308674
     5  F   -0.285977
     6  O   -0.273228
     7  O   -0.273238
     8  F   -0.285987
 Sum of Mulliken charges =  -0.00000

 Dipole moment (field-independent basis, Debye):
    X=             -0.0001    Y=              3.1105    Z=             -0.0004  Tot=              3.1105

 Test job not archived.
 1\1\GINC-SE177\SP\RHF\Aug-CC-pVDZ\C2F2O2S2\OHZDE\09-Apr-2025\0\\#t hf
 aug-cc-pvdz iop(5/13=1,5/36=2,99/5=2) pseudo=read geom=check guess=(re
 ad,tcheck) scf=(maxcycle=1)\\title\\0,1\S,0,0.880328,0.933587,-0.54464
 \S,0,-0.880297,0.933509,0.544849\C,0,-1.784984,-0.381344,-0.275816\C,0
 ,1.784942,-0.381549,0.275669\F,0,2.994461,-0.428663,-0.322607\O,0,1.46
 0283,-1.098938,1.148104\O,0,-1.460479,-1.098319,-1.148647\F,0,-2.99431
 5,-0.428907,0.322818\\Version=ES64L-G16RevC.01\State=1-A\HF=-1219.6526
 473\RMSD=4.747e-03\Dipole=0.0000443,1.2237821,0.0001603\Quadrupole=-1.

 Normal termination of Gaussian 16 at Wed Apr  9 00:23:22 2025.
