 Gaussian 16, Revision C.01,

 ----------------------------------------------------------------------
 #t hf aug-cc-pvdz symm=none int=(grid=ultrafine) guess=(read,tcheck) s
 table=(opt,rrhf)
 ----------------------------------------------------------------------
 -----
 title
 -----
 Symbolic Z-matrix:
 Charge =  0 Multiplicity = 1

 SCF Done:  E(RHF) =  -677.023548090     A.U. after   15 cycles
 Normal termination of Gaussian 16 at Tue Apr  8 23:12:47 2025.
 Gaussian 16:  ES64L-G16RevC.01  3-Jul-2019

 ----------------------------------------------------------------------
 #t hf aug-cc-pvdz iop(5/13=1,5/36=2,99/5=2) pseudo=read geom=check gue
 ss=(read,tcheck) scf=(maxcycle=1)
 ----------------------------------------------------------------------
 -----
 title
 -----
 Structure from the checkpoint file:  "BDE49_nonexpt_1001_mol1.chk"
 Charge =  0 Multiplicity = 1

                         Standard orientation:
 ---------------------------------------------------------------------
 Center     Atomic      Atomic             Coordinates (Angstroms)
 Number     Number       Type             X           Y           Z
 ---------------------------------------------------------------------
      1         16           0        0.747246   -0.727508    0.020891
      2          7           0       -0.888869    0.124757   -0.006195
      3          8           0       -0.903521    1.329731    0.004583
      4          8           0       -1.817998   -0.653172   -0.008100
      5          8           0        1.768345    0.549831   -0.125849
      6          1           0        1.891540    0.955708    0.744029
 ---------------------------------------------------------------------

 SCF Done:  E(RHF) =  -677.138795438     A.U. after    2 cycles

 The electronic state is 1-A.
 Alpha  occ. eigenvalues --  -93.68094 -20.67077 -20.65033 -20.64560 -15.94802
 Alpha  occ. eigenvalues --   -8.96828  -6.30962  -6.30678  -6.30149  -1.58044
 Alpha  occ. eigenvalues --   -1.40958  -1.40133  -1.04923  -0.88442  -0.81108
 Alpha  occ. eigenvalues --   -0.76475  -0.75633  -0.72551  -0.64082  -0.60812
 Alpha  occ. eigenvalues --   -0.54448  -0.50472  -0.48458  -0.43013
 Alpha virt. eigenvalues --    0.02548   0.06206   0.06484   0.07009   0.10253
 Alpha virt. eigenvalues --    0.10804   0.13551   0.14535   0.15603   0.17083
 Alpha virt. eigenvalues --    0.18188   0.18935   0.20702   0.24457   0.25422

 Mulliken charges:
               1
     1  S    1.050512
     2  N    0.338146
     3  O   -0.467187
     4  O   -0.508629
     5  O   -0.615657
     6  H    0.202814
 Sum of Mulliken charges =  -0.00000

 Dipole moment (field-independent basis, Debye):
    X=              3.1926    Y=             -0.7348    Z=              1.5395  Tot=              3.6198

 Test job not archived.
 1\1\GINC-SE461\SP\RHF\Aug-CC-pVDZ\H1N1O3S1\OHZDE\08-Apr-2025\0\\#t hf
 aug-cc-pvdz iop(5/13=1,5/36=2,99/5=2) pseudo=read geom=check guess=(re
 ad,tcheck) scf=(maxcycle=1)\\title\\0,1\S,0,0.747246,-0.727508,0.02089
 1\N,0,-0.888869,0.124757,-0.006195\O,0,-0.903521,1.329731,0.004583\O,0
 ,-1.817998,-0.653172,-0.0081\O,0,1.768345,0.54983,-0.125849\H,0,1.8915
 4,0.955707,0.744029\\Version=ES64L-G16RevC.01\State=1-A\HF=-677.138795
 4\RMSD=4.074e-03\Dipole=1.2560838,-0.2890899,0.6056971\Quadrupole=-1.3
 804084,-0.345874,1.7262824,0.3072874,2.4559362,1.3134576\PG=C01 [X(H1N

 Normal termination of Gaussian 16 at Tue Apr  8 23:12:49 2025.
