 Gaussian 16, Revision C.01,

 ----------------------------------------------------------------------
 #t hf aug-cc-pvdz symm=none int=(grid=ultrafine) guess=(read,tcheck) s
 table=(opt,rrhf)
 ----------------------------------------------------------------------
 -----
 title
 -----
 Symbolic Z-matrix:
 Charge =  0 Multiplicity = 1

 SCF Done:  E(RHF) =  -1679.94535630     A.U. after   14 cycles
 Normal termination of Gaussian 16 at Wed Apr  9 00:13:26 2025.
 Gaussian 16:  ES64L-G16RevC.01  3-Jul-2019

 ----------------------------------------------------------------------
 #t hf aug-cc-pvdz iop(5/13=1,5/36=2,99/5=2) pseudo=read geom=check gue
 ss=(read,tcheck) scf=(maxcycle=1)
 ----------------------------------------------------------------------
 -----
 title
 -----
 Structure from the checkpoint file:  "BDE49_nonexpt_2438_mol1.chk"
 Charge =  0 Multiplicity = 1

                         Standard orientation:
 ---------------------------------------------------------------------
 Center     Atomic      Atomic             Coordinates (Angstroms)
 Number     Number       Type             X           Y           Z
 ---------------------------------------------------------------------
      1         14           0       -1.125746    1.740984    0.347723
      2         14           0        1.125785    1.740985   -0.347740
      3          6           0        1.913520    0.065787    0.117607
      4          1           0        1.868525    2.782286    0.402754
      5          1           0        1.267297    2.000324   -1.798098
      6         16           0        1.702059   -0.580896    1.615091
      7          8           0        2.625522   -0.466701   -0.871945
      8          6           0        3.286368   -1.735612   -0.675530
      9          1           0        3.779749   -1.943501   -1.621763
     10          1           0        2.551877   -2.505970   -0.437154
     11          1           0        4.009197   -1.660383    0.137938
     12          6           0       -1.913467    0.065769   -0.117587
     13          1           0       -1.868493    2.782267   -0.402792
     14          1           0       -1.267260    2.000352    1.798076
     15         16           0       -1.702082   -0.580898   -1.615089
     16          8           0       -2.625521   -0.466670    0.871953
     17          6           0       -3.286427   -1.735549    0.675537
     18          1           0       -3.779845   -1.943399    1.621759
     19          1           0       -2.551969   -2.505948    0.437193
     20          1           0       -4.009229   -1.660294   -0.137952
 ---------------------------------------------------------------------

 SCF Done:  E(RHF) =  -1680.11994541     A.U. after    2 cycles

 The electronic state is 1-A.
 Alpha  occ. eigenvalues --  -93.50983 -93.50983 -69.08099 -69.08098 -20.64342
 Alpha  occ. eigenvalues --  -20.64342 -11.37520 -11.37520 -11.30783 -11.30783
 Alpha  occ. eigenvalues --   -8.80928  -8.80928  -6.83452  -6.83445  -6.15107
 Alpha  occ. eigenvalues --   -6.15105  -6.14723  -6.14694  -6.14559  -6.14557
 Alpha  occ. eigenvalues --   -3.94246  -3.94231  -3.94192  -3.94178  -3.94170
 Alpha  occ. eigenvalues --   -3.94109  -1.40933  -1.40911  -1.03893  -1.03587
 Alpha  occ. eigenvalues --   -0.97072  -0.97034  -0.79562  -0.78776  -0.75784
 Alpha  occ. eigenvalues --   -0.72658  -0.68372  -0.68235  -0.67011  -0.64790
 Alpha  occ. eigenvalues --   -0.61180  -0.60051  -0.55789  -0.55256  -0.54026
 Alpha  occ. eigenvalues --   -0.53680  -0.50311  -0.48491  -0.47605  -0.46808
 Alpha  occ. eigenvalues --   -0.42249  -0.37316  -0.37255  -0.34346  -0.34217
 Alpha virt. eigenvalues --    0.03356   0.03861   0.04321   0.04920   0.05492
 Alpha virt. eigenvalues --    0.05649   0.05725   0.05915   0.06749   0.07256
 Alpha virt. eigenvalues --    0.07301   0.07950   0.08076   0.08759   0.09274

 Mulliken charges:
               1
     1  Si  -0.136068
     2  Si  -0.136035
     3  C    0.116409
     4  H    0.119107
     5  H    0.144242
     6  S   -0.073163
     7  O   -0.594601
     8  C    0.825388
     9  H   -0.248041
    10  H   -0.075117
    11  H   -0.078190
    12  C    0.116423
    13  H    0.119105
    14  H    0.144254
    15  S   -0.073159
    16  O   -0.594602
    17  C    0.825401
    18  H   -0.248041
    19  H   -0.075122
    20  H   -0.078189
 Sum of Mulliken charges =  -0.00000

 Dipole moment (field-independent basis, Debye):
    X=             -0.0000    Y=             -1.0644    Z=             -0.0000  Tot=              1.0644

 Test job not archived.
 1\1\GINC-SE461\SP\RHF\Aug-CC-pVDZ\C4H10O2S2Si2\OHZDE\09-Apr-2025\0\\#t
  hf aug-cc-pvdz iop(5/13=1,5/36=2,99/5=2) pseudo=read geom=check guess
 =(read,tcheck) scf=(maxcycle=1)\\title\\0,1\Si,0,1.125746,1.740984,-0.
 347723\Si,0,-1.125785,1.740985,0.34774\C,0,-1.91352,0.065787,-0.117607
 \H,0,-1.868525,2.782286,-0.402754\H,0,-1.267297,2.000324,1.798098\S,0,
 -1.702059,-0.580896,-1.615091\O,0,-2.625522,-0.466701,0.871945\C,0,-3.
 286368,-1.735612,0.67553\H,0,-3.779749,-1.943501,1.621763\H,0,-2.55187
 7,-2.50597,0.437154\H,0,-4.009197,-1.660383,-0.137938\C,0,1.913467,0.0

 Normal termination of Gaussian 16 at Wed Apr  9 00:13:38 2025.
