 Gaussian 16, Revision C.01,

 ----------------------------------------------------------------------
 #t hf aug-cc-pvdz symm=none int=(grid=ultrafine) guess=(read,tcheck) s
 table=opt
 ----------------------------------------------------------------------
 -----
 title
 -----
 Symbolic Z-matrix:
 Charge =  0 Multiplicity = 2

 SCF Done:  E(UHF) =  -688.210754452     A.U. after   13 cycles

 1\1\GINC-SE186\Stability\UHF\Aug-CC-pVDZ\H3S1Si1\OHZDE\09-Apr-2025\0\\
 #t hf aug-cc-pvdz symm=none int=(grid=ultrafine) guess=(read,tcheck) s
 table=opt\\title\\0,2\S,0,1.149582,-0.006215,0.000121\Si,0,-0.99638,-0
 .002417,0.000044\H,0,-1.547793,-0.629547,1.22107\H,0,-1.348415,1.43905
 4,-0.027752\H,0,-1.547777,-0.676221,-1.195867\\Version=ES64L-G16RevC.0
 1\HF=-688.2107545\S2=0.760438\S2-1=0.\S2A=0.750035\RMSD=6.602e-09\Dipo
 le=-0.4824026,-0.0417179,0.000789\Quadrupole=-0.1661056,1.1628663,-0.9
 967607,-0.0819169,0.0016332,-0.0416395\PG=Unknown\\@

 Normal termination of Gaussian 16 at Wed Apr  9 00:15:03 2025.
 Gaussian 16:  ES64L-G16RevC.01  3-Jul-2019

 ----------------------------------------------------------------------
 #t hf aug-cc-pvdz iop(5/13=1,5/36=2,99/5=2) pseudo=read geom=check gue
 ss=(read,tcheck) scf=(maxcycle=1)
 ----------------------------------------------------------------------
 -----
 title
 -----
 Structure from the checkpoint file:  "BDE49_nonexpt_2534_mol2.chk"
 Charge =  0 Multiplicity = 2

                         Standard orientation:
 ---------------------------------------------------------------------
 Center     Atomic      Atomic             Coordinates (Angstroms)
 Number     Number       Type             X           Y           Z
 ---------------------------------------------------------------------
      1         16           0        1.149582   -0.006215    0.000119
      2         14           0       -0.996380   -0.002417    0.000044
      3          1           0       -1.547793   -0.629815    1.220932
      4          1           0       -1.348415    1.439060   -0.027436
      5          1           0       -1.547777   -0.675958   -1.196015
 ---------------------------------------------------------------------

 SCF Done:  E(UHF) =  -688.250641617     A.U. after    2 cycles

 The electronic state is 2-A.
 Alpha  occ. eigenvalues --  -93.55585 -69.10084  -8.85456  -6.85164  -6.20785
 Alpha  occ. eigenvalues --   -6.19041  -6.18708  -3.95975  -3.95905  -3.95885
 Alpha  occ. eigenvalues --   -0.96036  -0.70217  -0.52592  -0.51053  -0.46754
 Alpha  occ. eigenvalues --   -0.44570  -0.39264
 Alpha virt. eigenvalues --    0.03824   0.04935   0.05964   0.06268   0.08818
 Alpha virt. eigenvalues --    0.09011   0.10793   0.13309   0.14302   0.14505
 Alpha virt. eigenvalues --    0.16167   0.18226   0.19036   0.22315   0.22869

  Beta  occ. eigenvalues --  -93.54717 -69.10130  -8.84494  -6.85231  -6.18524
  Beta  occ. eigenvalues --   -6.18173  -6.16950  -3.96089  -3.95975  -3.95923
  Beta  occ. eigenvalues --   -0.87092  -0.68820  -0.50789  -0.50134  -0.44947
  Beta  occ. eigenvalues --   -0.37057
  Beta virt. eigenvalues --   -0.00941   0.03856   0.05080   0.06212   0.06284
  Beta virt. eigenvalues --    0.08956   0.09031   0.10892   0.14396   0.14539
  Beta virt. eigenvalues --    0.15144   0.16545   0.19219   0.19396   0.22991

 Mulliken charges and spin densities:
               1          2
     1  S   -0.395246   1.080751
     2  Si   0.689637  -0.140157
     3  H   -0.090330   0.005900
     4  H   -0.113732   0.047605
     5  H   -0.090329   0.005901
 Sum of Mulliken charges =  -0.00000   1.00000

 Dipole moment (field-independent basis, Debye):
    X=             -1.1464    Y=             -0.1164    Z=              0.0022  Tot=              1.1523
                          Isotropic Fermi Contact Couplings
        Atom                 a.u.       MegaHertz       Gauss      10(-4) cm-1
     1  S(33)              0.14956      51.36825      18.32947      17.13460
     2  Si(29)            -0.04526      40.22383      14.35286      13.41723
     3  H(1)               0.00206       9.20508       3.28460       3.07048
     4  H(1)               0.01277      57.08643      20.36986      19.04198
     5  H(1)               0.00206       9.20631       3.28504       3.07089
 --------------------------------------------------------
       Center         ----  Spin Dipole Couplings  ----
                      3XX-RR        3YY-RR        3ZZ-RR

 Normal termination of Gaussian 16 at Wed Apr  9 00:15:04 2025.
