 Gaussian 16, Revision C.01,

 ----------------------------------------------------------------------
 #t hf aug-cc-pvdz symm=none int=(grid=ultrafine) guess=(read,tcheck) s
 table=(opt,rrhf)
 ----------------------------------------------------------------------
 -----
 title
 -----
 Symbolic Z-matrix:
 Charge =  0 Multiplicity = 1

 SCF Done:  E(RHF) =  -1119.57859789     A.U. after   15 cycles
 Normal termination of Gaussian 16 at Wed Apr  9 00:19:59 2025.
 Gaussian 16:  ES64L-G16RevC.01  3-Jul-2019

 ----------------------------------------------------------------------
 #t hf aug-cc-pvdz iop(5/13=1,5/36=2,99/5=2) pseudo=read geom=check gue
 ss=(read,tcheck) scf=(maxcycle=1)
 ----------------------------------------------------------------------
 -----
 title
 -----
 Structure from the checkpoint file:  "BDE49_nonexpt_2643_mol1.chk"
 Charge =  0 Multiplicity = 1

                         Standard orientation:
 ---------------------------------------------------------------------
 Center     Atomic      Atomic             Coordinates (Angstroms)
 Number     Number       Type             X           Y           Z
 ---------------------------------------------------------------------
      1          9           0        2.070842   -0.727656   -0.038171
      2         16           0        1.257359    0.711810    0.090125
      3         16           0       -0.720783    0.024042   -0.127570
      4          8           0       -1.440521    1.258711   -0.048922
      5          8           0       -0.825988   -0.915723   -1.205007
      6          8           0       -1.020016   -0.780020    1.239665
      7          1           0       -0.930597   -1.728477    1.056779
 ---------------------------------------------------------------------

 SCF Done:  E(RHF) =  -1119.79265683     A.U. after    2 cycles

 The electronic state is 1-A.
 Alpha  occ. eigenvalues --  -93.87987 -93.68535 -26.17898 -20.68183 -20.62037
 Alpha  occ. eigenvalues --  -20.61846  -9.13954  -8.97401  -6.48595  -6.48486
 Alpha  occ. eigenvalues --   -6.48300  -6.31502  -6.31164  -6.30672  -1.68998
 Alpha  occ. eigenvalues --   -1.51588  -1.39554  -1.37501  -1.05400  -0.91650
 Alpha  occ. eigenvalues --   -0.81943  -0.78365  -0.77952  -0.76769  -0.73849
 Alpha  occ. eigenvalues --   -0.69210  -0.67567  -0.62308  -0.58784  -0.57665
 Alpha  occ. eigenvalues --   -0.55349  -0.50422  -0.44516
 Alpha virt. eigenvalues --    0.02268   0.03590   0.05724   0.08559   0.09842
 Alpha virt. eigenvalues --    0.10613   0.11668   0.13017   0.13545   0.14013
 Alpha virt. eigenvalues --    0.17120   0.17925   0.20131   0.21097   0.23042

 Mulliken charges:
               1
     1  F   -0.585885
     2  S    0.751311
     3  S    2.050594
     4  O   -0.827556
     5  O   -0.884329
     6  O   -0.682618
     7  H    0.178482
 Sum of Mulliken charges =  -0.00000

 Dipole moment (field-independent basis, Debye):
    X=              1.2930    Y=             -0.6986    Z=              1.6672  Tot=              2.2225

 Test job not archived.
 1\1\GINC-SE090\SP\RHF\Aug-CC-pVDZ\F1H1O3S2\OHZDE\09-Apr-2025\0\\#t hf
 aug-cc-pvdz iop(5/13=1,5/36=2,99/5=2) pseudo=read geom=check guess=(re
 ad,tcheck) scf=(maxcycle=1)\\title\\0,1\F,0,2.070842,-0.727656,-0.0381
 71\S,0,1.257359,0.71181,0.090125\S,0,-0.720783,0.024042,-0.12757\O,0,-
 1.440521,1.258711,-0.048922\O,0,-0.825988,-0.915723,-1.205007\O,0,-1.0
 20016,-0.78002,1.239665\H,0,-0.930597,-1.728477,1.056779\\Version=ES64
 L-G16RevC.01\State=1-A\HF=-1119.7926568\RMSD=4.649e-03\Dipole=0.508709
 8,-0.2748599,0.6559203\Quadrupole=-1.1902452,2.6920871,-1.5018419,4.84

 Normal termination of Gaussian 16 at Wed Apr  9 00:20:02 2025.
