 Gaussian 16, Revision C.01,

 ----------------------------------------------------------------------
 #t hf aug-cc-pvdz symm=none int=(grid=ultrafine) guess=(read,tcheck) s
 table=(opt,rrhf)
 ----------------------------------------------------------------------
 -----
 title
 -----
 Symbolic Z-matrix:
 Charge =  0 Multiplicity = 1

 SCF Done:  E(RHF) =  -573.912388504     A.U. after   14 cycles
 Normal termination of Gaussian 16 at Tue Apr  8 22:55:33 2025.
 Gaussian 16:  ES64L-G16RevC.01  3-Jul-2019

 ----------------------------------------------------------------------
 #t hf aug-cc-pvdz iop(5/13=1,5/36=2,99/5=2) pseudo=read geom=check gue
 ss=(read,tcheck) scf=(maxcycle=1)
 ----------------------------------------------------------------------
 -----
 title
 -----
 Structure from the checkpoint file:  "BDE49_expt_1924_mol1.chk"
 Charge =  0 Multiplicity = 1

                         Standard orientation:
 ---------------------------------------------------------------------
 Center     Atomic      Atomic             Coordinates (Angstroms)
 Number     Number       Type             X           Y           Z
 ---------------------------------------------------------------------
      1          8           0        0.000000    0.817052    0.000000
      2         17           0        0.812002   -0.719803    0.000000
      3          6           0       -1.415234    0.636498    0.000000
      4          1           0       -1.802249    1.658591    0.000000
      5          1           0       -1.755189    0.111333    0.897064
      6          1           0       -1.755189    0.111333   -0.897064
 ---------------------------------------------------------------------

 SCF Done:  E(RHF) =  -573.969808514     A.U. after    2 cycles

 The electronic state is 1-A'.
 Alpha  occ. eigenvalues -- -103.70970 -20.65426 -11.30950 -10.73695  -8.39449
 Alpha  occ. eigenvalues --   -8.39045  -8.39022  -1.37078  -1.11289  -0.92841
 Alpha  occ. eigenvalues --   -0.68041  -0.66982  -0.65958  -0.53859  -0.53012
 Alpha  occ. eigenvalues --   -0.47648  -0.45193
 Alpha virt. eigenvalues --    0.03497   0.05435   0.05880   0.05914   0.08331
 Alpha virt. eigenvalues --    0.14089   0.14429   0.14900   0.15863   0.16598
 Alpha virt. eigenvalues --    0.17691   0.22201   0.25793   0.26621   0.27130

 Mulliken charges:
               1
     1  O   -0.682035
     2  Cl   0.247140
     3  C    0.736720
     4  H   -0.155178
     5  H   -0.073323
     6  H   -0.073323
 Sum of Mulliken charges =  -0.00000

 Dipole moment (field-independent basis, Debye):
    X=             -2.0348    Y=             -0.2060    Z=             -0.0000  Tot=              2.0452

 Test job not archived.
 1\1\GINC-SE250\SP\RHF\Aug-CC-pVDZ\C1H3Cl1O1\OHZDE\08-Apr-2025\0\\#t hf
  aug-cc-pvdz iop(5/13=1,5/36=2,99/5=2) pseudo=read geom=check guess=(r
 ead,tcheck) scf=(maxcycle=1)\\title\\0,1\O,0,0.,0.817052,0.\Cl,0,0.812
 002,-0.719803,0.\C,0,-1.415234,0.636498,0.\H,0,-1.802249,1.658591,0.\H
 ,0,-1.755189,0.111333,0.897064\H,0,-1.755189,0.111333,-0.897064\\Versi
 on=ES64L-G16RevC.01\State=1-A'\HF=-573.9698085\RMSD=2.441e-03\Dipole=-
 0.8005397,-0.0810444,0.\Quadrupole=1.371526,-0.3752406,-0.9962854,-1.6
 912917,0.,0.\PG=CS [SG(C1H1Cl1O1),X(H2)]\\@

 Normal termination of Gaussian 16 at Tue Apr  8 22:55:35 2025.
