 Gaussian 16, Revision C.01,

 ----------------------------------------------------------------------
 #t hf aug-cc-pvdz symm=none int=(grid=ultrafine) guess=(read,tcheck) s
 table=(opt,rrhf)
 ----------------------------------------------------------------------
 -----
 title
 -----
 Symbolic Z-matrix:
 Charge =  0 Multiplicity = 1

 SCF Done:  E(RHF) =  -490.429354371     A.U. after   14 cycles
 Normal termination of Gaussian 16 at Tue Apr  8 23:04:39 2025.
 Gaussian 16:  ES64L-G16RevC.01  3-Jul-2019

 ----------------------------------------------------------------------
 #t hf aug-cc-pvdz iop(5/13=1,5/36=2,99/5=2) pseudo=read geom=check gue
 ss=(read,tcheck) scf=(maxcycle=1)
 ----------------------------------------------------------------------
 -----
 title
 -----
 Structure from the checkpoint file:  "BDE49_expt_405_mol1.chk"
 Charge =  0 Multiplicity = 1

                         Standard orientation:
 ---------------------------------------------------------------------
 Center     Atomic      Atomic             Coordinates (Angstroms)
 Number     Number       Type             X           Y           Z
 ---------------------------------------------------------------------
      1          7           0       -0.135123    1.689730   -0.000000
      2          6           0       -0.000000    0.496775   -0.000000
      3         16           0        0.026279   -1.078577    0.000000
      4          1           0        0.525400    2.448472   -0.000000
 ---------------------------------------------------------------------

 SCF Done:  E(RHF) =  -490.477394626     A.U. after    2 cycles

 The electronic state is 1-A'.
 Alpha  occ. eigenvalues --  -93.54753 -15.67702 -11.40582  -8.84697  -6.18978
 Alpha  occ. eigenvalues --   -6.18334  -6.18269  -1.25421  -1.03882  -0.82004
 Alpha  occ. eigenvalues --   -0.60751  -0.57150  -0.56721  -0.38699  -0.37152
 Alpha virt. eigenvalues --    0.02918   0.07001   0.08027   0.10580   0.10683
 Alpha virt. eigenvalues --    0.11971   0.12223   0.14550   0.14981   0.15671
 Alpha virt. eigenvalues --    0.18645   0.21494   0.23842   0.25662   0.30626

 Mulliken charges:
               1
     1  N   -0.047033
     2  C   -0.324759
     3  S    0.300380
     4  H    0.071411
 Sum of Mulliken charges =  -0.00000

 Dipole moment (field-independent basis, Debye):
    X=              1.1916    Y=              1.9195    Z=             -0.0000  Tot=              2.2593

 Test job not archived.
 1\1\GINC-SE092\SP\RHF\Aug-CC-pVDZ\C1H1N1S1\OHZDE\08-Apr-2025\0\\#t hf
 aug-cc-pvdz iop(5/13=1,5/36=2,99/5=2) pseudo=read geom=check guess=(re
 ad,tcheck) scf=(maxcycle=1)\\title\\0,1\N,0,-0.135123,1.68973,0.\C,0,0
 .,0.496775,0.\S,0,0.026279,-1.078577,0.\H,0,0.5254,2.448472,0.\\Versio
 n=ES64L-G16RevC.01\State=1-A'\HF=-490.4773946\RMSD=6.422e-03\Dipole=0.
 4687993,0.7551887,0.\Quadrupole=-1.0945991,2.8994125,-1.8048134,2.4291
 779,0.,0.\PG=CS [SG(C1H1N1S1)]\\@

 Normal termination of Gaussian 16 at Tue Apr  8 23:04:41 2025.
