 Gaussian 16, Revision C.01,

 ----------------------------------------------------------------------
 #t hf aug-cc-pvdz symm=none int=(grid=ultrafine) guess=(read,tcheck) s
 table=opt
 ----------------------------------------------------------------------
 -----
 title
 -----
 Symbolic Z-matrix:
 Charge =  0 Multiplicity = 2

 SCF Done:  E(UHF) =  -1600.44127615     A.U. after   16 cycles
 Normal termination of Gaussian 16 at Tue Apr  8 23:10:51 2025.
 Gaussian 16:  ES64L-G16RevC.01  3-Jul-2019

 ----------------------------------------------------------------------
 #t hf aug-cc-pvdz iop(5/13=1,5/36=2,99/5=2) pseudo=read geom=check gue
 ss=(read,tcheck) scf=(maxcycle=1)
 ----------------------------------------------------------------------
 -----
 title
 -----
 Structure from the checkpoint file:  "BDE49_expt_805_mol2.chk"
 Charge =  0 Multiplicity = 2

                         Standard orientation:
 ---------------------------------------------------------------------
 Center     Atomic      Atomic             Coordinates (Angstroms)
 Number     Number       Type             X           Y           Z
 ---------------------------------------------------------------------
      1         14           0       -0.625442    0.237054   -0.000000
      2         16           0       -0.632650   -1.118871    1.681011
      3         16           0       -0.632650   -1.118871   -1.681011
      4         16           0        1.050080    1.622206   -0.000000
      5          6           0       -0.632650    0.072858    3.085291
      6          1           0        0.146929    0.822439    2.957798
      7          1           0       -0.429556   -0.515214    3.979926
      8          1           0       -1.605765    0.551928    3.180725
      9          6           0       -0.632650    0.072858   -3.085291
     10          1           0       -0.429556   -0.515214   -3.979926
     11          1           0        0.146929    0.822439   -2.957798
     12          1           0       -1.605765    0.551928   -3.180725
     13          6           0        2.520222    0.503861    0.000000
     14          1           0        2.525415   -0.119589   -0.892290
     15          1           0        2.525415   -0.119589    0.892290
     16          1           0        3.396146    1.153221    0.000000
 ---------------------------------------------------------------------

 SCF Done:  E(UHF) =  -1600.55680746     A.U. after    2 cycles

 The electronic state is 2-A'.
 Alpha  occ. eigenvalues --  -93.53120 -93.53118 -93.53019 -69.13349 -11.27475
 Alpha  occ. eigenvalues --  -11.27475 -11.27409  -8.82977  -8.82971  -8.82872
 Alpha  occ. eigenvalues --   -6.87950  -6.17126  -6.17106  -6.17029  -6.16919
 Alpha  occ. eigenvalues --   -6.16913  -6.16761  -6.16651  -6.16647  -6.16510
 Alpha  occ. eigenvalues --   -3.99029  -3.98342  -3.98323  -1.03601  -1.01917
 Alpha  occ. eigenvalues --   -1.01688  -0.88188  -0.85094  -0.84139  -0.64631
 Alpha  occ. eigenvalues --   -0.60870  -0.60386  -0.60042  -0.59439  -0.58984
 Alpha  occ. eigenvalues --   -0.57092  -0.52643  -0.47632  -0.47410  -0.43409
 Alpha  occ. eigenvalues --   -0.43159  -0.38580  -0.36689  -0.35147  -0.30776
 Alpha virt. eigenvalues --    0.03376   0.04024   0.04623   0.05190   0.06109
 Alpha virt. eigenvalues --    0.06264   0.06848   0.07544   0.08366   0.08427
 Alpha virt. eigenvalues --    0.08660   0.09401   0.09791   0.11802   0.13128

  Beta  occ. eigenvalues --  -93.53027 -93.53025 -93.52935 -69.12817 -11.27474
  Beta  occ. eigenvalues --  -11.27473 -11.27312  -8.82872  -8.82866  -8.82755
  Beta  occ. eigenvalues --   -6.87093  -6.16989  -6.16963  -6.16849  -6.16765
  Beta  occ. eigenvalues --   -6.16761  -6.16618  -6.16461  -6.16433  -6.16428
  Beta  occ. eigenvalues --   -3.98018  -3.97992  -3.97163  -1.03052  -1.01625
  Beta  occ. eigenvalues --   -1.01179  -0.87415  -0.84388  -0.83683  -0.62765
  Beta  occ. eigenvalues --   -0.60781  -0.60038  -0.59886  -0.59331  -0.58940
  Beta  occ. eigenvalues --   -0.55834  -0.51175  -0.47489  -0.46714  -0.42390
  Beta  occ. eigenvalues --   -0.40998  -0.37163  -0.35779  -0.34603
  Beta virt. eigenvalues --    0.02123   0.03735   0.04069   0.05194   0.05381
  Beta virt. eigenvalues --    0.06285   0.06354   0.06878   0.07617   0.08454
  Beta virt. eigenvalues --    0.08675   0.08879   0.09675   0.10314   0.12042

 Mulliken charges and spin densities:
               1          2
     1  Si   1.280993   0.839181
     2  S   -0.202970   0.062882
     3  S   -0.202970   0.062882
     4  S   -0.210442   0.013324
     5  C    0.099798  -0.000420
     6  H   -0.142271   0.002171
     7  H   -0.095107  -0.001753
     8  H   -0.092286  -0.004298
     9  C    0.099798  -0.000420
    10  H   -0.095107  -0.001753
    11  H   -0.142271   0.002171
    12  H   -0.092286  -0.004298
    13  C    0.140777   0.038792
    14  H   -0.123715  -0.004764
    15  H   -0.123715  -0.004764
    16  H   -0.098227   0.001066
 Sum of Mulliken charges =  -0.00000   1.00000

 Dipole moment (field-independent basis, Debye):
    X=              0.8925    Y=              1.2284    Z=              0.0000  Tot=              1.5184
                          Isotropic Fermi Contact Couplings
        Atom                 a.u.       MegaHertz       Gauss      10(-4) cm-1
     1  Si(29)             0.70021    -622.29362    -222.04984    -207.57481
     2  S(33)              0.02896       9.94602       3.54899       3.31763
     3  S(33)              0.02896       9.94602       3.54899       3.31763
     4  S(33)              0.13428      46.11994      16.45674      15.38396
     5  C(13)              0.00210       2.35911       0.84179       0.78691
     6  H(1)              -0.00006      -0.27311      -0.09745      -0.09110
     7  H(1)              -0.00035      -1.55392      -0.55448      -0.51833
     8  H(1)               0.00031       1.36775       0.48805       0.45623

 Normal termination of Gaussian 16 at Tue Apr  8 23:10:56 2025.
