 Gaussian 16, Revision C.01,

 ----------------------------------------------------------------------
 #t hf aug-cc-pvdz symm=none int=(grid=ultrafine) guess=(read,tcheck) s
 table=(opt,rrhf)
 ----------------------------------------------------------------------
 -----
 title
 -----
 Symbolic Z-matrix:
 Charge =  0 Multiplicity = 1

 SCF Done:  E(RHF) =  -459.468213691     A.U. after   14 cycles
 Normal termination of Gaussian 16 at Wed Apr  9 00:40:49 2025.
 Gaussian 16:  ES64L-G16RevC.01  3-Jul-2019

 ----------------------------------------------------------------------
 #t hf aug-cc-pvdz iop(5/13=1,5/36=2,99/5=2) pseudo=read geom=check gue
 ss=(read,tcheck) scf=(maxcycle=1)
 ----------------------------------------------------------------------
 -----
 title
 -----
 Structure from the checkpoint file:  "BDE49_nonexpt_710_mol1.chk"
 Charge =  0 Multiplicity = 1

                         Standard orientation:
 ---------------------------------------------------------------------
 Center     Atomic      Atomic             Coordinates (Angstroms)
 Number     Number       Type             X           Y           Z
 ---------------------------------------------------------------------
      1          5           0       -1.694403    0.897554    0.072914
      2          6           0        1.088555    0.033017    0.028142
      3          7           0        2.185067    0.399311    0.055876
      4         15           0       -0.567547   -0.589045   -0.142496
      5          1           0       -1.377644    1.951514   -0.365720
      6          1           0       -2.781236    0.692319    0.505083
      7          1           0       -0.682697   -1.289201    1.073533
 ---------------------------------------------------------------------

 SCF Done:  E(RHF) =  -459.524308843     A.U. after    2 cycles

 The electronic state is 1-A.
 Alpha  occ. eigenvalues --  -81.30185 -15.65419 -11.29291  -7.80811  -7.66614
 Alpha  occ. eigenvalues --   -4.94965  -4.94764  -4.94483  -1.19760  -0.89246
 Alpha  occ. eigenvalues --   -0.72373  -0.64243  -0.56173  -0.53229  -0.52610
 Alpha  occ. eigenvalues --   -0.50397  -0.46672  -0.37730
 Alpha virt. eigenvalues --    0.02322   0.03010   0.04452   0.05146   0.06544
 Alpha virt. eigenvalues --    0.07663   0.08416   0.09701   0.10002   0.11525
 Alpha virt. eigenvalues --    0.12172   0.13274   0.14365   0.14807   0.15828

 Mulliken charges:
               1
     1  B   -0.256765
     2  C   -0.241438
     3  N   -0.224892
     4  P    0.025766
     5  H    0.258935
     6  H    0.238851
     7  H    0.199543
 Sum of Mulliken charges =  -0.00000

 Dipole moment (field-independent basis, Debye):
    X=             -3.6819    Y=             -0.7162    Z=              0.5354  Tot=              3.7890

 Test job not archived.
 1\1\GINC-SE284\SP\RHF\Aug-CC-pVDZ\C1H3B1N1P1\OHZDE\09-Apr-2025\0\\#t h
 f aug-cc-pvdz iop(5/13=1,5/36=2,99/5=2) pseudo=read geom=check guess=(
 read,tcheck) scf=(maxcycle=1)\\title\\0,1\B,0,-1.694403,0.897554,0.072
 914\C,0,1.088555,0.033017,0.028142\N,0,2.185067,0.39931,0.055876\P,0,-
 0.567547,-0.589045,-0.142496\H,0,-1.377643,1.951514,-0.36572\H,0,-2.78
 1236,0.69232,0.505083\H,0,-0.682697,-1.289201,1.073533\\Version=ES64L-
 G16RevC.01\State=1-A\HF=-459.5243088\RMSD=1.140e-02\Dipole=-1.4485846,
 -0.2817713,0.2106444\Quadrupole=-3.6161859,1.6429117,1.9732742,-1.3963

 Normal termination of Gaussian 16 at Wed Apr  9 00:40:51 2025.
