 Gaussian 16, Revision C.01,

 ----------------------------------------------------------------------
 #t hf aug-cc-pvdz symm=none int=(grid=ultrafine) guess=(read,tcheck) s
 table=(opt,rrhf)
 ----------------------------------------------------------------------
 -----
 title
 -----
 Symbolic Z-matrix:
 Charge =  0 Multiplicity = 1

 SCF Done:  E(RHF) =  -2524.65972067     A.U. after   13 cycles
 Normal termination of Gaussian 16 at Wed Apr  9 00:14:37 2025.
 Gaussian 16:  ES64L-G16RevC.01  3-Jul-2019

 ----------------------------------------------------------------------
 #t hf aug-cc-pvdz iop(5/13=1,5/36=2,99/5=2) pseudo=read geom=check gue
 ss=(read,tcheck) scf=(maxcycle=1)
 ----------------------------------------------------------------------
 -----
 title
 -----
 Structure from the checkpoint file:  "BDE49_nonexpt_2531_mol1.chk"
 Charge =  0 Multiplicity = 1

                         Standard orientation:
 ---------------------------------------------------------------------
 Center     Atomic      Atomic             Coordinates (Angstroms)
 Number     Number       Type             X           Y           Z
 ---------------------------------------------------------------------
      1         17           0        2.692480   -0.059272    0.000046
      2         16           0        1.133935    1.318733    0.000002
      3         14           0       -0.536953   -0.022119   -0.000009
      4         17           0       -0.596538   -1.220609   -1.656261
      5         17           0       -0.596593   -1.220565    1.656273
      6         17           0       -2.124385    1.277502   -0.000052
 ---------------------------------------------------------------------

 SCF Done:  E(RHF) =  -2524.78231536     A.U. after    2 cycles

 The electronic state is 1-A.
 Alpha  occ. eigenvalues -- -103.70494-103.69470-103.69082-103.69082 -93.61745
 Alpha  occ. eigenvalues --  -69.24569 -10.73592 -10.72922 -10.72547 -10.72539
 Alpha  occ. eigenvalues --   -8.91278  -8.39330  -8.38966  -8.38934  -8.38615
 Alpha  occ. eigenvalues --   -8.38370  -8.38360  -8.38242  -8.38238  -8.37986
 Alpha  occ. eigenvalues --   -8.37985  -8.37984  -8.37980  -6.98204  -6.25337
 Alpha  occ. eigenvalues --   -6.25058  -6.24722  -4.09068  -4.09021  -4.08983
 Alpha  occ. eigenvalues --   -1.20380  -1.18561  -1.16861  -1.16527  -0.95050
 Alpha  occ. eigenvalues --   -0.72103  -0.61403  -0.60650  -0.60101  -0.55567
 Alpha  occ. eigenvalues --   -0.54539  -0.52869  -0.52529  -0.52286  -0.50250
 Alpha  occ. eigenvalues --   -0.50159  -0.49035  -0.45606  -0.40568
 Alpha virt. eigenvalues --    0.01834   0.04712   0.05919   0.06144   0.06650
 Alpha virt. eigenvalues --    0.09041   0.10473   0.11337   0.11495   0.12358
 Alpha virt. eigenvalues --    0.13161   0.14222   0.15116   0.15383   0.16365

 Mulliken charges:
               1
     1  Cl  -0.315091
     2  S   -0.109592
     3  Si   1.691130
     4  Cl  -0.414771
     5  Cl  -0.414772
     6  Cl  -0.436904
 Sum of Mulliken charges =  -0.00000

 Dipole moment (field-independent basis, Debye):
    X=             -0.3152    Y=              0.4498    Z=             -0.0000  Tot=              0.5493

 Test job not archived.
 1\1\GINC-SE069\SP\RHF\Aug-CC-pVDZ\Cl4S1Si1\OHZDE\09-Apr-2025\0\\#t hf
 aug-cc-pvdz iop(5/13=1,5/36=2,99/5=2) pseudo=read geom=check guess=(re
 ad,tcheck) scf=(maxcycle=1)\\title\\0,1\Cl,0,2.69248,-0.059273,0.00004
 6\S,0,1.133935,1.318732,0.000002\Si,0,-0.536953,-0.022119,-0.000009\Cl
 ,0,-0.596538,-1.220609,-1.656261\Cl,0,-0.596593,-1.220565,1.656273\Cl,
 0,-2.124385,1.277502,-0.000052\\Version=ES64L-G16RevC.01\State=1-A\HF=
 -2524.7823154\RMSD=3.898e-03\Dipole=-0.1240241,0.1769756,-0.0000053\Qu
 adrupole=-0.324211,1.0318552,-0.7076442,-0.3763726,0.0000128,-0.000026

 Normal termination of Gaussian 16 at Wed Apr  9 00:14:40 2025.
