 Gaussian 16, Revision C.01,

 ----------------------------------------------------------------------
 #t hf aug-cc-pvdz symm=none int=(grid=ultrafine) guess=(read,tcheck) s
 table=(opt,rrhf)
 ----------------------------------------------------------------------
 -----
 title
 -----
 Symbolic Z-matrix:
 Charge =  0 Multiplicity = 1

 SCF Done:  E(RHF) =  -991.419682180     A.U. after   14 cycles

 1\1\GINC-SE331\Stability\RHF\Aug-CC-pVDZ\C5H12S2\OHZDE\08-Apr-2025\0\\
 #t hf aug-cc-pvdz symm=none int=(grid=ultrafine) guess=(read,tcheck) s
 table=(opt,rrhf)\\title\\0,1\C,0,-1.309001,0.162421,0.075547\S,0,0.101
 84,-0.792685,-0.730979\S,0,1.772929,-0.504798,0.467581\C,0,2.651318,0.
 895071,-0.324014\H,0,3.600928,0.985266,0.209554\H,0,2.092439,1.824683,
 -0.230053\H,0,2.846812,0.672921,-1.371966\C,0,-2.484329,-0.08708,-0.88
 2062\H,0,-2.284017,0.315943,-1.877999\H,0,-3.380755,0.40529,-0.491985\
 H,0,-2.703127,-1.153607,-0.978848\C,0,-1.60515,-0.414266,1.462345\H,0,

 Normal termination of Gaussian 16 at Tue Apr  8 22:46:23 2025.
 Gaussian 16:  ES64L-G16RevC.01  3-Jul-2019

 ----------------------------------------------------------------------
 #t hf aug-cc-pvdz iop(5/13=1,5/36=2,99/5=2) pseudo=read geom=check gue
 ss=(read,tcheck) scf=(maxcycle=1)
 ----------------------------------------------------------------------
 -----
 title
 -----
 Structure from the checkpoint file:  "BDE49_expt_1594_mol1.chk"
 Charge =  0 Multiplicity = 1

                         Standard orientation:
 ---------------------------------------------------------------------
 Center     Atomic      Atomic             Coordinates (Angstroms)
 Number     Number       Type             X           Y           Z
 ---------------------------------------------------------------------
      1          6           0       -1.309001    0.162421    0.075547
      2         16           0        0.101840   -0.792685   -0.730979
      3         16           0        1.772929   -0.504798    0.467581
      4          6           0        2.651318    0.895071   -0.324014
      5          1           0        3.600928    0.985266    0.209554
      6          1           0        2.092439    1.824683   -0.230053
      7          1           0        2.846812    0.672921   -1.371966
      8          6           0       -2.484329   -0.087080   -0.882062
      9          1           0       -2.284017    0.315943   -1.877999
     10          1           0       -3.380755    0.405290   -0.491985
     11          1           0       -2.703127   -1.153607   -0.978848
     12          6           0       -1.605150   -0.414266    1.462345
     13          1           0       -0.744350   -0.304411    2.125425
     14          1           0       -1.859060   -1.474641    1.402322
     15          1           0       -2.449561    0.117844    1.914662
     16          6           0       -0.983698    1.655186    0.159535
     17          1           0       -0.760694    2.069966   -0.825980
     18          1           0       -0.129858    1.833896    0.816723
     19          1           0       -1.839902    2.198585    0.574426
 ---------------------------------------------------------------------

 SCF Done:  E(RHF) =  -991.522667897     A.U. after    2 cycles

 The electronic state is 1-A.
 Alpha  occ. eigenvalues --  -93.55036 -93.54372 -11.28717 -11.26752 -11.23723
 Alpha  occ. eigenvalues --  -11.23383 -11.22941  -8.84570  -8.83921  -6.18708
 Alpha  occ. eigenvalues --   -6.18442  -6.18146  -6.18063  -6.17782  -6.17496
 Alpha  occ. eigenvalues --   -1.10686  -1.03588  -0.94311  -0.93909  -0.93342
 Alpha  occ. eigenvalues --   -0.81219  -0.72581  -0.62543  -0.61592  -0.61411
 Alpha  occ. eigenvalues --   -0.59371  -0.58778  -0.55679  -0.55112  -0.52656
 Alpha  occ. eigenvalues --   -0.50637  -0.48987  -0.48536  -0.44958  -0.42620
 Alpha  occ. eigenvalues --   -0.34929  -0.34233
 Alpha virt. eigenvalues --    0.03443   0.04191   0.04806   0.04986   0.06127
 Alpha virt. eigenvalues --    0.06342   0.06822   0.07240   0.07450   0.08420
 Alpha virt. eigenvalues --    0.09320   0.09828   0.10613   0.11224   0.12763

 Mulliken charges:
               1
     1  C   -2.404131
     2  S    0.084320
     3  S    0.040265
     4  C    0.141769
     5  H   -0.067533
     6  H   -0.138561
     7  H   -0.053762
     8  C    1.079077
     9  H   -0.047741
    10  H   -0.000217
    11  H   -0.058539
    12  C    0.836687
    13  H   -0.045256
    14  H   -0.046442
    15  H   -0.009387
    16  C    0.853067
    17  H   -0.075169
    18  H   -0.057156
    19  H   -0.031290
 Sum of Mulliken charges =  -0.00000

 Dipole moment (field-independent basis, Debye):
    X=             -0.7715    Y=              2.1589    Z=              0.1244  Tot=              2.2960

 Test job not archived.
 1\1\GINC-SE331\SP\RHF\Aug-CC-pVDZ\C5H12S2\OHZDE\08-Apr-2025\0\\#t hf a
 ug-cc-pvdz iop(5/13=1,5/36=2,99/5=2) pseudo=read geom=check guess=(rea
 d,tcheck) scf=(maxcycle=1)\\title\\0,1\C,0,-1.309001,0.162421,0.075547
 \S,0,0.10184,-0.792685,-0.730979\S,0,1.772929,-0.504798,0.467581\C,0,2
 .651318,0.895071,-0.324014\H,0,3.600928,0.985266,0.209554\H,0,2.092439
 ,1.824683,-0.230053\H,0,2.846812,0.672921,-1.371966\C,0,-2.484329,-0.0
 8708,-0.882062\H,0,-2.284017,0.315943,-1.877999\H,0,-3.380755,0.40529,
 -0.491985\H,0,-2.703127,-1.153607,-0.978848\C,0,-1.60515,-0.414266,1.4

 Normal termination of Gaussian 16 at Tue Apr  8 22:46:31 2025.
