 Gaussian 16, Revision C.01,

 ----------------------------------------------------------------------
 #t hf aug-cc-pvdz symm=none int=(grid=ultrafine) guess=(read,tcheck) s
 table=(opt,rrhf)
 ----------------------------------------------------------------------
 -----
 title
 -----
 Symbolic Z-matrix:
 Charge =  0 Multiplicity = 1

 SCF Done:  E(RHF) =  -811.182324061     A.U. after   11 cycles

 1\1\GINC-SE073\Stability\RHF\Aug-CC-pVDZ\B1F5Si1\OHZDE\09-Apr-2025\0\\
 #t hf aug-cc-pvdz symm=none int=(grid=ultrafine) guess=(read,tcheck) s
 table=(opt,rrhf)\\title\\0,1\F,0,-2.031655,1.131955,-0.000005\F,0,-2.0
 14739,-1.129916,0.00002\B,0,-1.345952,0.006672,-0.000008\Si,0,0.674968
 ,0.003562,-0.000004\F,0,1.239367,-0.74283,-1.28114\F,0,1.265471,1.4743
 15,-0.000034\F,0,1.239358,-0.742772,1.281169\\Version=ES64L-G16RevC.01
 \HF=-811.1823241\RMSD=3.038e-09\Dipole=-0.3331601,0.0186527,-0.0000191
 \Quadrupole=-1.2243783,-0.9166319,2.1410102,-0.0240133,0.0000849,0.000

 Normal termination of Gaussian 16 at Wed Apr  9 00:28:44 2025.
 Gaussian 16:  ES64L-G16RevC.01  3-Jul-2019

 ----------------------------------------------------------------------
 #t hf aug-cc-pvdz iop(5/13=1,5/36=2,99/5=2) pseudo=read geom=check gue
 ss=(read,tcheck) scf=(maxcycle=1)
 ----------------------------------------------------------------------
 -----
 title
 -----
 Structure from the checkpoint file:  "BDE49_nonexpt_359_mol1.chk"
 Charge =  0 Multiplicity = 1

                         Standard orientation:
 ---------------------------------------------------------------------
 Center     Atomic      Atomic             Coordinates (Angstroms)
 Number     Number       Type             X           Y           Z
 ---------------------------------------------------------------------
      1          9           0       -2.031655    1.131955   -0.000005
      2          9           0       -2.014739   -1.129916    0.000020
      3          5           0       -1.345952    0.006672   -0.000008
      4         14           0        0.674968    0.003562   -0.000004
      5          9           0        1.239367   -0.742830   -1.281140
      6          9           0        1.265471    1.474315   -0.000034
      7          9           0        1.239358   -0.742772    1.281169
 ---------------------------------------------------------------------

 SCF Done:  E(RHF) =  -811.433297106     A.U. after    2 cycles

 The electronic state is 1-A.
 Alpha  occ. eigenvalues --  -69.22755 -26.17457 -26.17448 -26.15296 -26.15294
 Alpha  occ. eigenvalues --  -26.15215  -7.78392  -6.96480  -4.07499  -4.07496
 Alpha  occ. eigenvalues --   -4.07223  -1.72852  -1.70650  -1.69554  -1.67763
 Alpha  occ. eigenvalues --   -1.67721  -0.91539  -0.88772  -0.85766  -0.82659
 Alpha  occ. eigenvalues --   -0.81907  -0.81789  -0.80207  -0.78322  -0.76756
 Alpha  occ. eigenvalues --   -0.76755  -0.75414  -0.75205  -0.74418  -0.74249
 Alpha  occ. eigenvalues --   -0.72992  -0.54589
 Alpha virt. eigenvalues --    0.03307   0.04537   0.05053   0.05553   0.07597
 Alpha virt. eigenvalues --    0.07812   0.07935   0.08476   0.13843   0.16160
 Alpha virt. eigenvalues --    0.18821   0.19226   0.23006   0.23518   0.24056

 Mulliken charges:
               1
     1  F   -0.443190
     2  F   -0.433163
     3  B    0.806423
     4  Si   2.352286
     5  F   -0.760043
     6  F   -0.762270
     7  F   -0.760043
 Sum of Mulliken charges =  -0.00000

 Dipole moment (field-independent basis, Debye):
    X=             -0.8168    Y=              0.0519    Z=             -0.0001  Tot=              0.8185

 Test job not archived.
 1\1\GINC-SE073\SP\RHF\Aug-CC-pVDZ\B1F5Si1\OHZDE\09-Apr-2025\0\\#t hf a
 ug-cc-pvdz iop(5/13=1,5/36=2,99/5=2) pseudo=read geom=check guess=(rea
 d,tcheck) scf=(maxcycle=1)\\title\\0,1\F,0,-2.031655,1.131955,-0.00000
 5\F,0,-2.014739,-1.129916,0.00002\B,0,-1.345952,0.006672,-0.000008\Si,
 0,0.674968,0.003562,-0.000004\F,0,1.239367,-0.74283,-1.28114\F,0,1.265
 471,1.474315,-0.000034\F,0,1.239358,-0.742772,1.281169\\Version=ES64L-
 G16RevC.01\State=1-A\HF=-811.4332971\RMSD=6.274e-03\Dipole=-0.3213684,
 0.0204187,-0.0000219\Quadrupole=-1.4189938,-0.9986912,2.4176851,-0.023

 Normal termination of Gaussian 16 at Wed Apr  9 00:28:46 2025.
