 Gaussian 16, Revision C.01,

 ----------------------------------------------------------------------
 #t hf aug-cc-pvdz symm=none int=(grid=ultrafine) guess=(read,tcheck) s
 table=(opt,rrhf)
 ----------------------------------------------------------------------
 -----
 title
 -----
 Symbolic Z-matrix:
 Charge =  0 Multiplicity = 1

 SCF Done:  E(RHF) =  -634.716200491     A.U. after   16 cycles
 Normal termination of Gaussian 16 at Tue Apr  8 23:59:20 2025.
 Gaussian 16:  ES64L-G16RevC.01  3-Jul-2019

 ----------------------------------------------------------------------
 #t hf aug-cc-pvdz iop(5/13=1,5/36=2,99/5=2) pseudo=read geom=check gue
 ss=(read,tcheck) scf=(maxcycle=1)
 ----------------------------------------------------------------------
 -----
 title
 -----
 Structure from the checkpoint file:  "BDE49_nonexpt_2081_mol1.chk"
 Charge =  0 Multiplicity = 1

                         Standard orientation:
 ---------------------------------------------------------------------
 Center     Atomic      Atomic             Coordinates (Angstroms)
 Number     Number       Type             X           Y           Z
 ---------------------------------------------------------------------
      1         14           0       -3.250769   -0.198556   -0.000001
      2          6           0       -1.389844   -0.006897   -0.000001
      3          6           0       -0.779505    1.262943   -0.000000
      4          6           0        0.597016    1.407577    0.000001
      5          6           0        1.423198    0.274792    0.000001
      6          6           0       -0.544063   -1.121485   -0.000002
      7          1           0       -0.968375   -2.120416   -0.000003
      8          6           0        0.846429   -0.996992   -0.000001
      9          1           0        1.459295   -1.888406   -0.000001
     10          1           0       -1.391675    2.159908   -0.000000
     11          8           0        2.761440    0.520306    0.000002
     12          6           0        3.655529   -0.583902    0.000002
     13          1           0        3.527767   -1.204272    0.894056
     14          1           0        4.656385   -0.155492    0.000003
     15          1           0        3.527768   -1.204271   -0.894053
     16          1           0        1.064216    2.385098    0.000002
     17          1           0       -3.860190    0.435402    1.195242
     18          1           0       -3.588316   -1.641865   -0.000018
     19          1           0       -3.860191    0.435432   -1.195228
 ---------------------------------------------------------------------

 SCF Done:  E(RHF) =  -634.844697920     A.U. after    2 cycles

 The electronic state is 1-A.
 Alpha  occ. eigenvalues --  -69.05951 -20.60545 -11.31917 -11.30165 -11.25709
 Alpha  occ. eigenvalues --  -11.25564 -11.24377 -11.24040 -11.22833  -6.81285
 Alpha  occ. eigenvalues --   -3.92049  -3.92021  -3.91996  -1.37561  -1.14084
 Alpha  occ. eigenvalues --   -1.02331  -1.01372  -0.94523  -0.83977  -0.81453
 Alpha  occ. eigenvalues --   -0.73730  -0.70607  -0.67801  -0.67068  -0.63581
 Alpha  occ. eigenvalues --   -0.61162  -0.59478  -0.59072  -0.53724  -0.53372
 Alpha  occ. eigenvalues --   -0.49430  -0.49089  -0.47489  -0.46275  -0.45756
 Alpha  occ. eigenvalues --   -0.34847  -0.32100
 Alpha virt. eigenvalues --    0.03065   0.03805   0.04176   0.05409   0.05415
 Alpha virt. eigenvalues --    0.05846   0.06595   0.06916   0.07559   0.08326
 Alpha virt. eigenvalues --    0.08985   0.09504   0.10477   0.10737   0.11276

 Mulliken charges:
               1
     1  Si  -0.032907
     2  C   -0.422778
     3  C    0.985245
     4  C    0.624297
     5  C    0.555763
     6  C    0.428374
     7  H   -0.563888
     8  C    0.603577
     9  H   -0.726985
    10  H   -0.622759
    11  O   -0.698001
    12  C    0.882779
    13  H   -0.092772
    14  H   -0.302074
    15  H   -0.092771
    16  H   -0.553821
    17  H    0.040444
    18  H   -0.052167
    19  H    0.040443
 Sum of Mulliken charges =  -0.00000

 Dipole moment (field-independent basis, Debye):
    X=              1.6279    Y=             -1.2309    Z=              0.0000  Tot=              2.0409

 Test job not archived.
 1\1\GINC-SE094\SP\RHF\Aug-CC-pVDZ\C7H10O1Si1\OHZDE\08-Apr-2025\0\\#t h
 f aug-cc-pvdz iop(5/13=1,5/36=2,99/5=2) pseudo=read geom=check guess=(
 read,tcheck) scf=(maxcycle=1)\\title\\0,1\Si,0,-3.250769,-0.198556,-0.
 000001\C,0,-1.389844,-0.006897,-0.000001\C,0,-0.779505,1.262943,0.\C,0
 ,0.597016,1.407577,0.000001\C,0,1.423198,0.274792,0.000001\C,0,-0.5440
 63,-1.121485,-0.000002\H,0,-0.968375,-2.120416,-0.000003\C,0,0.846429,
 -0.996992,-0.000001\H,0,1.459295,-1.888406,-0.000001\H,0,-1.391675,2.1
 59908,0.\O,0,2.76144,0.520306,0.000002\C,0,3.655529,-0.583902,0.000002

 Normal termination of Gaussian 16 at Tue Apr  8 23:59:30 2025.
