 Gaussian 16, Revision C.01,

 ----------------------------------------------------------------------
 #t hf aug-cc-pvdz symm=none int=(grid=ultrafine) guess=(read,tcheck) s
 table=(opt,rrhf)
 ----------------------------------------------------------------------
 -----
 title
 -----
 Symbolic Z-matrix:
 Charge =  0 Multiplicity = 1

 SCF Done:  E(RHF) =  -2625.06898687     A.U. after   12 cycles
 Normal termination of Gaussian 16 at Tue Apr  8 23:47:24 2025.
 Gaussian 16:  ES64L-G16RevC.01  3-Jul-2019

 ----------------------------------------------------------------------
 #t hf aug-cc-pvdz iop(5/13=1,5/36=2,99/5=2) pseudo=read geom=check gue
 ss=(read,tcheck) scf=(maxcycle=1)
 ----------------------------------------------------------------------
 -----
 title
 -----
 Structure from the checkpoint file:  "BDE49_nonexpt_1818_mol1.chk"
 Charge =  0 Multiplicity = 1

                         Standard orientation:
 ---------------------------------------------------------------------
 Center     Atomic      Atomic             Coordinates (Angstroms)
 Number     Number       Type             X           Y           Z
 ---------------------------------------------------------------------
      1          6           0        0.825495    1.003257    0.000000
      2         14           0       -0.105733   -0.650658   -0.000000
      3          1           0        1.900193    0.834373    0.000000
      4         17           0        0.451200    1.940891    1.485980
      5         17           0        0.451200    1.940891   -1.485980
      6         17           0       -2.120854   -0.338161   -0.000000
      7         17           0        0.451200   -1.705478    1.665319
      8         17           0        0.451200   -1.705478   -1.665319
 ---------------------------------------------------------------------

 SCF Done:  E(RHF) =  -2625.20056146     A.U. after    2 cycles

 The electronic state is 1-A'.
 Alpha  occ. eigenvalues -- -103.69215-103.69215-103.68929-103.68929-103.68881
 Alpha  occ. eigenvalues --  -69.22979 -11.39054 -10.72470 -10.72464 -10.72388
 Alpha  occ. eigenvalues --  -10.72377 -10.72336  -8.38190  -8.38187  -8.38081
 Alpha  occ. eigenvalues --   -8.38075  -8.38037  -8.37870  -8.37868  -8.37858
 Alpha  occ. eigenvalues --   -8.37856  -8.37836  -8.37836  -8.37830  -8.37825
 Alpha  occ. eigenvalues --   -8.37788  -8.37782  -6.96816  -4.07676  -4.07672
 Alpha  occ. eigenvalues --   -4.07533  -1.23288  -1.19482  -1.16522  -1.16480
 Alpha  occ. eigenvalues --   -1.15645  -0.92322  -0.73463  -0.66604  -0.62503
 Alpha  occ. eigenvalues --   -0.62283  -0.59678  -0.58981  -0.52951  -0.52728
 Alpha  occ. eigenvalues --   -0.52374  -0.50992  -0.50189  -0.49606  -0.49211
 Alpha  occ. eigenvalues --   -0.48852  -0.47246  -0.45191
 Alpha virt. eigenvalues --    0.03826   0.05428   0.05882   0.05903   0.07823
 Alpha virt. eigenvalues --    0.08392   0.09178   0.11183   0.11405   0.12162
 Alpha virt. eigenvalues --    0.12659   0.13203   0.14280   0.15338   0.16270

 Mulliken charges:
               1
     1  C   -0.300139
     2  Si   1.805703
     3  H    0.084163
     4  Cl  -0.108676
     5  Cl  -0.108676
     6  Cl  -0.453793
     7  Cl  -0.459292
     8  Cl  -0.459292
 Sum of Mulliken charges =  -0.00000

 Dipole moment (field-independent basis, Debye):
    X=              1.0645    Y=             -0.3956    Z=              0.0000  Tot=              1.1356

 Test job not archived.
 1\1\GINC-SE402\SP\RHF\Aug-CC-pVDZ\C1H1Cl5Si1\OHZDE\08-Apr-2025\0\\#t h
 f aug-cc-pvdz iop(5/13=1,5/36=2,99/5=2) pseudo=read geom=check guess=(
 read,tcheck) scf=(maxcycle=1)\\title\\0,1\C,0,1.120133,0.,-0.658231\Si
 ,0,-0.659188,0.,0.002553\H,0,1.121601,0.,-1.746117\Cl,0,1.987599,-1.48
 598,-0.141744\Cl,0,1.987599,1.48598,-0.141744\Cl,0,-0.666059,0.,2.0417
 49\Cl,0,-1.613798,-1.665319,-0.712667\Cl,0,-1.613798,1.665319,-0.71266
 7\\Version=ES64L-G16RevC.01\State=1-A'\HF=-2625.2005615\RMSD=3.790e-03
 \Dipole=-0.0881632,0.,-0.4379941\Quadrupole=-1.6150619,-0.4769939,2.09

 Normal termination of Gaussian 16 at Tue Apr  8 23:47:28 2025.
