 Gaussian 16, Revision C.01,

 ----------------------------------------------------------------------
 #t hf aug-cc-pvdz symm=none int=(grid=ultrafine) guess=(read,tcheck) s
 table=opt
 ----------------------------------------------------------------------
 -----
 title
 -----
 Symbolic Z-matrix:
 Charge =  0 Multiplicity = 2

 SCF Done:  E(UHF) =  -737.133928414     A.U. after   19 cycles

 1\1\GINC-SE322\Stability\UHF\Aug-CC-pVDZ\F3O2Si1\OHZDE\09-Apr-2025\0\\
 #t hf aug-cc-pvdz symm=none int=(grid=ultrafine) guess=(read,tcheck) s
 table=opt\\title\\0,2\O,0,-2.117344,-0.031496,-0.000014\O,0,-1.10064,0
 .86483,-0.000035\Si,0,0.332559,-0.006203,0.000003\F,0,0.436118,-0.9013
 83,-1.282121\F,0,1.470898,1.071591,-0.000024\F,0,0.4361,-0.9013,1.2821
 85\\Version=ES64L-G16RevC.01\HF=-737.1339284\S2=0.76269\S2-1=0.\S2A=0.
 750123\RMSD=8.794e-09\Dipole=0.0976651,-0.0540264,0.0000044\Quadrupole
 =-0.1081976,-0.3467289,0.4549265,0.1123685,-0.0000054,0.0000228\PG=Unk

 Normal termination of Gaussian 16 at Wed Apr  9 00:03:02 2025.
 Gaussian 16:  ES64L-G16RevC.01  3-Jul-2019

 ----------------------------------------------------------------------
 #t hf aug-cc-pvdz iop(5/13=1,5/36=2,99/5=2) pseudo=read geom=check gue
 ss=(read,tcheck) scf=(maxcycle=1)
 ----------------------------------------------------------------------
 -----
 title
 -----
 Structure from the checkpoint file:  "BDE49_nonexpt_2212_mol2.chk"
 Charge =  0 Multiplicity = 2

                         Standard orientation:
 ---------------------------------------------------------------------
 Center     Atomic      Atomic             Coordinates (Angstroms)
 Number     Number       Type             X           Y           Z
 ---------------------------------------------------------------------
      1          8           0       -2.117344   -0.031496   -0.000014
      2          8           0       -1.100640    0.864830   -0.000035
      3         14           0        0.332559   -0.006203    0.000003
      4          9           0        0.436118   -0.901383   -1.282121
      5          9           0        1.470898    1.071591   -0.000024
      6          9           0        0.436100   -0.901300    1.282185
 ---------------------------------------------------------------------

 SCF Done:  E(UHF) =  -737.353867410     A.U. after    2 cycles

 The electronic state is 2-A.
 Alpha  occ. eigenvalues --  -69.27280 -26.17147 -26.17146 -26.17093 -20.74607
 Alpha  occ. eigenvalues --  -20.69969  -7.00589  -4.11718  -4.11671  -4.11609
 Alpha  occ. eigenvalues --   -1.71709  -1.69912  -1.69892  -1.54228  -1.21967
 Alpha  occ. eigenvalues --   -0.90572  -0.84438  -0.84086  -0.82368  -0.81058
 Alpha  occ. eigenvalues --   -0.78793  -0.78431  -0.76873  -0.76218  -0.75761
 Alpha  occ. eigenvalues --   -0.74991  -0.72172  -0.58838  -0.56715
 Alpha virt. eigenvalues --    0.05179   0.05854   0.05956   0.06240   0.13127
 Alpha virt. eigenvalues --    0.17499   0.18533   0.19171   0.19204   0.20996
 Alpha virt. eigenvalues --    0.22043   0.23629   0.23689   0.24461   0.25989

  Beta  occ. eigenvalues --  -69.27284 -26.17153 -26.17152 -26.17103 -20.70319
  Beta  occ. eigenvalues --  -20.69494  -7.00596  -4.11721  -4.11668  -4.11625
  Beta  occ. eigenvalues --   -1.71724  -1.69928  -1.69918  -1.47676  -1.11783
  Beta  occ. eigenvalues --   -0.90375  -0.84059  -0.84056  -0.81753  -0.78795
  Beta  occ. eigenvalues --   -0.78710  -0.76706  -0.76667  -0.74990  -0.74404
  Beta  occ. eigenvalues --   -0.69774  -0.62653  -0.53263
  Beta virt. eigenvalues --    0.04769   0.05204   0.05883   0.06220   0.06293
  Beta virt. eigenvalues --    0.13719   0.17554   0.18608   0.19439   0.21505
  Beta virt. eigenvalues --    0.21579   0.22061   0.23873   0.24367   0.24463

 Mulliken charges and spin densities:
               1          2
     1  O   -0.056708   0.999334
     2  O   -0.620964   0.012358
     3  Si   3.080618  -0.019150
     4  F   -0.803330   0.004406
     5  F   -0.796286  -0.001354
     6  F   -0.803331   0.004406
 Sum of Mulliken charges =  -0.00000   1.00000

 Dipole moment (field-independent basis, Debye):
    X=              0.1796    Y=             -0.1144    Z=              0.0000  Tot=              0.2130
                          Isotropic Fermi Contact Couplings
        Atom                 a.u.       MegaHertz       Gauss      10(-4) cm-1
     1  O(17)              0.29013    -175.87259     -62.75571     -58.66478
     2  O(17)              0.05179     -31.39528     -11.20262     -10.47234
     3  Si(29)            -0.00826       7.33779       2.61830       2.44762
     4  F(19)             -0.00146      -6.12435      -2.18532      -2.04286
     5  F(19)             -0.00166      -6.96809      -2.48639      -2.32431
     6  F(19)             -0.00146      -6.12435      -2.18532      -2.04286
 --------------------------------------------------------
       Center         ----  Spin Dipole Couplings  ----

 Normal termination of Gaussian 16 at Wed Apr  9 00:03:05 2025.
