 Gaussian 16, Revision C.01,

 ----------------------------------------------------------------------
 #t hf aug-cc-pvdz symm=none int=(grid=ultrafine) guess=(read,tcheck) s
 table=(opt,rrhf)
 ----------------------------------------------------------------------
 -----
 title
 -----
 Symbolic Z-matrix:
 Charge =  0 Multiplicity = 1

 SCF Done:  E(RHF) =  -422.035960150     A.U. after   13 cycles
 Normal termination of Gaussian 16 at Tue Apr  8 23:51:18 2025.
 Gaussian 16:  ES64L-G16RevC.01  3-Jul-2019

 ----------------------------------------------------------------------
 #t hf aug-cc-pvdz iop(5/13=1,5/36=2,99/5=2) pseudo=read geom=check gue
 ss=(read,tcheck) scf=(maxcycle=1)
 ----------------------------------------------------------------------
 -----
 title
 -----
 Structure from the checkpoint file:  "BDE49_nonexpt_1918_mol1.chk"
 Charge =  0 Multiplicity = 1

                         Standard orientation:
 ---------------------------------------------------------------------
 Center     Atomic      Atomic             Coordinates (Angstroms)
 Number     Number       Type             X           Y           Z
 ---------------------------------------------------------------------
      1         14           0        1.423100   -0.260095   -0.000002
      2          6           0       -0.121296    0.864706    0.000007
      3          1           0        2.613584    0.618809   -0.000037
      4          1           0        1.415528   -1.103635   -1.212532
      5          1           0        1.415570   -1.103594    1.212558
      6          6           0       -1.361752    0.110467    0.000054
      7          7           0       -2.327362   -0.521177   -0.000047
      8          1           0       -0.089137    1.513463   -0.880870
      9          1           0       -0.089113    1.513489    0.880863
 ---------------------------------------------------------------------

 SCF Done:  E(RHF) =  -422.099048121     A.U. after    2 cycles

 The electronic state is 1-A.
 Alpha  occ. eigenvalues --  -69.09247 -15.63732 -11.29313 -11.28735  -6.84512
 Alpha  occ. eigenvalues --   -3.95307  -3.95277  -3.95264  -1.19391  -1.02870
 Alpha  occ. eigenvalues --   -0.73346  -0.69064  -0.63831  -0.55265  -0.53727
 Alpha  occ. eigenvalues --   -0.50230  -0.50097  -0.45941  -0.43690
 Alpha virt. eigenvalues --    0.02627   0.04043   0.04335   0.06125   0.07003
 Alpha virt. eigenvalues --    0.07787   0.08526   0.08859   0.09225   0.13201
 Alpha virt. eigenvalues --    0.13694   0.14268   0.14630   0.15580   0.15986

 Mulliken charges:
               1
     1  Si   0.476740
     2  C    0.061845
     3  H   -0.029865
     4  H   -0.003803
     5  H   -0.003801
     6  C   -0.281308
     7  N   -0.199524
     8  H   -0.010130
     9  H   -0.010154
 Sum of Mulliken charges =  -0.00000

 Dipole moment (field-independent basis, Debye):
    X=              3.5723    Y=              2.1891    Z=              0.0001  Tot=              4.1896

 Test job not archived.
 1\1\GINC-SE094\SP\RHF\Aug-CC-pVDZ\C2H5N1Si1\OHZDE\08-Apr-2025\0\\#t hf
  aug-cc-pvdz iop(5/13=1,5/36=2,99/5=2) pseudo=read geom=check guess=(r
 ead,tcheck) scf=(maxcycle=1)\\title\\0,1\Si,0,-1.4231,-0.260095,0.0000
 02\C,0,0.121296,0.864706,-0.000007\H,0,-2.613584,0.618809,0.000037\H,0
 ,-1.415528,-1.103635,1.212532\H,0,-1.41557,-1.103594,-1.212558\C,0,1.3
 61752,0.110467,-0.000054\N,0,2.327362,-0.521177,0.000047\H,0,0.089137,
 1.513463,0.88087\H,0,0.089113,1.513489,-0.880863\\Version=ES64L-G16Rev
 C.01\State=1-A\HF=-422.0990481\RMSD=5.092e-03\Dipole=-1.4054328,0.8612

 Normal termination of Gaussian 16 at Tue Apr  8 23:51:21 2025.
