 Gaussian 16, Revision C.01,

 ----------------------------------------------------------------------
 #t hf aug-cc-pvdz symm=none int=(grid=ultrafine) guess=(read,tcheck) s
 table=(opt,rrhf)
 ----------------------------------------------------------------------
 -----
 title
 -----
 Symbolic Z-matrix:
 Charge =  0 Multiplicity = 1

 SCF Done:  E(RHF) =  -781.199512273     A.U. after   16 cycles
 Normal termination of Gaussian 16 at Tue Apr  8 23:14:17 2025.
 Gaussian 16:  ES64L-G16RevC.01  3-Jul-2019

 ----------------------------------------------------------------------
 #t hf aug-cc-pvdz iop(5/13=1,5/36=2,99/5=2) pseudo=read geom=check gue
 ss=(read,tcheck) scf=(maxcycle=1)
 ----------------------------------------------------------------------
 -----
 title
 -----
 Structure from the checkpoint file:  "BDE49_expt_861_mol1.chk"
 Charge =  0 Multiplicity = 1

                         Standard orientation:
 ---------------------------------------------------------------------
 Center     Atomic      Atomic             Coordinates (Angstroms)
 Number     Number       Type             X           Y           Z
 ---------------------------------------------------------------------
      1          6           0        0.872727    0.265010    0.000221
      2          6           0        0.295460   -1.008384   -0.005288
      3          6           0       -1.093566   -1.138044   -0.009627
      4          6           0        0.045805    1.396812   -0.004373
      5          6           0       -1.332373    1.256500   -0.012638
      6          6           0       -1.918656   -0.015742   -0.004460
      7          1           0        0.511234    2.374918   -0.007201
      8          1           0       -1.964755    2.135775   -0.026585
      9         16           0       -3.706287   -0.200895   -0.070069
     10          1           0        0.907943   -1.899612   -0.007698
     11          1           0       -1.537471   -2.126084   -0.016528
     12          8           0        2.210301    0.509957    0.005468
     13          6           0        3.121572   -0.592889    0.003126
     14          6           0        4.526095   -0.021325    0.008323
     15          1           0        2.952752   -1.209832   -0.887888
     16          1           0        2.949036   -1.216715    0.888664
     17          1           0        4.691135    0.599300   -0.874721
     18          1           0        5.261229   -0.830125    0.006929
     19          1           0        4.687304    0.592789    0.896628
     20          1           0       -3.942613   -0.137379    1.254055
 ---------------------------------------------------------------------

 SCF Done:  E(RHF) =  -781.336696851     A.U. after    2 cycles

 The electronic state is 1-A.
 Alpha  occ. eigenvalues --  -93.53814 -20.60350 -11.32103 -11.30569 -11.27024
 Alpha  occ. eigenvalues --  -11.25918 -11.25754 -11.24753 -11.24352 -11.23816
 Alpha  occ. eigenvalues --   -8.83492  -6.17695  -6.17484  -6.17149  -1.37460
 Alpha  occ. eigenvalues --   -1.15211  -1.05753  -1.02337  -1.01118  -0.92744
 Alpha  occ. eigenvalues --   -0.87854  -0.83357  -0.80080  -0.73872  -0.68489
 Alpha  occ. eigenvalues --   -0.67324  -0.64979  -0.62488  -0.60087  -0.58131
 Alpha  occ. eigenvalues --   -0.57737  -0.55794  -0.54532  -0.52326  -0.51036
 Alpha  occ. eigenvalues --   -0.49335  -0.48476  -0.45666  -0.36458  -0.35207
 Alpha  occ. eigenvalues --   -0.32284
 Alpha virt. eigenvalues --    0.03142   0.04002   0.04097   0.04930   0.05376
 Alpha virt. eigenvalues --    0.05598   0.06619   0.07513   0.07628   0.08393
 Alpha virt. eigenvalues --    0.08925   0.10014   0.10493   0.11253   0.11757

 Mulliken charges:
               1
     1  C   -0.058039
     2  C    0.187031
     3  C    0.552900
     4  C    0.966712
     5  C    0.446888
     6  C    0.144081
     7  H   -0.618731
     8  H   -0.448801
     9  S    0.262102
    10  H   -0.754963
    11  H   -0.474719
    12  O   -0.671216
    13  C    0.493083
    14  C    0.360462
    15  H   -0.200224
    16  H   -0.200327
    17  H   -0.021962
    18  H   -0.017105
    19  H   -0.022421
    20  H    0.075250
 Sum of Mulliken charges =   0.00000

 Dipole moment (field-independent basis, Debye):
    X=              2.4615    Y=             -1.0753    Z=              0.7849  Tot=              2.7984

 Test job not archived.
 1\1\GINC-SE343\SP\RHF\Aug-CC-pVDZ\C8H10O1S1\OHZDE\08-Apr-2025\0\\#t hf
  aug-cc-pvdz iop(5/13=1,5/36=2,99/5=2) pseudo=read geom=check guess=(r
 ead,tcheck) scf=(maxcycle=1)\\title\\0,1\C,0,0.872727,0.26501,0.000221
 \C,0,0.29546,-1.008384,-0.005288\C,0,-1.093566,-1.138044,-0.009627\C,0
 ,0.045805,1.396812,-0.004373\C,0,-1.332373,1.2565,-0.012638\C,0,-1.918
 656,-0.015742,-0.00446\H,0,0.511234,2.374918,-0.007201\H,0,-1.964755,2
 .135775,-0.026585\S,0,-3.706287,-0.200895,-0.070069\H,0,0.907943,-1.89
 9612,-0.007698\H,0,-1.537471,-2.126084,-0.016528\O,0,2.210301,0.509957

 Normal termination of Gaussian 16 at Tue Apr  8 23:14:26 2025.
