 Gaussian 16, Revision C.01,

 ----------------------------------------------------------------------
 #t hf aug-cc-pvdz symm=none int=(grid=ultrafine) guess=(read,tcheck) s
 table=(opt,rrhf)
 ----------------------------------------------------------------------
 -----
 title
 -----
 Symbolic Z-matrix:
 Charge =  0 Multiplicity = 1

 SCF Done:  E(RHF) =  -763.853858875     A.U. after   16 cycles
 Normal termination of Gaussian 16 at Tue Apr  8 23:29:23 2025.
 Gaussian 16:  ES64L-G16RevC.01  3-Jul-2019

 ----------------------------------------------------------------------
 #t hf aug-cc-pvdz iop(5/13=1,5/36=2,99/5=2) pseudo=read geom=check gue
 ss=(read,tcheck) scf=(maxcycle=1)
 ----------------------------------------------------------------------
 -----
 title
 -----
 Structure from the checkpoint file:  "BDE49_nonexpt_1364_mol1.chk"
 Charge =  0 Multiplicity = 1

                         Standard orientation:
 ---------------------------------------------------------------------
 Center     Atomic      Atomic             Coordinates (Angstroms)
 Number     Number       Type             X           Y           Z
 ---------------------------------------------------------------------
      1          9           0       -2.087413   -0.972864    1.141380
      2         15           0       -1.632946   -0.704223   -0.428711
      3          6           0       -1.817601    1.156028   -0.448046
      4          7           0       -0.597775    1.728374    0.112784
      5          1           0       -0.431257    2.715180   -0.017753
      6          6           0        0.153269   -0.470723   -0.230495
      7          6           0        1.156246   -1.439650   -0.302655
      8          1           0        0.895410   -2.469436   -0.523124
      9          6           0        2.800859    0.251122    0.189036
     10          1           0        3.836937    0.529816    0.348863
     11          6           0        0.482477    0.873031    0.053442
     12          6           0        2.483791   -1.083056   -0.093751
     13          1           0        3.267901   -1.828101   -0.150082
     14          6           0        1.821300    1.233403    0.264870
     15          1           0        2.087540    2.261154    0.486935
     16          1           0       -2.704240    1.436830    0.125069
     17          1           0       -1.969006    1.454134   -1.495569
 ---------------------------------------------------------------------

 SCF Done:  E(RHF) =  -764.009913768     A.U. after    2 cycles

 The electronic state is 1-A.
 Alpha  occ. eigenvalues --  -81.31954 -26.09476 -15.64815 -11.30634 -11.28582
 Alpha  occ. eigenvalues --  -11.26396 -11.26352 -11.24610 -11.23991 -11.23906
 Alpha  occ. eigenvalues --   -7.81454  -4.95570  -4.95348  -4.95087  -1.61371
 Alpha  occ. eigenvalues --   -1.23794  -1.13293  -1.02779  -1.00347  -0.94737
 Alpha  occ. eigenvalues --   -0.85410  -0.81598  -0.79807  -0.73255  -0.70715
 Alpha  occ. eigenvalues --   -0.70595  -0.68414  -0.65608  -0.63970  -0.62132
 Alpha  occ. eigenvalues --   -0.60833  -0.59810  -0.53977  -0.52680  -0.51781
 Alpha  occ. eigenvalues --   -0.46503  -0.44188  -0.37708  -0.35332  -0.30208
 Alpha virt. eigenvalues --    0.02902   0.03601   0.04143   0.05336   0.05468
 Alpha virt. eigenvalues --    0.06005   0.07599   0.07658   0.08982   0.09849
 Alpha virt. eigenvalues --    0.10610   0.11442   0.12165   0.12597   0.13417

 Mulliken charges:
               1
     1  F   -0.655296
     2  P    0.782161
     3  C    0.412669
     4  N   -0.540876
     5  H   -0.102526
     6  C   -0.301091
     7  C    0.489583
     8  H   -0.498784
     9  C    0.320762
    10  H   -0.430781
    11  C   -0.237728
    12  C    0.721958
    13  H   -0.458754
    14  C    1.454169
    15  H   -0.561010
    16  H   -0.253922
    17  H   -0.140532
 Sum of Mulliken charges =  -0.00000

 Dipole moment (field-independent basis, Debye):
    X=              1.3838    Y=              2.6115    Z=             -1.8531  Tot=              3.4884

 Test job not archived.
 1\1\GINC-SE457\SP\RHF\Aug-CC-pVDZ\C7H7F1N1P1\OHZDE\08-Apr-2025\0\\#t h
 f aug-cc-pvdz iop(5/13=1,5/36=2,99/5=2) pseudo=read geom=check guess=(
 read,tcheck) scf=(maxcycle=1)\\title\\0,1\F,0,-2.087413,-0.972864,1.14
 138\P,0,-1.632946,-0.704223,-0.428711\C,0,-1.817601,1.156028,-0.448046
 \N,0,-0.597775,1.728374,0.112784\H,0,-0.431257,2.71518,-0.017753\C,0,0
 .153269,-0.470723,-0.230495\C,0,1.156246,-1.43965,-0.302655\H,0,0.8954
 1,-2.469436,-0.523124\C,0,2.800859,0.251122,0.189036\H,0,3.836937,0.52
 9816,0.348863\C,0,0.482477,0.873031,0.053442\C,0,2.483791,-1.083056,-0

 Normal termination of Gaussian 16 at Tue Apr  8 23:29:33 2025.
