 Gaussian 16, Revision C.01,

 ----------------------------------------------------------------------
 #t hf aug-cc-pvdz symm=none int=(grid=ultrafine) guess=(read,tcheck) s
 table=(opt,rrhf)
 ----------------------------------------------------------------------
 -----
 title
 -----
 Symbolic Z-matrix:
 Charge =  0 Multiplicity = 1

 SCF Done:  E(RHF) =  -385.022907654     A.U. after   13 cycles

 1\1\GINC-SE127\Stability\RHF\Aug-CC-pVDZ\C6H14O2\OHZDE\08-Apr-2025\0\\
 #t hf aug-cc-pvdz symm=none int=(grid=ultrafine) guess=(read,tcheck) s
 table=(opt,rrhf)\\title\\0,1\O,0,0.357185,-0.259973,0.638369\C,0,1.600
 486,-0.924039,0.414839\C,0,2.563763,-0.13856,-0.471011\C,0,2.921866,1.
 237146,0.095671\H,0,2.022012,1.836223,0.248742\H,0,3.582514,1.783316,-
 0.582358\H,0,3.43268,1.14863,1.06009\H,0,3.468409,-0.745183,-0.598735\
 H,0,2.113414,-0.034152,-1.461871\H,0,1.999879,-1.031615,1.429996\H,0,1
 .413026,-1.92471,0.007877\O,0,-0.357185,-0.259973,-0.638369\C,0,-1.600

 Normal termination of Gaussian 16 at Tue Apr  8 22:54:52 2025.
 Gaussian 16:  ES64L-G16RevC.01  3-Jul-2019

 ----------------------------------------------------------------------
 #t hf aug-cc-pvdz iop(5/13=1,5/36=2,99/5=2) pseudo=read geom=check gue
 ss=(read,tcheck) scf=(maxcycle=1)
 ----------------------------------------------------------------------
 -----
 title
 -----
 Structure from the checkpoint file:  "BDE49_expt_1854_mol1.chk"
 Charge =  0 Multiplicity = 1

                         Standard orientation:
 ---------------------------------------------------------------------
 Center     Atomic      Atomic             Coordinates (Angstroms)
 Number     Number       Type             X           Y           Z
 ---------------------------------------------------------------------
      1          8           0        0.357185   -0.259973    0.638369
      2          6           0        1.600486   -0.924039    0.414839
      3          6           0        2.563763   -0.138560   -0.471011
      4          6           0        2.921866    1.237146    0.095671
      5          1           0        2.022012    1.836223    0.248742
      6          1           0        3.582514    1.783316   -0.582358
      7          1           0        3.432680    1.148630    1.060090
      8          1           0        3.468409   -0.745183   -0.598735
      9          1           0        2.113414   -0.034152   -1.461871
     10          1           0        1.999879   -1.031615    1.429996
     11          1           0        1.413026   -1.924710    0.007877
     12          8           0       -0.357185   -0.259973   -0.638369
     13          6           0       -1.600485   -0.924039   -0.414839
     14          6           0       -2.563763   -0.138561    0.471011
     15          1           0       -1.413026   -1.924710   -0.007877
     16          1           0       -1.999879   -1.031614   -1.429996
     17          6           0       -2.921867    1.237146   -0.095671
     18          1           0       -2.113414   -0.034152    1.461871
     19          1           0       -3.468408   -0.745183    0.598735
     20          1           0       -2.022013    1.836223   -0.248742
     21          1           0       -3.582515    1.783316    0.582358
     22          1           0       -3.432680    1.148630   -1.060090
 ---------------------------------------------------------------------

 SCF Done:  E(RHF) =  -385.146727020     A.U. after    2 cycles

 The electronic state is 1-A.
 Alpha  occ. eigenvalues --  -20.62583 -20.62555 -11.28768 -11.28767 -11.22821
 Alpha  occ. eigenvalues --  -11.22821 -11.21850 -11.21850  -1.41157  -1.21509
 Alpha  occ. eigenvalues --   -1.03959  -1.02943  -0.92217  -0.90375  -0.81745
 Alpha  occ. eigenvalues --   -0.78402  -0.69690  -0.69575  -0.64743  -0.62390
 Alpha  occ. eigenvalues --   -0.61859  -0.58234  -0.57894  -0.56237  -0.53551
 Alpha  occ. eigenvalues --   -0.52516  -0.51469  -0.48841  -0.48766  -0.48146
 Alpha  occ. eigenvalues --   -0.47019  -0.45382  -0.43734
 Alpha virt. eigenvalues --    0.03526   0.04284   0.04529   0.04753   0.05560
 Alpha virt. eigenvalues --    0.05687   0.06084   0.06868   0.07014   0.08468
 Alpha virt. eigenvalues --    0.08653   0.08881   0.09012   0.10994   0.12046

 Mulliken charges:
               1
     1  O   -0.481415
     2  C    0.849425
     3  C    0.016669
     4  C    0.329450
     5  H   -0.068807
     6  H   -0.070492
     7  H   -0.073714
     8  H   -0.066658
     9  H   -0.082642
    10  H   -0.200555
    11  H   -0.151261
    12  O   -0.481414
    13  C    0.849424
    14  C    0.016672
    15  H   -0.151261
    16  H   -0.200554
    17  C    0.329451
    18  H   -0.082641
    19  H   -0.066662
    20  H   -0.068808
    21  H   -0.070492
    22  H   -0.073716
 Sum of Mulliken charges =  -0.00000

 Dipole moment (field-independent basis, Debye):
    X=              0.0000    Y=             -1.4596    Z=              0.0000  Tot=              1.4596

 Test job not archived.
 1\1\GINC-SE127\SP\RHF\Aug-CC-pVDZ\C6H14O2\OHZDE\08-Apr-2025\0\\#t hf a
 ug-cc-pvdz iop(5/13=1,5/36=2,99/5=2) pseudo=read geom=check guess=(rea
 d,tcheck) scf=(maxcycle=1)\\title\\0,1\O,0,0.357185,-0.259973,0.638369
 \C,0,1.600486,-0.924039,0.414839\C,0,2.563763,-0.13856,-0.471011\C,0,2
 .921866,1.237146,0.095671\H,0,2.022012,1.836223,0.248742\H,0,3.582514,
 1.783316,-0.582358\H,0,3.43268,1.14863,1.06009\H,0,3.468409,-0.745183,
 -0.598735\H,0,2.113414,-0.034152,-1.461871\H,0,1.999879,-1.031615,1.42
 9996\H,0,1.413026,-1.92471,0.007877\O,0,-0.357185,-0.259973,-0.638369\

 Normal termination of Gaussian 16 at Tue Apr  8 22:55:02 2025.
