 Gaussian 16, Revision C.01,

 ----------------------------------------------------------------------
 #t hf aug-cc-pvdz symm=none int=(grid=ultrafine) guess=(read,tcheck) s
 table=(opt,rrhf)
 ----------------------------------------------------------------------
 -----
 title
 -----
 Symbolic Z-matrix:
 Charge =  0 Multiplicity = 1

 SCF Done:  E(RHF) =  -1219.59202747     A.U. after   15 cycles
 Normal termination of Gaussian 16 at Tue Apr  8 23:22:23 2025.
 Gaussian 16:  ES64L-G16RevC.01  3-Jul-2019

 ----------------------------------------------------------------------
 #t hf aug-cc-pvdz iop(5/13=1,5/36=2,99/5=2) pseudo=read geom=check gue
 ss=(read,tcheck) scf=(maxcycle=1)
 ----------------------------------------------------------------------
 -----
 title
 -----
 Structure from the checkpoint file:  "BDE49_nonexpt_1231_mol1.chk"
 Charge =  0 Multiplicity = 1

                         Standard orientation:
 ---------------------------------------------------------------------
 Center     Atomic      Atomic             Coordinates (Angstroms)
 Number     Number       Type             X           Y           Z
 ---------------------------------------------------------------------
      1         16           0       -0.896931   -1.030633   -0.203780
      2          8           0        0.215258   -0.346480    0.782172
      3          8           0        1.069403    0.671639    0.031737
      4          6           0       -2.257442    0.192296   -0.026535
      5          9           0       -3.296353   -0.333824   -0.697471
      6          9           0       -1.951875    1.377484   -0.555784
      7          9           0       -2.608010    0.382958    1.244696
      8          6           0        2.326128    0.129459   -0.052798
      9          9           0        2.337183   -1.019820   -0.746516
     10          9           0        2.865259   -0.112752    1.142525
     11          9           0        3.060628    1.034656   -0.695760
 ---------------------------------------------------------------------

 SCF Done:  E(RHF) =  -1219.91340615     A.U. after    2 cycles

 The electronic state is 1-A.
 Alpha  occ. eigenvalues --  -93.66159 -26.20422 -26.19943 -26.19891 -26.19808
 Alpha  occ. eigenvalues --  -26.19500 -26.19369 -20.74683 -20.72410 -11.60803
 Alpha  occ. eigenvalues --  -11.57943  -8.95383  -6.29601  -6.29213  -6.28813
 Alpha  occ. eigenvalues --   -1.80007  -1.79809  -1.72910  -1.72741  -1.72546
 Alpha  occ. eigenvalues --   -1.72177  -1.49797  -1.33526  -1.09267  -1.03913
 Alpha  occ. eigenvalues --   -0.98690  -0.92353  -0.92344  -0.91629  -0.91533
 Alpha  occ. eigenvalues --   -0.89641  -0.85370  -0.80830  -0.80668  -0.80302
 Alpha  occ. eigenvalues --   -0.80277  -0.76584  -0.76307  -0.76169  -0.75850
 Alpha  occ. eigenvalues --   -0.74974  -0.74611  -0.73604  -0.70756  -0.69488
 Alpha  occ. eigenvalues --   -0.64253  -0.60069  -0.52913  -0.44188
 Alpha virt. eigenvalues --    0.04016   0.06618   0.07663   0.07896   0.08542
 Alpha virt. eigenvalues --    0.09335   0.09538   0.10369   0.11507   0.12023
 Alpha virt. eigenvalues --    0.13526   0.16206   0.17346   0.19032   0.19739

 Mulliken charges:
               1
     1  S    0.857624
     2  O   -0.568804
     3  O   -0.393576
     4  C    0.580102
     5  F   -0.258147
     6  F   -0.285254
     7  F   -0.295564
     8  C    1.150680
     9  F   -0.283581
    10  F   -0.261923
    11  F   -0.241557
 Sum of Mulliken charges =  -0.00000

 Dipole moment (field-independent basis, Debye):
    X=             -0.5829    Y=             -1.2728    Z=             -0.5649  Tot=              1.5096

 Test job not archived.
 1\1\GINC-SE227\SP\RHF\Aug-CC-pVDZ\C2F6O2S1\OHZDE\08-Apr-2025\0\\#t hf
 aug-cc-pvdz iop(5/13=1,5/36=2,99/5=2) pseudo=read geom=check guess=(re
 ad,tcheck) scf=(maxcycle=1)\\title\\0,1\S,0,-0.896931,-1.030633,-0.203
 78\O,0,0.215258,-0.34648,0.782172\O,0,1.069403,0.671639,0.031737\C,0,-
 2.257442,0.192296,-0.026535\F,0,-3.296353,-0.333824,-0.697471\F,0,-1.9
 51875,1.377484,-0.555784\F,0,-2.60801,0.382958,1.244696\C,0,2.326128,0
 .129459,-0.052798\F,0,2.337183,-1.01982,-0.746516\F,0,2.865259,-0.1127
 52,1.142525\F,0,3.060628,1.034656,-0.69576\\Version=ES64L-G16RevC.01\S

 Normal termination of Gaussian 16 at Tue Apr  8 23:22:30 2025.
