 Gaussian 16, Revision C.01,

 ----------------------------------------------------------------------
 #t hf aug-cc-pvdz symm=none int=(grid=ultrafine) guess=(read,tcheck) s
 table=(opt,rrhf)
 ----------------------------------------------------------------------
 -----
 title
 -----
 Symbolic Z-matrix:
 Charge =  0 Multiplicity = 1

 SCF Done:  E(RHF) =  -635.408758845     A.U. after   13 cycles
 Normal termination of Gaussian 16 at Tue Apr  8 23:29:43 2025.
 Gaussian 16:  ES64L-G16RevC.01  3-Jul-2019

 ----------------------------------------------------------------------
 #t hf aug-cc-pvdz iop(5/13=1,5/36=2,99/5=2) pseudo=read geom=check gue
 ss=(read,tcheck) scf=(maxcycle=1)
 ----------------------------------------------------------------------
 -----
 title
 -----
 Structure from the checkpoint file:  "BDE49_nonexpt_1373_mol1.chk"
 Charge =  0 Multiplicity = 1

                         Standard orientation:
 ---------------------------------------------------------------------
 Center     Atomic      Atomic             Coordinates (Angstroms)
 Number     Number       Type             X           Y           Z
 ---------------------------------------------------------------------
      1          9           0       -1.846600   -0.510090    0.000000
      2         15           0       -0.406308   -1.330744    0.000000
      3          6           0        0.405948   -0.429761    1.399168
      4          6           0        0.405948    1.102465    1.281354
      5          6           0        1.083327    1.608901   -0.000000
      6          6           0        0.405948    1.102465   -1.281354
      7          6           0        0.405948   -0.429761   -1.399168
      8          1           0        1.431543   -0.821973    1.440020
      9          1           0       -0.081787   -0.754820    2.323196
     10          1           0        0.905761    1.530828   -2.156867
     11          1           0       -0.629654    1.456292   -1.307699
     12          1           0        1.431543   -0.821973   -1.440020
     13          1           0       -0.081787   -0.754820   -2.323196
     14          1           0        0.905761    1.530828    2.156867
     15          1           0       -0.629654    1.456292    1.307699
     16          1           0        2.137924    1.301946   -0.000000
     17          1           0        1.081653    2.703518   -0.000000
 ---------------------------------------------------------------------

 SCF Done:  E(RHF) =  -635.530457339     A.U. after    2 cycles

 The electronic state is 1-A'.
 Alpha  occ. eigenvalues --  -81.30743 -26.09562 -11.24203 -11.24201 -11.23796
 Alpha  occ. eigenvalues --  -11.23794 -11.23510  -7.80279  -4.94402  -4.94110
 Alpha  occ. eigenvalues --   -4.93815  -1.61460  -1.09135  -1.00978  -0.95854
 Alpha  occ. eigenvalues --   -0.84360  -0.81156  -0.77330  -0.71268  -0.70826
 Alpha  occ. eigenvalues --   -0.65108  -0.63768  -0.60453  -0.58461  -0.55524
 Alpha  occ. eigenvalues --   -0.54790  -0.52105  -0.49378  -0.48768  -0.47175
 Alpha  occ. eigenvalues --   -0.42325  -0.34460
 Alpha virt. eigenvalues --    0.03313   0.04232   0.04511   0.05041   0.06174
 Alpha virt. eigenvalues --    0.06646   0.06820   0.07163   0.07628   0.09168
 Alpha virt. eigenvalues --    0.09473   0.11248   0.12139   0.13366   0.14114

 Mulliken charges:
               1
     1  F   -0.679690
     2  P    1.119614
     3  C   -0.023064
     4  C    0.187688
     5  C    0.211518
     6  C    0.187688
     7  C   -0.023064
     8  H   -0.049183
     9  H   -0.147162
    10  H   -0.109556
    11  H   -0.084220
    12  H   -0.049183
    13  H   -0.147162
    14  H   -0.109556
    15  H   -0.084220
    16  H   -0.109398
    17  H   -0.091049
 Sum of Mulliken charges =  -0.00000

 Dipole moment (field-independent basis, Debye):
    X=              2.4877    Y=              0.8330    Z=              0.0000  Tot=              2.6234

 Test job not archived.
 1\1\GINC-SE102\SP\RHF\Aug-CC-pVDZ\C5H10F1P1\OHZDE\08-Apr-2025\0\\#t hf
  aug-cc-pvdz iop(5/13=1,5/36=2,99/5=2) pseudo=read geom=check guess=(r
 ead,tcheck) scf=(maxcycle=1)\\title\\0,1\F,0,-1.8466,-0.51009,0.\P,0,-
 0.406308,-1.330744,0.\C,0,0.405948,-0.429761,1.399168\C,0,0.405948,1.1
 02465,1.281354\C,0,1.083327,1.608901,0.\C,0,0.405948,1.102465,-1.28135
 4\C,0,0.405948,-0.429761,-1.399168\H,0,1.431543,-0.821973,1.44002\H,0,
 -0.081787,-0.75482,2.323196\H,0,0.905761,1.530828,-2.156867\H,0,-0.629
 654,1.456292,-1.307699\H,0,1.431543,-0.821973,-1.44002\H,0,-0.081787,-

 Normal termination of Gaussian 16 at Tue Apr  8 23:29:48 2025.
