 Gaussian 16, Revision C.01,

 ----------------------------------------------------------------------
 #t hf aug-cc-pvdz symm=none int=(grid=ultrafine) guess=(read,tcheck) s
 table=(opt,rrhf)
 ----------------------------------------------------------------------
 -----
 title
 -----
 Symbolic Z-matrix:
 Charge =  0 Multiplicity = 1

 SCF Done:  E(RHF) =  -266.448885406     A.U. after   14 cycles
 Normal termination of Gaussian 16 at Tue Apr  8 23:18:48 2025.
 Gaussian 16:  ES64L-G16RevC.01  3-Jul-2019

 ----------------------------------------------------------------------
 #t hf aug-cc-pvdz iop(5/13=1,5/36=2,99/5=2) pseudo=read geom=check gue
 ss=(read,tcheck) scf=(maxcycle=1)
 ----------------------------------------------------------------------
 -----
 title
 -----
 Structure from the checkpoint file:  "BDE49_nonexpt_1137_mol1.chk"
 Charge =  0 Multiplicity = 1

                         Standard orientation:
 ---------------------------------------------------------------------
 Center     Atomic      Atomic             Coordinates (Angstroms)
 Number     Number       Type             X           Y           Z
 ---------------------------------------------------------------------
      1          9           0       -0.201042   -1.503637    0.000000
      2          8           0        0.727377   -0.345389    0.000000
      3          6           0       -0.000000    0.709974    0.000000
      4          7           0       -0.572806    1.719429    0.000000
 ---------------------------------------------------------------------

 SCF Done:  E(RHF) =  -266.538444721     A.U. after    2 cycles

 The electronic state is 1-A'.
 Alpha  occ. eigenvalues --  -26.25175 -20.81309 -15.69767 -11.39594  -1.73789
 Alpha  occ. eigenvalues --   -1.46608  -1.23258  -0.91412  -0.84803  -0.82508
 Alpha  occ. eigenvalues --   -0.74500  -0.71508  -0.60110  -0.51748  -0.49821
 Alpha virt. eigenvalues --   -0.02051   0.05969   0.08612   0.08810   0.09320
 Alpha virt. eigenvalues --    0.17330   0.17511   0.18390   0.20115   0.22844
 Alpha virt. eigenvalues --    0.24342   0.25007   0.26081   0.26113   0.28410

 Mulliken charges:
               1
     1  F   -0.233683
     2  O    0.047277
     3  C    0.205293
     4  N   -0.018887
 Sum of Mulliken charges =  -0.00000

 Dipole moment (field-independent basis, Debye):
    X=              1.0586    Y=             -0.8334    Z=              0.0000  Tot=              1.3473

 Test job not archived.
 1\1\GINC-SE458\SP\RHF\Aug-CC-pVDZ\C1F1N1O1\OHZDE\08-Apr-2025\0\\#t hf
 aug-cc-pvdz iop(5/13=1,5/36=2,99/5=2) pseudo=read geom=check guess=(re
 ad,tcheck) scf=(maxcycle=1)\\title\\0,1\F,0,-0.201041,-1.503637,0.\O,0
 ,0.727377,-0.345389,0.\C,0,0.,0.709974,0.\N,0,-0.572806,1.719429,0.\\V
 ersion=ES64L-G16RevC.01\State=1-A'\HF=-266.5384447\RMSD=4.225e-03\Dipo
 le=0.4165028,-0.3278778,0.\Quadrupole=1.0304521,-2.371539,1.3410869,1.
 5845862,0.,0.\PG=CS [SG(C1F1N1O1)]\\@

 Normal termination of Gaussian 16 at Tue Apr  8 23:18:50 2025.
