 Gaussian 16, Revision C.01,

 ----------------------------------------------------------------------
 #t hf aug-cc-pvdz symm=none int=(grid=ultrafine) guess=(read,tcheck) s
 table=(opt,rrhf)
 ----------------------------------------------------------------------
 -----
 title
 -----
 Symbolic Z-matrix:
 Charge =  0 Multiplicity = 1

 SCF Done:  E(RHF) =  -1097.36722578     A.U. after   12 cycles
 Normal termination of Gaussian 16 at Wed Apr  9 00:38:59 2025.
 Gaussian 16:  ES64L-G16RevC.01  3-Jul-2019

 ----------------------------------------------------------------------
 #t hf aug-cc-pvdz iop(5/13=1,5/36=2,99/5=2) pseudo=read geom=check gue
 ss=(read,tcheck) scf=(maxcycle=1)
 ----------------------------------------------------------------------
 -----
 title
 -----
 Structure from the checkpoint file:  "BDE49_nonexpt_650_mol1.chk"
 Charge =  0 Multiplicity = 1

                         Standard orientation:
 ---------------------------------------------------------------------
 Center     Atomic      Atomic             Coordinates (Angstroms)
 Number     Number       Type             X           Y           Z
 ---------------------------------------------------------------------
      1         17           0        2.026838   -0.962346    0.133962
      2         17           0        0.521948    1.689160    0.037108
      3          8           0       -0.587980   -0.787873   -0.390876
      4          6           0       -1.918110   -0.264920   -0.607847
      5          1           0       -2.325595   -0.850521   -1.432978
      6          1           0       -1.854790    0.780563   -0.915069
      7          6           0       -2.757149   -0.426341    0.646738
      8          1           0       -2.777989   -1.470628    0.964837
      9          1           0       -3.783134   -0.104568    0.448383
     10          1           0       -2.361404    0.180207    1.464484
     11          5           0        0.505786   -0.088067   -0.108834
 ---------------------------------------------------------------------

 SCF Done:  E(RHF) =  -1097.46384837     A.U. after    2 cycles

 The electronic state is 1-A.
 Alpha  occ. eigenvalues -- -103.66782-103.65979 -20.61133 -11.31855 -11.24668
 Alpha  occ. eigenvalues --  -10.70254 -10.69448  -8.35948  -8.35725  -8.35710
 Alpha  occ. eigenvalues --   -8.35149  -8.34921  -8.34896  -7.75435  -1.36998
 Alpha  occ. eigenvalues --   -1.17104  -1.14052  -1.04008  -0.88685  -0.75509
 Alpha  occ. eigenvalues --   -0.69236  -0.65262  -0.64215  -0.60085  -0.56453
 Alpha  occ. eigenvalues --   -0.53681  -0.53340  -0.50800  -0.49778  -0.48531
 Alpha  occ. eigenvalues --   -0.47540  -0.46282
 Alpha virt. eigenvalues --    0.03193   0.04606   0.05065   0.05216   0.06745
 Alpha virt. eigenvalues --    0.07180   0.07388   0.07542   0.10621   0.11145
 Alpha virt. eigenvalues --    0.12417   0.13286   0.14360   0.14969   0.15421

 Mulliken charges:
               1
     1  Cl  -0.369343
     2  Cl  -0.342358
     3  O   -0.352915
     4  C    0.858429
     5  H   -0.192632
     6  H   -0.168246
     7  C    0.135925
     8  H   -0.033093
     9  H   -0.012179
    10  H   -0.101032
    11  B    0.577444
 Sum of Mulliken charges =  -0.00000

 Dipole moment (field-independent basis, Debye):
    X=             -3.0071    Y=              0.2764    Z=             -0.3743  Tot=              3.0429

 Test job not archived.
 1\1\GINC-SE184\SP\RHF\Aug-CC-pVDZ\C2H5B1Cl2O1\OHZDE\09-Apr-2025\0\\#t
 hf aug-cc-pvdz iop(5/13=1,5/36=2,99/5=2) pseudo=read geom=check guess=
 (read,tcheck) scf=(maxcycle=1)\\title\\0,1\Cl,0,2.026838,-0.962347,0.1
 33962\Cl,0,0.521949,1.68916,0.037108\O,0,-0.58798,-0.787873,-0.390876\
 C,0,-1.91811,-0.264919,-0.607847\H,0,-2.325595,-0.85052,-1.432978\H,0,
 -1.85479,0.780564,-0.915069\C,0,-2.757149,-0.42634,0.646738\H,0,-2.777
 989,-1.470627,0.964837\H,0,-3.783134,-0.104567,0.448383\H,0,-2.361404,
 0.180208,1.464484\B,0,0.505786,-0.088067,-0.108834\\Version=ES64L-G16R

 Normal termination of Gaussian 16 at Wed Apr  9 00:39:03 2025.
