 Gaussian 16, Revision C.01,

 ----------------------------------------------------------------------
 #t hf aug-cc-pvdz symm=none int=(grid=ultrafine) guess=(read,tcheck) s
 table=(opt,rrhf)
 ----------------------------------------------------------------------
 -----
 title
 -----
 Symbolic Z-matrix:
 Charge =  0 Multiplicity = 1

 SCF Done:  E(RHF) =  -1138.89933085     A.U. after   15 cycles
 Normal termination of Gaussian 16 at Tue Apr  8 23:41:48 2025.
 Gaussian 16:  ES64L-G16RevC.01  3-Jul-2019

 ----------------------------------------------------------------------
 #t hf aug-cc-pvdz iop(5/13=1,5/36=2,99/5=2) pseudo=read geom=check gue
 ss=(read,tcheck) scf=(maxcycle=1)
 ----------------------------------------------------------------------
 -----
 title
 -----
 Structure from the checkpoint file:  "BDE49_nonexpt_1648_mol1.chk"
 Charge =  0 Multiplicity = 1

                         Standard orientation:
 ---------------------------------------------------------------------
 Center     Atomic      Atomic             Coordinates (Angstroms)
 Number     Number       Type             X           Y           Z
 ---------------------------------------------------------------------
      1          6           0        1.085269   -1.384164   -1.725573
      2         14           0        0.625879   -0.688169   -0.063570
      3          1           0        0.851789   -0.683095   -2.529864
      4          1           0        0.517891   -2.301469   -1.905577
      5          1           0        2.152275   -1.617560   -1.759503
      6          6           0        1.091908   -1.718159    1.408833
      7          1           0        0.840589   -1.205744    2.339336
      8          1           0        2.163070   -1.931429    1.398623
      9          1           0        0.545122   -2.665162    1.382136
     10         15           0       -1.529643    0.034660   -0.036736
     11          7           0        1.656394    0.905779    0.070955
     12          8           0        1.128936    2.012692   -0.097336
     13          8           0        2.848762    0.756252    0.297806
     14          8           0       -2.516675   -0.941650   -0.519520
     15          8           0       -1.538950    1.406063   -0.859531
     16          8           0       -1.693898    0.448351    1.519035
     17          1           0       -2.608331    0.383560    1.827005
     18          1           0       -0.763290    1.955168   -0.631004
 ---------------------------------------------------------------------

 SCF Done:  E(RHF) =  -1139.14715448     A.U. after    2 cycles

 The electronic state is 1-A.
 Alpha  occ. eigenvalues --  -81.42054 -69.14486 -20.64254 -20.63616 -20.62578
 Alpha  occ. eigenvalues --  -20.61391 -20.53526 -15.90124 -11.26002 -11.25982
 Alpha  occ. eigenvalues --   -7.90516  -6.89550  -5.05147  -5.05053  -5.04664
 Alpha  occ. eigenvalues --   -4.00391  -4.00206  -4.00174  -1.55089  -1.38330
 Alpha  occ. eigenvalues --   -1.37305  -1.34944  -1.26656  -1.01002  -0.97012
 Alpha  occ. eigenvalues --   -0.94294  -0.84708  -0.81745  -0.77404  -0.74944
 Alpha  occ. eigenvalues --   -0.72466  -0.69243  -0.67374  -0.65248  -0.62582
 Alpha  occ. eigenvalues --   -0.60741  -0.60135  -0.59453  -0.59171  -0.58457
 Alpha  occ. eigenvalues --   -0.56199  -0.54049  -0.52877  -0.49917  -0.49691
 Alpha  occ. eigenvalues --   -0.49129  -0.49052  -0.43996
 Alpha virt. eigenvalues --    0.02525   0.03634   0.04302   0.04841   0.05229
 Alpha virt. eigenvalues --    0.06060   0.06692   0.07140   0.07540   0.08784
 Alpha virt. eigenvalues --    0.09585   0.09726   0.10542   0.11294   0.12408

 Mulliken charges:
               1
     1  C    0.387573
     2  Si   1.516125
     3  H   -0.272677
     4  H   -0.148785
     5  H   -0.227261
     6  C    0.370307
     7  H   -0.256516
     8  H   -0.159470
     9  H   -0.196194
    10  P    2.059135
    11  N    0.195617
    12  O   -0.583022
    13  O   -0.547813
    14  O   -1.014071
    15  O   -0.759052
    16  O   -0.767035
    17  H    0.169807
    18  H    0.233332
 Sum of Mulliken charges =  -0.00000

 Dipole moment (field-independent basis, Debye):
    X=              1.3199    Y=             -2.5960    Z=              1.5879  Tot=              3.3171

 Test job not archived.
 1\1\GINC-SE212\SP\RHF\Aug-CC-pVDZ\C2H8N1O5P1Si1\OHZDE\08-Apr-2025\0\\#
 t hf aug-cc-pvdz iop(5/13=1,5/36=2,99/5=2) pseudo=read geom=check gues
 s=(read,tcheck) scf=(maxcycle=1)\\title\\0,1\C,0,1.085269,1.384164,1.7
 25573\Si,0,0.625879,0.688169,0.06357\H,0,0.851789,0.683095,2.529864\H,
 0,0.517891,2.301469,1.905577\H,0,2.152275,1.61756,1.759503\C,0,1.09190
 8,1.718159,-1.408833\H,0,0.840589,1.205744,-2.339336\H,0,2.16307,1.931
 429,-1.398623\H,0,0.545122,2.665162,-1.382136\P,0,-1.529643,-0.03466,0
 .036736\N,0,1.656394,-0.905779,-0.070955\O,0,1.128936,-2.012692,0.0973

 Normal termination of Gaussian 16 at Tue Apr  8 23:41:59 2025.
