 Gaussian 16, Revision C.01,

 ----------------------------------------------------------------------
 #t hf aug-cc-pvdz symm=none int=(grid=ultrafine) guess=(read,tcheck) s
 table=(opt,rrhf)
 ----------------------------------------------------------------------
 -----
 title
 -----
 Symbolic Z-matrix:
 Charge =  0 Multiplicity = 1

 SCF Done:  E(RHF) =  -1290.33552423     A.U. after   17 cycles
 Normal termination of Gaussian 16 at Wed Apr  9 00:26:31 2025.
 Gaussian 16:  ES64L-G16RevC.01  3-Jul-2019

 ----------------------------------------------------------------------
 #t hf aug-cc-pvdz iop(5/13=1,5/36=2,99/5=2) pseudo=read geom=check gue
 ss=(read,tcheck) scf=(maxcycle=1)
 ----------------------------------------------------------------------
 -----
 title
 -----
 Structure from the checkpoint file:  "BDE49_nonexpt_2719_mol1.chk"
 Charge =  0 Multiplicity = 1

                         Standard orientation:
 ---------------------------------------------------------------------
 Center     Atomic      Atomic             Coordinates (Angstroms)
 Number     Number       Type             X           Y           Z
 ---------------------------------------------------------------------
      1          6           0       -3.152824    0.399572    0.565491
      2          8           0       -2.541870    0.721243    1.538335
      3         16           0       -2.519675   -0.803324   -0.680966
      4         16           0       -0.654866   -1.264631    0.066826
      5          6           0        0.313232    0.217965   -0.473624
      6          8           0       -0.221197    1.165480   -0.978346
      7          6           0       -4.505091    0.941185    0.160010
      8          1           0       -4.344169    1.851217   -0.425220
      9          1           0       -5.067222    1.198886    1.058221
     10          1           0       -5.069936    0.235323   -0.451170
     11          6           0        1.772156    0.136857   -0.177417
     12          6           0        2.513064    1.322518   -0.274595
     13          6           0        3.877027    1.315823   -0.014044
     14          6           0        4.514777    0.126096    0.338270
     15          6           0        3.784978   -1.057654    0.427929
     16          6           0        2.417720   -1.055001    0.171434
     17          1           0        1.999543    2.234078   -0.552849
     18          1           0        4.444661    2.236383   -0.085413
     19          1           0        5.579934    0.121249    0.540183
     20          1           0        4.280834   -1.983855    0.693496
     21          1           0        1.863311   -1.983970    0.228366
 ---------------------------------------------------------------------

 SCF Done:  E(RHF) =  -1290.52358836     A.U. after    2 cycles

 The electronic state is 1-A.
 Alpha  occ. eigenvalues --  -93.57708 -93.57656 -20.58552 -20.58438 -11.38936
 Alpha  occ. eigenvalues --  -11.38727 -11.27494 -11.27371 -11.27077 -11.26804
 Alpha  occ. eigenvalues --  -11.26505 -11.26312 -11.26167  -8.87363  -8.87310
 Alpha  occ. eigenvalues --   -6.21546  -6.21417  -6.21223  -6.21143  -6.20893
 Alpha  occ. eigenvalues --   -6.20846  -1.38605  -1.38323  -1.16820  -1.07165
 Alpha  occ. eigenvalues --   -1.05018  -1.03321  -1.01874  -0.92542  -0.86965
 Alpha  occ. eigenvalues --   -0.84636  -0.77997  -0.74499  -0.72208  -0.67785
 Alpha  occ. eigenvalues --   -0.67414  -0.65966  -0.64963  -0.63594  -0.62850
 Alpha  occ. eigenvalues --   -0.61400  -0.60764  -0.59291  -0.57102  -0.54101
 Alpha  occ. eigenvalues --   -0.53921  -0.51929  -0.51845  -0.47901  -0.43896
 Alpha  occ. eigenvalues --   -0.43683  -0.38992  -0.37739  -0.35987  -0.35883
 Alpha virt. eigenvalues --    0.03042   0.03689   0.04032   0.04906   0.05149
 Alpha virt. eigenvalues --    0.05800   0.06101   0.06643   0.07227   0.08687
 Alpha virt. eigenvalues --    0.09154   0.09511   0.10225   0.10649   0.10937

 Mulliken charges:
               1
     1  C   -0.032732
     2  O   -0.434785
     3  S    0.087899
     4  S    0.028558
     5  C   -0.631145
     6  O   -0.427147
     7  C    0.337126
     8  H    0.095398
     9  H   -0.005556
    10  H   -0.018853
    11  C    1.405083
    12  C    0.002534
    13  C    0.681906
    14  C    0.462987
    15  C    0.542783
    16  C    0.297727
    17  H   -0.599926
    18  H   -0.417997
    19  H   -0.429488
    20  H   -0.452570
    21  H   -0.491803
 Sum of Mulliken charges =   0.00000

 Dipole moment (field-independent basis, Debye):
    X=              1.1005    Y=             -0.8335    Z=             -0.5519  Tot=              1.4867

 Test job not archived.
 1\1\GINC-SE074\SP\RHF\Aug-CC-pVDZ\C9H8O2S2\OHZDE\09-Apr-2025\0\\#t hf
 aug-cc-pvdz iop(5/13=1,5/36=2,99/5=2) pseudo=read geom=check guess=(re
 ad,tcheck) scf=(maxcycle=1)\\title\\0,1\C,0,-3.152824,0.399572,0.56549
 1\O,0,-2.54187,0.721243,1.538335\S,0,-2.519675,-0.803324,-0.680966\S,0
 ,-0.654866,-1.264631,0.066826\C,0,0.313232,0.217965,-0.473624\O,0,-0.2
 21197,1.16548,-0.978346\C,0,-4.505091,0.941185,0.16001\H,0,-4.344169,1
 .851217,-0.42522\H,0,-5.067222,1.198886,1.058221\H,0,-5.069936,0.23532
 3,-0.45117\C,0,1.772156,0.136857,-0.177417\C,0,2.513064,1.322518,-0.27

 Normal termination of Gaussian 16 at Wed Apr  9 00:26:47 2025.
