 Gaussian 16, Revision C.01,

 ----------------------------------------------------------------------
 #t hf aug-cc-pvdz symm=none int=(grid=ultrafine) guess=(read,tcheck) s
 table=opt
 ----------------------------------------------------------------------
 -----
 title
 -----
 Symbolic Z-matrix:
 Charge =  0 Multiplicity = 2

 SCF Done:  E(UHF) =  -445.585186934     A.U. after   15 cycles

 1\1\GINC-SE009\Stability\UHF\Aug-CC-pVDZ\C4H9Si1\OHZDE\09-Apr-2025\0\\
 #t hf aug-cc-pvdz symm=none int=(grid=ultrafine) guess=(read,tcheck) s
 table=opt\\title\\0,2\C,0,0.08041,-0.018445,-0.503911\C,0,-0.858013,1.
 094263,0.091834\C,0,-0.941531,-1.079706,0.018086\C,0,-2.000747,0.04648
 3,0.143172\H,0,-0.657557,-1.476418,0.996957\H,0,-1.165802,-1.919045,-0
 .642617\H,0,-2.634445,0.101815,-0.745401\H,0,-2.639657,0.042292,1.0288
 \H,0,-1.007711,1.987487,-0.517296\H,0,-0.546309,1.404017,1.092764\Si,0
 ,1.879179,-0.09544,0.055188\H,0,0.042742,0.023631,-1.597019\H,0,1.9584

 Normal termination of Gaussian 16 at Wed Apr  9 00:44:22 2025.
 Gaussian 16:  ES64L-G16RevC.01  3-Jul-2019

 ----------------------------------------------------------------------
 #t hf aug-cc-pvdz iop(5/13=1,5/36=2,99/5=2) pseudo=read geom=check gue
 ss=(read,tcheck) scf=(maxcycle=1)
 ----------------------------------------------------------------------
 -----
 title
 -----
 Structure from the checkpoint file:  "BDE49_nonexpt_807_mol2.chk"
 Charge =  0 Multiplicity = 2

                         Standard orientation:
 ---------------------------------------------------------------------
 Center     Atomic      Atomic             Coordinates (Angstroms)
 Number     Number       Type             X           Y           Z
 ---------------------------------------------------------------------
      1          6           0        0.080410   -0.018445   -0.503911
      2          6           0       -0.858013    1.094263    0.091834
      3          6           0       -0.941531   -1.079706    0.018086
      4          6           0       -2.000747    0.046483    0.143172
      5          1           0       -0.657557   -1.476418    0.996957
      6          1           0       -1.165803   -1.919045   -0.642617
      7          1           0       -2.634445    0.101816   -0.745401
      8          1           0       -2.639657    0.042293    1.028800
      9          1           0       -1.007711    1.987487   -0.517296
     10          1           0       -0.546309    1.404017    1.092764
     11         14           0        1.879179   -0.095440    0.055188
     12          1           0        0.042742    0.023631   -1.597019
     13          1           0        1.958471   -0.160345    1.541206
     14          1           0        2.661054    1.077153   -0.425110
 ---------------------------------------------------------------------

 SCF Done:  E(UHF) =  -445.652511756     A.U. after    2 cycles

 The electronic state is 2-A.
 Alpha  occ. eigenvalues --  -69.06115 -11.23781 -11.23636 -11.23265 -11.23001
 Alpha  occ. eigenvalues --   -6.81504  -3.92849  -3.91960  -3.91953  -1.11496
 Alpha  occ. eigenvalues --   -0.89841  -0.89363  -0.75744  -0.69487  -0.65395
 Alpha  occ. eigenvalues --   -0.60458  -0.54730  -0.52440  -0.50392  -0.47480
 Alpha  occ. eigenvalues --   -0.45424  -0.44633  -0.41260  -0.31121
 Alpha virt. eigenvalues --    0.03431   0.04474   0.04553   0.04888   0.06270
 Alpha virt. eigenvalues --    0.06563   0.07049   0.07498   0.07950   0.09110
 Alpha virt. eigenvalues --    0.09773   0.10514   0.13134   0.13874   0.14410

  Beta  occ. eigenvalues --  -69.05563 -11.23644 -11.23632 -11.23262 -11.22978
  Beta  occ. eigenvalues --   -6.80681  -3.91577  -3.91573  -3.90709  -1.11294
  Beta  occ. eigenvalues --   -0.89645  -0.88998  -0.75412  -0.66918  -0.65184
  Beta  occ. eigenvalues --   -0.59329  -0.54660  -0.52080  -0.49683  -0.46840
  Beta  occ. eigenvalues --   -0.45189  -0.44320  -0.40337
  Beta virt. eigenvalues --    0.03136   0.03784   0.04500   0.04680   0.05915
  Beta virt. eigenvalues --    0.06409   0.06706   0.07281   0.07665   0.09087
  Beta virt. eigenvalues --    0.09433   0.10152   0.10758   0.13581   0.13925

 Mulliken charges and spin densities:
               1          2
     1  C    0.272540  -0.053291
     2  C    0.286651   0.020248
     3  C    0.187278   0.027700
     4  C    0.527176  -0.002934
     5  H   -0.213765  -0.001091
     6  H   -0.172417  -0.000533
     7  H   -0.208249  -0.000262
     8  H   -0.162635  -0.000272
     9  H   -0.178055  -0.002064
    10  H   -0.245088  -0.009814
    11  Si  -0.036826   1.005749
    12  H   -0.160384  -0.006609
    13  H    0.055719   0.005881
    14  H    0.048055   0.017292
 Sum of Mulliken charges =  -0.00000   1.00000

 Dipole moment (field-independent basis, Debye):
    X=             -1.0206    Y=              0.0344    Z=             -0.3208  Tot=              1.0704
                          Isotropic Fermi Contact Couplings
        Atom                 a.u.       MegaHertz       Gauss      10(-4) cm-1
     1  C(13)              0.00502       5.64631       2.01474       1.88341
     2  C(13)              0.02759      31.01407      11.06659      10.34518
     3  C(13)              0.00219       2.46356       0.87906       0.82175
     4  C(13)             -0.00001      -0.01596      -0.00569      -0.00532
     5  H(1)              -0.00010      -0.46049      -0.16432      -0.15360
     6  H(1)              -0.00019      -0.83108      -0.29655      -0.27722
     7  H(1)               0.00004       0.19774       0.07056       0.06596
     8  H(1)               0.00020       0.87211       0.31119       0.29091

 Normal termination of Gaussian 16 at Wed Apr  9 00:44:27 2025.
