 Gaussian 16, Revision C.01,

 ----------------------------------------------------------------------
 #t hf aug-cc-pvdz symm=none int=(grid=ultrafine) guess=(read,tcheck) s
 table=opt
 ----------------------------------------------------------------------
 -----
 title
 -----
 Symbolic Z-matrix:
 Charge =  0 Multiplicity = 2

 SCF Done:  E(UHF) =  -25.7536787671     A.U. after   12 cycles
 Normal termination of Gaussian 16 at Tue Apr  8 23:14:46 2025.
 Gaussian 16:  ES64L-G16RevC.01  3-Jul-2019

 ----------------------------------------------------------------------
 #t hf aug-cc-pvdz iop(5/13=1,5/36=2,99/5=2) pseudo=read geom=check gue
 ss=(read,tcheck) scf=(maxcycle=1)
 ----------------------------------------------------------------------
 -----
 title
 -----
 Structure from the checkpoint file:  "BDE49_nonexpt_101_mol3.chk"
 Charge =  0 Multiplicity = 2

                         Standard orientation:
 ---------------------------------------------------------------------
 Center     Atomic      Atomic             Coordinates (Angstroms)
 Number     Number       Type             X           Y           Z
 ---------------------------------------------------------------------
      1          5           0        0.000000   -0.000000    0.144905
      2          1           0        0.000000    1.073879   -0.362263
      3          1           0       -0.000000   -1.073879   -0.362263
 ---------------------------------------------------------------------

 SCF Done:  E(UHF) =  -25.7626188005     A.U. after    2 cycles

 The electronic state is 2-A1.
 Alpha  occ. eigenvalues --   -7.65695  -0.69511  -0.52741  -0.34613
 Alpha virt. eigenvalues --    0.02760   0.04616   0.05471   0.06593   0.10668
 Alpha virt. eigenvalues --    0.10900   0.13195   0.23835   0.25709   0.26171
 Alpha virt. eigenvalues --    0.26668   0.26744   0.36052   0.36275   0.40228

  Beta  occ. eigenvalues --   -7.63872  -0.64385  -0.51387
  Beta virt. eigenvalues --    0.03777   0.04211   0.05282   0.05520   0.10662
  Beta virt. eigenvalues --    0.11056   0.12439   0.16491   0.24773   0.26009
  Beta virt. eigenvalues --    0.28490   0.28501   0.28887   0.36587   0.39243

 Mulliken charges and spin densities:
               1          2
     1  B   -0.523149   1.064126
     2  H    0.261575  -0.032063
     3  H    0.261575  -0.032063
 Sum of Mulliken charges =  -0.00000   1.00000

 Dipole moment (field-independent basis, Debye):
    X=             -0.0000    Y=              0.0000    Z=             -0.4695  Tot=              0.4695
                          Isotropic Fermi Contact Couplings
        Atom                 a.u.       MegaHertz       Gauss      10(-4) cm-1
     1  B(11)              0.25947     372.17976     132.80299     124.14580
     2  H(1)               0.00112       4.99749       1.78323       1.66698
     3  H(1)               0.00112       4.99749       1.78323       1.66698
 --------------------------------------------------------
       Center         ----  Spin Dipole Couplings  ----
                      3XX-RR        3YY-RR        3ZZ-RR
 --------------------------------------------------------
     1   Atom       -0.227986     -0.209896      0.437882

 Normal termination of Gaussian 16 at Tue Apr  8 23:14:47 2025.
