 Gaussian 16, Revision C.01,

 ----------------------------------------------------------------------
 #t hf aug-cc-pvdz symm=none int=(grid=ultrafine) guess=(read,tcheck) s
 table=(opt,rrhf)
 ----------------------------------------------------------------------
 -----
 title
 -----
 Symbolic Z-matrix:
 Charge =  0 Multiplicity = 1

 SCF Done:  E(RHF) =  -956.614411966     A.U. after   15 cycles
 Normal termination of Gaussian 16 at Wed Apr  9 00:09:09 2025.
 Gaussian 16:  ES64L-G16RevC.01  3-Jul-2019

 ----------------------------------------------------------------------
 #t hf aug-cc-pvdz iop(5/13=1,5/36=2,99/5=2) pseudo=read geom=check gue
 ss=(read,tcheck) scf=(maxcycle=1)
 ----------------------------------------------------------------------
 -----
 title
 -----
 Structure from the checkpoint file:  "BDE49_nonexpt_2354_mol1.chk"
 Charge =  0 Multiplicity = 1

                         Standard orientation:
 ---------------------------------------------------------------------
 Center     Atomic      Atomic             Coordinates (Angstroms)
 Number     Number       Type             X           Y           Z
 ---------------------------------------------------------------------
      1         14           0        1.073727    1.157535    0.517101
      2         14           0       -1.053679    1.115089   -0.504197
      3          6           0        1.908142   -0.499989   -0.040005
      4          8           0        1.236448   -1.503226   -0.158187
      5          1           0        1.015810    1.088998    1.995266
      6          1           0        1.957704    2.286791    0.128257
      7          8           0        3.228709   -0.571776   -0.305372
      8          6           0       -2.091698   -0.426439    0.052529
      9          1           0       -0.829759    1.045153   -1.967699
     10          1           0       -1.821657    2.326853   -0.160657
     11          8           0       -3.277451   -0.269484    0.195670
     12          8           0       -1.512143   -1.618591    0.248604
     13          1           0        3.639577    0.293022   -0.181460
     14          1           0       -0.545512   -1.594378    0.084772
 ---------------------------------------------------------------------

 SCF Done:  E(RHF) =  -956.775293090     A.U. after    2 cycles

 The electronic state is 1-A.
 Alpha  occ. eigenvalues --  -69.11470 -69.10272 -20.66076 -20.61011 -20.60603
 Alpha  occ. eigenvalues --  -20.56432 -11.42446 -11.38781  -6.86897  -6.85635
 Alpha  occ. eigenvalues --   -3.97689  -3.97625  -3.97584  -3.96393  -3.96374
 Alpha  occ. eigenvalues --   -3.96365  -1.45399  -1.40950  -1.36658  -1.32413
 Alpha  occ. eigenvalues --   -0.89420  -0.84771  -0.83399  -0.78695  -0.71614
 Alpha  occ. eigenvalues --   -0.69820  -0.67593  -0.66964  -0.65711  -0.63324
 Alpha  occ. eigenvalues --   -0.61231  -0.56377  -0.54267  -0.52869  -0.51594
 Alpha  occ. eigenvalues --   -0.49056  -0.47354  -0.45538  -0.41819
 Alpha virt. eigenvalues --    0.01760   0.03127   0.03875   0.05186   0.05750
 Alpha virt. eigenvalues --    0.06217   0.06574   0.06850   0.07214   0.08020
 Alpha virt. eigenvalues --    0.08341   0.09582   0.09981   0.10786   0.11116

 Mulliken charges:
               1
     1  Si   0.246428
     2  Si   0.044537
     3  C    0.427893
     4  O   -0.482872
     5  H    0.044166
     6  H    0.001722
     7  O   -0.483595
     8  C    0.451695
     9  H    0.132215
    10  H    0.103459
    11  O   -0.496924
    12  O   -0.407621
    13  H    0.172279
    14  H    0.246618
 Sum of Mulliken charges =   0.00000

 Dipole moment (field-independent basis, Debye):
    X=              5.8704    Y=              5.5387    Z=             -0.1207  Tot=              8.0718

 Test job not archived.
 1\1\GINC-SE073\SP\RHF\Aug-CC-pVDZ\C2H6O4Si2\OHZDE\09-Apr-2025\0\\#t hf
  aug-cc-pvdz iop(5/13=1,5/36=2,99/5=2) pseudo=read geom=check guess=(r
 ead,tcheck) scf=(maxcycle=1)\\title\\0,1\Si,0,-1.073727,1.157535,-0.51
 7101\Si,0,1.053679,1.115089,0.504197\C,0,-1.908142,-0.499989,0.040005\
 O,0,-1.236448,-1.503226,0.158187\H,0,-1.01581,1.088998,-1.995266\H,0,-
 1.957704,2.286791,-0.128257\O,0,-3.228709,-0.571776,0.305372\C,0,2.091
 698,-0.426439,-0.052529\H,0,0.829759,1.045153,1.967699\H,0,1.821657,2.
 326853,0.160657\O,0,3.277451,-0.269484,-0.19567\O,0,1.512143,-1.618591

 Normal termination of Gaussian 16 at Wed Apr  9 00:09:15 2025.
