 Gaussian 16, Revision C.01,

 ----------------------------------------------------------------------
 #t hf aug-cc-pvdz symm=none int=(grid=ultrafine) guess=(read,tcheck) s
 table=(opt,rrhf)
 ----------------------------------------------------------------------
 -----
 title
 -----
 Symbolic Z-matrix:
 Charge =  0 Multiplicity = 1

 SCF Done:  E(RHF) =  -397.518009724     A.U. after   11 cycles
 Normal termination of Gaussian 16 at Tue Apr  8 23:31:58 2025.
 Gaussian 16:  ES64L-G16RevC.01  3-Jul-2019

 ----------------------------------------------------------------------
 #t hf aug-cc-pvdz iop(5/13=1,5/36=2,99/5=2) pseudo=read geom=check gue
 ss=(read,tcheck) scf=(maxcycle=1)
 ----------------------------------------------------------------------
 -----
 title
 -----
 Structure from the checkpoint file:  "BDE49_nonexpt_1457_mol1.chk"
 Charge =  0 Multiplicity = 1

                         Standard orientation:
 ---------------------------------------------------------------------
 Center     Atomic      Atomic             Coordinates (Angstroms)
 Number     Number       Type             X           Y           Z
 ---------------------------------------------------------------------
      1         15           0       -0.598081   -0.123633   -0.025893
      2          7           0        1.106225    0.042419   -0.073581
      3          1           0        1.608832   -0.806050    0.141263
      4          1           0        1.548318    0.849178    0.344717
      5          1           0       -0.954343    1.018646   -0.787982
      6          1           0       -0.975162    0.495783    1.205456
 ---------------------------------------------------------------------

 SCF Done:  E(RHF) =  -397.563573121     A.U. after    2 cycles

 The electronic state is 1-A.
 Alpha  occ. eigenvalues --  -81.27565 -15.62059  -7.77569  -4.91664  -4.91397
 Alpha  occ. eigenvalues --   -4.91178  -1.12074  -0.78121  -0.66991  -0.57670
 Alpha  occ. eigenvalues --   -0.52836  -0.40417  -0.35412
 Alpha virt. eigenvalues --    0.03405   0.04841   0.05665   0.07392   0.09333
 Alpha virt. eigenvalues --    0.11025   0.12174   0.16677   0.17664   0.18451
 Alpha virt. eigenvalues --    0.21228   0.21877   0.22564   0.24189   0.27647

 Mulliken charges:
               1
     1  P    0.474600
     2  N   -0.456822
     3  H    0.022105
     4  H   -0.015110
     5  H   -0.004792
     6  H   -0.019981
 Sum of Mulliken charges =  -0.00000

 Dipole moment (field-independent basis, Debye):
    X=              1.0593    Y=              0.5760    Z=              1.0728  Tot=              1.6140

 Test job not archived.
 1\1\GINC-SE362\SP\RHF\Aug-CC-pVDZ\H4N1P1\OHZDE\08-Apr-2025\0\\#t hf au
 g-cc-pvdz iop(5/13=1,5/36=2,99/5=2) pseudo=read geom=check guess=(read
 ,tcheck) scf=(maxcycle=1)\\title\\0,1\P,0,-0.598081,-0.123633,-0.02589
 3\N,0,1.106225,0.042419,-0.073581\H,0,1.608832,-0.80605,0.141263\H,0,1
 .548318,0.849178,0.344717\H,0,-0.954343,1.018646,-0.787982\H,0,-0.9751
 62,0.495783,1.205456\\Version=ES64L-G16RevC.01\State=1-A\HF=-397.56357
 31\RMSD=1.033e-02\Dipole=0.4167762,0.2266263,0.4220774\Quadrupole=0.89
 93851,-0.0028548,-0.8965303,-1.0348433,1.1907511,-0.1204333\PG=C01 [X(

 Normal termination of Gaussian 16 at Tue Apr  8 23:32:00 2025.
