 Gaussian 16, Revision C.01,

 ----------------------------------------------------------------------
 #t hf aug-cc-pvdz symm=none int=(grid=ultrafine) guess=(read,tcheck) s
 table=(opt,rrhf)
 ----------------------------------------------------------------------
 -----
 title
 -----
 Symbolic Z-matrix:
 Charge =  0 Multiplicity = 1

 SCF Done:  E(RHF) =  -473.536690368     A.U. after   13 cycles
 Normal termination of Gaussian 16 at Tue Apr  8 22:55:33 2025.
 Gaussian 16:  ES64L-G16RevC.01  3-Jul-2019

 ----------------------------------------------------------------------
 #t hf aug-cc-pvdz iop(5/13=1,5/36=2,99/5=2) pseudo=read geom=check gue
 ss=(read,tcheck) scf=(maxcycle=1)
 ----------------------------------------------------------------------
 -----
 title
 -----
 Structure from the checkpoint file:  "BDE49_expt_1912_mol1.chk"
 Charge =  0 Multiplicity = 1

                         Standard orientation:
 ---------------------------------------------------------------------
 Center     Atomic      Atomic             Coordinates (Angstroms)
 Number     Number       Type             X           Y           Z
 ---------------------------------------------------------------------
      1          8           0       -1.100518    0.022487   -0.117710
      2         16           0        0.585231   -0.089872    0.009200
      3          1           0       -1.439897    0.029319    0.785218
      4          1           0        0.880356    1.228735    0.009263
 ---------------------------------------------------------------------

 SCF Done:  E(RHF) =  -473.586892134     A.U. after    2 cycles

 The electronic state is 1-A.
 Alpha  occ. eigenvalues --  -93.59662 -20.61934  -8.88755  -6.22964  -6.22621
 Alpha  occ. eigenvalues --   -6.22245  -1.34103  -0.94246  -0.71078  -0.62823
 Alpha  occ. eigenvalues --   -0.57981  -0.47616  -0.37996
 Alpha virt. eigenvalues --    0.03458   0.04885   0.08234   0.11248   0.12381
 Alpha virt. eigenvalues --    0.17694   0.18314   0.19885   0.21428   0.22489
 Alpha virt. eigenvalues --    0.23450   0.29216   0.32640   0.36813   0.39391

 Mulliken charges:
               1
     1  O   -0.653691
     2  S    0.435080
     3  H    0.167314
     4  H    0.051297
 Sum of Mulliken charges =  -0.00000

 Dipole moment (field-independent basis, Debye):
    X=              0.2734    Y=              0.8656    Z=              1.5742  Tot=              1.8172

 Test job not archived.
 1\1\GINC-SE143\SP\RHF\Aug-CC-pVDZ\H2O1S1\OHZDE\08-Apr-2025\0\\#t hf au
 g-cc-pvdz iop(5/13=1,5/36=2,99/5=2) pseudo=read geom=check guess=(read
 ,tcheck) scf=(maxcycle=1)\\title\\0,1\O,0,-1.100518,0.022487,-0.11771\
 S,0,0.585231,-0.089872,0.0092\H,0,-1.439897,0.029319,0.785218\H,0,0.88
 0357,1.228735,0.009263\\Version=ES64L-G16RevC.01\State=1-A\HF=-473.586
 8921\RMSD=5.486e-03\Dipole=0.1075579,0.3405422,0.6193485\Quadrupole=0.
 5334656,0.3431417,-0.8766073,0.8898818,-2.0324616,0.0472584\PG=C01 [X(
 H2O1S1)]\\@

 Normal termination of Gaussian 16 at Tue Apr  8 22:55:35 2025.
