 Gaussian 16, Revision C.01,

 ----------------------------------------------------------------------
 #t hf aug-cc-pvdz symm=none int=(grid=ultrafine) guess=(read,tcheck) s
 table=(opt,rrhf)
 ----------------------------------------------------------------------
 -----
 title
 -----
 Symbolic Z-matrix:
 Charge =  0 Multiplicity = 1

 SCF Done:  E(RHF) =  -957.425658620     A.U. after   15 cycles
 Normal termination of Gaussian 16 at Wed Apr  9 00:14:31 2025.
 Gaussian 16:  ES64L-G16RevC.01  3-Jul-2019

 ----------------------------------------------------------------------
 #t hf aug-cc-pvdz iop(5/13=1,5/36=2,99/5=2) pseudo=read geom=check gue
 ss=(read,tcheck) scf=(maxcycle=1)
 ----------------------------------------------------------------------
 -----
 title
 -----
 Structure from the checkpoint file:  "BDE49_nonexpt_2479_mol1.chk"
 Charge =  0 Multiplicity = 1

                         Standard orientation:
 ---------------------------------------------------------------------
 Center     Atomic      Atomic             Coordinates (Angstroms)
 Number     Number       Type             X           Y           Z
 ---------------------------------------------------------------------
      1         16           0        2.647403   -0.423507   -0.250089
      2         14           0        1.103796    1.033102   -0.622331
      3          6           0       -0.621845    0.386542   -0.272630
      4          6           0       -1.077572   -0.825806   -0.816709
      5          6           0       -2.369565   -1.280445   -0.569690
      6          6           0       -1.503304    1.123165    0.533641
      7          6           0       -2.797992    0.670301    0.783098
      8          6           0       -3.232355   -0.531805    0.230655
      9          1           0       -4.238637   -0.886696    0.424056
     10          1           0       -2.704509   -2.218132   -0.999365
     11          1           0       -0.414165   -1.422660   -1.434651
     12          1           0       -1.177116    2.061058    0.972293
     13          1           0       -3.464433    1.253757    1.408788
     14          6           0        2.369192   -0.786265    1.533511
     15          1           0        2.557729    0.096557    2.144198
     16          1           0        3.080980   -1.565342    1.805286
     17          1           0        1.357100   -1.152192    1.702754
     18          1           0        1.295440    1.367174   -2.051547
     19          1           0        1.296666    2.245040    0.210992
 ---------------------------------------------------------------------

 SCF Done:  E(RHF) =  -957.548150839     A.U. after    2 cycles

 The electronic state is 1-A.
 Alpha  occ. eigenvalues --  -93.51743 -69.08585 -11.26891 -11.25687 -11.25591
 Alpha  occ. eigenvalues --  -11.25508 -11.25134 -11.25105 -11.24035  -8.81637
 Alpha  occ. eigenvalues --   -6.83657  -6.15749  -6.15569  -6.15304  -3.94432
 Alpha  occ. eigenvalues --   -3.94370  -3.94361  -1.14692  -1.02011  -1.01666
 Alpha  occ. eigenvalues --   -1.00944  -0.85481  -0.83322  -0.82624  -0.72405
 Alpha  occ. eigenvalues --   -0.67171  -0.63602  -0.63325  -0.59845  -0.59241
 Alpha  occ. eigenvalues --   -0.59184  -0.55939  -0.51625  -0.50609  -0.50144
 Alpha  occ. eigenvalues --   -0.47027  -0.46078  -0.41440  -0.35498  -0.34766
 Alpha  occ. eigenvalues --   -0.34227
 Alpha virt. eigenvalues --    0.03032   0.03963   0.04111   0.04856   0.05742
 Alpha virt. eigenvalues --    0.05760   0.06599   0.07128   0.07296   0.07742
 Alpha virt. eigenvalues --    0.08190   0.08969   0.09810   0.10919   0.11453

 Mulliken charges:
               1
     1  S   -0.253420
     2  Si   0.227147
     3  C   -0.022129
     4  C    0.306904
     5  C    0.642030
     6  C    0.382265
     7  C    0.681610
     8  C    0.645610
     9  H   -0.444381
    10  H   -0.446610
    11  H   -0.635407
    12  H   -0.628776
    13  H   -0.444798
    14  C    0.212725
    15  H   -0.124809
    16  H   -0.120198
    17  H   -0.164170
    18  H    0.145802
    19  H    0.040604
 Sum of Mulliken charges =  -0.00000

 Dipole moment (field-independent basis, Debye):
    X=             -1.7630    Y=             -0.2015    Z=              1.5183  Tot=              2.3354

 Test job not archived.
 1\1\GINC-SE329\SP\RHF\Aug-CC-pVDZ\C7H10S1Si1\OHZDE\09-Apr-2025\0\\#t h
 f aug-cc-pvdz iop(5/13=1,5/36=2,99/5=2) pseudo=read geom=check guess=(
 read,tcheck) scf=(maxcycle=1)\\title\\0,1\S,0,2.647403,-0.423507,-0.25
 0089\Si,0,1.103796,1.033102,-0.622331\C,0,-0.621845,0.386542,-0.27263\
 C,0,-1.077572,-0.825806,-0.816709\C,0,-2.369565,-1.280445,-0.56969\C,0
 ,-1.503304,1.123165,0.533641\C,0,-2.797992,0.670301,0.783098\C,0,-3.23
 2355,-0.531805,0.230655\H,0,-4.238637,-0.886696,0.424056\H,0,-2.704509
 ,-2.218132,-0.999365\H,0,-0.414165,-1.42266,-1.434651\H,0,-1.177116,2.

 Normal termination of Gaussian 16 at Wed Apr  9 00:14:41 2025.
