 Gaussian 16, Revision C.01,

 ----------------------------------------------------------------------
 #t hf aug-cc-pvdz symm=none int=(grid=ultrafine) guess=(read,tcheck) s
 table=(opt,rrhf)
 ----------------------------------------------------------------------
 -----
 title
 -----
 Symbolic Z-matrix:
 Charge =  0 Multiplicity = 1

 SCF Done:  E(RHF) =  -796.936072909     A.U. after   17 cycles
 Normal termination of Gaussian 16 at Tue Apr  8 23:08:26 2025.
 Gaussian 16:  ES64L-G16RevC.01  3-Jul-2019

 ----------------------------------------------------------------------
 #t hf aug-cc-pvdz iop(5/13=1,5/36=2,99/5=2) pseudo=read geom=check gue
 ss=(read,tcheck) scf=(maxcycle=1)
 ----------------------------------------------------------------------
 -----
 title
 -----
 Structure from the checkpoint file:  "BDE49_expt_551_mol1.chk"
 Charge =  0 Multiplicity = 1

                         Standard orientation:
 ---------------------------------------------------------------------
 Center     Atomic      Atomic             Coordinates (Angstroms)
 Number     Number       Type             X           Y           Z
 ---------------------------------------------------------------------
      1          6           0       -1.580341   -1.541209   -0.000001
      2          6           0       -2.917082   -1.181819   -0.000001
      3          6           0       -3.297873    0.168548    0.000002
      4          6           0       -2.329158    1.155805    0.000005
      5          6           0       -0.962682    0.823802    0.000006
      6          6           0       -0.595498   -0.542009    0.000003
      7          7           0        0.747203   -0.860035    0.000005
      8          6           0        1.792220    0.031744    0.000018
      9          1           0       -4.347860    0.434324    0.000002
     10          1           0        1.018120   -1.835720   -0.000000
     11          1           0       -3.676054   -1.955443   -0.000003
     12          1           0       -2.611754    2.202871    0.000005
     13         16           0        3.375773   -0.500834   -0.000015
     14          6           0        0.095738    1.793984    0.000003
     15          6           0        1.399937    1.420913    0.000002
     16          1           0       -0.168411    2.846525   -0.000001
     17          1           0        2.199553    2.148092   -0.000007
     18          1           0       -1.287940   -2.585620   -0.000004
 ---------------------------------------------------------------------

 SCF Done:  E(RHF) =  -797.068393837     A.U. after    2 cycles

 The electronic state is 1-A.
 Alpha  occ. eigenvalues --  -93.47538 -15.70259 -11.35965 -11.32987 -11.29405
 Alpha  occ. eigenvalues --  -11.27934 -11.27932 -11.27827 -11.27160 -11.26837
 Alpha  occ. eigenvalues --  -11.26457  -8.77421  -6.11692  -6.11134  -6.11060
 Alpha  occ. eigenvalues --   -1.29032  -1.16842  -1.11540  -1.06092  -1.03130
 Alpha  occ. eigenvalues --   -0.95648  -0.89308  -0.87315  -0.84111  -0.76004
 Alpha  occ. eigenvalues --   -0.75600  -0.69815  -0.68215  -0.65399  -0.63394
 Alpha  occ. eigenvalues --   -0.62075  -0.61270  -0.58158  -0.54561  -0.52229
 Alpha  occ. eigenvalues --   -0.51263  -0.49709  -0.45141  -0.38836  -0.34961
 Alpha  occ. eigenvalues --   -0.32094  -0.29064
 Alpha virt. eigenvalues --    0.02444   0.02931   0.03800   0.03863   0.04986
 Alpha virt. eigenvalues --    0.05678   0.07551   0.07727   0.08178   0.08388
 Alpha virt. eigenvalues --    0.09367   0.10702   0.10927   0.11539   0.11837

 Mulliken charges:
               1
     1  C    0.883532
     2  C    0.182960
     3  C    0.570723
     4  C    0.662471
     5  C    0.671614
     6  C   -0.333953
     7  N   -0.442511
     8  C    0.135161
     9  H   -0.455038
    10  H   -0.039040
    11  H   -0.438008
    12  H   -0.563017
    13  S   -0.136310
    14  C    0.398770
    15  C    0.471132
    16  H   -0.568715
    17  H   -0.419641
    18  H   -0.580131
 Sum of Mulliken charges =  -0.00000

 Dipole moment (field-independent basis, Debye):
    X=             -6.2445    Y=              0.7321    Z=              0.0000  Tot=              6.2873

 Test job not archived.
 1\1\GINC-SE365\SP\RHF\Aug-CC-pVDZ\C9H7N1S1\OHZDE\08-Apr-2025\0\\#t hf
 aug-cc-pvdz iop(5/13=1,5/36=2,99/5=2) pseudo=read geom=check guess=(re
 ad,tcheck) scf=(maxcycle=1)\\title\\0,1\C,0,-1.580341,-1.541209,-0.000
 001\C,0,-2.917082,-1.181819,-0.000001\C,0,-3.297873,0.168548,0.000002\
 C,0,-2.329158,1.155805,0.000005\C,0,-0.962682,0.823802,0.000006\C,0,-0
 .595498,-0.542009,0.000003\N,0,0.747203,-0.860035,0.000005\C,0,1.79222
 ,0.031744,0.000018\H,0,-4.34786,0.434324,0.000002\H,0,1.01812,-1.83572
 ,0.\H,0,-3.676054,-1.955443,-0.000003\H,0,-2.611754,2.202871,0.000005\

 Normal termination of Gaussian 16 at Tue Apr  8 23:08:35 2025.
