 Gaussian 16, Revision C.01,

 ----------------------------------------------------------------------
 #t hf aug-cc-pvdz symm=none int=(grid=ultrafine) guess=(read,tcheck) s
 table=(opt,rrhf)
 ----------------------------------------------------------------------
 -----
 title
 -----
 Symbolic Z-matrix:
 Charge =  0 Multiplicity = 1

 SCF Done:  E(RHF) =  -844.962543359     A.U. after   12 cycles
 Normal termination of Gaussian 16 at Wed Apr  9 00:14:09 2025.
 Gaussian 16:  ES64L-G16RevC.01  3-Jul-2019

 ----------------------------------------------------------------------
 #t hf aug-cc-pvdz iop(5/13=1,5/36=2,99/5=2) pseudo=read geom=check gue
 ss=(read,tcheck) scf=(maxcycle=1)
 ----------------------------------------------------------------------
 -----
 title
 -----
 Structure from the checkpoint file:  "BDE49_nonexpt_2481_mol1.chk"
 Charge =  0 Multiplicity = 1

                         Standard orientation:
 ---------------------------------------------------------------------
 Center     Atomic      Atomic             Coordinates (Angstroms)
 Number     Number       Type             X           Y           Z
 ---------------------------------------------------------------------
      1          6           0        0.054433   -0.990964    0.803034
      2          6           0        1.233858   -0.016328    0.813081
      3          6           0        2.204758   -0.178767   -0.360850
      4          1           0        1.778335   -0.171978    1.754350
      5          1           0        0.861725    1.013857    0.843186
      6          6           0        3.380458    0.800096   -0.300154
      7          1           0        1.660090   -0.042672   -1.300089
      8          1           0        2.584473   -1.208005   -0.370798
      9          1           0        3.032521    1.837422   -0.324690
     10          1           0        4.057936    0.658460   -1.146228
     11          1           0        3.962894    0.668200    0.617239
     12         16           0       -1.128085   -0.794073   -0.616313
     13          1           0       -0.517242   -0.928598    1.730839
     14          1           0        0.408503   -2.020796    0.712118
     15         14           0       -2.359679    0.830045    0.069814
     16          1           0       -3.425154    0.971120   -0.944731
     17          1           0       -1.616544    2.107024    0.186068
     18          1           0       -2.943722    0.516280    1.395691
 ---------------------------------------------------------------------

 SCF Done:  E(RHF) =  -845.054430878     A.U. after    2 cycles

 The electronic state is 1-A.
 Alpha  occ. eigenvalues --  -93.51778 -69.08753 -11.27680 -11.24052 -11.23056
 Alpha  occ. eigenvalues --  -11.22544  -8.81689  -6.83809  -6.15811  -6.15618
 Alpha  occ. eigenvalues --   -6.15363  -3.94625  -3.94562  -3.94527  -1.08075
 Alpha  occ. eigenvalues --   -1.00938  -0.92163  -0.84198  -0.79032  -0.69062
 Alpha  occ. eigenvalues --   -0.64373  -0.61330  -0.59573  -0.56422  -0.53577
 Alpha  occ. eigenvalues --   -0.50405  -0.49759  -0.48990  -0.47905  -0.47456
 Alpha  occ. eigenvalues --   -0.45479  -0.41145  -0.35189
 Alpha virt. eigenvalues --    0.03364   0.04189   0.04435   0.04818   0.05929
 Alpha virt. eigenvalues --    0.06384   0.06553   0.06852   0.07736   0.08444
 Alpha virt. eigenvalues --    0.08942   0.09201   0.10248   0.10650   0.11747

 Mulliken charges:
               1
     1  C    0.314309
     2  C    0.119506
     3  C    0.028711
     4  H   -0.094324
     5  H   -0.208637
     6  C    0.422032
     7  H   -0.117088
     8  H   -0.133204
     9  H   -0.079726
    10  H   -0.068649
    11  H   -0.073951
    12  S   -0.112311
    13  H   -0.191601
    14  H   -0.070947
    15  Si   0.244646
    16  H   -0.032480
    17  H    0.027065
    18  H    0.026650
 Sum of Mulliken charges =  -0.00000

 Dipole moment (field-independent basis, Debye):
    X=              0.9176    Y=              0.3863    Z=              1.3661  Tot=              1.6904

 Test job not archived.
 1\1\GINC-SE184\SP\RHF\Aug-CC-pVDZ\C4H12S1Si1\OHZDE\09-Apr-2025\0\\#t h
 f aug-cc-pvdz iop(5/13=1,5/36=2,99/5=2) pseudo=read geom=check guess=(
 read,tcheck) scf=(maxcycle=1)\\title\\0,1\C,0,0.054433,-0.990964,0.803
 034\C,0,1.233858,-0.016328,0.813081\C,0,2.204758,-0.178767,-0.36085\H,
 0,1.778335,-0.171978,1.75435\H,0,0.861725,1.013857,0.843186\C,0,3.3804
 58,0.800096,-0.300154\H,0,1.66009,-0.042672,-1.300089\H,0,2.584473,-1.
 208005,-0.370798\H,0,3.032521,1.837422,-0.32469\H,0,4.057936,0.65846,-
 1.146228\H,0,3.962894,0.6682,0.617239\S,0,-1.128085,-0.794073,-0.61631

 Normal termination of Gaussian 16 at Wed Apr  9 00:14:15 2025.
