 Gaussian 16, Revision C.01,

 ----------------------------------------------------------------------
 #t hf aug-cc-pvdz symm=none int=(grid=ultrafine) guess=(read,tcheck) s
 table=opt
 ----------------------------------------------------------------------
 -----
 title
 -----
 Symbolic Z-matrix:
 Charge =  0 Multiplicity = 2

 SCF Done:  E(UHF) =  -809.730961299     A.U. after   15 cycles
 Normal termination of Gaussian 16 at Tue Apr  8 22:41:59 2025.
 Gaussian 16:  ES64L-G16RevC.01  3-Jul-2019

 ----------------------------------------------------------------------
 #t hf aug-cc-pvdz iop(5/13=1,5/36=2,99/5=2) pseudo=read geom=check gue
 ss=(read,tcheck) scf=(maxcycle=1)
 ----------------------------------------------------------------------
 -----
 title
 -----
 Structure from the checkpoint file:  "BDE49_expt_144_mol2.chk"
 Charge =  0 Multiplicity = 2

                         Standard orientation:
 ---------------------------------------------------------------------
 Center     Atomic      Atomic             Coordinates (Angstroms)
 Number     Number       Type             X           Y           Z
 ---------------------------------------------------------------------
      1          6           0        1.325818   -0.139251   -0.023756
      2          6           0        0.003258    0.541672   -0.213389
      3          9           0        1.203231   -1.460118   -0.209957
      4          9           0        1.813564    0.069284    1.216067
      5          9           0        2.231734    0.338428   -0.892827
      6          6           0       -1.333710   -0.120443   -0.025434
      7          9           0        0.030562    1.856145   -0.048710
      8          9           0       -1.484756   -1.144678   -0.878403
      9          9           0       -2.313407    0.765364   -0.236119
     10          9           0       -1.477839   -0.612411    1.225002
 ---------------------------------------------------------------------

 SCF Done:  E(UHF) =  -810.021760149     A.U. after    2 cycles

 The electronic state is 2-A.
 Alpha  occ. eigenvalues --  -26.21206 -26.20366 -26.20144 -26.19964 -26.19864
 Alpha  occ. eigenvalues --  -26.19709 -26.19672 -11.57627 -11.57548 -11.42863
 Alpha  occ. eigenvalues --   -1.80012  -1.79544  -1.75879  -1.72860  -1.72699
 Alpha  occ. eigenvalues --   -1.72416  -1.72308  -1.17540  -1.07652  -1.00522
 Alpha  occ. eigenvalues --   -0.93693  -0.92819  -0.92513  -0.91276  -0.90555
 Alpha  occ. eigenvalues --   -0.88426  -0.84973  -0.81870  -0.80962  -0.80274
 Alpha  occ. eigenvalues --   -0.80160  -0.79585  -0.76688  -0.76136  -0.75779
 Alpha  occ. eigenvalues --   -0.75562  -0.74943  -0.74861  -0.74442  -0.64372
 Alpha  occ. eigenvalues --   -0.49829
 Alpha virt. eigenvalues --    0.06931   0.07142   0.07708   0.08447   0.10420
 Alpha virt. eigenvalues --    0.11043   0.11220   0.12599   0.13485   0.14959
 Alpha virt. eigenvalues --    0.18296   0.20671   0.21161   0.22909   0.24572

  Beta  occ. eigenvalues --  -26.20701 -26.20372 -26.20145 -26.19907 -26.19792
  Beta  occ. eigenvalues --  -26.19485 -26.19480 -11.57891 -11.57808 -11.40052
  Beta  occ. eigenvalues --   -1.79743  -1.79352  -1.74528  -1.72712  -1.72606
  Beta  occ. eigenvalues --   -1.71904  -1.71833  -1.13366  -1.07493  -0.98917
  Beta  occ. eigenvalues --   -0.93356  -0.92595  -0.91191  -0.90879  -0.90408
  Beta  occ. eigenvalues --   -0.88181  -0.81413  -0.80590  -0.80576  -0.79748
  Beta  occ. eigenvalues --   -0.79310  -0.77999  -0.76595  -0.75838  -0.75608
  Beta  occ. eigenvalues --   -0.75478  -0.74752  -0.74677  -0.71985  -0.63303
  Beta virt. eigenvalues --    0.02702   0.07117   0.07265   0.07779   0.09395
  Beta virt. eigenvalues --    0.10448   0.11049   0.11255   0.12722   0.13737
  Beta virt. eigenvalues --    0.14965   0.19427   0.20962   0.21220   0.23095

 Mulliken charges and spin densities:
               1          2
     1  C    1.056059  -0.117143
     2  C   -0.135688   1.197634
     3  F   -0.269445   0.006042
     4  F   -0.296722   0.008537
     5  F   -0.290497   0.000699
     6  C    1.098109  -0.142108
     7  F   -0.318029   0.034789
     8  F   -0.290489   0.001120
     9  F   -0.266189  -0.001392
    10  F   -0.287109   0.011823
 Sum of Mulliken charges =  -0.00000   1.00000

 Dipole moment (field-independent basis, Debye):
    X=             -0.0645    Y=              0.2368    Z=             -0.4859  Tot=              0.5444
                          Isotropic Fermi Contact Couplings
        Atom                 a.u.       MegaHertz       Gauss      10(-4) cm-1
     1  C(13)             -0.05864     -65.92233     -23.52272     -21.98932
     2  C(13)              0.29838     335.43075     119.69003     111.88766
     3  F(19)             -0.00392     -16.50097      -5.88796      -5.50413
     4  F(19)              0.02996     126.06642      44.98363      42.05123
     5  F(19)              0.01113      46.83076      16.71038      15.62106
     6  C(13)             -0.06006     -67.51693     -24.09172     -22.52123
     7  F(19)              0.06279     264.20367      94.27444      88.12886
     8  F(19)              0.00899      37.80486      13.48972      12.61035

 Normal termination of Gaussian 16 at Tue Apr  8 22:42:05 2025.
