 Gaussian 16, Revision C.01,

 ----------------------------------------------------------------------
 #t hf aug-cc-pvdz symm=none int=(grid=ultrafine) guess=(read,tcheck) s
 table=(opt,rrhf)
 ----------------------------------------------------------------------
 -----
 title
 -----
 Symbolic Z-matrix:
 Charge =  0 Multiplicity = 1

 SCF Done:  E(RHF) =  -174.327001349     A.U. after   13 cycles
 Normal termination of Gaussian 16 at Wed Apr  9 00:34:47 2025.
 Gaussian 16:  ES64L-G16RevC.01  3-Jul-2019

 ----------------------------------------------------------------------
 #t hf aug-cc-pvdz iop(5/13=1,5/36=2,99/5=2) pseudo=read geom=check gue
 ss=(read,tcheck) scf=(maxcycle=1)
 ----------------------------------------------------------------------
 -----
 title
 -----
 Structure from the checkpoint file:  "BDE49_nonexpt_523_mol1.chk"
 Charge =  0 Multiplicity = 1

                         Standard orientation:
 ---------------------------------------------------------------------
 Center     Atomic      Atomic             Coordinates (Angstroms)
 Number     Number       Type             X           Y           Z
 ---------------------------------------------------------------------
      1          1           0        2.438894    0.398708   -1.053267
      2          5           0        1.911805    0.227130    0.000007
      3          1           0        2.438853    0.398870    1.053273
      4          7           0        0.618669   -0.166276   -0.000005
      5          7           0       -0.492398   -0.635596   -0.000031
      6          6           0       -1.606089    0.339222    0.000020
      7          1           0       -2.217121    0.135789   -0.882410
      8          1           0       -1.249892    1.373064    0.000078
      9          1           0       -2.217127    0.135691    0.882423
 ---------------------------------------------------------------------

 SCF Done:  E(RHF) =  -174.383662914     A.U. after    2 cycles

 The electronic state is 1-A.
 Alpha  occ. eigenvalues --  -15.72142 -15.69957 -11.28105  -7.61623  -1.33911
 Alpha  occ. eigenvalues --   -1.03202  -0.90590  -0.70923  -0.65517  -0.63430
 Alpha  occ. eigenvalues --   -0.58870  -0.55240  -0.54152  -0.44791  -0.35901
 Alpha virt. eigenvalues --    0.03348   0.04192   0.04675   0.05140   0.07161
 Alpha virt. eigenvalues --    0.07429   0.07830   0.10867   0.10957   0.12698
 Alpha virt. eigenvalues --    0.13065   0.14550   0.15348   0.15435   0.16773

 Mulliken charges:
               1
     1  H    0.193533
     2  B   -0.528443
     3  H    0.193528
     4  N    0.034024
     5  N   -0.361894
     6  C    0.732266
     7  H   -0.065311
     8  H   -0.132393
     9  H   -0.065310
 Sum of Mulliken charges =  -0.00000

 Dipole moment (field-independent basis, Debye):
    X=             -1.7318    Y=              1.1066    Z=              0.0001  Tot=              2.0551

 Test job not archived.
 1\1\GINC-SE071\SP\RHF\Aug-CC-pVDZ\C1H5B1N2\OHZDE\09-Apr-2025\0\\#t hf
 aug-cc-pvdz iop(5/13=1,5/36=2,99/5=2) pseudo=read geom=check guess=(re
 ad,tcheck) scf=(maxcycle=1)\\title\\0,1\H,0,2.438894,0.398708,-1.05326
 7\B,0,1.911805,0.22713,0.000007\H,0,2.438853,0.39887,1.053273\N,0,0.61
 8669,-0.166276,-0.000005\N,0,-0.492398,-0.635596,-0.000031\C,0,-1.6060
 89,0.339222,0.00002\H,0,-2.217121,0.135789,-0.88241\H,0,-1.249892,1.37
 3064,0.000078\H,0,-2.217127,0.135691,0.882423\\Version=ES64L-G16RevC.0
 1\State=1-A\HF=-174.3836629\RMSD=3.246e-03\Dipole=-0.6813243,0.4353817

 Normal termination of Gaussian 16 at Wed Apr  9 00:34:49 2025.
