 Gaussian 16, Revision C.01,

 ----------------------------------------------------------------------
 #t hf aug-cc-pvdz symm=none int=(grid=ultrafine) guess=(read,tcheck) s
 table=(opt,rrhf)
 ----------------------------------------------------------------------
 -----
 title
 -----
 Symbolic Z-matrix:
 Charge =  0 Multiplicity = 1

 SCF Done:  E(RHF) =  -510.255126606     A.U. after   14 cycles
 Normal termination of Gaussian 16 at Tue Apr  8 23:36:06 2025.
 Gaussian 16:  ES64L-G16RevC.01  3-Jul-2019

 ----------------------------------------------------------------------
 #t hf aug-cc-pvdz iop(5/13=1,5/36=2,99/5=2) pseudo=read geom=check gue
 ss=(read,tcheck) scf=(maxcycle=1)
 ----------------------------------------------------------------------
 -----
 title
 -----
 Structure from the checkpoint file:  "BDE49_nonexpt_1543_mol1.chk"
 Charge =  0 Multiplicity = 1

                         Standard orientation:
 ---------------------------------------------------------------------
 Center     Atomic      Atomic             Coordinates (Angstroms)
 Number     Number       Type             X           Y           Z
 ---------------------------------------------------------------------
      1          6           0       -1.150906   -0.419362    0.024016
      2          7           0        1.244210    0.939982    0.129811
      3          8           0       -1.684943    0.661127   -0.042751
      4         15           0        0.693804   -0.647596   -0.123932
      5          1           0       -1.742701   -1.354104    0.155062
      6          1           0        0.767846   -1.204017    1.183885
      7          1           0        1.700641    1.337784   -0.679247
      8          1           0        0.542665    1.581553    0.488515
 ---------------------------------------------------------------------

 SCF Done:  E(RHF) =  -510.335525427     A.U. after    2 cycles

 The electronic state is 1-A.
 Alpha  occ. eigenvalues --  -81.29524 -20.59221 -15.63030 -11.35628  -7.79667
 Alpha  occ. eigenvalues --   -4.93757  -4.93537  -4.93311  -1.37465  -1.13549
 Alpha  occ. eigenvalues --   -0.88775  -0.76414  -0.69027  -0.67325  -0.63485
 Alpha  occ. eigenvalues --   -0.57397  -0.55083  -0.47358  -0.40560  -0.36623
 Alpha virt. eigenvalues --    0.03549   0.04188   0.05816   0.06005   0.08126
 Alpha virt. eigenvalues --    0.08791   0.09664   0.10409   0.12315   0.14439
 Alpha virt. eigenvalues --    0.15538   0.17004   0.17733   0.19348   0.20679

 Mulliken charges:
               1
     1  C    0.227535
     2  N   -0.502663
     3  O   -0.462244
     4  P    0.733854
     5  H   -0.163747
     6  H    0.075183
     7  H    0.053324
     8  H    0.038759
 Sum of Mulliken charges =  -0.00000

 Dipole moment (field-independent basis, Debye):
    X=              0.9978    Y=             -1.1694    Z=             -0.0085  Tot=              1.5373

 Test job not archived.
 1\1\GINC-SE058\SP\RHF\Aug-CC-pVDZ\C1H4N1O1P1\OHZDE\08-Apr-2025\0\\#t h
 f aug-cc-pvdz iop(5/13=1,5/36=2,99/5=2) pseudo=read geom=check guess=(
 read,tcheck) scf=(maxcycle=1)\\title\\0,1\C,0,-1.150906,-0.419362,0.02
 4016\N,0,1.24421,0.939982,0.129811\O,0,-1.684943,0.661127,-0.042751\P,
 0,0.693804,-0.647596,-0.123932\H,0,-1.742701,-1.354104,0.155062\H,0,0.
 767846,-1.204017,1.183885\H,0,1.700641,1.337784,-0.679247\H,0,0.542665
 ,1.581553,0.488515\\Version=ES64L-G16RevC.01\State=1-A\HF=-510.3355254
 \RMSD=7.998e-03\Dipole=0.3925767,-0.4600746,-0.0033466\Quadrupole=-2.6

 Normal termination of Gaussian 16 at Tue Apr  8 23:36:08 2025.
