 Gaussian 16, Revision C.01,

 ----------------------------------------------------------------------
 #t hf aug-cc-pvdz symm=none int=(grid=ultrafine) guess=(read,tcheck) s
 table=(opt,rrhf)
 ----------------------------------------------------------------------
 -----
 title
 -----
 Symbolic Z-matrix:
 Charge =  0 Multiplicity = 1

 SCF Done:  E(RHF) =  -366.939316881     A.U. after   11 cycles

 1\1\GINC-SE342\Stability\RHF\Aug-CC-pVDZ\C2H4Si1\OHZDE\08-Apr-2025\0\\
 #t hf aug-cc-pvdz symm=none int=(grid=ultrafine) guess=(read,tcheck) s
 table=(opt,rrhf)\\title\\0,1\Si,0,-1.060244,0.000004,-0.000005\C,0,0.7
 67531,-0.000007,0.000015\C,0,1.975354,-0.000018,0.000016\H,0,3.039395,
 0.000105,-0.000085\H,0,-1.551052,-1.211015,-0.691302\H,0,-1.551078,1.2
 04192,-0.703111\H,0,-1.551152,0.006816,1.394381\\Version=ES64L-G16RevC
 .01\HF=-366.9393169\RMSD=2.070e-09\Dipole=0.1609492,0.0000712,-0.00004
 85\Quadrupole=3.6779459,-1.8389721,-1.8389738,0.0002883,-0.000257,-0.0

 Normal termination of Gaussian 16 at Tue Apr  8 23:56:18 2025.
 Gaussian 16:  ES64L-G16RevC.01  3-Jul-2019

 ----------------------------------------------------------------------
 #t hf aug-cc-pvdz iop(5/13=1,5/36=2,99/5=2) pseudo=read geom=check gue
 ss=(read,tcheck) scf=(maxcycle=1)
 ----------------------------------------------------------------------
 -----
 title
 -----
 Structure from the checkpoint file:  "BDE49_nonexpt_2045_mol1.chk"
 Charge =  0 Multiplicity = 1

                         Standard orientation:
 ---------------------------------------------------------------------
 Center     Atomic      Atomic             Coordinates (Angstroms)
 Number     Number       Type             X           Y           Z
 ---------------------------------------------------------------------
      1         14           0        1.060244   -0.000004   -0.000005
      2          6           0       -0.767531    0.000007    0.000015
      3          6           0       -1.975354    0.000018    0.000016
      4          1           0       -3.039395   -0.000105   -0.000086
      5          1           0        1.551052    1.214105   -0.685862
      6          1           0        1.551078   -1.201025   -0.708506
      7          1           0        1.551152   -0.013072    1.394337
 ---------------------------------------------------------------------

 SCF Done:  E(RHF) =  -366.989166587     A.U. after    2 cycles

 The electronic state is 1-A.
 Alpha  occ. eigenvalues --  -69.08533 -11.25878 -11.23584  -6.83709  -3.94573
 Alpha  occ. eigenvalues --   -3.94479  -3.94479  -1.02467  -0.77452  -0.71261
 Alpha  occ. eigenvalues --   -0.55971  -0.50102  -0.50102  -0.40773  -0.40773
 Alpha virt. eigenvalues --    0.03250   0.04516   0.05784   0.05784   0.06052
 Alpha virt. eigenvalues --    0.08995   0.08995   0.10708   0.10708   0.12524
 Alpha virt. eigenvalues --    0.14441   0.15696   0.15696   0.16996   0.18103

 Mulliken charges:
               1
     1  Si   0.299892
     2  C   -1.302254
     3  C    1.627321
     4  H   -0.405187
     5  H   -0.073256
     6  H   -0.073255
     7  H   -0.073260
 Sum of Mulliken charges =   0.00000

 Dipole moment (field-independent basis, Debye):
    X=             -0.4527    Y=             -0.0002    Z=             -0.0001  Tot=              0.4527

 Test job not archived.
 1\1\GINC-SE342\SP\RHF\Aug-CC-pVDZ\C2H4Si1\OHZDE\08-Apr-2025\0\\#t hf a
 ug-cc-pvdz iop(5/13=1,5/36=2,99/5=2) pseudo=read geom=check guess=(rea
 d,tcheck) scf=(maxcycle=1)\\title\\0,1\Si,0,-1.060244,0.000004,-0.0000
 05\C,0,0.767531,-0.000007,0.000015\C,0,1.975354,-0.000018,0.000016\H,0
 ,3.039395,0.000105,-0.000085\H,0,-1.551052,-1.211015,-0.691302\H,0,-1.
 551078,1.204192,-0.703111\H,0,-1.551152,0.006816,1.394381\\Version=ES6
 4L-G16RevC.01\State=1-A\HF=-366.9891666\RMSD=1.215e-02\Dipole=0.178122
 6,0.0000717,-0.0000483\Quadrupole=3.6640595,-1.8320321,-1.8320274,0.00

 Normal termination of Gaussian 16 at Tue Apr  8 23:56:20 2025.
