 Gaussian 16, Revision C.01,

 ----------------------------------------------------------------------
 #t hf aug-cc-pvdz symm=none int=(grid=ultrafine) guess=(read,tcheck) s
 table=(opt,rrhf)
 ----------------------------------------------------------------------
 -----
 title
 -----
 Symbolic Z-matrix:
 Charge =  0 Multiplicity = 1

 SCF Done:  E(RHF) =  -588.727128448     A.U. after   14 cycles

 1\1\GINC-SE329\Stability\RHF\Aug-CC-pVDZ\Cl1N1O1\OHZDE\08-Apr-2025\0\\
 #t hf aug-cc-pvdz symm=none int=(grid=ultrafine) guess=(read,tcheck) s
 table=(opt,rrhf)\\title\\0,1\N,0,0.,1.004096,0.\O,0,1.111826,1.184137,
 0.\Cl,0,-0.523212,-0.970692,0.\\Version=ES64L-G16RevC.01\HF=-588.72712
 84\RMSD=6.161e-09\Dipole=0.4244967,1.0210666,0.\Quadrupole=-0.6467649,
 0.4710437,0.1757212,0.1361022,0.,0.\PG=Unknown\\@
 The archive entry for this job was punched.

 Normal termination of Gaussian 16 at Tue Apr  8 22:52:31 2025.
 Gaussian 16:  ES64L-G16RevC.01  3-Jul-2019

 ----------------------------------------------------------------------
 #t hf aug-cc-pvdz iop(5/13=1,5/36=2,99/5=2) pseudo=read geom=check gue
 ss=(read,tcheck) scf=(maxcycle=1)
 ----------------------------------------------------------------------
 -----
 title
 -----
 Structure from the checkpoint file:  "BDE49_expt_1835_mol1.chk"
 Charge =  0 Multiplicity = 1

                         Standard orientation:
 ---------------------------------------------------------------------
 Center     Atomic      Atomic             Coordinates (Angstroms)
 Number     Number       Type             X           Y           Z
 ---------------------------------------------------------------------
      1          7           0        0.000000    1.004096    0.000000
      2          8           0        1.111826    1.184137    0.000000
      3         17           0       -0.523212   -0.970692    0.000000
 ---------------------------------------------------------------------

 SCF Done:  E(RHF) =  -588.786495923     A.U. after    2 cycles

 The electronic state is 1-A'.
 Alpha  occ. eigenvalues -- -103.64781 -20.79664 -15.94075 -10.67933  -8.33582
 Alpha  occ. eigenvalues --   -8.33330  -8.33318  -1.66690  -1.12038  -0.98385
 Alpha  occ. eigenvalues --   -0.80374  -0.78167  -0.76088  -0.46039  -0.46001
 Alpha  occ. eigenvalues --   -0.43577
 Alpha virt. eigenvalues --    0.01908   0.03119   0.08619   0.11965   0.13460
 Alpha virt. eigenvalues --    0.13567   0.16989   0.17534   0.18584   0.22100
 Alpha virt. eigenvalues --    0.23181   0.25587   0.30124   0.36576   0.47175

 Mulliken charges:
               1
     1  N    0.283553
     2  O   -0.145919
     3  Cl  -0.137634
 Sum of Mulliken charges =  -0.00000

 Dipole moment (field-independent basis, Debye):
    X=              0.8556    Y=              2.6424    Z=              0.0000  Tot=              2.7775

 Test job not archived.
 1\1\GINC-SE329\SP\RHF\Aug-CC-pVDZ\Cl1N1O1\OHZDE\08-Apr-2025\0\\#t hf a
 ug-cc-pvdz iop(5/13=1,5/36=2,99/5=2) pseudo=read geom=check guess=(rea
 d,tcheck) scf=(maxcycle=1)\\title\\0,1\N,0,0.,1.004096,0.\O,0,1.111826
 ,1.184137,0.\Cl,0,-0.523212,-0.970692,0.\\Version=ES64L-G16RevC.01\Sta
 te=1-A'\HF=-588.7864959\RMSD=3.569e-03\Dipole=0.3366194,1.0395978,0.\Q
 uadrupole=-0.794318,0.5084202,0.2858977,-0.1031469,0.,0.\PG=CS [SG(Cl1
 N1O1)]\\@

 Normal termination of Gaussian 16 at Tue Apr  8 22:52:32 2025.
