 Gaussian 16, Revision C.01,

 ----------------------------------------------------------------------
 #t hf aug-cc-pvdz symm=none int=(grid=ultrafine) guess=(read,tcheck) s
 table=(opt,rrhf)
 ----------------------------------------------------------------------
 -----
 title
 -----
 Symbolic Z-matrix:
 Charge =  0 Multiplicity = 1

 SCF Done:  E(RHF) =  -408.652875742     A.U. after   16 cycles

 1\1\GINC-SE039\Stability\RHF\Aug-CC-pVDZ\C10H9B1\OHZDE\09-Apr-2025\0\\
 #t hf aug-cc-pvdz symm=none int=(grid=ultrafine) guess=(read,tcheck) s
 table=(opt,rrhf)\\title\\0,1\C,0,-0.739092,1.879528,0.\C,0,-2.111558,1
 .865288,0.\C,0,-2.80885,0.633426,0.\C,0,-2.123869,-0.558108,0.\C,0,-0.
 706023,-0.579032,0.\C,0,0.,0.665849,0.\H,0,-0.197212,2.819497,0.\H,0,-
 2.668069,2.795447,0.\H,0,-3.89315,0.634987,0.\H,0,-2.661419,-1.500444,
 0.\C,0,1.414713,0.644343,0.\C,0,2.14182,-0.542476,0.\C,0,0.038367,-1.7
 91161,0.\C,0,1.407374,-1.772136,0.\H,0,-0.501758,-2.73248,0.\H,0,1.960

 Normal termination of Gaussian 16 at Wed Apr  9 00:26:01 2025.
 Gaussian 16:  ES64L-G16RevC.01  3-Jul-2019

 ----------------------------------------------------------------------
 #t hf aug-cc-pvdz iop(5/13=1,5/36=2,99/5=2) pseudo=read geom=check gue
 ss=(read,tcheck) scf=(maxcycle=1)
 ----------------------------------------------------------------------
 -----
 title
 -----
 Structure from the checkpoint file:  "BDE49_nonexpt_273_mol1.chk"
 Charge =  0 Multiplicity = 1

                         Standard orientation:
 ---------------------------------------------------------------------
 Center     Atomic      Atomic             Coordinates (Angstroms)
 Number     Number       Type             X           Y           Z
 ---------------------------------------------------------------------
      1          6           0       -0.739092    1.879528   -0.000000
      2          6           0       -2.111558    1.865288   -0.000000
      3          6           0       -2.808850    0.633426    0.000000
      4          6           0       -2.123869   -0.558108    0.000000
      5          6           0       -0.706023   -0.579032    0.000000
      6          6           0        0.000000    0.665849   -0.000000
      7          1           0       -0.197212    2.819497   -0.000000
      8          1           0       -2.668069    2.795447   -0.000000
      9          1           0       -3.893150    0.634986    0.000000
     10          1           0       -2.661419   -1.500444    0.000000
     11          6           0        1.414713    0.644343   -0.000000
     12          6           0        2.141820   -0.542476   -0.000000
     13          6           0        0.038367   -1.791161    0.000000
     14          6           0        1.407374   -1.772136    0.000000
     15          1           0       -0.501757   -2.732480    0.000000
     16          1           0        1.960726   -2.705073    0.000000
     17          5           0        3.675861   -0.514965   -0.000000
     18          1           0        1.945580    1.591664   -0.000000
     19          1           0        4.255334    0.528618   -0.000000
     20          1           0        4.303364   -1.530509   -0.000000
 ---------------------------------------------------------------------

 SCF Done:  E(RHF) =  -408.769782617     A.U. after    2 cycles

 The electronic state is 1-A'.
 Alpha  occ. eigenvalues --  -11.26554 -11.26407 -11.25815 -11.25795 -11.25696
 Alpha  occ. eigenvalues --  -11.25235 -11.25212 -11.25191 -11.24690 -11.22493
 Alpha  occ. eigenvalues --   -7.60469  -1.17245  -1.10575  -1.05153  -1.00868
 Alpha  occ. eigenvalues --   -0.98437  -0.86199  -0.84657  -0.82138  -0.72482
 Alpha  occ. eigenvalues --   -0.71278  -0.69566  -0.64473  -0.63351  -0.61123
 Alpha  occ. eigenvalues --   -0.59692  -0.58964  -0.54975  -0.54232  -0.52198
 Alpha  occ. eigenvalues --   -0.49106  -0.47245  -0.47079  -0.45668  -0.39591
 Alpha  occ. eigenvalues --   -0.33172  -0.30025
 Alpha virt. eigenvalues --    0.03101   0.03554   0.03605   0.03832   0.04988
 Alpha virt. eigenvalues --    0.05155   0.06276   0.06450   0.06941   0.07973
 Alpha virt. eigenvalues --    0.08129   0.09219   0.10064   0.10105   0.11253

 Mulliken charges:
               1
     1  C    0.692370
     2  C    0.345770
     3  C    0.342452
     4  C    0.615261
     5  C   -0.151987
     6  C    0.507166
     7  H   -0.560590
     8  H   -0.453682
     9  H   -0.448115
    10  H   -0.575702
    11  C    0.353773
    12  C   -0.004411
    13  C    0.829155
    14  C    0.700945
    15  H   -0.620458
    16  H   -0.530174
    17  B   -1.263379
    18  H   -0.632959
    19  H    0.433831
    20  H    0.420734
 Sum of Mulliken charges =  -0.00000

 Dipole moment (field-independent basis, Debye):
    X=             -1.6246    Y=              0.3730    Z=              0.0000  Tot=              1.6669

 Test job not archived.
 1\1\GINC-SE039\SP\RHF\Aug-CC-pVDZ\C10H9B1\OHZDE\09-Apr-2025\0\\#t hf a
 ug-cc-pvdz iop(5/13=1,5/36=2,99/5=2) pseudo=read geom=check guess=(rea
 d,tcheck) scf=(maxcycle=1)\\title\\0,1\C,0,-0.739092,1.879528,0.\C,0,-
 2.111558,1.865288,0.\C,0,-2.80885,0.633426,0.\C,0,-2.123869,-0.558108,
 0.\C,0,-0.706023,-0.579032,0.\C,0,0.,0.665849,0.\H,0,-0.197212,2.81949
 7,0.\H,0,-2.668069,2.795447,0.\H,0,-3.89315,0.634987,0.\H,0,-2.661419,
 -1.500444,0.\C,0,1.414713,0.644343,0.\C,0,2.14182,-0.542476,0.\C,0,0.0
 38367,-1.791161,0.\C,0,1.407374,-1.772136,0.\H,0,-0.501758,-2.73248,0.

 Normal termination of Gaussian 16 at Wed Apr  9 00:26:19 2025.
