 Gaussian 16, Revision C.01,

 ----------------------------------------------------------------------
 #t hf aug-cc-pvdz symm=none int=(grid=ultrafine) guess=(read,tcheck) s
 table=(opt,rrhf)
 ----------------------------------------------------------------------
 -----
 title
 -----
 Symbolic Z-matrix:
 Charge =  0 Multiplicity = 1

 SCF Done:  E(RHF) =  -725.012919924     A.U. after   14 cycles
 Normal termination of Gaussian 16 at Tue Apr  8 22:42:56 2025.
 Gaussian 16:  ES64L-G16RevC.01  3-Jul-2019

 ----------------------------------------------------------------------
 #t hf aug-cc-pvdz iop(5/13=1,5/36=2,99/5=2) pseudo=read geom=check gue
 ss=(read,tcheck) scf=(maxcycle=1)
 ----------------------------------------------------------------------
 -----
 title
 -----
 Structure from the checkpoint file:  "BDE49_expt_149_mol1.chk"
 Charge =  0 Multiplicity = 1

                         Standard orientation:
 ---------------------------------------------------------------------
 Center     Atomic      Atomic             Coordinates (Angstroms)
 Number     Number       Type             X           Y           Z
 ---------------------------------------------------------------------
      1          6           0        0.000000    1.193321   -0.966500
      2          6           0       -0.000000    0.000000   -1.671546
      3          6           0       -0.000000   -1.193321   -0.966500
      4          1           0       -0.000000    0.000000   -2.752881
      5          9           0        0.000000   -2.361439   -1.621691
      6          6           0        0.000000    1.207379    0.423806
      7          9           0        0.000000    2.361439   -1.621691
      8          6           0        0.000000   -0.000000    1.115269
      9          6           0       -0.000000   -1.207379    0.423806
     10          9           0        0.000000   -2.360482    1.097542
     11          9           0        0.000000    2.360482    1.097542
     12          9           0        0.000000   -0.000000    2.448617
 ---------------------------------------------------------------------

 SCF Done:  E(RHF) =  -725.260606878     A.U. after    2 cycles

 The electronic state is 1-A1.
 Alpha  occ. eigenvalues --  -26.18334 -26.17824 -26.17821 -26.17754 -26.17751
 Alpha  occ. eigenvalues --  -11.39878 -11.39326 -11.39323 -11.38854 -11.38847
 Alpha  occ. eigenvalues --  -11.30271  -1.72902  -1.72231  -1.71943  -1.71304
 Alpha  occ. eigenvalues --   -1.71134  -1.22289  -1.09291  -1.09089  -0.96016
 Alpha  occ. eigenvalues --   -0.95685  -0.87876  -0.87335  -0.86117  -0.81868
 Alpha  occ. eigenvalues --   -0.81456  -0.81439  -0.79889  -0.79764  -0.79190
 Alpha  occ. eigenvalues --   -0.78034  -0.77741  -0.76227  -0.75912  -0.72720
 Alpha  occ. eigenvalues --   -0.67623  -0.63397  -0.62220  -0.55767  -0.39922
 Alpha  occ. eigenvalues --   -0.39094
 Alpha virt. eigenvalues --    0.03188   0.06133   0.07022   0.07471   0.08846
 Alpha virt. eigenvalues --    0.08965   0.09497   0.10003   0.10861   0.12727
 Alpha virt. eigenvalues --    0.12826   0.13118   0.14176   0.14497   0.15505

 Mulliken charges:
               1
     1  C    0.332681
     2  C    0.143019
     3  C    0.332681
     4  H   -0.356684
     5  F   -0.297869
     6  C    0.185608
     7  F   -0.297869
     8  C    0.464982
     9  C    0.185608
    10  F   -0.210525
    11  F   -0.210525
    12  F   -0.271106
 Sum of Mulliken charges =  -0.00000

 Dipole moment (field-independent basis, Debye):
    X=             -0.0000    Y=             -0.0000    Z=             -1.9927  Tot=              1.9927

 Test job not archived.
 1\1\GINC-SE082\SP\RHF\Aug-CC-pVDZ\C6H1F5\OHZDE\08-Apr-2025\0\\#t hf au
 g-cc-pvdz iop(5/13=1,5/36=2,99/5=2) pseudo=read geom=check guess=(read
 ,tcheck) scf=(maxcycle=1)\\title\\0,1\C,0,0.,1.193321,-0.9665\C,0,0.,0
 .,-1.671546\C,0,0.,-1.193321,-0.9665\H,0,0.,0.,-2.752881\F,0,0.,-2.361
 439,-1.621691\C,0,0.,1.207379,0.423806\F,0,0.,2.361439,-1.621691\C,0,0
 .,0.,1.115269\C,0,0.,-1.207379,0.423806\F,0,0.,-2.360482,1.097542\F,0,
 0.,2.360482,1.097542\F,0,0.,0.,2.448617\\Version=ES64L-G16RevC.01\Stat
 e=1-A1\HF=-725.2606069\RMSD=2.987e-02\Dipole=0.,0.,-0.7839967\Quadrupo

 Normal termination of Gaussian 16 at Tue Apr  8 22:43:02 2025.
