 Gaussian 16, Revision C.01,

 ----------------------------------------------------------------------
 #t hf aug-cc-pvdz symm=none int=(grid=ultrafine) guess=(read,tcheck) s
 table=opt
 ----------------------------------------------------------------------
 -----
 title
 -----
 Symbolic Z-matrix:
 Charge =  0 Multiplicity = 2

 SCF Done:  E(UHF) =  -1029.82831352     A.U. after   18 cycles

 1\1\GINC-SE048\Stability\UHF\Aug-CC-pVDZ\C6H13S2\OHZDE\08-Apr-2025\0\\
 #t hf aug-cc-pvdz symm=none int=(grid=ultrafine) guess=(read,tcheck) s
 table=opt\\title\\0,2\C,0,1.946068,-1.101554,-0.296102\S,0,1.029127,0.
 260142,-1.134133\C,0,-0.003268,0.918023,0.117343\C,0,-0.217231,2.40438
 4,0.149451\H,0,-0.468966,2.735208,1.1615\H,0,-1.051102,2.714364,-0.497
 115\H,0,0.677701,2.937721,-0.179605\S,0,-0.957584,-0.099222,1.182803\C
 ,0,-1.869247,-1.244137,0.05289\C,0,-2.931086,-0.557912,-0.797724\H,0,-
 2.311473,-1.974431,0.735591\H,0,-1.140051,-1.766247,-0.568471\H,0,-3.6

 Normal termination of Gaussian 16 at Tue Apr  8 23:05:37 2025.
 Gaussian 16:  ES64L-G16RevC.01  3-Jul-2019

 ----------------------------------------------------------------------
 #t hf aug-cc-pvdz iop(5/13=1,5/36=2,99/5=2) pseudo=read geom=check gue
 ss=(read,tcheck) scf=(maxcycle=1)
 ----------------------------------------------------------------------
 -----
 title
 -----
 Structure from the checkpoint file:  "BDE49_expt_377_mol2.chk"
 Charge =  0 Multiplicity = 2

                         Standard orientation:
 ---------------------------------------------------------------------
 Center     Atomic      Atomic             Coordinates (Angstroms)
 Number     Number       Type             X           Y           Z
 ---------------------------------------------------------------------
      1          6           0        1.946068   -1.101554   -0.296102
      2         16           0        1.029127    0.260142   -1.134133
      3          6           0       -0.003268    0.918023    0.117343
      4          6           0       -0.217231    2.404384    0.149451
      5          1           0       -0.468966    2.735208    1.161500
      6          1           0       -1.051102    2.714364   -0.497115
      7          1           0        0.677701    2.937721   -0.179605
      8         16           0       -0.957584   -0.099222    1.182803
      9          6           0       -1.869247   -1.244137    0.052890
     10          6           0       -2.931086   -0.557913   -0.797724
     11          1           0       -2.311473   -1.974431    0.735591
     12          1           0       -1.140051   -1.766247   -0.568471
     13          1           0       -3.668490   -0.048588   -0.173560
     14          1           0       -3.453735   -1.294562   -1.417059
     15          1           0       -2.479809    0.178990   -1.465556
     16          6           0        2.975634   -0.613092    0.716250
     17          1           0        2.417688   -1.639044   -1.122522
     18          1           0        1.219469   -1.769466    0.167918
     19          1           0        3.715901    0.036494    0.244143
     20          1           0        3.499258   -1.464981    1.162411
     21          1           0        2.493699   -0.054445    1.520976
 ---------------------------------------------------------------------

 SCF Done:  E(UHF) =  -1029.94468089     A.U. after    2 cycles

 The electronic state is 2-A.
 Alpha  occ. eigenvalues --  -93.53308 -93.53158 -11.29202 -11.27227 -11.27139
 Alpha  occ. eigenvalues --  -11.23736 -11.23352 -11.23230  -8.83052  -8.82886
 Alpha  occ. eigenvalues --   -6.17151  -6.16976  -6.16935  -6.16838  -6.16767
 Alpha  occ. eigenvalues --   -6.16645  -1.11042  -1.05197  -1.02988  -0.93750
 Alpha  occ. eigenvalues --   -0.92796  -0.85093  -0.82007  -0.71085  -0.63881
 Alpha  occ. eigenvalues --   -0.63225  -0.62235  -0.59109  -0.58555  -0.57339
 Alpha  occ. eigenvalues --   -0.54621  -0.53914  -0.53778  -0.51079  -0.50328
 Alpha  occ. eigenvalues --   -0.48989  -0.45849  -0.44900  -0.38225  -0.35153
 Alpha  occ. eigenvalues --   -0.29166
 Alpha virt. eigenvalues --    0.03483   0.04236   0.04310   0.05049   0.05818
 Alpha virt. eigenvalues --    0.05976   0.06305   0.06724   0.07774   0.08396
 Alpha virt. eigenvalues --    0.08567   0.09101   0.09679   0.10623   0.12015

  Beta  occ. eigenvalues --  -93.53338 -93.53217 -11.27027 -11.27012 -11.26576
  Beta  occ. eigenvalues --  -11.24055 -11.23353 -11.23221  -8.83084  -8.82944
  Beta  occ. eigenvalues --   -6.17373  -6.17242  -6.17085  -6.16949  -6.16635
  Beta  occ. eigenvalues --   -6.16538  -1.08264  -1.04853  -1.01320  -0.93599
  Beta  occ. eigenvalues --   -0.92631  -0.83925  -0.81784  -0.67938  -0.63396
  Beta  occ. eigenvalues --   -0.62825  -0.60394  -0.58213  -0.57675  -0.55823
  Beta  occ. eigenvalues --   -0.54000  -0.53639  -0.53532  -0.50976  -0.49599
  Beta  occ. eigenvalues --   -0.47933  -0.44413  -0.41998  -0.35499  -0.33963
  Beta virt. eigenvalues --    0.03500   0.04246   0.04325   0.04919   0.05827
  Beta virt. eigenvalues --    0.05939   0.06306   0.06688   0.07766   0.08397
  Beta virt. eigenvalues --    0.08528   0.08991   0.09464   0.09827   0.10726

 Mulliken charges and spin densities:
               1          2
     1  C   -0.025495   0.032433
     2  S    0.259000  -0.095209
     3  C   -0.575499   1.316253
     4  C    0.453130  -0.224194
     5  H   -0.055676   0.016174
     6  H    0.010118   0.044095
     7  H   -0.072495   0.007594
     8  S    0.202214  -0.145967
     9  C    0.008313   0.071963
    10  C    0.310590  -0.006517
    11  H   -0.075208  -0.004202
    12  H   -0.139170  -0.004004
    13  H   -0.064012   0.000355
    14  H   -0.077747   0.000901
    15  H   -0.068403  -0.004830
    16  C    0.315569   0.003778
    17  H   -0.081423  -0.003933
    18  H   -0.119585  -0.000768
    19  H   -0.073604   0.000796
    20  H   -0.073175  -0.000109
    21  H   -0.057442  -0.004611
 Sum of Mulliken charges =  -0.00000   1.00000

 Dipole moment (field-independent basis, Debye):
    X=             -0.0917    Y=             -1.0016    Z=             -0.2061  Tot=              1.0267
                          Isotropic Fermi Contact Couplings
        Atom                 a.u.       MegaHertz       Gauss      10(-4) cm-1
     1  C(13)              0.02209      24.82912       8.85965       8.28210
     2  S(33)              0.00889       3.05457       1.08995       1.01889
     3  C(13)              0.27225     306.06134     109.21030     102.09107
     4  C(13)             -0.06010     -67.56367     -24.10840     -22.53682
     5  H(1)               0.01002      44.76983      15.97499      14.93361
     6  H(1)               0.02350     105.04374      37.48222      35.03882
     7  H(1)               0.00464      20.73924       7.40028       6.91787
     8  S(33)              0.02741       9.41524       3.35959       3.14059

 Normal termination of Gaussian 16 at Tue Apr  8 23:05:49 2025.
