 Gaussian 16, Revision C.01,

 ----------------------------------------------------------------------
 #t hf aug-cc-pvdz symm=none int=(grid=ultrafine) guess=(read,tcheck) s
 table=opt
 ----------------------------------------------------------------------
 -----
 title
 -----
 Symbolic Z-matrix:
 Charge =  0 Multiplicity = 2

 SCF Done:  E(UHF) =  -651.381590358     A.U. after   20 cycles
 Normal termination of Gaussian 16 at Wed Apr  9 00:01:26 2025.
 Gaussian 16:  ES64L-G16RevC.01  3-Jul-2019

 ----------------------------------------------------------------------
 #t hf aug-cc-pvdz iop(5/13=1,5/36=2,99/5=2) pseudo=read geom=check gue
 ss=(read,tcheck) scf=(maxcycle=1)
 ----------------------------------------------------------------------
 -----
 title
 -----
 Structure from the checkpoint file:  "BDE49_nonexpt_218_mol2.chk"
 Charge =  0 Multiplicity = 2

                         Standard orientation:
 ---------------------------------------------------------------------
 Center     Atomic      Atomic             Coordinates (Angstroms)
 Number     Number       Type             X           Y           Z
 ---------------------------------------------------------------------
      1          5           0        0.638914    1.010458    0.000002
      2          6           0       -1.521778   -0.009756   -0.000004
      3          7           0       -2.276834   -0.882542    0.000003
      4          8           0       -0.728827    1.023555    0.000001
      5         17           0        1.629679   -0.412023   -0.000001
 ---------------------------------------------------------------------

 SCF Done:  E(UHF) =  -651.463473215     A.U. after    2 cycles

 The electronic state is 2-A.
 Alpha  occ. eigenvalues -- -103.70693 -20.71195 -15.66225 -11.38099 -10.74196
 Alpha  occ. eigenvalues --   -8.40010  -8.39624  -8.39584  -7.78809  -1.48271
 Alpha  occ. eigenvalues --   -1.21448  -1.20519  -0.95002  -0.76699  -0.72209
 Alpha  occ. eigenvalues --   -0.66993  -0.57406  -0.54453  -0.53568  -0.48479
 Alpha  occ. eigenvalues --   -0.47538  -0.41713
 Alpha virt. eigenvalues --    0.03367   0.04443   0.04910   0.05227   0.07315
 Alpha virt. eigenvalues --    0.10285   0.11015   0.11133   0.12273   0.15123
 Alpha virt. eigenvalues --    0.15154   0.17201   0.18483   0.18757   0.20451

  Beta  occ. eigenvalues -- -103.70583 -20.71050 -15.66407 -11.37812 -10.74068
  Beta  occ. eigenvalues --   -8.39710  -8.39580  -8.39399  -7.76434  -1.47787
  Beta  occ. eigenvalues --   -1.21519  -1.19515  -0.93284  -0.75845  -0.72140
  Beta  occ. eigenvalues --   -0.63870  -0.57607  -0.53517  -0.52580  -0.48559
  Beta  occ. eigenvalues --   -0.47872
  Beta virt. eigenvalues --    0.01488   0.04466   0.04987   0.05311   0.08932
  Beta virt. eigenvalues --    0.10493   0.10683   0.11146   0.11156   0.12568
  Beta virt. eigenvalues --    0.15336   0.15337   0.17322   0.18668   0.18898

 Mulliken charges and spin densities:
               1          2
     1  B    0.286246   1.054034
     2  C   -0.020799   0.119866
     3  N   -0.033919  -0.067078
     4  O   -0.070636  -0.131964
     5  Cl  -0.160892   0.025143
 Sum of Mulliken charges =  -0.00000   1.00000

 Dipole moment (field-independent basis, Debye):
    X=              2.2656    Y=              1.9313    Z=             -0.0000  Tot=              2.9770
                          Isotropic Fermi Contact Couplings
        Atom                 a.u.       MegaHertz       Gauss      10(-4) cm-1
     1  B(11)              0.49404     708.63340     252.85802     236.37466
     2  C(13)              0.05181      58.24786      20.78429      19.42940
     3  N(14)             -0.01298      -4.19265      -1.49604      -1.39852
     4  O(17)              0.16724    -101.38089     -36.17522     -33.81702
     5  Cl(35)             0.10598      46.47017      16.58171      15.50078
 --------------------------------------------------------
       Center         ----  Spin Dipole Couplings  ----
                      3XX-RR        3YY-RR        3ZZ-RR

 1\1\GINC-SE460\SP\UHF\Aug-CC-pVDZ\C1B1Cl1N1O1(2)\OHZDE\09-Apr-2025\0\\
 #t hf aug-cc-pvdz iop(5/13=1,5/36=2,99/5=2) pseudo=read geom=check gue
 ss=(read,tcheck) scf=(maxcycle=1)\\title\\0,2\B,0,0.638914,1.010458,0.
 000002\C,0,-1.521778,-0.009756,-0.000004\N,0,-2.276834,-0.882542,0.000
 003\O,0,-0.728827,1.023555,0.000001\Cl,0,1.629679,-0.412023,-0.000001\
 \Version=ES64L-G16RevC.01\State=2-A\HF=-651.4634732\S2=0.755487\S2-1=0
 .\S2A=0.750025\RMSD=2.490e-03\Dipole=0.8913439,0.7598302,-0.0000038\Qu
 adrupole=-3.3139084,0.3483829,2.9655255,-2.9889655,0.0000112,-0.000004

 Normal termination of Gaussian 16 at Wed Apr  9 00:01:28 2025.
