 Gaussian 16, Revision C.01,

 ----------------------------------------------------------------------
 #t hf aug-cc-pvdz symm=none int=(grid=ultrafine) guess=(read,tcheck) s
 table=opt
 ----------------------------------------------------------------------
 -----
 title
 -----
 Symbolic Z-matrix:
 Charge =  0 Multiplicity = 2

 SCF Done:  E(UHF) =  -329.674262362     A.U. after   13 cycles

 1\1\GINC-SE049\Stability\UHF\Aug-CC-pVDZ\C1H5Si1\OHZDE\08-Apr-2025\0\\
 #t hf aug-cc-pvdz symm=none int=(grid=ultrafine) guess=(read,tcheck) s
 table=opt\\title\\0,2\Si,0,0.676508,0.,-0.100354\C,0,-1.204458,0.,0.02
 9217\H,0,1.266532,1.212994,0.525528\H,0,1.266532,-1.212994,0.525528\H,
 0,-1.630007,0.88483,-0.450305\H,0,-1.517407,-0.000001,1.079205\H,0,-1.
 630007,-0.884829,-0.450306\\Version=ES64L-G16RevC.01\HF=-329.6742624\S
 2=0.754064\S2-1=0.\S2A=0.750007\RMSD=6.290e-09\Dipole=-0.3181422,-0.00
 00001,0.0283826\Quadrupole=-0.1671389,0.157236,0.009903,0.0000004,0.10

 Normal termination of Gaussian 16 at Tue Apr  8 22:43:38 2025.
 Gaussian 16:  ES64L-G16RevC.01  3-Jul-2019

 ----------------------------------------------------------------------
 #t hf aug-cc-pvdz iop(5/13=1,5/36=2,99/5=2) pseudo=read geom=check gue
 ss=(read,tcheck) scf=(maxcycle=1)
 ----------------------------------------------------------------------
 -----
 title
 -----
 Structure from the checkpoint file:  "BDE49_expt_1537_mol2.chk"
 Charge =  0 Multiplicity = 2

                         Standard orientation:
 ---------------------------------------------------------------------
 Center     Atomic      Atomic             Coordinates (Angstroms)
 Number     Number       Type             X           Y           Z
 ---------------------------------------------------------------------
      1         14           0        0.676508    0.000000   -0.100354
      2          6           0       -1.204458    0.000000    0.029217
      3          1           0        1.266532    1.212994    0.525528
      4          1           0        1.266532   -1.212994    0.525528
      5          1           0       -1.630007    0.884830   -0.450305
      6          1           0       -1.517407   -0.000001    1.079205
      7          1           0       -1.630007   -0.884829   -0.450306
 ---------------------------------------------------------------------

 SCF Done:  E(UHF) =  -329.709850936     A.U. after    2 cycles

 The electronic state is 2-A.
 Alpha  occ. eigenvalues --  -69.06733 -11.22662  -6.82077  -3.93425  -3.92535
 Alpha  occ. eigenvalues --   -3.92532  -0.94670  -0.68124  -0.56948  -0.56827
 Alpha  occ. eigenvalues --   -0.47372  -0.46264  -0.31721
 Alpha virt. eigenvalues --    0.03464   0.05018   0.05498   0.05669   0.07836
 Alpha virt. eigenvalues --    0.08622   0.08979   0.09616   0.14252   0.16109
 Alpha virt. eigenvalues --    0.16133   0.16427   0.16506   0.19312   0.19616

  Beta  occ. eigenvalues --  -69.06173 -11.22625  -6.81238  -3.92145  -3.92143
  Beta  occ. eigenvalues --   -3.91274  -0.94146  -0.64037  -0.56744  -0.55808
  Beta  occ. eigenvalues --   -0.46556  -0.45472
  Beta virt. eigenvalues --    0.03153   0.04180   0.05233   0.05559   0.06794
  Beta virt. eigenvalues --    0.07998   0.08673   0.09978   0.10972   0.15281
  Beta virt. eigenvalues --    0.16178   0.16532   0.16860   0.17280   0.21412

 Mulliken charges and spin densities:
               1          2
     1  Si   0.557342   0.984232
     2  C    0.126557  -0.001575
     3  H   -0.086148   0.004475
     4  H   -0.086147   0.004475
     5  H   -0.170444  -0.001778
     6  H   -0.170714   0.011949
     7  H   -0.170445  -0.001778
 Sum of Mulliken charges =  -0.00000   1.00000

 Dipole moment (field-independent basis, Debye):
    X=             -0.8012    Y=             -0.0000    Z=              0.0252  Tot=              0.8016
                          Isotropic Fermi Contact Couplings
        Atom                 a.u.       MegaHertz       Gauss      10(-4) cm-1
     1  Si(29)             0.52497    -466.55872    -166.47975    -155.62724
     2  C(13)              0.00786       8.84129       3.15479       2.94914
     3  H(1)               0.00258      11.54536       4.11967       3.85112
     4  H(1)               0.00258      11.54537       4.11967       3.85112
     5  H(1)               0.00047       2.11758       0.75561       0.70635
     6  H(1)               0.01037      46.35089      16.53915      15.46099
     7  H(1)               0.00047       2.11762       0.75562       0.70636
 --------------------------------------------------------

 Normal termination of Gaussian 16 at Tue Apr  8 22:43:39 2025.
