 Gaussian 16, Revision C.01,

 ----------------------------------------------------------------------
 #t hf aug-cc-pvdz symm=none int=(grid=ultrafine) guess=(read,tcheck) s
 table=(opt,rrhf)
 ----------------------------------------------------------------------
 -----
 title
 -----
 Symbolic Z-matrix:
 Charge =  0 Multiplicity = 1

 SCF Done:  E(RHF) =  -1084.66009994     A.U. after   14 cycles
 Normal termination of Gaussian 16 at Tue Apr  8 23:54:19 2025.
 Gaussian 16:  ES64L-G16RevC.01  3-Jul-2019

 ----------------------------------------------------------------------
 #t hf aug-cc-pvdz iop(5/13=1,5/36=2,99/5=2) pseudo=read geom=check gue
 ss=(read,tcheck) scf=(maxcycle=1)
 ----------------------------------------------------------------------
 -----
 title
 -----
 Structure from the checkpoint file:  "BDE49_nonexpt_1983_mol1.chk"
 Charge =  0 Multiplicity = 1

                         Standard orientation:
 ---------------------------------------------------------------------
 Center     Atomic      Atomic             Coordinates (Angstroms)
 Number     Number       Type             X           Y           Z
 ---------------------------------------------------------------------
      1         14           0        0.355480    0.457678    0.479615
      2          6           0       -1.237313   -0.248412   -0.167093
      3         17           0        1.913003   -0.753762   -0.166680
      4          9           0        0.550927    1.898899   -0.210647
      5          9           0       -1.558123   -1.500735    0.077836
      6          9           0       -2.334348    0.479274   -0.187023
 ---------------------------------------------------------------------

 SCF Done:  E(RHF) =  -1084.83047357     A.U. after    2 cycles

 The electronic state is 1-A.
 Alpha  occ. eigenvalues -- -103.67701 -69.17809 -26.21909 -26.21899 -26.13689
 Alpha  occ. eigenvalues --  -11.50467 -10.71115  -8.36804  -8.36566  -8.36551
 Alpha  occ. eigenvalues --   -6.92090  -4.02793  -4.02746  -4.02521  -1.79293
 Alpha  occ. eigenvalues --   -1.74122  -1.66204  -1.15868  -1.04206  -0.89915
 Alpha  occ. eigenvalues --   -0.89309  -0.85511  -0.81757  -0.79024  -0.77367
 Alpha  occ. eigenvalues --   -0.74719  -0.74601  -0.68114  -0.57954  -0.50975
 Alpha  occ. eigenvalues --   -0.50296  -0.34434
 Alpha virt. eigenvalues --   -0.02054   0.05146   0.05482   0.06069   0.07176
 Alpha virt. eigenvalues --    0.10702   0.11221   0.11930   0.13550   0.14517
 Alpha virt. eigenvalues --    0.15541   0.16454   0.17796   0.21058   0.21352

 Mulliken charges:
               1
     1  Si   1.199960
     2  C    0.410636
     3  Cl  -0.433102
     4  F   -0.664935
     5  F   -0.250703
     6  F   -0.261857
 Sum of Mulliken charges =  -0.00000

 Dipole moment (field-independent basis, Debye):
    X=             -0.3259    Y=             -0.3555    Z=              0.6549  Tot=              0.8133

 Test job not archived.
 1\1\GINC-SE364\SP\RHF\Aug-CC-pVDZ\C1Cl1F3Si1\OHZDE\08-Apr-2025\0\\#t h
 f aug-cc-pvdz iop(5/13=1,5/36=2,99/5=2) pseudo=read geom=check guess=(
 read,tcheck) scf=(maxcycle=1)\\title\\0,1\Si,0,0.35548,0.457678,0.4796
 15\C,0,-1.237313,-0.248412,-0.167093\Cl,0,1.913003,-0.753762,-0.16668\
 F,0,0.550927,1.898899,-0.210647\F,0,-1.558123,-1.500735,0.077836\F,0,-
 2.334348,0.479274,-0.187023\\Version=ES64L-G16RevC.01\State=1-A\HF=-10
 84.8304736\RMSD=5.166e-03\Dipole=-0.1282075,-0.1398571,0.2576761\Quadr
 upole=-0.3156051,-1.6638083,1.9794134,0.0339109,1.2737191,1.3592606\PG

 Normal termination of Gaussian 16 at Tue Apr  8 23:54:21 2025.
