 Gaussian 16, Revision C.01,

 ----------------------------------------------------------------------
 #t hf aug-cc-pvdz symm=none int=(grid=ultrafine) guess=(read,tcheck) s
 table=(opt,rrhf)
 ----------------------------------------------------------------------
 -----
 title
 -----
 Symbolic Z-matrix:
 Charge =  0 Multiplicity = 1

 SCF Done:  E(RHF) =  -498.633633729     A.U. after   12 cycles

 1\1\GINC-SE102\Stability\RHF\Aug-CC-pVDZ\C4H11P1\OHZDE\08-Apr-2025\0\\
 #t hf aug-cc-pvdz symm=none int=(grid=ultrafine) guess=(read,tcheck) s
 table=(opt,rrhf)\\title\\0,1\P,0,-0.449251,-0.001573,-0.585997\C,0,-1.
 812109,-0.962639,0.23258\H,0,-1.769237,-0.907347,1.325075\H,0,-1.75138
 3,-2.01085,-0.07039\H,0,-2.778669,-0.577422,-0.101371\C,0,1.007929,-0.
 690699,0.357\C,0,-0.666472,1.626839,0.283096\H,0,-1.600886,2.087747,-0
 .046857\H,0,0.145914,2.304416,0.011147\H,0,-0.690838,1.520755,1.372639
 \C,0,2.344,-0.041413,-0.023303\H,0,1.041703,-1.761717,0.129413\H,0,0.8

 Normal termination of Gaussian 16 at Tue Apr  8 23:26:10 2025.
 Gaussian 16:  ES64L-G16RevC.01  3-Jul-2019

 ----------------------------------------------------------------------
 #t hf aug-cc-pvdz iop(5/13=1,5/36=2,99/5=2) pseudo=read geom=check gue
 ss=(read,tcheck) scf=(maxcycle=1)
 ----------------------------------------------------------------------
 -----
 title
 -----
 Structure from the checkpoint file:  "BDE49_nonexpt_1309_mol1.chk"
 Charge =  0 Multiplicity = 1

                         Standard orientation:
 ---------------------------------------------------------------------
 Center     Atomic      Atomic             Coordinates (Angstroms)
 Number     Number       Type             X           Y           Z
 ---------------------------------------------------------------------
      1         15           0       -0.449251   -0.001573   -0.585997
      2          6           0       -1.812109   -0.962639    0.232580
      3          1           0       -1.769237   -0.907347    1.325075
      4          1           0       -1.751383   -2.010850   -0.070390
      5          1           0       -2.778669   -0.577422   -0.101371
      6          6           0        1.007929   -0.690699    0.357000
      7          6           0       -0.666472    1.626839    0.283096
      8          1           0       -1.600886    2.087747   -0.046857
      9          1           0        0.145914    2.304416    0.011147
     10          1           0       -0.690838    1.520755    1.372639
     11          6           0        2.344000   -0.041413   -0.023303
     12          1           0        1.041703   -1.761717    0.129413
     13          1           0        0.828458   -0.600101    1.435158
     14          1           0        2.536798   -0.132228   -1.095685
     15          1           0        3.174878   -0.515018    0.507325
     16          1           0        2.361936    1.022829    0.227260
 ---------------------------------------------------------------------

 SCF Done:  E(RHF) =  -498.710875789     A.U. after    2 cycles

 The electronic state is 1-A.
 Alpha  occ. eigenvalues --  -81.24139 -11.23380 -11.22901 -11.22883 -11.22859
 Alpha  occ. eigenvalues --   -7.74389  -4.88383  -4.88363  -4.88017  -1.02599
 Alpha  occ. eigenvalues --   -0.96808  -0.92792  -0.84499  -0.68231  -0.61794
 Alpha  occ. eigenvalues --   -0.59148  -0.57982  -0.56843  -0.55110  -0.54480
 Alpha  occ. eigenvalues --   -0.51551  -0.49828  -0.44641  -0.42914  -0.31587
 Alpha virt. eigenvalues --    0.03658   0.04371   0.04625   0.05298   0.06541
 Alpha virt. eigenvalues --    0.06614   0.07098   0.07561   0.08106   0.08791
 Alpha virt. eigenvalues --    0.09648   0.10204   0.12305   0.12924   0.14503

 Mulliken charges:
               1
     1  P    0.449609
     2  C    0.340393
     3  H   -0.154502
     4  H   -0.166114
     5  H   -0.162977
     6  C    0.079728
     7  C    0.311294
     8  H   -0.160224
     9  H   -0.168837
    10  H   -0.136768
    11  C    0.336706
    12  H   -0.172645
    13  H   -0.167670
    14  H   -0.070156
    15  H   -0.053489
    16  H   -0.104346
 Sum of Mulliken charges =  -0.00000

 Dipole moment (field-independent basis, Debye):
    X=              0.0121    Y=             -0.0572    Z=              1.3146  Tot=              1.3159

 Test job not archived.
 1\1\GINC-SE102\SP\RHF\Aug-CC-pVDZ\C4H11P1\OHZDE\08-Apr-2025\0\\#t hf a
 ug-cc-pvdz iop(5/13=1,5/36=2,99/5=2) pseudo=read geom=check guess=(rea
 d,tcheck) scf=(maxcycle=1)\\title\\0,1\P,0,-0.449251,-0.001573,-0.5859
 97\C,0,-1.812109,-0.962639,0.23258\H,0,-1.769237,-0.907347,1.325075\H,
 0,-1.751383,-2.01085,-0.07039\H,0,-2.778669,-0.577422,-0.101371\C,0,1.
 007929,-0.690699,0.357\C,0,-0.666472,1.626839,0.283096\H,0,-1.600886,2
 .087747,-0.046857\H,0,0.145914,2.304416,0.011147\H,0,-0.690838,1.52075
 5,1.372639\C,0,2.344,-0.041413,-0.023303\H,0,1.041703,-1.761717,0.1294

 Normal termination of Gaussian 16 at Tue Apr  8 23:26:15 2025.
