 Gaussian 16, Revision C.01,

 ----------------------------------------------------------------------
 #t hf aug-cc-pvdz symm=none int=(grid=ultrafine) guess=(read,tcheck) s
 table=(opt,rrhf)
 ----------------------------------------------------------------------
 -----
 title
 -----
 Symbolic Z-matrix:
 Charge =  0 Multiplicity = 1

 SCF Done:  E(RHF) =  -1084.44653822     A.U. after   13 cycles

 1\1\GINC-SE187\Stability\RHF\Aug-CC-pVDZ\F4S1Si1\OHZDE\09-Apr-2025\0\\
 #t hf aug-cc-pvdz symm=none int=(grid=ultrafine) guess=(read,tcheck) s
 table=(opt,rrhf)\\title\\0,1\F,0,-2.107364,-0.748005,0.000078\S,0,-1.3
 42601,0.745778,-0.000004\Si,0,0.641547,-0.020933,-0.000013\F,0,0.96708
 1,-0.904351,1.264856\F,0,0.967026,-0.904463,-1.264817\F,0,1.562143,1.2
 63552,-0.00009\\Version=ES64L-G16RevC.01\HF=-1084.4465382\RMSD=3.481e-
 09\Dipole=-0.0173095,0.5259547,-0.0000238\Quadrupole=-0.3507956,0.6278
 793,-0.2770838,-1.5006209,0.000065,-0.000005\PG=Unknown\\@

 Normal termination of Gaussian 16 at Wed Apr  9 00:19:08 2025.
 Gaussian 16:  ES64L-G16RevC.01  3-Jul-2019

 ----------------------------------------------------------------------
 #t hf aug-cc-pvdz iop(5/13=1,5/36=2,99/5=2) pseudo=read geom=check gue
 ss=(read,tcheck) scf=(maxcycle=1)
 ----------------------------------------------------------------------
 -----
 title
 -----
 Structure from the checkpoint file:  "BDE49_nonexpt_2624_mol1.chk"
 Charge =  0 Multiplicity = 1

                         Standard orientation:
 ---------------------------------------------------------------------
 Center     Atomic      Atomic             Coordinates (Angstroms)
 Number     Number       Type             X           Y           Z
 ---------------------------------------------------------------------
      1          9           0       -2.107364   -0.748005    0.000078
      2         16           0       -1.342601    0.745778   -0.000004
      3         14           0        0.641547   -0.020933   -0.000013
      4          9           0        0.967081   -0.904351    1.264856
      5          9           0        0.967026   -0.904463   -1.264817
      6          9           0        1.562143    1.263552   -0.000090
 ---------------------------------------------------------------------

 SCF Done:  E(RHF) =  -1084.66618048     A.U. after    2 cycles

 The electronic state is 1-A.
 Alpha  occ. eigenvalues --  -93.65310 -69.26373 -26.17050 -26.16410 -26.16410
 Alpha  occ. eigenvalues --  -26.16382  -8.94378  -6.99774  -6.28556  -6.28139
 Alpha  occ. eigenvalues --   -6.27804  -4.10843  -4.10781  -4.10680  -1.70999
 Alpha  occ. eigenvalues --   -1.69391  -1.68928  -1.67118  -1.01060  -0.89421
 Alpha  occ. eigenvalues --   -0.83488  -0.83039  -0.80583  -0.78163  -0.78044
 Alpha  occ. eigenvalues --   -0.76756  -0.76562  -0.75785  -0.75453  -0.74288
 Alpha  occ. eigenvalues --   -0.71174  -0.52315  -0.43897
 Alpha virt. eigenvalues --    0.01745   0.04993   0.05711   0.06260   0.07166
 Alpha virt. eigenvalues --    0.10765   0.12418   0.13685   0.18039   0.18752
 Alpha virt. eigenvalues --    0.18860   0.19801   0.20970   0.22513   0.23658

 Mulliken charges:
               1
     1  F   -0.613983
     2  S    0.279104
     3  Si   2.672074
     4  F   -0.788109
     5  F   -0.788109
     6  F   -0.760978
 Sum of Mulliken charges =  -0.00000

 Dipole moment (field-independent basis, Debye):
    X=             -0.0795    Y=              1.7325    Z=             -0.0001  Tot=              1.7343

 Test job not archived.
 1\1\GINC-SE187\SP\RHF\Aug-CC-pVDZ\F4S1Si1\OHZDE\09-Apr-2025\0\\#t hf a
 ug-cc-pvdz iop(5/13=1,5/36=2,99/5=2) pseudo=read geom=check guess=(rea
 d,tcheck) scf=(maxcycle=1)\\title\\0,1\F,0,-2.107364,-0.748005,0.00007
 8\S,0,-1.342601,0.745778,-0.000004\Si,0,0.641547,-0.020933,-0.000013\F
 ,0,0.967081,-0.904351,1.264856\F,0,0.967026,-0.904463,-1.264817\F,0,1.
 562143,1.263552,-0.00009\\Version=ES64L-G16RevC.01\State=1-A\HF=-1084.
 6661805\RMSD=5.117e-03\Dipole=-0.0312964,0.6816018,-0.0000303\Quadrupo
 le=-0.5668307,0.7727366,-0.2059059,-1.9455283,0.0000906,0.0000016\PG=C

 Normal termination of Gaussian 16 at Wed Apr  9 00:19:11 2025.
