 Gaussian 16, Revision C.01,

 ----------------------------------------------------------------------
 #t hf aug-cc-pvdz symm=none int=(grid=ultrafine) guess=(read,tcheck) s
 table=(opt,rrhf)
 ----------------------------------------------------------------------
 -----
 title
 -----
 Symbolic Z-matrix:
 Charge =  0 Multiplicity = 1

 SCF Done:  E(RHF) =  -616.568022435     A.U. after   16 cycles
 Normal termination of Gaussian 16 at Wed Apr  9 00:25:56 2025.
 Gaussian 16:  ES64L-G16RevC.01  3-Jul-2019

 ----------------------------------------------------------------------
 #t hf aug-cc-pvdz iop(5/13=1,5/36=2,99/5=2) pseudo=read geom=check gue
 ss=(read,tcheck) scf=(maxcycle=1)
 ----------------------------------------------------------------------
 -----
 title
 -----
 Structure from the checkpoint file:  "BDE49_nonexpt_304_mol1.chk"
 Charge =  0 Multiplicity = 1

                         Standard orientation:
 ---------------------------------------------------------------------
 Center     Atomic      Atomic             Coordinates (Angstroms)
 Number     Number       Type             X           Y           Z
 ---------------------------------------------------------------------
      1          6           0       -0.058362   -0.493532    0.234214
      2          5           0        1.340562    0.240891   -0.144149
      3          7           0       -1.315672    0.327449   -0.227217
      4          8           0        2.339432   -0.582796   -0.516175
      5          8           0        1.478827    1.576800   -0.047482
      6          8           0       -1.305307    1.506596    0.113467
      7          8           0       -2.177828   -0.236350   -0.851354
      8          9           0       -0.201055   -1.717495   -0.273356
      9          9           0       -0.203334   -0.566423    1.586491
     10          1           0        0.651124    2.021062    0.190827
     11          1           0        3.164458   -0.115206   -0.690716
 ---------------------------------------------------------------------

 SCF Done:  E(RHF) =  -616.775894557     A.U. after    2 cycles

 The electronic state is 1-A.
 Alpha  occ. eigenvalues --  -26.19324 -26.19191 -20.66814 -20.65324 -20.62628
 Alpha  occ. eigenvalues --  -20.62196 -15.94901 -11.50679  -7.72287  -1.76295
 Alpha  occ. eigenvalues --   -1.71341  -1.58928  -1.41193  -1.38915  -1.35596
 Alpha  occ. eigenvalues --   -1.10204  -0.95040  -0.88740  -0.87447  -0.86180
 Alpha  occ. eigenvalues --   -0.81784  -0.79390  -0.78751  -0.77761  -0.76154
 Alpha  occ. eigenvalues --   -0.75070  -0.74137  -0.68628  -0.63380  -0.63064
 Alpha  occ. eigenvalues --   -0.59822  -0.56342  -0.55913  -0.52319  -0.51128
 Alpha virt. eigenvalues --    0.02952   0.04035   0.04830   0.05179   0.05699
 Alpha virt. eigenvalues --    0.07590   0.08453   0.10427   0.11087   0.13540
 Alpha virt. eigenvalues --    0.14276   0.15421   0.16461   0.18443   0.19033

 Mulliken charges:
               1
     1  C    1.012515
     2  B    0.650026
     3  N    0.338448
     4  O   -0.393691
     5  O   -0.423147
     6  O   -0.587967
     7  O   -0.476612
     8  F   -0.266514
     9  F   -0.352238
    10  H    0.284443
    11  H    0.214737
 Sum of Mulliken charges =  -0.00000

 Dipole moment (field-independent basis, Debye):
    X=              2.9794    Y=              0.9125    Z=             -0.1691  Tot=              3.1206

 Test job not archived.
 1\1\GINC-SE455\SP\RHF\Aug-CC-pVDZ\C1H2B1F2N1O4\OHZDE\09-Apr-2025\0\\#t
  hf aug-cc-pvdz iop(5/13=1,5/36=2,99/5=2) pseudo=read geom=check guess
 =(read,tcheck) scf=(maxcycle=1)\\title\\0,1\C,0,-0.058362,-0.493532,0.
 234214\B,0,1.340562,0.240891,-0.144149\N,0,-1.315672,0.327449,-0.22721
 7\O,0,2.339432,-0.582796,-0.516175\O,0,1.478827,1.5768,-0.047482\O,0,-
 1.305307,1.506596,0.113467\O,0,-2.177828,-0.23635,-0.851354\F,0,-0.201
 055,-1.717495,-0.273356\F,0,-0.203334,-0.566423,1.586491\H,0,0.651124,
 2.021062,0.190827\H,0,3.164458,-0.115205,-0.690716\\Version=ES64L-G16R

 Normal termination of Gaussian 16 at Wed Apr  9 00:26:01 2025.
