 Gaussian 16, Revision C.01,

 ----------------------------------------------------------------------
 #t hf aug-cc-pvdz symm=none int=(grid=ultrafine) guess=(read,tcheck) s
 table=(opt,rrhf)
 ----------------------------------------------------------------------
 -----
 title
 -----
 Symbolic Z-matrix:
 Charge =  0 Multiplicity = 1

 SCF Done:  E(RHF) =  -159.574248825     A.U. after   12 cycles
 Normal termination of Gaussian 16 at Wed Apr  9 00:35:50 2025.
 Gaussian 16:  ES64L-G16RevC.01  3-Jul-2019

 ----------------------------------------------------------------------
 #t hf aug-cc-pvdz iop(5/13=1,5/36=2,99/5=2) pseudo=read geom=check gue
 ss=(read,tcheck) scf=(maxcycle=1)
 ----------------------------------------------------------------------
 -----
 title
 -----
 Structure from the checkpoint file:  "BDE49_nonexpt_552_mol1.chk"
 Charge =  0 Multiplicity = 1

                         Standard orientation:
 ---------------------------------------------------------------------
 Center     Atomic      Atomic             Coordinates (Angstroms)
 Number     Number       Type             X           Y           Z
 ---------------------------------------------------------------------
      1          5           0       -1.913447    0.026879    0.332167
      2          7           0       -0.727993   -0.264265   -0.327243
      3          6           0        1.679622   -0.245444    0.312378
      4          6           0        0.509152    0.513034   -0.315223
      5          1           0        0.310003    1.431349    0.240808
      6          1           0        0.767524    0.807573   -1.339851
      7          1           0        1.886466   -1.173412   -0.230295
      8          1           0        2.588971    0.361721    0.290504
      9          1           0        1.461337   -0.503979    1.351505
     10          1           0       -1.984003    1.021763    0.988775
     11          1           0       -2.833598   -0.725040    0.225151
     12          1           0       -0.666157   -1.110057   -0.879657
 ---------------------------------------------------------------------

 SCF Done:  E(RHF) =  -159.628452834     A.U. after    2 cycles

 The electronic state is 1-A.
 Alpha  occ. eigenvalues --  -15.61875 -11.27050 -11.23108  -7.59136  -1.16045
 Alpha  occ. eigenvalues --   -0.99163  -0.84246  -0.72388  -0.64546  -0.59986
 Alpha  occ. eigenvalues --   -0.57755  -0.53871  -0.52344  -0.49630  -0.45692
 Alpha  occ. eigenvalues --   -0.39710
 Alpha virt. eigenvalues --    0.03370   0.04095   0.04444   0.04825   0.06534
 Alpha virt. eigenvalues --    0.07126   0.07284   0.07791   0.09010   0.10910
 Alpha virt. eigenvalues --    0.11874   0.13106   0.13913   0.14568   0.15270

 Mulliken charges:
               1
     1  B   -0.501683
     2  N   -0.288815
     3  C    0.263344
     4  C    0.646706
     5  H   -0.234690
     6  H   -0.119853
     7  H   -0.081760
     8  H   -0.047115
     9  H   -0.066425
    10  H    0.130608
    11  H    0.330139
    12  H   -0.030457
 Sum of Mulliken charges =  -0.00000

 Dipole moment (field-independent basis, Debye):
    X=              1.6047    Y=             -0.3274    Z=             -0.7722  Tot=              1.8107

 Test job not archived.
 1\1\GINC-SE329\SP\RHF\Aug-CC-pVDZ\C2H8B1N1\OHZDE\09-Apr-2025\0\\#t hf
 aug-cc-pvdz iop(5/13=1,5/36=2,99/5=2) pseudo=read geom=check guess=(re
 ad,tcheck) scf=(maxcycle=1)\\title\\0,1\B,0,-1.913447,0.026879,0.33216
 7\N,0,-0.727993,-0.264265,-0.327243\C,0,1.679622,-0.245444,0.312378\C,
 0,0.509152,0.513034,-0.315223\H,0,0.310003,1.431349,0.240808\H,0,0.767
 524,0.807573,-1.339851\H,0,1.886466,-1.173412,-0.230295\H,0,2.588971,0
 .361721,0.290504\H,0,1.461337,-0.503979,1.351505\H,0,-1.984003,1.02176
 3,0.988775\H,0,-2.833598,-0.72504,0.225151\H,0,-0.666157,-1.110057,-0.

 Normal termination of Gaussian 16 at Wed Apr  9 00:35:53 2025.
