 Gaussian 16, Revision C.01,

 ----------------------------------------------------------------------
 #t hf aug-cc-pvdz symm=none int=(grid=ultrafine) guess=(read,tcheck) s
 table=(opt,rrhf)
 ----------------------------------------------------------------------
 -----
 title
 -----
 Symbolic Z-matrix:
 Charge =  0 Multiplicity = 1

 SCF Done:  E(RHF) =  -429.211799504     A.U. after   14 cycles
 Normal termination of Gaussian 16 at Wed Apr  9 00:44:53 2025.
 Gaussian 16:  ES64L-G16RevC.01  3-Jul-2019

 ----------------------------------------------------------------------
 #t hf aug-cc-pvdz iop(5/13=1,5/36=2,99/5=2) pseudo=read geom=check gue
 ss=(read,tcheck) scf=(maxcycle=1)
 ----------------------------------------------------------------------
 -----
 title
 -----
 Structure from the checkpoint file:  "BDE49_nonexpt_818_mol1.chk"
 Charge =  0 Multiplicity = 1

                         Standard orientation:
 ---------------------------------------------------------------------
 Center     Atomic      Atomic             Coordinates (Angstroms)
 Number     Number       Type             X           Y           Z
 ---------------------------------------------------------------------
      1          6           0       -1.122937   -0.280551    0.386841
      2          5           0        2.004565   -0.808509   -0.170118
      3          8           0       -2.037231   -0.265716   -0.401895
      4         14           0        0.576597    0.591928    0.044421
      5          1           0        2.785382   -0.800792   -1.068227
      6          1           0        2.085712   -1.686347    0.632091
      7          1           0        0.397210    1.531026   -1.083782
      8          1           0        0.907970    1.346867    1.285839
      9          1           0       -1.235987   -0.826172    1.356892
 ---------------------------------------------------------------------

 SCF Done:  E(RHF) =  -429.277560385     A.U. after    2 cycles

 The electronic state is 1-A.
 Alpha  occ. eigenvalues --  -69.06820 -20.58708 -11.33827  -7.64434  -6.82384
 Alpha  occ. eigenvalues --   -3.93164  -3.93135  -3.93089  -1.36465  -0.84852
 Alpha  occ. eigenvalues --   -0.74274  -0.68296  -0.66101  -0.59145  -0.55085
 Alpha  occ. eigenvalues --   -0.52517  -0.48597  -0.43842  -0.39698
 Alpha virt. eigenvalues --    0.01675   0.03286   0.04314   0.04377   0.05978
 Alpha virt. eigenvalues --    0.07020   0.07390   0.07561   0.08389   0.08957
 Alpha virt. eigenvalues --    0.09835   0.10499   0.12992   0.13606   0.14721

 Mulliken charges:
               1
     1  C    0.224468
     2  B   -0.607790
     3  O   -0.448123
     4  Si   0.303240
     5  H    0.367024
     6  H    0.314409
     7  H   -0.001420
     8  H    0.002178
     9  H   -0.153985
 Sum of Mulliken charges =  -0.00000

 Dipole moment (field-independent basis, Debye):
    X=              2.8187    Y=             -0.1782    Z=              1.4867  Tot=              3.1917

 Test job not archived.
 1\1\GINC-SE105\SP\RHF\Aug-CC-pVDZ\C1H5B1O1Si1\OHZDE\09-Apr-2025\0\\#t
 hf aug-cc-pvdz iop(5/13=1,5/36=2,99/5=2) pseudo=read geom=check guess=
 (read,tcheck) scf=(maxcycle=1)\\title\\0,1\C,0,1.122937,0.280551,0.386
 841\B,0,-2.004565,0.808509,-0.170118\O,0,2.037231,0.265716,-0.401895\S
 i,0,-0.576597,-0.591928,0.044421\H,0,-2.785382,0.800792,-1.068227\H,0,
 -2.085712,1.686347,0.632091\H,0,-0.39721,-1.531026,-1.083782\H,0,-0.90
 797,-1.346867,1.285839\H,0,1.235987,0.826172,1.356892\\Version=ES64L-G
 16RevC.01\State=1-A\HF=-429.2775604\RMSD=5.273e-03\Dipole=-1.1089431,0

 Normal termination of Gaussian 16 at Wed Apr  9 00:44:56 2025.
