 Gaussian 16, Revision C.01,

 ----------------------------------------------------------------------
 #t hf aug-cc-pvdz symm=none int=(grid=ultrafine) guess=(read,tcheck) s
 table=(opt,rrhf)
 ----------------------------------------------------------------------
 -----
 title
 -----
 Symbolic Z-matrix:
 Charge =  0 Multiplicity = 1

 SCF Done:  E(RHF) =  -344.623457477     A.U. after   15 cycles
 Normal termination of Gaussian 16 at Tue Apr  8 22:41:04 2025.
 Gaussian 16:  ES64L-G16RevC.01  3-Jul-2019

 ----------------------------------------------------------------------
 #t hf aug-cc-pvdz iop(5/13=1,5/36=2,99/5=2) pseudo=read geom=check gue
 ss=(read,tcheck) scf=(maxcycle=1)
 ----------------------------------------------------------------------
 -----
 title
 -----
 Structure from the checkpoint file:  "BDE49_expt_1395_mol1.chk"
 Charge =  0 Multiplicity = 1

                         Standard orientation:
 ---------------------------------------------------------------------
 Center     Atomic      Atomic             Coordinates (Angstroms)
 Number     Number       Type             X           Y           Z
 ---------------------------------------------------------------------
      1          6           0        0.885595   -2.128047    0.000000
      2          6           0        1.805419   -1.076346    0.000000
      3          6           0        1.371054    0.240891    0.000000
      4          6           0       -0.473482   -1.838740    0.000000
      5          6           0       -0.926884   -0.517667    0.000000
      6          6           0        0.000000    0.528174    0.000000
      7          1           0        1.227964   -3.155999    0.000000
      8          1           0        2.869464   -1.285458    0.000000
      9          1           0        2.069658    1.068861    0.000000
     10          1           0       -1.200027   -2.643890    0.000000
     11          1           0       -1.990341   -0.320030    0.000000
     12          8           0       -0.325952    1.853082    0.000000
     13          6           0       -1.698627    2.212910    0.000000
     14          1           0       -1.721295    3.301608    0.000000
     15          1           0       -2.213131    1.841599    0.893787
     16          1           0       -2.213131    1.841599   -0.893787
 ---------------------------------------------------------------------

 SCF Done:  E(RHF) =  -344.730013651     A.U. after    2 cycles

 The electronic state is 1-A'.
 Alpha  occ. eigenvalues --  -20.59902 -11.31113 -11.29725 -11.24898 -11.24760
 Alpha  occ. eigenvalues --  -11.24033 -11.23604 -11.23514  -1.36865  -1.13788
 Alpha  occ. eigenvalues --   -1.01936  -1.00984  -0.94105  -0.83506  -0.81050
 Alpha  occ. eigenvalues --   -0.72919  -0.67193  -0.66980  -0.66539  -0.62304
 Alpha  occ. eigenvalues --   -0.59448  -0.58404  -0.53195  -0.53103  -0.51842
 Alpha  occ. eigenvalues --   -0.48769  -0.47580  -0.34330  -0.31693
 Alpha virt. eigenvalues --    0.03360   0.03990   0.04227   0.05536   0.05858
 Alpha virt. eigenvalues --    0.05875   0.07267   0.08930   0.10140   0.10603
 Alpha virt. eigenvalues --    0.12006   0.13190   0.13398   0.13742   0.14156

 Mulliken charges:
               1
     1  C    0.380359
     2  C    0.711387
     3  C    0.278979
     4  C    0.585002
     5  C    0.280723
     6  C    0.680731
     7  H   -0.443520
     8  H   -0.430422
     9  H   -0.521159
    10  H   -0.443348
    11  H   -0.722134
    12  O   -0.701853
    13  C    0.820845
    14  H   -0.304754
    15  H   -0.085419
    16  H   -0.085419
 Sum of Mulliken charges =  -0.00000

 Dipole moment (field-independent basis, Debye):
    X=             -1.4070    Y=             -0.1152    Z=              0.0000  Tot=              1.4117

 Test job not archived.
 1\1\GINC-SE334\SP\RHF\Aug-CC-pVDZ\C7H8O1\OHZDE\08-Apr-2025\0\\#t hf au
 g-cc-pvdz iop(5/13=1,5/36=2,99/5=2) pseudo=read geom=check guess=(read
 ,tcheck) scf=(maxcycle=1)\\title\\0,1\C,0,2.281208,0.330075,0.\C,0,1.8
 49478,-0.998744,0.\C,0,0.495758,-1.300785,0.\C,0,1.336302,1.348868,0.\
 C,0,-0.030467,1.061209,0.\C,0,-0.453548,-0.270669,0.\H,0,3.339372,0.56
 2866,0.\H,0,2.574327,-1.805288,0.\H,0,0.14278,-2.324987,0.\H,0,1.65536
 5,2.385369,0.\H,0,-0.745162,1.873129,0.\O,0,-1.758298,-0.669737,0.\C,0
 ,-2.77073,0.324595,0.\H,0,-3.717222,-0.213857,0.\H,0,-2.715545,0.95668

 Normal termination of Gaussian 16 at Tue Apr  8 22:41:09 2025.
