 Gaussian 16, Revision C.01,

 ----------------------------------------------------------------------
 #t hf aug-cc-pvdz symm=none int=(grid=ultrafine) guess=(read,tcheck) s
 table=(opt,rrhf)
 ----------------------------------------------------------------------
 -----
 title
 -----
 Symbolic Z-matrix:
 Charge =  0 Multiplicity = 1

 SCF Done:  E(RHF) =  -457.919010651     A.U. after   11 cycles
 Normal termination of Gaussian 16 at Tue Apr  8 23:57:20 2025.
 Gaussian 16:  ES64L-G16RevC.01  3-Jul-2019

 ----------------------------------------------------------------------
 #t hf aug-cc-pvdz iop(5/13=1,5/36=2,99/5=2) pseudo=read geom=check gue
 ss=(read,tcheck) scf=(maxcycle=1)
 ----------------------------------------------------------------------
 -----
 title
 -----
 Structure from the checkpoint file:  "BDE49_nonexpt_2063_mol1.chk"
 Charge =  0 Multiplicity = 1

                         Standard orientation:
 ---------------------------------------------------------------------
 Center     Atomic      Atomic             Coordinates (Angstroms)
 Number     Number       Type             X           Y           Z
 ---------------------------------------------------------------------
      1         14           0        1.594109   -0.000074    0.000018
      2          6           0       -1.312023    0.000078   -0.000002
      3          8           0       -2.481114   -0.000152    0.000035
      4          7           0       -0.117209    0.000332   -0.000095
      5          1           0        2.074955    1.223249   -0.672757
      6          1           0        2.074426   -1.194577   -0.723048
      7          1           0        2.074608   -0.029218    1.395953
 ---------------------------------------------------------------------

 SCF Done:  E(RHF) =  -458.003681740     A.U. after    2 cycles

 The electronic state is 1-A.
 Alpha  occ. eigenvalues --  -69.11716 -20.62479 -15.64816 -11.42608  -6.86551
 Alpha  occ. eigenvalues --   -3.97518  -3.97292  -3.97292  -1.42913  -1.22402
 Alpha  occ. eigenvalues --   -0.83606  -0.74050  -0.66327  -0.66327  -0.63704
 Alpha  occ. eigenvalues --   -0.52467  -0.52466  -0.44472  -0.44472
 Alpha virt. eigenvalues --    0.03226   0.04560   0.05203   0.05203   0.08777
 Alpha virt. eigenvalues --    0.08777   0.09745   0.10907   0.10908   0.12681
 Alpha virt. eigenvalues --    0.14090   0.16840   0.16841   0.17407   0.20732

 Mulliken charges:
               1
     1  Si   0.720359
     2  C   -0.054698
     3  O   -0.230190
     4  N   -0.234031
     5  H   -0.067090
     6  H   -0.067185
     7  H   -0.067165
 Sum of Mulliken charges =  -0.00000

 Dipole moment (field-independent basis, Debye):
    X=              2.6943    Y=             -0.0001    Z=              0.0001  Tot=              2.6943

 Test job not archived.
 1\1\GINC-SE454\SP\RHF\Aug-CC-pVDZ\C1H3N1O1Si1\OHZDE\08-Apr-2025\0\\#t
 hf aug-cc-pvdz iop(5/13=1,5/36=2,99/5=2) pseudo=read geom=check guess=
 (read,tcheck) scf=(maxcycle=1)\\title\\0,1\Si,0,-1.594109,-0.000073,-0
 .000018\C,0,1.312023,0.000078,0.000003\O,0,2.481114,-0.000152,-0.00003
 6\N,0,0.117209,0.000332,0.000097\H,0,-2.074955,1.218824,0.680742\H,0,-
 2.074426,-1.199279,0.715222\H,0,-2.074608,-0.020089,-1.396114\\Version
 =ES64L-G16RevC.01\State=1-A\HF=-458.0036817\RMSD=5.624e-03\Dipole=-1.0
 600196,-0.0000225,-0.000034\Quadrupole=-3.3343906,1.667199,1.6671916,0

 Normal termination of Gaussian 16 at Tue Apr  8 23:57:22 2025.
