 Gaussian 16, Revision C.01,

 ----------------------------------------------------------------------
 #t hf aug-cc-pvdz symm=none int=(grid=ultrafine) guess=(read,tcheck) s
 table=opt
 ----------------------------------------------------------------------
 -----
 title
 -----
 Symbolic Z-matrix:
 Charge =  0 Multiplicity = 2

 SCF Done:  E(UHF) =  -336.171477855     A.U. after   13 cycles
 Normal termination of Gaussian 16 at Tue Apr  8 22:26:15 2025.
 Gaussian 16:  ES64L-G16RevC.01  3-Jul-2019

 ----------------------------------------------------------------------
 #t hf aug-cc-pvdz iop(5/13=1,5/36=2,99/5=2) pseudo=read geom=check gue
 ss=(read,tcheck) scf=(maxcycle=1)
 ----------------------------------------------------------------------
 -----
 title
 -----
 Structure from the checkpoint file:  "BDE49_expt_1000_mol3.chk"
 Charge =  0 Multiplicity = 2

                         Standard orientation:
 ---------------------------------------------------------------------
 Center     Atomic      Atomic             Coordinates (Angstroms)
 Number     Number       Type             X           Y           Z
 ---------------------------------------------------------------------
      1          6           0        0.000045   -0.000001    0.328306
      2          9           0       -0.621265    1.098162   -0.072961
      3          9           0       -0.640525   -1.087043   -0.072961
      4          9           0        1.261759   -0.011118   -0.072948
 ---------------------------------------------------------------------

 SCF Done:  E(UHF) =  -336.299008073     A.U. after    2 cycles

 The electronic state is 2-A.
 Alpha  occ. eigenvalues --  -26.19746 -26.19745 -26.19731 -11.54857  -1.79717
 Alpha  occ. eigenvalues --   -1.72876  -1.72875  -1.05702  -0.91431  -0.91429
 Alpha  occ. eigenvalues --   -0.89621  -0.80602  -0.80601  -0.76145  -0.76143
 Alpha  occ. eigenvalues --   -0.74690  -0.51536
 Alpha virt. eigenvalues --    0.08200   0.08938   0.08938   0.08946   0.23844
 Alpha virt. eigenvalues --    0.23845   0.25088   0.25088   0.26834   0.31827
 Alpha virt. eigenvalues --    0.31981   0.31983   0.34455   0.34987   0.35290

  Beta  occ. eigenvalues --  -26.19240 -26.19239 -26.19223 -11.51830  -1.77914
  Beta  occ. eigenvalues --   -1.71373  -1.71371  -1.02001  -0.90032  -0.90030
  Beta  occ. eigenvalues --   -0.82965  -0.77748  -0.77747  -0.75253  -0.75252
  Beta  occ. eigenvalues --   -0.74287
  Beta virt. eigenvalues --    0.04269   0.09042   0.09047   0.09047   0.13842
  Beta virt. eigenvalues --    0.23931   0.23932   0.25265   0.25265   0.27190
  Beta virt. eigenvalues --    0.32866   0.33684   0.33685   0.34466   0.36257

 Mulliken charges and spin densities:
               1          2
     1  C    0.773325   0.927981
     2  F   -0.257766   0.024004
     3  F   -0.257768   0.024004
     4  F   -0.257792   0.024010
 Sum of Mulliken charges =  -0.00000   1.00000

 Dipole moment (field-independent basis, Debye):
    X=              0.0002    Y=             -0.0000    Z=              0.7922  Tot=              0.7922
                          Isotropic Fermi Contact Couplings
        Atom                 a.u.       MegaHertz       Gauss      10(-4) cm-1
     1  C(13)              0.68451     769.51478     274.58201     256.68250
     2  F(19)              0.09310     391.70281     139.76930     130.65799
     3  F(19)              0.09310     391.70451     139.76991     130.65856
     4  F(19)              0.09312     391.79936     139.80375     130.69020
 --------------------------------------------------------
       Center         ----  Spin Dipole Couplings  ----
                      3XX-RR        3YY-RR        3ZZ-RR
 --------------------------------------------------------

 Normal termination of Gaussian 16 at Tue Apr  8 22:26:16 2025.
