 Gaussian 16, Revision C.01,

 ----------------------------------------------------------------------
 #t hf aug-cc-pvdz symm=none int=(grid=ultrafine) guess=(read,tcheck) s
 table=opt
 ----------------------------------------------------------------------
 -----
 title
 -----
 Symbolic Z-matrix:
 Charge =  0 Multiplicity = 2

 SCF Done:  E(UHF) =  -549.879377865     A.U. after   19 cycles
 Normal termination of Gaussian 16 at Tue Apr  8 23:19:53 2025.
 Gaussian 16:  ES64L-G16RevC.01  3-Jul-2019

 ----------------------------------------------------------------------
 #t hf aug-cc-pvdz iop(5/13=1,5/36=2,99/5=2) pseudo=read geom=check gue
 ss=(read,tcheck) scf=(maxcycle=1)
 ----------------------------------------------------------------------
 -----
 title
 -----
 Structure from the checkpoint file:  "BDE49_nonexpt_1146_mol2.chk"
 Charge =  0 Multiplicity = 2

                         Standard orientation:
 ---------------------------------------------------------------------
 Center     Atomic      Atomic             Coordinates (Angstroms)
 Number     Number       Type             X           Y           Z
 ---------------------------------------------------------------------
      1          8           0        0.587636    1.401470   -0.000029
      2          6           0        0.394182    0.205639    0.000084
      3         16           0       -1.313962   -0.252126   -0.000027
      4          6           0        1.465156   -0.846602    0.000020
      5          1           0        2.445859   -0.369135   -0.000157
      6          1           0        1.360087   -1.481500   -0.883392
      7          1           0        1.360332   -1.481322    0.883590
 ---------------------------------------------------------------------

 SCF Done:  E(UHF) =  -549.945739616     A.U. after    2 cycles

 The electronic state is 2-A.
 Alpha  occ. eigenvalues --  -93.58214 -20.58511 -11.39064 -11.27213  -8.88092
 Alpha  occ. eigenvalues --   -6.23442  -6.21743  -6.21281  -1.38284  -1.05949
 Alpha  occ. eigenvalues --   -0.98971  -0.75667  -0.66841  -0.65415  -0.63570
 Alpha  occ. eigenvalues --   -0.57375  -0.54679  -0.47023  -0.44119  -0.40849
 Alpha virt. eigenvalues --    0.03173   0.05344   0.05841   0.07159   0.09066
 Alpha virt. eigenvalues --    0.10938   0.12065   0.12794   0.13526   0.14532
 Alpha virt. eigenvalues --    0.14541   0.15833   0.16390   0.17083   0.20164

  Beta  occ. eigenvalues --  -93.57287 -20.58294 -11.39179 -11.27209  -8.87058
  Beta  occ. eigenvalues --   -6.21222  -6.20691  -6.19380  -1.37673  -1.04415
  Beta  occ. eigenvalues --   -0.93249  -0.74155  -0.65454  -0.63739  -0.63521
  Beta  occ. eigenvalues --   -0.56511  -0.54494  -0.43153  -0.38531
  Beta virt. eigenvalues --   -0.00410   0.03312   0.05348   0.05936   0.07334
  Beta virt. eigenvalues --    0.09197   0.10826   0.12837   0.13531   0.13666
  Beta virt. eigenvalues --    0.14533   0.15320   0.16065   0.16786   0.17175

 Mulliken charges and spin densities:
               1          2
     1  O   -0.474688   0.019093
     2  C   -0.124868  -0.115148
     3  S    0.234186   1.094551
     4  C    0.315816  -0.001421
     5  H   -0.037507   0.001507
     6  H    0.043515   0.000708
     7  H    0.043546   0.000710
 Sum of Mulliken charges =  -0.00000   1.00000

 Dipole moment (field-independent basis, Debye):
    X=              0.7444    Y=             -3.2883    Z=              0.0002  Tot=              3.3715
                          Isotropic Fermi Contact Couplings
        Atom                 a.u.       MegaHertz       Gauss      10(-4) cm-1
     1  O(17)              0.03193     -19.35698      -6.90705      -6.45679
     2  C(13)             -0.01961     -22.04046      -7.86458      -7.35191
     3  S(33)              0.21404      73.51856      26.23325      24.52315
     4  C(13)              0.00074       0.83458       0.29780       0.27839
     5  H(1)               0.00169       7.56310       2.69870       2.52278
     6  H(1)               0.00012       0.53596       0.19124       0.17878
     7  H(1)               0.00012       0.53387       0.19050       0.17808
 --------------------------------------------------------

 Normal termination of Gaussian 16 at Tue Apr  8 23:19:56 2025.
