 Gaussian 16, Revision C.01,

 ----------------------------------------------------------------------
 #t hf aug-cc-pvdz symm=none int=(grid=ultrafine) guess=(read,tcheck) s
 table=(opt,rrhf)
 ----------------------------------------------------------------------
 -----
 title
 -----
 Symbolic Z-matrix:
 Charge =  0 Multiplicity = 1

 SCF Done:  E(RHF) =  -931.384923246     A.U. after   15 cycles
 Normal termination of Gaussian 16 at Wed Apr  9 00:04:23 2025.
 Gaussian 16:  ES64L-G16RevC.01  3-Jul-2019

 ----------------------------------------------------------------------
 #t hf aug-cc-pvdz iop(5/13=1,5/36=2,99/5=2) pseudo=read geom=check gue
 ss=(read,tcheck) scf=(maxcycle=1)
 ----------------------------------------------------------------------
 -----
 title
 -----
 Structure from the checkpoint file:  "BDE49_nonexpt_2209_mol1.chk"
 Charge =  0 Multiplicity = 1

                         Standard orientation:
 ---------------------------------------------------------------------
 Center     Atomic      Atomic             Coordinates (Angstroms)
 Number     Number       Type             X           Y           Z
 ---------------------------------------------------------------------
      1          6           0       -1.209817    0.041626   -0.035645
      2          6           0       -0.666193    1.328984   -0.022392
      3          6           0        0.708218    1.507511   -0.008639
      4          6           0       -0.363340   -1.064286   -0.033361
      5          6           0        1.016926   -0.892086   -0.019946
      6          6           0        1.557385    0.396289   -0.005802
      7          1           0       -0.780404   -2.063011   -0.050441
      8          1           0        1.665914   -1.760342   -0.023188
      9          8           0        2.897553    0.636354    0.007001
     10         14           0        4.200429   -0.402545    0.012597
     11          1           0       -1.321855    2.190783   -0.032374
     12          1           0        1.147528    2.496937   -0.002968
     13          6           0       -2.698462   -0.139586    0.002381
     14          9           0       -3.343477    0.812338   -0.709818
     15          9           0       -3.187135   -0.068245    1.265136
     16          9           0       -3.081052   -1.338019   -0.491527
     17          1           0        5.380530    0.477033    0.028660
     18          1           0        4.190242   -1.253605   -1.198068
     19          1           0        4.168289   -1.268382    1.212317
 ---------------------------------------------------------------------

 SCF Done:  E(RHF) =  -931.628113573     A.U. after    2 cycles

 The electronic state is 1-A.
 Alpha  occ. eigenvalues --  -69.11631 -26.16101 -26.15938 -26.15461 -20.60478
 Alpha  occ. eigenvalues --  -11.52504 -11.34250 -11.27865 -11.27684 -11.27243
 Alpha  occ. eigenvalues --  -11.26420 -11.25939  -6.86433  -3.97348  -3.97192
 Alpha  occ. eigenvalues --   -3.97165  -1.75233  -1.68438  -1.67893  -1.36489
 Alpha  occ. eigenvalues --   -1.17300  -1.07411  -1.04097  -0.99390  -0.89467
 Alpha  occ. eigenvalues --   -0.88593  -0.86899  -0.85573  -0.81917  -0.77733
 Alpha  occ. eigenvalues --   -0.76636  -0.76352  -0.72370  -0.71864  -0.70893
 Alpha  occ. eigenvalues --   -0.69946  -0.68035  -0.66062  -0.63686  -0.63261
 Alpha  occ. eigenvalues --   -0.61744  -0.57867  -0.55925  -0.52345  -0.52216
 Alpha  occ. eigenvalues --   -0.48874  -0.48736  -0.36829  -0.35025
 Alpha virt. eigenvalues --    0.02781   0.03853   0.04289   0.05247   0.05597
 Alpha virt. eigenvalues --    0.06183   0.06926   0.08231   0.08637   0.08876
 Alpha virt. eigenvalues --    0.09103   0.09336   0.10263   0.11205   0.11617

 Mulliken charges:
               1
     1  C    1.030595
     2  C    0.125439
     3  C    0.683416
     4  C    0.039242
     5  C    0.999689
     6  C   -0.022334
     7  H   -0.550049
     8  H   -0.618061
     9  O   -0.834975
    10  Si   0.269955
    11  H   -0.556882
    12  H   -0.539022
    13  C    0.727354
    14  F   -0.334885
    15  F   -0.336027
    16  F   -0.323711
    17  H    0.050650
    18  H    0.093473
    19  H    0.096135
 Sum of Mulliken charges =  -0.00000

 Dipole moment (field-independent basis, Debye):
    X=              3.6682    Y=             -0.3859    Z=             -0.0933  Tot=              3.6896

 Test job not archived.
 1\1\GINC-SE458\SP\RHF\Aug-CC-pVDZ\C7H7F3O1Si1\OHZDE\09-Apr-2025\0\\#t
 hf aug-cc-pvdz iop(5/13=1,5/36=2,99/5=2) pseudo=read geom=check guess=
 (read,tcheck) scf=(maxcycle=1)\\title\\0,1\C,0,-1.209817,0.041626,-0.0
 35645\C,0,-0.666193,1.328984,-0.022392\C,0,0.708218,1.507511,-0.008639
 \C,0,-0.36334,-1.064286,-0.033361\C,0,1.016926,-0.892086,-0.019946\C,0
 ,1.557385,0.396289,-0.005802\H,0,-0.780404,-2.063011,-0.050441\H,0,1.6
 65914,-1.760342,-0.023188\O,0,2.897553,0.636354,0.007001\Si,0,4.200429
 ,-0.402545,0.012597\H,0,-1.321855,2.190783,-0.032374\H,0,1.147528,2.49

 Normal termination of Gaussian 16 at Wed Apr  9 00:04:35 2025.
