 Gaussian 16, Revision C.01,

 ----------------------------------------------------------------------
 #t hf aug-cc-pvdz symm=none int=(grid=ultrafine) guess=(read,tcheck) s
 table=(opt,rrhf)
 ----------------------------------------------------------------------
 -----
 title
 -----
 Symbolic Z-matrix:
 Charge =  0 Multiplicity = 1

 SCF Done:  E(RHF) =  -576.063014661     A.U. after   14 cycles
 Normal termination of Gaussian 16 at Wed Apr  9 00:00:11 2025.
 Gaussian 16:  ES64L-G16RevC.01  3-Jul-2019

 ----------------------------------------------------------------------
 #t hf aug-cc-pvdz iop(5/13=1,5/36=2,99/5=2) pseudo=read geom=check gue
 ss=(read,tcheck) scf=(maxcycle=1)
 ----------------------------------------------------------------------
 -----
 title
 -----
 Structure from the checkpoint file:  "BDE49_nonexpt_2116_mol1.chk"
 Charge =  0 Multiplicity = 1

                         Standard orientation:
 ---------------------------------------------------------------------
 Center     Atomic      Atomic             Coordinates (Angstroms)
 Number     Number       Type             X           Y           Z
 ---------------------------------------------------------------------
      1          6           0       -0.939851   -0.127232    0.000012
      2          7           0        2.245411    0.288666   -0.000021
      3          8           0        2.309882   -0.924164   -0.000017
      4          6           0       -2.229962    0.721867    0.000020
      5          1           0       -2.300703    1.361650   -0.885177
      6          1           0       -2.300679    1.361671    0.885203
      7          6           0       -0.900126   -1.013616    1.263329
      8          1           0       -0.927252   -0.417511    2.180780
      9          1           0       -0.003804   -1.637806    1.287885
     10          1           0       -1.771459   -1.679377    1.279624
     11          1           0       -3.108169    0.064518    0.000039
     12          6           0       -0.900161   -1.013648   -1.263284
     13          1           0       -1.771494   -1.679409   -1.279538
     14          1           0       -0.003839   -1.637837   -1.287850
     15          1           0       -0.927314   -0.417565   -2.180749
     16         14           0        0.539814    1.058689   -0.000022
     17          1           0        0.590500    1.914247    1.210057
     18          1           0        0.590484    1.914197   -1.210138
 ---------------------------------------------------------------------

 SCF Done:  E(RHF) =  -576.175667703     A.U. after    2 cycles

 The electronic state is 1-A.
 Alpha  occ. eigenvalues --  -69.08991 -20.64621 -15.73682 -11.25184 -11.24305
 Alpha  occ. eigenvalues --  -11.23657 -11.23652  -6.84253  -3.95029  -3.94947
 Alpha  occ. eigenvalues --   -3.94915  -1.44737  -1.08614  -0.94190  -0.93847
 Alpha  occ. eigenvalues --   -0.92971  -0.78308  -0.72812  -0.66481  -0.64796
 Alpha  occ. eigenvalues --   -0.61339  -0.60856  -0.59230  -0.58268  -0.55316
 Alpha  occ. eigenvalues --   -0.55091  -0.52981  -0.49392  -0.48345  -0.47900
 Alpha  occ. eigenvalues --   -0.42560  -0.36537
 Alpha virt. eigenvalues --    0.02998   0.04465   0.04593   0.04950   0.06169
 Alpha virt. eigenvalues --    0.06416   0.06680   0.06689   0.07253   0.07291
 Alpha virt. eigenvalues --    0.09276   0.09513   0.09622   0.09854   0.11623

 Mulliken charges:
               1
     1  C   -1.856007
     2  N   -0.414934
     3  O   -0.373890
     4  C    1.027403
     5  H   -0.067310
     6  H   -0.067313
     7  C    0.795374
     8  H   -0.112596
     9  H   -0.094715
    10  H   -0.017201
    11  H   -0.033846
    12  C    0.795374
    13  H   -0.017203
    14  H   -0.094714
    15  H   -0.112594
    16  Si   0.124674
    17  H    0.259748
    18  H    0.259749
 Sum of Mulliken charges =  -0.00000

 Dipole moment (field-independent basis, Debye):
    X=             -3.0079    Y=              0.9864    Z=              0.0000  Tot=              3.1655

 Test job not archived.
 1\1\GINC-SE105\SP\RHF\Aug-CC-pVDZ\C4H11N1O1Si1\OHZDE\09-Apr-2025\0\\#t
  hf aug-cc-pvdz iop(5/13=1,5/36=2,99/5=2) pseudo=read geom=check guess
 =(read,tcheck) scf=(maxcycle=1)\\title\\0,1\C,0,-0.939851,-0.127232,0.
 000012\N,0,2.245411,0.288666,-0.000021\O,0,2.309882,-0.924164,-0.00001
 7\C,0,-2.229962,0.721867,0.00002\H,0,-2.300703,1.36165,-0.885177\H,0,-
 2.300679,1.361671,0.885203\C,0,-0.900126,-1.013616,1.263329\H,0,-0.927
 252,-0.417511,2.18078\H,0,-0.003804,-1.637806,1.287885\H,0,-1.771459,-
 1.679377,1.279624\H,0,-3.108169,0.064518,0.000039\C,0,-0.900161,-1.013

 Normal termination of Gaussian 16 at Wed Apr  9 00:00:19 2025.
