 Gaussian 16, Revision C.01,

 ----------------------------------------------------------------------
 #t hf aug-cc-pvdz symm=none int=(grid=ultrafine) guess=(read,tcheck) s
 table=(opt,rrhf)
 ----------------------------------------------------------------------
 -----
 title
 -----
 Symbolic Z-matrix:
 Charge =  0 Multiplicity = 1

 SCF Done:  E(RHF) =  -666.131846352     A.U. after   15 cycles
 Normal termination of Gaussian 16 at Tue Apr  8 23:36:25 2025.
 Gaussian 16:  ES64L-G16RevC.01  3-Jul-2019

 ----------------------------------------------------------------------
 #t hf aug-cc-pvdz iop(5/13=1,5/36=2,99/5=2) pseudo=read geom=check gue
 ss=(read,tcheck) scf=(maxcycle=1)
 ----------------------------------------------------------------------
 -----
 title
 -----
 Structure from the checkpoint file:  "BDE49_nonexpt_1524_mol1.chk"
 Charge =  0 Multiplicity = 1

                         Standard orientation:
 ---------------------------------------------------------------------
 Center     Atomic      Atomic             Coordinates (Angstroms)
 Number     Number       Type             X           Y           Z
 ---------------------------------------------------------------------
      1          6           0        0.292999   -0.337410    0.567357
      2          6           0        1.051149   -1.290127   -0.127514
      3          6           0        2.317014   -0.982517   -0.615645
      4          6           0        2.854362    0.290158   -0.424836
      5          6           0        2.114233    1.248293    0.262405
      6          6           0        0.846672    0.936915    0.752864
      7          7           0       -2.138048    1.207124   -0.875110
      8          1           0        2.888085   -1.738920   -1.142802
      9          1           0        3.841778    0.529044   -0.802943
     10          1           0        2.525096    2.238840    0.424782
     11          1           0        0.285698    1.685120    1.303599
     12          1           0        0.644130   -2.284564   -0.281229
     13          6           0       -1.092034   -0.652666    1.055210
     14         15           0       -2.482617   -0.311632   -0.179859
     15          1           0       -1.328218   -0.084230    1.959233
     16          1           0       -1.190652   -1.713528    1.309685
     17          1           0       -1.931209   -1.123294   -1.203757
     18          1           0       -1.176014    1.458918   -1.070916
     19          1           0       -2.659477    1.981348   -0.491046
 ---------------------------------------------------------------------

 SCF Done:  E(RHF) =  -666.254944598     A.U. after    2 cycles

 The electronic state is 1-A.
 Alpha  occ. eigenvalues --  -81.27232 -15.61317 -11.25841 -11.24993 -11.24920
 Alpha  occ. eigenvalues --  -11.24563 -11.24491 -11.24476 -11.24389  -7.77163
 Alpha  occ. eigenvalues --   -4.91272  -4.91047  -4.90809  -1.14994  -1.11630
 Alpha  occ. eigenvalues --   -1.04414  -1.01269  -0.93860  -0.83318  -0.81036
 Alpha  occ. eigenvalues --   -0.74840  -0.70209  -0.66510  -0.64820  -0.64177
 Alpha  occ. eigenvalues --   -0.59424  -0.58318  -0.57301  -0.55342  -0.51859
 Alpha  occ. eigenvalues --   -0.50295  -0.49563  -0.48793  -0.39731  -0.35861
 Alpha  occ. eigenvalues --   -0.34421  -0.31415
 Alpha virt. eigenvalues --    0.03164   0.03769   0.04041   0.05126   0.05550
 Alpha virt. eigenvalues --    0.05732   0.07167   0.07435   0.07670   0.08417
 Alpha virt. eigenvalues --    0.09814   0.10213   0.10963   0.11640   0.12504

 Mulliken charges:
               1
     1  C    0.496150
     2  C    0.628906
     3  C    0.246560
     4  C    0.639608
     5  C    0.111526
     6  C    0.597004
     7  N   -0.495717
     8  H   -0.444950
     9  H   -0.435901
    10  H   -0.453703
    11  H   -0.640761
    12  H   -0.599159
    13  C   -0.135722
    14  P    0.818358
    15  H   -0.217662
    16  H   -0.193338
    17  H    0.053383
    18  H   -0.003628
    19  H    0.029048
 Sum of Mulliken charges =   0.00000

 Dipole moment (field-independent basis, Debye):
    X=              1.2945    Y=              0.7923    Z=              0.6100  Tot=              1.6357

 Test job not archived.
 1\1\GINC-SE342\SP\RHF\Aug-CC-pVDZ\C7H10N1P1\OHZDE\08-Apr-2025\0\\#t hf
  aug-cc-pvdz iop(5/13=1,5/36=2,99/5=2) pseudo=read geom=check guess=(r
 ead,tcheck) scf=(maxcycle=1)\\title\\0,1\C,0,0.292999,-0.33741,0.56735
 7\C,0,1.051149,-1.290127,-0.127514\C,0,2.317014,-0.982517,-0.615645\C,
 0,2.854362,0.290158,-0.424836\C,0,2.114233,1.248293,0.262405\C,0,0.846
 672,0.936915,0.752864\N,0,-2.138048,1.207124,-0.87511\H,0,2.888085,-1.
 73892,-1.142802\H,0,3.841778,0.529044,-0.802943\H,0,2.525096,2.23884,0
 .424782\H,0,0.285698,1.68512,1.303599\H,0,0.64413,-2.284564,-0.281229\

 Normal termination of Gaussian 16 at Tue Apr  8 23:36:36 2025.
