 Gaussian 16, Revision C.01,

 ----------------------------------------------------------------------
 #t hf aug-cc-pvdz symm=none int=(grid=ultrafine) guess=(read,tcheck) s
 table=opt
 ----------------------------------------------------------------------
 -----
 title
 -----
 Symbolic Z-matrix:
 Charge =  0 Multiplicity = 2

 SCF Done:  E(UHF) =  -616.732622478     A.U. after   19 cycles
 Normal termination of Gaussian 16 at Wed Apr  9 00:16:44 2025.
 Gaussian 16:  ES64L-G16RevC.01  3-Jul-2019

 ----------------------------------------------------------------------
 #t hf aug-cc-pvdz iop(5/13=1,5/36=2,99/5=2) pseudo=read geom=check gue
 ss=(read,tcheck) scf=(maxcycle=1)
 ----------------------------------------------------------------------
 -----
 title
 -----
 Structure from the checkpoint file:  "BDE49_nonexpt_257_mol2.chk"
 Charge =  0 Multiplicity = 2

                         Standard orientation:
 ---------------------------------------------------------------------
 Center     Atomic      Atomic             Coordinates (Angstroms)
 Number     Number       Type             X           Y           Z
 ---------------------------------------------------------------------
      1          5           0        0.681666    0.148021    0.000053
      2         17           0        2.361133   -0.144612   -0.000068
      3          7           0       -0.552257    0.372440    0.000087
      4          6           0       -1.867769    0.579806    0.000058
      5          6           0       -2.833120   -0.561596    0.000001
      6          1           0       -2.697460   -1.203009    0.880736
      7          1           0       -2.697194   -1.203157   -0.880582
      8          1           0       -3.862472   -0.198383   -0.000185
      9          1           0       -2.219326    1.606497   -0.000033
 ---------------------------------------------------------------------

 SCF Done:  E(UHF) =  -616.801198157     A.U. after    2 cycles

 The electronic state is 2-A.
 Alpha  occ. eigenvalues -- -103.69633 -15.61980 -11.27841 -11.23253 -10.73051
 Alpha  occ. eigenvalues --   -8.38715  -8.38553  -8.38504  -7.68274  -1.18917
 Alpha  occ. eigenvalues --   -1.15946  -0.99056  -0.85975  -0.69032  -0.64444
 Alpha  occ. eigenvalues --   -0.59870  -0.59817  -0.54317  -0.53872  -0.53046
 Alpha  occ. eigenvalues --   -0.47454  -0.39505  -0.28187
 Alpha virt. eigenvalues --    0.03514   0.04388   0.04638   0.05199   0.06607
 Alpha virt. eigenvalues --    0.07231   0.07799   0.09314   0.13122   0.13288
 Alpha virt. eigenvalues --    0.13940   0.14981   0.15719   0.16164   0.16289

  Beta  occ. eigenvalues -- -103.69625 -15.63202 -11.25476 -11.23587 -10.73042
  Beta  occ. eigenvalues --   -8.38827  -8.38484  -8.38418  -7.67498  -1.18711
  Beta  occ. eigenvalues --   -1.15781  -0.97926  -0.82889  -0.67389  -0.64033
  Beta  occ. eigenvalues --   -0.59247  -0.56262  -0.53732  -0.52926  -0.52668
  Beta  occ. eigenvalues --   -0.46236  -0.40943
  Beta virt. eigenvalues --    0.03588   0.04433   0.04668   0.05182   0.06627
  Beta virt. eigenvalues --    0.07243   0.07798   0.09404   0.09714   0.13173
  Beta virt. eigenvalues --    0.14087   0.14561   0.15154   0.15974   0.16528

 Mulliken charges and spin densities:
               1          2
     1  B   -0.211400   0.434133
     2  Cl  -0.207272  -0.000264
     3  N    0.073703  -0.401682
     4  C    0.484249   1.237225
     5  C    0.253394  -0.222002
     6  H   -0.014328   0.030651
     7  H   -0.014372   0.030648
     8  H   -0.093143   0.006513
     9  H   -0.270830  -0.115221
 Sum of Mulliken charges =  -0.00000   1.00000

 Dipole moment (field-independent basis, Debye):
    X=             -0.5066    Y=             -0.0677    Z=             -0.0001  Tot=              0.5111
                          Isotropic Fermi Contact Couplings
        Atom                 a.u.       MegaHertz       Gauss      10(-4) cm-1
     1  B(11)              0.05358      76.84973      27.42189      25.63431
     2  Cl(35)             0.00746       3.27002       1.16682       1.09076
     3  N(14)             -0.18736     -60.53632     -21.60087     -20.19274
     4  C(13)              0.20578     231.34127      82.54832      77.16714
     5  C(13)             -0.06184     -69.52245     -24.80734     -23.19019
     6  H(1)               0.01776      79.38269      28.32572      26.47921
     7  H(1)               0.01776      79.36707      28.32014      26.47400
     8  H(1)               0.00185       8.28962       2.95794       2.76512

 1\1\GINC-SE072\SP\UHF\Aug-CC-pVDZ\C2H4B1Cl1N1(2)\OHZDE\09-Apr-2025\0\\
 #t hf aug-cc-pvdz iop(5/13=1,5/36=2,99/5=2) pseudo=read geom=check gue
 ss=(read,tcheck) scf=(maxcycle=1)\\title\\0,2\B,0,0.681666,0.148021,0.
 000053\Cl,0,2.361133,-0.144612,-0.000068\N,0,-0.552257,0.37244,0.00008
 7\C,0,-1.867769,0.579806,0.000058\C,0,-2.83312,-0.561596,0.000001\H,0,
 -2.69746,-1.203009,0.880736\H,0,-2.697194,-1.203157,-0.880582\H,0,-3.8
 62472,-0.198383,-0.000185\H,0,-2.219326,1.606497,-0.000033\\Version=ES
 64L-G16RevC.01\State=2-A\HF=-616.8011982\S2=0.814074\S2-1=0.\S2A=0.752

 Normal termination of Gaussian 16 at Wed Apr  9 00:16:47 2025.
