 Gaussian 16, Revision C.01,

 ----------------------------------------------------------------------
 #t hf aug-cc-pvdz symm=none int=(grid=ultrafine) guess=(read,tcheck) s
 table=(opt,rrhf)
 ----------------------------------------------------------------------
 -----
 title
 -----
 Symbolic Z-matrix:
 Charge =  0 Multiplicity = 1

 SCF Done:  E(RHF) =  -342.575113247     A.U. after   15 cycles
 Normal termination of Gaussian 16 at Tue Apr  8 23:18:51 2025.
 Gaussian 16:  ES64L-G16RevC.01  3-Jul-2019

 ----------------------------------------------------------------------
 #t hf aug-cc-pvdz iop(5/13=1,5/36=2,99/5=2) pseudo=read geom=check gue
 ss=(read,tcheck) scf=(maxcycle=1)
 ----------------------------------------------------------------------
 -----
 title
 -----
 Structure from the checkpoint file:  "BDE49_nonexpt_1139_mol1.chk"
 Charge =  0 Multiplicity = 1

                         Standard orientation:
 ---------------------------------------------------------------------
 Center     Atomic      Atomic             Coordinates (Angstroms)
 Number     Number       Type             X           Y           Z
 ---------------------------------------------------------------------
      1          9           0        1.754089   -0.010976   -0.000031
      2          8           0        0.548735   -0.838033    0.000008
      3          6           0       -0.601739   -0.047863    0.000052
      4          8           0       -1.622063   -0.677957   -0.000022
      5          7           0       -0.411130    1.280973    0.000014
      6          1           0        0.513428    1.676224    0.000014
      7          1           0       -1.225261    1.870848   -0.000034
 ---------------------------------------------------------------------

 SCF Done:  E(RHF) =  -342.689334324     A.U. after    2 cycles

 The electronic state is 1-A.
 Alpha  occ. eigenvalues --  -26.20040 -20.74935 -20.58217 -15.69316 -11.46464
 Alpha  occ. eigenvalues --   -1.69947  -1.44305  -1.32862  -1.22871  -0.89034
 Alpha  occ. eigenvalues --   -0.82474  -0.80543  -0.79117  -0.73370  -0.68028
 Alpha  occ. eigenvalues --   -0.67843  -0.66355  -0.56447  -0.51659  -0.46625
 Alpha virt. eigenvalues --    0.02546   0.04489   0.07697   0.09047   0.09637
 Alpha virt. eigenvalues --    0.12133   0.12309   0.14997   0.15888   0.18608
 Alpha virt. eigenvalues --    0.18957   0.20935   0.23500   0.24140   0.25900

 Mulliken charges:
               1
     1  F   -0.361985
     2  O   -0.071670
     3  C    0.806239
     4  O   -0.377728
     5  N   -0.066846
     6  H    0.046187
     7  H    0.025803
 Sum of Mulliken charges =  -0.00000

 Dipole moment (field-independent basis, Debye):
    X=              0.6088    Y=              3.9925    Z=              0.0002  Tot=              4.0387

 Test job not archived.
 1\1\GINC-SE074\SP\RHF\Aug-CC-pVDZ\C1H2F1N1O2\OHZDE\08-Apr-2025\0\\#t h
 f aug-cc-pvdz iop(5/13=1,5/36=2,99/5=2) pseudo=read geom=check guess=(
 read,tcheck) scf=(maxcycle=1)\\title\\0,1\F,0,-1.754089,-0.010976,0.00
 0031\O,0,-0.548735,-0.838033,-0.000008\C,0,0.601739,-0.047863,-0.00005
 2\O,0,1.622063,-0.677957,0.000022\N,0,0.41113,1.280973,-0.000014\H,0,-
 0.513428,1.676224,-0.000014\H,0,1.225261,1.870848,0.000034\\Version=ES
 64L-G16RevC.01\State=1-A\HF=-342.6893343\RMSD=3.713e-03\Dipole=-0.2395
 179,1.5707829,-0.0000619\Quadrupole=-3.5311111,3.4099322,0.1211789,2.4

 Normal termination of Gaussian 16 at Tue Apr  8 23:18:53 2025.
