 Gaussian 16, Revision C.01,

 ----------------------------------------------------------------------
 #t hf aug-cc-pvdz symm=none int=(grid=ultrafine) guess=(read,tcheck) s
 table=(opt,rrhf)
 ----------------------------------------------------------------------
 -----
 title
 -----
 Symbolic Z-matrix:
 Charge =  0 Multiplicity = 1

 SCF Done:  E(RHF) =  -538.165095239     A.U. after   12 cycles

 1\1\GINC-SE094\Stability\RHF\Aug-CC-pVDZ\C2H5Cl1\OHZDE\08-Apr-2025\0\\
 #t hf aug-cc-pvdz symm=none int=(grid=ultrafine) guess=(read,tcheck) s
 table=(opt,rrhf)\\title\\0,1\C,0,0.,0.821956,0.\C,0,-1.509911,0.681526
 ,0.\Cl,0,0.823861,-0.803603,0.\H,0,0.36545,1.335886,0.887486\H,0,0.365
 45,1.335886,-0.887486\H,0,-1.855885,0.145579,0.885635\H,0,-1.855885,0.
 145579,-0.885635\H,0,-1.965297,1.677422,0.\\Version=ES64L-G16RevC.01\H
 F=-538.1650952\RMSD=2.749e-09\Dipole=-0.5149551,0.8300051,0.\Quadrupol
 e=-0.5027299,0.4446083,0.0581216,0.3195242,0.,0.\PG=Unknown\\@

 Normal termination of Gaussian 16 at Tue Apr  8 22:28:15 2025.
 Gaussian 16:  ES64L-G16RevC.01  3-Jul-2019

 ----------------------------------------------------------------------
 #t hf aug-cc-pvdz iop(5/13=1,5/36=2,99/5=2) pseudo=read geom=check gue
 ss=(read,tcheck) scf=(maxcycle=1)
 ----------------------------------------------------------------------
 -----
 title
 -----
 Structure from the checkpoint file:  "BDE49_expt_1019_mol1.chk"
 Charge =  0 Multiplicity = 1

                         Standard orientation:
 ---------------------------------------------------------------------
 Center     Atomic      Atomic             Coordinates (Angstroms)
 Number     Number       Type             X           Y           Z
 ---------------------------------------------------------------------
      1          6           0       -0.000000    0.821956    0.000000
      2          6           0       -1.509911    0.681526    0.000000
      3         17           0        0.823861   -0.803603    0.000000
      4          1           0        0.365450    1.335886    0.887486
      5          1           0        0.365450    1.335886   -0.887486
      6          1           0       -1.855885    0.145579    0.885635
      7          1           0       -1.855885    0.145579   -0.885635
      8          1           0       -1.965297    1.677422    0.000000
 ---------------------------------------------------------------------

 SCF Done:  E(RHF) =  -538.210524267     A.U. after    2 cycles

 The electronic state is 1-A'.
 Alpha  occ. eigenvalues -- -103.64392 -11.30819 -11.24702 -10.67672  -8.33385
 Alpha  occ. eigenvalues --   -8.33104  -8.33098  -1.15575  -1.01142  -0.84957
 Alpha  occ. eigenvalues --   -0.65410  -0.61467  -0.56692  -0.53374  -0.51064
 Alpha  occ. eigenvalues --   -0.44329  -0.44217
 Alpha virt. eigenvalues --    0.03345   0.04880   0.05070   0.06042   0.07783
 Alpha virt. eigenvalues --    0.09411   0.12203   0.13214   0.14630   0.15045
 Alpha virt. eigenvalues --    0.16308   0.17620   0.18094   0.19063   0.19073

 Mulliken charges:
               1
     1  C   -0.122383
     2  C    0.339743
     3  Cl  -0.181366
     4  H    0.024798
     5  H    0.024798
     6  H   -0.029785
     7  H   -0.029785
     8  H   -0.026020
 Sum of Mulliken charges =   0.00000

 Dipole moment (field-independent basis, Debye):
    X=             -1.3455    Y=              2.1615    Z=             -0.0000  Tot=              2.5460

 Test job not archived.
 1\1\GINC-SE094\SP\RHF\Aug-CC-pVDZ\C2H5Cl1\OHZDE\08-Apr-2025\0\\#t hf a
 ug-cc-pvdz iop(5/13=1,5/36=2,99/5=2) pseudo=read geom=check guess=(rea
 d,tcheck) scf=(maxcycle=1)\\title\\0,1\C,0,0.,0.821956,0.\C,0,-1.50991
 1,0.681526,0.\Cl,0,0.823861,-0.803603,0.\H,0,0.36545,1.335886,0.887486
 \H,0,0.36545,1.335886,-0.887486\H,0,-1.855885,0.145579,0.885635\H,0,-1
 .855885,0.145579,-0.885635\H,0,-1.965297,1.677422,0.\\Version=ES64L-G1
 6RevC.01\State=1-A'\HF=-538.2105243\RMSD=3.271e-03\Dipole=-0.5293603,0
 .8503919,0.\Quadrupole=-0.5073538,0.4650435,0.0423103,0.3089274,0.,0.\

 Normal termination of Gaussian 16 at Tue Apr  8 22:28:17 2025.
