 Gaussian 16, Revision C.01,

 ----------------------------------------------------------------------
 #t hf aug-cc-pvdz symm=none int=(grid=ultrafine) guess=(read,tcheck) s
 table=opt
 ----------------------------------------------------------------------
 -----
 title
 -----
 Symbolic Z-matrix:
 Charge =  0 Multiplicity = 2

 SCF Done:  E(UHF) =  -175.639301459     A.U. after   14 cycles
 Normal termination of Gaussian 16 at Wed Apr  9 00:02:25 2025.
 Gaussian 16:  ES64L-G16RevC.01  3-Jul-2019

 ----------------------------------------------------------------------
 #t hf aug-cc-pvdz iop(5/13=1,5/36=2,99/5=2) pseudo=read geom=check gue
 ss=(read,tcheck) scf=(maxcycle=1)
 ----------------------------------------------------------------------
 -----
 title
 -----
 Structure from the checkpoint file:  "BDE49_nonexpt_21_mol2.chk"
 Charge =  0 Multiplicity = 2

                         Standard orientation:
 ---------------------------------------------------------------------
 Center     Atomic      Atomic             Coordinates (Angstroms)
 Number     Number       Type             X           Y           Z
 ---------------------------------------------------------------------
      1          5           0        0.000000   -0.000000    0.534067
      2          8           0        0.000000    1.219031   -0.040491
      3          1           0        0.000000    1.228890   -1.011239
      4          8           0       -0.000000   -1.219031   -0.040491
      5          1           0       -0.000000   -1.228890   -1.011239
 ---------------------------------------------------------------------

 SCF Done:  E(UHF) =  -175.703747359     A.U. after    2 cycles

 The electronic state is 2-A1.
 Alpha  occ. eigenvalues --  -20.60368 -20.60367  -7.69169  -1.36506  -1.33160
 Alpha  occ. eigenvalues --   -0.80490  -0.77679  -0.67210  -0.60782  -0.57583
 Alpha  occ. eigenvalues --   -0.54022  -0.35092
 Alpha virt. eigenvalues --    0.02627   0.05648   0.05764   0.06364   0.07661
 Alpha virt. eigenvalues --    0.10422   0.16352   0.16944   0.20119   0.20130
 Alpha virt. eigenvalues --    0.21295   0.23167   0.24273   0.26849   0.27412

  Beta  occ. eigenvalues --  -20.60248 -20.60248  -7.67042  -1.35882  -1.32733
  Beta  occ. eigenvalues --   -0.78089  -0.76680  -0.66390  -0.60614  -0.57276
  Beta  occ. eigenvalues --   -0.54593
  Beta virt. eigenvalues --    0.01922   0.05712   0.05748   0.05961   0.07714
  Beta virt. eigenvalues --    0.08898   0.15113   0.18277   0.20141   0.20232
  Beta virt. eigenvalues --    0.21826   0.21863   0.23245   0.24491   0.27717

 Mulliken charges and spin densities:
               1          2
     1  B    0.272489   1.044155
     2  O   -0.306719  -0.057578
     3  H    0.170474   0.035500
     4  O   -0.306719  -0.057578
     5  H    0.170474   0.035500
 Sum of Mulliken charges =   0.00000   1.00000

 Dipole moment (field-independent basis, Debye):
    X=              0.0000    Y=             -0.0000    Z=             -3.3395  Tot=              3.3395
                          Isotropic Fermi Contact Couplings
        Atom                 a.u.       MegaHertz       Gauss      10(-4) cm-1
     1  B(11)              0.42868     614.88558     219.40647     205.10375
     2  O(17)              0.17102    -103.67041     -36.99218     -34.58072
     3  H(1)               0.01428      63.82644      22.77486      21.29021
     4  O(17)              0.17102    -103.67041     -36.99218     -34.58072
     5  H(1)               0.01428      63.82644      22.77486      21.29021
 --------------------------------------------------------
       Center         ----  Spin Dipole Couplings  ----
                      3XX-RR        3YY-RR        3ZZ-RR

 Normal termination of Gaussian 16 at Wed Apr  9 00:02:27 2025.
