 Gaussian 16, Revision C.01,

 ----------------------------------------------------------------------
 #t hf aug-cc-pvdz symm=none int=(grid=ultrafine) guess=(read,tcheck) s
 table=(opt,rrhf)
 ----------------------------------------------------------------------
 -----
 title
 -----
 Symbolic Z-matrix:
 Charge =  0 Multiplicity = 1

 SCF Done:  E(RHF) =  -227.840059877     A.U. after   13 cycles
 Normal termination of Gaussian 16 at Tue Apr  8 22:32:20 2025.
 Gaussian 16:  ES64L-G16RevC.01  3-Jul-2019

 ----------------------------------------------------------------------
 #t hf aug-cc-pvdz iop(5/13=1,5/36=2,99/5=2) pseudo=read geom=check gue
 ss=(read,tcheck) scf=(maxcycle=1)
 ----------------------------------------------------------------------
 -----
 title
 -----
 Structure from the checkpoint file:  "BDE49_expt_1107_mol1.chk"
 Charge =  0 Multiplicity = 1

                         Standard orientation:
 ---------------------------------------------------------------------
 Center     Atomic      Atomic             Coordinates (Angstroms)
 Number     Number       Type             X           Y           Z
 ---------------------------------------------------------------------
      1          6           0        1.372740   -0.048501    0.000005
      2          6           0       -0.132805    0.141515    0.000028
      3          1           0        1.689212   -0.609255    0.884583
      4          1           0        1.856783    0.925221   -0.000015
      5          1           0        1.689187   -0.609278   -0.884567
      6          8           0       -0.688245    1.200798   -0.000015
      7          8           0       -0.861570   -1.011680   -0.000009
      8          1           0       -0.276270   -1.777723   -0.000011
 ---------------------------------------------------------------------

 SCF Done:  E(RHF) =  -227.914782981     A.U. after    2 cycles

 The electronic state is 1-A.
 Alpha  occ. eigenvalues --  -20.62896 -20.56461 -11.40502 -11.27115  -1.42256
 Alpha  occ. eigenvalues --   -1.33543  -1.02366  -0.84573  -0.73164  -0.68576
 Alpha  occ. eigenvalues --   -0.66454  -0.61636  -0.57976  -0.57005  -0.50211
 Alpha  occ. eigenvalues --   -0.47158
 Alpha virt. eigenvalues --    0.02359   0.04525   0.04864   0.06672   0.09286
 Alpha virt. eigenvalues --    0.11855   0.11922   0.12531   0.14104   0.14982
 Alpha virt. eigenvalues --    0.16057   0.16339   0.19733   0.21975   0.22891

 Mulliken charges:
               1
     1  C    0.257443
     2  C    0.521786
     3  H    0.016074
     4  H   -0.082449
     5  H    0.016064
     6  O   -0.420466
     7  O   -0.498157
     8  H    0.189707
 Sum of Mulliken charges =  -0.00000

 Dipole moment (field-independent basis, Debye):
    X=              3.8247    Y=             -3.2586    Z=              0.0001  Tot=              5.0246

 Test job not archived.
 1\1\GINC-SE070\SP\RHF\Aug-CC-pVDZ\C2H4O2\OHZDE\08-Apr-2025\0\\#t hf au
 g-cc-pvdz iop(5/13=1,5/36=2,99/5=2) pseudo=read geom=check guess=(read
 ,tcheck) scf=(maxcycle=1)\\title\\0,1\C,0,1.37274,-0.048501,0.000005\C
 ,0,-0.132805,0.141515,0.000028\H,0,1.689212,-0.609255,0.884583\H,0,1.8
 56784,0.92522,-0.000015\H,0,1.689187,-0.609278,-0.884567\O,0,-0.688244
 ,1.200799,-0.000015\O,0,-0.86157,-1.011679,-0.000009\H,0,-0.27627,-1.7
 77723,-0.000011\\Version=ES64L-G16RevC.01\State=1-A\HF=-227.914783\RMS
 D=3.512e-03\Dipole=1.5047474,-1.2820232,0.0000374\Quadrupole=-0.911313

 Normal termination of Gaussian 16 at Tue Apr  8 22:32:22 2025.
