 Gaussian 16, Revision C.01,

 ----------------------------------------------------------------------
 #t hf aug-cc-pvdz symm=none int=(grid=ultrafine) guess=(read,tcheck) s
 table=(opt,rrhf)
 ----------------------------------------------------------------------
 -----
 title
 -----
 Symbolic Z-matrix:
 Charge =  0 Multiplicity = 1

 SCF Done:  E(RHF) =  -1119.23124559     A.U. after   15 cycles
 Normal termination of Gaussian 16 at Tue Apr  8 23:33:19 2025.
 Gaussian 16:  ES64L-G16RevC.01  3-Jul-2019

 ----------------------------------------------------------------------
 #t hf aug-cc-pvdz iop(5/13=1,5/36=2,99/5=2) pseudo=read geom=check gue
 ss=(read,tcheck) scf=(maxcycle=1)
 ----------------------------------------------------------------------
 -----
 title
 -----
 Structure from the checkpoint file:  "BDE49_nonexpt_1443_mol1.chk"
 Charge =  0 Multiplicity = 1

                         Standard orientation:
 ---------------------------------------------------------------------
 Center     Atomic      Atomic             Coordinates (Angstroms)
 Number     Number       Type             X           Y           Z
 ---------------------------------------------------------------------
      1         16           0       -0.310872   -1.283920   -0.000000
      2          8           0       -0.868215   -1.718286    1.268829
      3         15           0        1.791492   -1.982754   -0.000000
      4          6           0       -0.294481    0.513735    0.000000
      5          6           0       -0.302038    1.192771    1.216865
      6          6           0       -0.302038    2.584945    1.209873
      7          6           0       -0.297787    3.278369    0.000000
      8          6           0       -0.302038    2.584945   -1.209873
      9          6           0       -0.302038    1.192771   -1.216865
     10          1           0       -0.314350    3.127137   -2.148118
     11          1           0       -0.328809    0.635384   -2.144596
     12          1           0       -0.328809    0.635384    2.144596
     13          1           0       -0.314350    3.127137    2.148118
     14          1           0       -0.299752    4.362338    0.000000
     15          8           0       -0.868215   -1.718286   -1.268829
     16          1           0        2.190802   -1.097995    1.033184
     17          1           0        2.190802   -1.097995   -1.033184
 ---------------------------------------------------------------------

 SCF Done:  E(RHF) =  -1119.43431380     A.U. after    2 cycles

 The electronic state is 1-A'.
 Alpha  occ. eigenvalues --  -93.78196 -81.30847 -20.56120 -20.56118 -11.29387
 Alpha  occ. eigenvalues --  -11.28046 -11.28036 -11.27755 -11.27178 -11.27168
 Alpha  occ. eigenvalues --   -9.04961  -7.81157  -6.39587  -6.39332  -6.39264
 Alpha  occ. eigenvalues --   -4.95014  -4.94959  -4.94717  -1.41716  -1.30767
 Alpha  occ. eigenvalues --   -1.17696  -1.05559  -1.04218  -0.92849  -0.86134
 Alpha  occ. eigenvalues --   -0.85334  -0.79281  -0.74165  -0.68603  -0.67393
 Alpha  occ. eigenvalues --   -0.66379  -0.64840  -0.64407  -0.62403  -0.56330
 Alpha  occ. eigenvalues --   -0.55716  -0.54134  -0.53008  -0.52277  -0.50348
 Alpha  occ. eigenvalues --   -0.49617  -0.44683  -0.40903  -0.36855  -0.36670
 Alpha virt. eigenvalues --    0.02596   0.03622   0.03657   0.04560   0.05364
 Alpha virt. eigenvalues --    0.06140   0.06951   0.07688   0.08396   0.08594
 Alpha virt. eigenvalues --    0.08897   0.10045   0.10846   0.12128   0.12784

 Mulliken charges:
               1
     1  S    2.450255
     2  O   -1.165579
     3  P   -0.016899
     4  C    0.419614
     5  C   -0.105402
     6  C    0.640433
     7  C    0.407916
     8  C    0.640433
     9  C   -0.105402
    10  H   -0.431301
    11  H   -0.526496
    12  H   -0.526496
    13  H   -0.431301
    14  H   -0.431078
    15  O   -1.165579
    16  H    0.173440
    17  H    0.173440
 Sum of Mulliken charges =   0.00000

 Dipole moment (field-independent basis, Debye):
    X=              4.0110    Y=              4.7773    Z=              0.0000  Tot=              6.2379

 Test job not archived.
 1\1\GINC-SE041\SP\RHF\Aug-CC-pVDZ\C6H7O2P1S1\OHZDE\08-Apr-2025\0\\#t h
 f aug-cc-pvdz iop(5/13=1,5/36=2,99/5=2) pseudo=read geom=check guess=(
 read,tcheck) scf=(maxcycle=1)\\title\\0,1\S,0,0.310872,-1.28392,0.\O,0
 ,0.868215,-1.718286,-1.268829\P,0,-1.791492,-1.982754,0.\C,0,0.294481,
 0.513735,0.\C,0,0.302038,1.192771,-1.216865\C,0,0.302038,2.584945,-1.2
 09873\C,0,0.297787,3.278369,0.\C,0,0.302038,2.584945,1.209873\C,0,0.30
 2038,1.192771,1.216865\H,0,0.31435,3.127137,2.148118\H,0,0.328809,0.63
 5384,2.144596\H,0,0.328809,0.635384,-2.144596\H,0,0.31435,3.127137,-2.

 Normal termination of Gaussian 16 at Tue Apr  8 23:33:28 2025.
