 Gaussian 16, Revision C.01,

 ----------------------------------------------------------------------
 #t hf aug-cc-pvdz symm=none int=(grid=ultrafine) guess=(read,tcheck) s
 table=(opt,rrhf)
 ----------------------------------------------------------------------
 -----
 title
 -----
 Symbolic Z-matrix:
 Charge =  0 Multiplicity = 1

 SCF Done:  E(RHF) =  -662.273817700     A.U. after   13 cycles
 Normal termination of Gaussian 16 at Tue Apr  8 22:45:31 2025.
 Gaussian 16:  ES64L-G16RevC.01  3-Jul-2019

 ----------------------------------------------------------------------
 #t hf aug-cc-pvdz iop(5/13=1,5/36=2,99/5=2) pseudo=read geom=check gue
 ss=(read,tcheck) scf=(maxcycle=1)
 ----------------------------------------------------------------------
 -----
 title
 -----
 Structure from the checkpoint file:  "BDE49_expt_1596_mol1.chk"
 Charge =  0 Multiplicity = 1

                         Standard orientation:
 ---------------------------------------------------------------------
 Center     Atomic      Atomic             Coordinates (Angstroms)
 Number     Number       Type             X           Y           Z
 ---------------------------------------------------------------------
      1         16           0        0.089805    0.150745    0.055324
      2          6           0       -1.616738   -0.365520    0.036580
      3          1           0       -2.186104    0.416463    0.538794
      4          1           0       -1.704153   -1.310319    0.569604
      5          1           0       -1.933701   -0.462718   -1.000391
      6          8           0        0.756225   -1.074993   -0.792365
      7          8           0        0.612943    0.062165    1.395224
      8          8           0        0.216579    1.343055   -0.727935
      9          1           0        1.401528   -1.504043   -0.212059
 ---------------------------------------------------------------------

 SCF Done:  E(RHF) =  -662.442976266     A.U. after    2 cycles

 The electronic state is 1-A.
 Alpha  occ. eigenvalues --  -93.83575 -20.64851 -20.58261 -20.57842 -11.30201
 Alpha  occ. eigenvalues --   -9.09712  -6.44374  -6.44297  -6.44029  -1.47980
 Alpha  occ. eigenvalues --   -1.36208  -1.33559  -1.05440  -0.87839  -0.76562
 Alpha  occ. eigenvalues --   -0.72595  -0.71058  -0.66691  -0.63451  -0.62585
 Alpha  occ. eigenvalues --   -0.59221  -0.55012  -0.53343  -0.51431  -0.50298
 Alpha virt. eigenvalues --    0.02771   0.04365   0.05411   0.05740   0.09808
 Alpha virt. eigenvalues --    0.11023   0.11677   0.13359   0.14442   0.15208
 Alpha virt. eigenvalues --    0.15802   0.18026   0.19096   0.19490   0.23081

 Mulliken charges:
               1
     1  S    2.406525
     2  C   -0.065086
     3  H    0.055471
     4  H    0.014766
     5  H    0.025969
     6  O   -0.723332
     7  O   -0.960737
     8  O   -0.938574
     9  H    0.184998
 Sum of Mulliken charges =   0.00000

 Dipole moment (field-independent basis, Debye):
    X=             -2.4747    Y=             -3.3171    Z=              0.0032  Tot=              4.1386

 Test job not archived.
 1\1\GINC-SE363\SP\RHF\Aug-CC-pVDZ\C1H4O3S1\OHZDE\08-Apr-2025\0\\#t hf
 aug-cc-pvdz iop(5/13=1,5/36=2,99/5=2) pseudo=read geom=check guess=(re
 ad,tcheck) scf=(maxcycle=1)\\title\\0,1\S,0,0.089805,0.150745,0.055324
 \C,0,-1.616738,-0.365518,0.03658\H,0,-2.186104,0.416465,0.538794\H,0,-
 1.704154,-1.310317,0.569604\H,0,-1.933702,-0.462716,-1.000391\O,0,0.75
 6224,-1.074994,-0.792365\O,0,0.612943,0.062164,1.395224\O,0,0.21658,1.
 343055,-0.727935\H,0,1.401526,-1.504044,-0.212059\\Version=ES64L-G16Re
 vC.01\State=1-A\HF=-662.4429763\RMSD=4.542e-03\Dipole=-0.9736345,-1.30

 Normal termination of Gaussian 16 at Tue Apr  8 22:45:34 2025.
