 Gaussian 16, Revision C.01,

 ----------------------------------------------------------------------
 #t hf aug-cc-pvdz symm=none int=(grid=ultrafine) guess=(read,tcheck) s
 table=(opt,rrhf)
 ----------------------------------------------------------------------
 -----
 title
 -----
 Symbolic Z-matrix:
 Charge =  0 Multiplicity = 1

 SCF Done:  E(RHF) =  -896.320717748     A.U. after   13 cycles
 Normal termination of Gaussian 16 at Tue Apr  8 23:41:29 2025.
 Gaussian 16:  ES64L-G16RevC.01  3-Jul-2019

 ----------------------------------------------------------------------
 #t hf aug-cc-pvdz iop(5/13=1,5/36=2,99/5=2) pseudo=read geom=check gue
 ss=(read,tcheck) scf=(maxcycle=1)
 ----------------------------------------------------------------------
 -----
 title
 -----
 Structure from the checkpoint file:  "BDE49_nonexpt_1679_mol1.chk"
 Charge =  0 Multiplicity = 1

                         Standard orientation:
 ---------------------------------------------------------------------
 Center     Atomic      Atomic             Coordinates (Angstroms)
 Number     Number       Type             X           Y           Z
 ---------------------------------------------------------------------
      1         14           0       -1.331841    0.743010   -0.079570
      2         15           0        0.767866   -0.106802    0.108314
      3          8           0        1.083203   -0.815245    1.363825
      4          8           0        0.882548   -0.964128   -1.251808
      5          6           0       -2.588328   -0.633490    0.108767
      6          1           0       -2.493818   -1.358327   -0.702957
      7          1           0       -3.603277   -0.227182    0.090819
      8          1           0       -2.443568   -1.157835    1.056096
      9          8           0        1.798768    1.117585   -0.182508
     10          1           0        2.268793    1.360212    0.625312
     11          1           0        1.689889   -1.494278   -1.303513
     12          1           0       -1.445667    1.437992   -1.381007
     13          1           0       -1.430755    1.734556    1.015855
 ---------------------------------------------------------------------

 SCF Done:  E(RHF) =  -896.491878224     A.U. after    2 cycles

 The electronic state is 1-A.
 Alpha  occ. eigenvalues --  -81.40254 -69.08481 -20.61424 -20.60988 -20.52236
 Alpha  occ. eigenvalues --  -11.23532  -7.88772  -6.83802  -5.03377  -5.03266
 Alpha  occ. eigenvalues --   -5.02844  -3.94584  -3.94540  -3.94530  -1.37218
 Alpha  occ. eigenvalues --   -1.34012  -1.25222  -0.95828  -0.84860  -0.75466
 Alpha  occ. eigenvalues --   -0.71097  -0.67683  -0.64424  -0.61891  -0.58129
 Alpha  occ. eigenvalues --   -0.57837  -0.57205  -0.56620  -0.51387  -0.49046
 Alpha  occ. eigenvalues --   -0.48180  -0.47457  -0.42467
 Alpha virt. eigenvalues --    0.03094   0.04118   0.04614   0.05569   0.06232
 Alpha virt. eigenvalues --    0.06775   0.07877   0.08413   0.08882   0.10360
 Alpha virt. eigenvalues --    0.11802   0.11941   0.12813   0.14768   0.15098

 Mulliken charges:
               1
     1  Si   0.548865
     2  P    1.940694
     3  O   -0.967553
     4  O   -0.687760
     5  C    0.203482
     6  H   -0.121812
     7  H   -0.269260
     8  H   -0.141955
     9  O   -0.735514
    10  H    0.141382
    11  H    0.138716
    12  H   -0.003143
    13  H   -0.046141
 Sum of Mulliken charges =  -0.00000

 Dipole moment (field-independent basis, Debye):
    X=             -0.9315    Y=              0.9275    Z=             -1.4001  Tot=              1.9205

 Test job not archived.
 1\1\GINC-SE328\SP\RHF\Aug-CC-pVDZ\C1H7O3P1Si1\OHZDE\08-Apr-2025\0\\#t
 hf aug-cc-pvdz iop(5/13=1,5/36=2,99/5=2) pseudo=read geom=check guess=
 (read,tcheck) scf=(maxcycle=1)\\title\\0,1\Si,0,-1.331841,0.74301,-0.0
 7957\P,0,0.767866,-0.106802,0.108314\O,0,1.083203,-0.815245,1.363825\O
 ,0,0.882548,-0.964128,-1.251808\C,0,-2.588328,-0.63349,0.108767\H,0,-2
 .493818,-1.358327,-0.702957\H,0,-3.603277,-0.227182,0.090819\H,0,-2.44
 3568,-1.157835,1.056096\O,0,1.798768,1.117585,-0.182508\H,0,2.268793,1
 .360212,0.625312\H,0,1.689889,-1.494278,-1.303513\H,0,-1.445667,1.4379

 Normal termination of Gaussian 16 at Tue Apr  8 23:41:34 2025.
