 Gaussian 16, Revision C.01,

 ----------------------------------------------------------------------
 #t hf aug-cc-pvdz symm=none int=(grid=ultrafine) guess=(read,tcheck) s
 table=(opt,rrhf)
 ----------------------------------------------------------------------
 -----
 title
 -----
 Symbolic Z-matrix:
 Charge =  0 Multiplicity = 1

 SCF Done:  E(RHF) =  -1498.49396197     A.U. after   15 cycles
 Normal termination of Gaussian 16 at Wed Apr  9 00:15:41 2025.
 Gaussian 16:  ES64L-G16RevC.01  3-Jul-2019

 ----------------------------------------------------------------------
 #t hf aug-cc-pvdz iop(5/13=1,5/36=2,99/5=2) pseudo=read geom=check gue
 ss=(read,tcheck) scf=(maxcycle=1)
 ----------------------------------------------------------------------
 -----
 title
 -----
 Structure from the checkpoint file:  "BDE49_nonexpt_2555_mol1.chk"
 Charge =  0 Multiplicity = 1

                         Standard orientation:
 ---------------------------------------------------------------------
 Center     Atomic      Atomic             Coordinates (Angstroms)
 Number     Number       Type             X           Y           Z
 ---------------------------------------------------------------------
      1         17           0        2.548922    0.631760    0.048277
      2         16           0        1.321249   -1.026648   -0.054167
      3         15           0       -1.337696    0.033363   -0.089670
      4          8           0       -1.873118   -0.875196   -1.098458
      5          8           0       -2.295628    0.427230    1.113786
      6          1           0       -2.881816   -0.295258    1.369287
      7          8           0       -0.820510    1.446150   -0.590953
      8          1           0       -1.134660    1.653889   -1.479132
      9          8           0       -0.059462   -0.519760    0.763233
 ---------------------------------------------------------------------

 SCF Done:  E(RHF) =  -1498.71201998     A.U. after    2 cycles

 The electronic state is 1-A.
 Alpha  occ. eigenvalues -- -103.69702 -93.67246 -81.47226 -20.65797 -20.63908
 Alpha  occ. eigenvalues --  -20.63824 -20.55115 -10.72890  -8.95865  -8.38619
 Alpha  occ. eigenvalues --   -8.38268  -8.38226  -7.95127  -6.29956  -6.29664
 Alpha  occ. eigenvalues --   -6.29143  -5.09815  -5.09723  -5.09644  -1.42197
 Alpha  occ. eigenvalues --   -1.37721  -1.37517  -1.28720  -1.18225  -0.95670
 Alpha  occ. eigenvalues --   -0.86655  -0.78251  -0.74660  -0.70516  -0.67932
 Alpha  occ. eigenvalues --   -0.66688  -0.64700  -0.61503  -0.59702  -0.58258
 Alpha  occ. eigenvalues --   -0.53438  -0.52723  -0.51487  -0.50841  -0.49613
 Alpha  occ. eigenvalues --   -0.39226
 Alpha virt. eigenvalues --    0.03106   0.03801   0.04484   0.06712   0.08197
 Alpha virt. eigenvalues --    0.09194   0.10906   0.11657   0.12218   0.12958
 Alpha virt. eigenvalues --    0.13773   0.14809   0.16530   0.17526   0.18286

 Mulliken charges:
               1
     1  Cl  -0.276073
     2  S    0.687107
     3  P    2.299944
     4  O   -0.816189
     5  O   -0.646514
     6  H    0.169055
     7  O   -0.655410
     8  H    0.180337
     9  O   -0.942256
 Sum of Mulliken charges =   0.00000

 Dipole moment (field-independent basis, Debye):
    X=             -0.6964    Y=              0.4141    Z=              0.2295  Tot=              0.8421

 Test job not archived.
 1\1\GINC-SE335\SP\RHF\Aug-CC-pVDZ\Cl1H2O4P1S1\OHZDE\09-Apr-2025\0\\#t
 hf aug-cc-pvdz iop(5/13=1,5/36=2,99/5=2) pseudo=read geom=check guess=
 (read,tcheck) scf=(maxcycle=1)\\title\\0,1\Cl,0,2.548922,0.63176,0.048
 277\S,0,1.321249,-1.026648,-0.054167\P,0,-1.337696,0.033363,-0.08967\O
 ,0,-1.873118,-0.875196,-1.098458\O,0,-2.295628,0.42723,1.113786\H,0,-2
 .881816,-0.295258,1.369287\O,0,-0.82051,1.44615,-0.590953\H,0,-1.13466
 ,1.653889,-1.479132\O,0,-0.059462,-0.51976,0.763233\\Version=ES64L-G16
 RevC.01\State=1-A\HF=-1498.71202\RMSD=3.873e-03\Dipole=-0.2739903,0.16

 Normal termination of Gaussian 16 at Wed Apr  9 00:15:44 2025.
