 Gaussian 16, Revision C.01,

 ----------------------------------------------------------------------
 #t hf aug-cc-pvdz symm=none int=(grid=ultrafine) guess=(read,tcheck) s
 table=opt
 ----------------------------------------------------------------------
 -----
 title
 -----
 Symbolic Z-matrix:
 Charge =  0 Multiplicity = 2

 SCF Done:  E(UHF) =  -711.600328081     A.U. after   15 cycles

 1\1\GINC-SE099\Stability\UHF\Aug-CC-pVDZ\B1F4Si1\OHZDE\09-Apr-2025\0\\
 #t hf aug-cc-pvdz symm=none int=(grid=ultrafine) guess=(read,tcheck) s
 table=opt\\title\\0,2\F,0,-2.621452,0.093324,0.000019\B,0,-1.538552,-0
 .625136,0.000115\Si,0,0.386229,-0.015778,-0.000002\F,0,1.084329,-0.631
 812,-1.285447\F,0,0.70671,1.541756,-0.00024\F,0,1.084364,-0.631426,1.2
 85608\\Version=ES64L-G16RevC.01\HF=-711.6003281\S2=0.757937\S2-1=0.\S2
 A=0.750015\RMSD=3.615e-09\Dipole=-0.5648298,-0.1123554,0.0000262\Quadr
 upole=-0.6078932,-0.6316804,1.2395737,0.4628031,-0.0000471,0.0002766\P

 Normal termination of Gaussian 16 at Wed Apr  9 00:29:01 2025.
 Gaussian 16:  ES64L-G16RevC.01  3-Jul-2019

 ----------------------------------------------------------------------
 #t hf aug-cc-pvdz iop(5/13=1,5/36=2,99/5=2) pseudo=read geom=check gue
 ss=(read,tcheck) scf=(maxcycle=1)
 ----------------------------------------------------------------------
 -----
 title
 -----
 Structure from the checkpoint file:  "BDE49_nonexpt_359_mol2.chk"
 Charge =  0 Multiplicity = 2

                         Standard orientation:
 ---------------------------------------------------------------------
 Center     Atomic      Atomic             Coordinates (Angstroms)
 Number     Number       Type             X           Y           Z
 ---------------------------------------------------------------------
      1          9           0       -2.621452    0.093323    0.000019
      2          5           0       -1.538552   -0.625136    0.000115
      3         14           0        0.386229   -0.015778   -0.000002
      4          9           0        1.084329   -0.631812   -1.285447
      5          9           0        0.706710    1.541756   -0.000240
      6          9           0        1.084364   -0.631426    1.285608
 ---------------------------------------------------------------------

 SCF Done:  E(UHF) =  -711.809023026     A.U. after    2 cycles

 The electronic state is 2-A.
 Alpha  occ. eigenvalues --  -69.22338 -26.18688 -26.14707 -26.14667 -26.14665
 Alpha  occ. eigenvalues --   -7.74789  -6.96054  -4.07019  -4.07014  -4.06826
 Alpha  occ. eigenvalues --   -1.73235  -1.68995  -1.67183  -1.67156  -0.90109
 Alpha  occ. eigenvalues --   -0.88079  -0.82157  -0.81339  -0.81292  -0.78675
 Alpha  occ. eigenvalues --   -0.78550  -0.76246  -0.76184  -0.73829  -0.73827
 Alpha  occ. eigenvalues --   -0.72425  -0.60611  -0.37804
 Alpha virt. eigenvalues --    0.01541   0.04262   0.05079   0.05850   0.07674
 Alpha virt. eigenvalues --    0.07865   0.07889   0.08321   0.14078   0.17366
 Alpha virt. eigenvalues --    0.18550   0.19557   0.22919   0.23864   0.24991

  Beta  occ. eigenvalues --  -69.22219 -26.18329 -26.14669 -26.14668 -26.14559
  Beta  occ. eigenvalues --   -7.73001  -6.95844  -4.06925  -4.06915  -4.06528
  Beta  occ. eigenvalues --   -1.72272  -1.68857  -1.67165  -1.66861  -0.88939
  Beta  occ. eigenvalues --   -0.87695  -0.81244  -0.81018  -0.79138  -0.78623
  Beta  occ. eigenvalues --   -0.77707  -0.76239  -0.75860  -0.73827  -0.73645
  Beta  occ. eigenvalues --   -0.72351  -0.55737
  Beta virt. eigenvalues --    0.02952   0.02965   0.04842   0.05140   0.07731
  Beta virt. eigenvalues --    0.07786   0.08050   0.08844   0.09305   0.14744
  Beta virt. eigenvalues --    0.19108   0.19270   0.20737   0.24046   0.24534

 Mulliken charges and spin densities:
               1          2
     1  F   -0.285747  -0.029320
     2  B    0.136337   0.971637
     3  Si   2.450234   0.058831
     4  F   -0.752927   0.005612
     5  F   -0.794969  -0.012374
     6  F   -0.752928   0.005612
 Sum of Mulliken charges =  -0.00000   1.00000

 Dipole moment (field-independent basis, Debye):
    X=             -1.4380    Y=             -0.4521    Z=              0.0001  Tot=              1.5074
                          Isotropic Fermi Contact Couplings
        Atom                 a.u.       MegaHertz       Gauss      10(-4) cm-1
     1  F(19)              0.05626     236.69864      84.45996      78.95417
     2  B(11)              0.29990     430.16087     153.49209     143.48622
     3  Si(29)             0.21780    -193.56766     -69.06975     -64.56722
     4  F(19)             -0.00200      -8.43526      -3.00991      -2.81370
     5  F(19)              0.03264     137.31359      48.99690      45.80288
     6  F(19)             -0.00200      -8.43550      -3.01000      -2.81378
 --------------------------------------------------------
       Center         ----  Spin Dipole Couplings  ----

 Normal termination of Gaussian 16 at Wed Apr  9 00:29:04 2025.
