 Gaussian 16, Revision C.01,

 ----------------------------------------------------------------------
 #t hf aug-cc-pvdz symm=none int=(grid=ultrafine) guess=(read,tcheck) s
 table=(opt,rrhf)
 ----------------------------------------------------------------------
 -----
 title
 -----
 Symbolic Z-matrix:
 Charge =  0 Multiplicity = 1

 SCF Done:  E(RHF) =  -1021.26641380     A.U. after   13 cycles
 Normal termination of Gaussian 16 at Tue Apr  8 23:53:20 2025.
 Gaussian 16:  ES64L-G16RevC.01  3-Jul-2019

 ----------------------------------------------------------------------
 #t hf aug-cc-pvdz iop(5/13=1,5/36=2,99/5=2) pseudo=read geom=check gue
 ss=(read,tcheck) scf=(maxcycle=1)
 ----------------------------------------------------------------------
 -----
 title
 -----
 Structure from the checkpoint file:  "BDE49_nonexpt_196_mol1.chk"
 Charge =  0 Multiplicity = 1

                         Standard orientation:
 ---------------------------------------------------------------------
 Center     Atomic      Atomic             Coordinates (Angstroms)
 Number     Number       Type             X           Y           Z
 ---------------------------------------------------------------------
      1         17           0       -1.780704   -0.641314   -0.000349
      2         17           0        0.233041    1.617796   -0.000241
      3          5           0       -0.090516   -0.121628    0.001188
      4          6           0        1.032540   -1.171760    0.000477
      5          6           0        2.339068   -0.874742    0.000153
      6          1           0        0.741114   -2.219743    0.000245
      7          1           0        2.688919    0.152567    0.000363
      8          1           0        3.103177   -1.645871   -0.000304
 ---------------------------------------------------------------------

 SCF Done:  E(RHF) =  -1021.33266046     A.U. after    2 cycles

 The electronic state is 1-A.
 Alpha  occ. eigenvalues -- -103.66652-103.66599 -11.28325 -11.24622 -10.70145
 Alpha  occ. eigenvalues --  -10.70082  -8.35833  -8.35777  -8.35612  -8.35586
 Alpha  occ. eigenvalues --   -8.35561  -8.35526  -7.72849  -1.17978  -1.14205
 Alpha  occ. eigenvalues --   -1.05437  -0.82693  -0.69991  -0.65588  -0.61884
 Alpha  occ. eigenvalues --   -0.56499  -0.53159  -0.52833  -0.47830  -0.47438
 Alpha  occ. eigenvalues --   -0.46573  -0.40634
 Alpha virt. eigenvalues --    0.03304   0.04247   0.04803   0.05163   0.05732
 Alpha virt. eigenvalues --    0.06953   0.07510   0.08607   0.12396   0.13587
 Alpha virt. eigenvalues --    0.13877   0.14281   0.16132   0.16168   0.16936

 Mulliken charges:
               1
     1  Cl  -0.305699
     2  Cl  -0.311904
     3  B    0.540540
     4  C    0.625388
     5  C    0.306018
     6  H   -0.347623
     7  H   -0.261040
     8  H   -0.245680
 Sum of Mulliken charges =  -0.00000

 Dipole moment (field-independent basis, Debye):
    X=              2.1910    Y=             -1.2010    Z=              0.0023  Tot=              2.4985

 Test job not archived.
 1\1\GINC-SE457\SP\RHF\Aug-CC-pVDZ\C2H3B1Cl2\OHZDE\08-Apr-2025\0\\#t hf
  aug-cc-pvdz iop(5/13=1,5/36=2,99/5=2) pseudo=read geom=check guess=(r
 ead,tcheck) scf=(maxcycle=1)\\title\\0,1\Cl,0,1.780704,-0.641314,0.000
 349\Cl,0,-0.233041,1.617796,0.000241\B,0,0.090516,-0.121628,-0.001188\
 C,0,-1.03254,-1.17176,-0.000477\C,0,-2.339068,-0.874742,-0.000153\H,0,
 -0.741115,-2.219743,-0.000245\H,0,-2.688919,0.152567,-0.000363\H,0,-3.
 103177,-1.64587,0.000304\\Version=ES64L-G16RevC.01\State=1-A\HF=-1021.
 3326605\RMSD=4.602e-03\Dipole=-0.8619887,-0.4725151,-0.0008928\Quadrup

 Normal termination of Gaussian 16 at Tue Apr  8 23:53:23 2025.
