 Gaussian 16, Revision C.01,

 ----------------------------------------------------------------------
 #t hf aug-cc-pvdz symm=none int=(grid=ultrafine) guess=(read,tcheck) s
 table=(opt,rrhf)
 ----------------------------------------------------------------------
 -----
 title
 -----
 Symbolic Z-matrix:
 Charge =  0 Multiplicity = 1

 SCF Done:  E(RHF) =  -1125.38345327     A.U. after   13 cycles
 Normal termination of Gaussian 16 at Wed Apr  9 00:13:36 2025.
 Gaussian 16:  ES64L-G16RevC.01  3-Jul-2019

 ----------------------------------------------------------------------
 #t hf aug-cc-pvdz iop(5/13=1,5/36=2,99/5=2) pseudo=read geom=check gue
 ss=(read,tcheck) scf=(maxcycle=1)
 ----------------------------------------------------------------------
 -----
 title
 -----
 Structure from the checkpoint file:  "BDE49_nonexpt_2486_mol1.chk"
 Charge =  0 Multiplicity = 1

                         Standard orientation:
 ---------------------------------------------------------------------
 Center     Atomic      Atomic             Coordinates (Angstroms)
 Number     Number       Type             X           Y           Z
 ---------------------------------------------------------------------
      1         14           0       -1.860044    0.565220    0.085129
      2         16           0       -0.406166   -0.970672   -0.390935
      3         16           0        1.236526   -0.181944    0.670022
      4          6           0        2.086846    0.805783   -0.609395
      5          1           0        2.978656    1.207896   -0.121951
      6          1           0        1.461277    1.628604   -0.953348
      7          1           0        2.384841    0.175415   -1.446000
      8          1           0       -3.097610    0.179998   -0.632028
      9          1           0       -1.389374    1.884960   -0.388396
     10          1           0       -2.104004    0.617210    1.540890
 ---------------------------------------------------------------------

 SCF Done:  E(RHF) =  -1125.45947526     A.U. after    2 cycles

 The electronic state is 1-A.
 Alpha  occ. eigenvalues --  -93.56450 -93.54946 -69.09662 -11.27640  -8.85947
 Alpha  occ. eigenvalues --   -8.84707  -6.84701  -6.20054  -6.19792  -6.19474
 Alpha  occ. eigenvalues --   -6.18790  -6.18548  -6.18285  -3.95518  -3.95442
 Alpha  occ. eigenvalues --   -3.95407  -1.05390  -0.94985  -0.81250  -0.69631
 Alpha  occ. eigenvalues --   -0.60429  -0.60229  -0.53096  -0.50662  -0.49553
 Alpha  occ. eigenvalues --   -0.47635  -0.44131  -0.37000  -0.35076
 Alpha virt. eigenvalues --    0.03514   0.04415   0.05158   0.05888   0.06676
 Alpha virt. eigenvalues --    0.07260   0.07407   0.08192   0.09427   0.09919
 Alpha virt. eigenvalues --    0.11561   0.12713   0.13743   0.14441   0.15105

 Mulliken charges:
               1
     1  Si   0.599602
     2  S   -0.434561
     3  S    0.054329
     4  C    0.067417
     5  H   -0.058231
     6  H   -0.095715
     7  H   -0.029983
     8  H   -0.054762
     9  H   -0.028042
    10  H   -0.020053
 Sum of Mulliken charges =   0.00000

 Dipole moment (field-independent basis, Debye):
    X=              0.3256    Y=              1.7190    Z=             -0.7743  Tot=              1.9132

 Test job not archived.
 1\1\GINC-SE419\SP\RHF\Aug-CC-pVDZ\C1H6S2Si1\OHZDE\09-Apr-2025\0\\#t hf
  aug-cc-pvdz iop(5/13=1,5/36=2,99/5=2) pseudo=read geom=check guess=(r
 ead,tcheck) scf=(maxcycle=1)\\title\\0,1\Si,0,-1.860044,0.56522,0.0851
 29\S,0,-0.406166,-0.970672,-0.390935\S,0,1.236526,-0.181944,0.670022\C
 ,0,2.086846,0.805783,-0.609395\H,0,2.978656,1.207896,-0.121951\H,0,1.4
 61277,1.628604,-0.953348\H,0,2.384841,0.175415,-1.446\H,0,-3.09761,0.1
 79998,-0.632028\H,0,-1.389374,1.88496,-0.388396\H,0,-2.104004,0.61721,
 1.54089\\Version=ES64L-G16RevC.01\State=1-A\HF=-1125.4594753\RMSD=5.88

 Normal termination of Gaussian 16 at Wed Apr  9 00:13:39 2025.
