 Gaussian 16, Revision C.01,

 ----------------------------------------------------------------------
 #t hf aug-cc-pvdz symm=none int=(grid=ultrafine) guess=(read,tcheck) s
 table=(opt,rrhf)
 ----------------------------------------------------------------------
 -----
 title
 -----
 Symbolic Z-matrix:
 Charge =  0 Multiplicity = 1

 SCF Done:  E(RHF) =  -976.918095087     A.U. after   14 cycles
 Normal termination of Gaussian 16 at Tue Apr  8 23:44:00 2025.
 Gaussian 16:  ES64L-G16RevC.01  3-Jul-2019

 ----------------------------------------------------------------------
 #t hf aug-cc-pvdz iop(5/13=1,5/36=2,99/5=2) pseudo=read geom=check gue
 ss=(read,tcheck) scf=(maxcycle=1)
 ----------------------------------------------------------------------
 -----
 title
 -----
 Structure from the checkpoint file:  "BDE49_nonexpt_1746_mol1.chk"
 Charge =  0 Multiplicity = 1

                         Standard orientation:
 ---------------------------------------------------------------------
 Center     Atomic      Atomic             Coordinates (Angstroms)
 Number     Number       Type             X           Y           Z
 ---------------------------------------------------------------------
      1          6           0       -0.522383    2.069670   -0.564383
      2         14           0       -0.302761    0.521155    0.437779
      3          1           0       -0.559707    1.845587   -1.632718
      4          1           0        0.327345    2.732558   -0.379024
      5          1           0       -1.441230    2.590038   -0.284568
      6          6           0        1.395383   -0.273544    0.037008
      7         17           0       -1.798375   -0.884353   -0.020902
      8          8           0        2.370903    0.410580    0.213916
      9          8           0        1.502457   -1.539311   -0.426610
     10          1           0        0.619431   -1.928565   -0.502864
     11          1           0       -0.359690    0.751317    1.891412
 ---------------------------------------------------------------------

 SCF Done:  E(RHF) =  -977.034325824     A.U. after    2 cycles

 The electronic state is 1-A.
 Alpha  occ. eigenvalues -- -103.67506 -69.14009 -20.63610 -20.58082 -11.39736
 Alpha  occ. eigenvalues --  -11.25051 -10.70922  -8.36606  -8.36405  -8.36387
 Alpha  occ. eigenvalues --   -6.88870  -3.99729  -3.99586  -3.99537  -1.42759
 Alpha  occ. eigenvalues --   -1.34341  -1.15756  -0.97575  -0.86211  -0.79545
 Alpha  occ. eigenvalues --   -0.68768  -0.67163  -0.65068  -0.60698  -0.59912
 Alpha  occ. eigenvalues --   -0.57538  -0.53884  -0.53031  -0.51192  -0.50848
 Alpha  occ. eigenvalues --   -0.47145  -0.44056
 Alpha virt. eigenvalues --    0.03016   0.04421   0.04734   0.05417   0.06756
 Alpha virt. eigenvalues --    0.07233   0.07492   0.09557   0.09883   0.11097
 Alpha virt. eigenvalues --    0.11769   0.13595   0.14234   0.14408   0.15222

 Mulliken charges:
               1
     1  C    0.225864
     2  Si   1.120834
     3  H   -0.159819
     4  H   -0.126598
     5  H   -0.197886
     6  C    0.420874
     7  Cl  -0.565917
     8  O   -0.468133
     9  O   -0.444059
    10  H    0.190493
    11  H    0.004347
 Sum of Mulliken charges =  -0.00000

 Dipole moment (field-independent basis, Debye):
    X=             -3.3407    Y=              0.9442    Z=             -0.1823  Tot=              3.4764

 Test job not archived.
 1\1\GINC-SE108\SP\RHF\Aug-CC-pVDZ\C2H5Cl1O2Si1\OHZDE\08-Apr-2025\0\\#t
  hf aug-cc-pvdz iop(5/13=1,5/36=2,99/5=2) pseudo=read geom=check guess
 =(read,tcheck) scf=(maxcycle=1)\\title\\0,1\C,0,-0.522383,2.06967,-0.5
 64383\Si,0,-0.302761,0.521155,0.437779\H,0,-0.559707,1.845587,-1.63271
 8\H,0,0.327345,2.732558,-0.379024\H,0,-1.44123,2.590038,-0.284568\C,0,
 1.395383,-0.273544,0.037008\Cl,0,-1.798375,-0.884353,-0.020902\O,0,2.3
 70903,0.41058,0.213916\O,0,1.502457,-1.539311,-0.42661\H,0,0.619431,-1
 .928565,-0.502864\H,0,-0.35969,0.751317,1.891412\\Version=ES64L-G16Rev

 Normal termination of Gaussian 16 at Tue Apr  8 23:44:04 2025.
