 Gaussian 16, Revision C.01,

 ----------------------------------------------------------------------
 #t hf aug-cc-pvdz symm=none int=(grid=ultrafine) guess=(read,tcheck) s
 table=(opt,rrhf)
 ----------------------------------------------------------------------
 -----
 title
 -----
 Symbolic Z-matrix:
 Charge =  0 Multiplicity = 1

 SCF Done:  E(RHF) =  -611.939245852     A.U. after   14 cycles
 Normal termination of Gaussian 16 at Wed Apr  9 00:06:58 2025.
 Gaussian 16:  ES64L-G16RevC.01  3-Jul-2019

 ----------------------------------------------------------------------
 #t hf aug-cc-pvdz iop(5/13=1,5/36=2,99/5=2) pseudo=read geom=check gue
 ss=(read,tcheck) scf=(maxcycle=1)
 ----------------------------------------------------------------------
 -----
 title
 -----
 Structure from the checkpoint file:  "BDE49_nonexpt_2284_mol1.chk"
 Charge =  0 Multiplicity = 1

                         Standard orientation:
 ---------------------------------------------------------------------
 Center     Atomic      Atomic             Coordinates (Angstroms)
 Number     Number       Type             X           Y           Z
 ---------------------------------------------------------------------
      1         14           0       -0.509300    0.669046    0.432409
      2          8           0        0.962241   -0.160520    0.705673
      3          7           0        1.748039   -0.457604   -0.460293
      4          8           0        2.730035   -1.020081   -0.178508
      5          6           0       -1.671278   -0.389722   -0.589328
      6          6           0       -0.174856    2.327211   -0.361539
      7          1           0       -1.103807    2.899149   -0.451393
      8          1           0        0.249462    2.213391   -1.362795
      9          1           0        0.523841    2.915502    0.239211
     10          6           0       -2.014351   -1.757032    0.029765
     11          1           0       -1.231510   -0.523014   -1.585033
     12          1           0       -2.588193    0.193664   -0.745257
     13          1           0       -1.117977   -2.364896    0.176540
     14          1           0       -2.696909   -2.323443   -0.609608
     15          1           0       -2.494510   -1.643633    1.005732
     16          1           0       -1.021762    0.831924    1.810214
 ---------------------------------------------------------------------

 SCF Done:  E(RHF) =  -612.072817187     A.U. after    2 cycles

 The electronic state is 1-A.
 Alpha  occ. eigenvalues --  -69.09415 -20.67345 -20.61198 -15.85572 -11.23635
 Alpha  occ. eigenvalues --  -11.22913 -11.22583  -6.84277  -3.95186  -3.95041
 Alpha  occ. eigenvalues --   -3.94994  -1.54814  -1.32092  -1.02157  -0.95226
 Alpha  occ. eigenvalues --   -0.92374  -0.85088  -0.77709  -0.73123  -0.68614
 Alpha  occ. eigenvalues --   -0.64908  -0.61708  -0.58803  -0.57542  -0.57087
 Alpha  occ. eigenvalues --   -0.54788  -0.52916  -0.52165  -0.50208  -0.47579
 Alpha  occ. eigenvalues --   -0.44569  -0.42806
 Alpha virt. eigenvalues --    0.03035   0.04138   0.04685   0.05197   0.06482
 Alpha virt. eigenvalues --    0.06650   0.06800   0.07885   0.08430   0.08626
 Alpha virt. eigenvalues --    0.09306   0.10027   0.11027   0.13412   0.14074

 Mulliken charges:
               1
     1  Si   1.487336
     2  O   -0.931619
     3  N    0.401721
     4  O   -0.306293
     5  C    0.234769
     6  C    0.373365
     7  H   -0.225349
     8  H   -0.197390
     9  H   -0.312214
    10  C    0.209747
    11  H   -0.213853
    12  H   -0.213615
    13  H   -0.149245
    14  H   -0.069259
    15  H   -0.125486
    16  H    0.037387
 Sum of Mulliken charges =  -0.00000

 Dipole moment (field-independent basis, Debye):
    X=             -2.4468    Y=              1.3366    Z=             -1.1646  Tot=              3.0215

 Test job not archived.
 1\1\GINC-SE362\SP\RHF\Aug-CC-pVDZ\C3H9N1O2Si1\OHZDE\09-Apr-2025\0\\#t
 hf aug-cc-pvdz iop(5/13=1,5/36=2,99/5=2) pseudo=read geom=check guess=
 (read,tcheck) scf=(maxcycle=1)\\title\\0,1\Si,0,-0.5093,0.669046,0.432
 409\O,0,0.962241,-0.160519,0.705673\N,0,1.748039,-0.457603,-0.460293\O
 ,0,2.730035,-1.02008,-0.178508\C,0,-1.671278,-0.389722,-0.589328\C,0,-
 0.174857,2.327211,-0.361539\H,0,-1.103808,2.899149,-0.451393\H,0,0.249
 461,2.213391,-1.362795\H,0,0.52384,2.915502,0.239211\C,0,-2.01435,-1.7
 57032,0.029765\H,0,-1.23151,-0.523014,-1.585033\H,0,-2.588193,0.193663

 Normal termination of Gaussian 16 at Wed Apr  9 00:07:04 2025.
