 Gaussian 16, Revision C.01,

 ----------------------------------------------------------------------
 #t hf aug-cc-pvdz symm=none int=(grid=ultrafine) guess=(read,tcheck) s
 table=opt
 ----------------------------------------------------------------------
 -----
 title
 -----
 Symbolic Z-matrix:
 Charge =  0 Multiplicity = 2

 SCF Done:  E(UHF) =  -877.541279226     A.U. after   14 cycles

 1\1\GINC-SE331\Stability\UHF\Aug-CC-pVDZ\F3H2Si2\OHZDE\08-Apr-2025\0\\
 #t hf aug-cc-pvdz symm=none int=(grid=ultrafine) guess=(read,tcheck) s
 table=opt\\title\\0,2\Si,0,1.932082,0.,-0.072754\Si,0,-0.390201,0.,0.0
 04425\F,0,-0.970658,-1.282114,-0.736839\F,0,-1.018021,-0.000001,1.4672
 15\F,0,-0.970658,1.282115,-0.736837\H,0,2.523855,-1.226443,0.507375\H,
 0,2.523855,1.226443,0.507376\\Version=ES64L-G16RevC.01\HF=-877.5412792
 \S2=0.757892\S2-1=0.\S2A=0.750025\RMSD=7.871e-09\Dipole=1.0012873,0.,0
 .0220628\Quadrupole=1.5172128,-0.5920759,-0.925137,-0.0000012,0.102331

 Normal termination of Gaussian 16 at Tue Apr  8 23:55:23 2025.
 Gaussian 16:  ES64L-G16RevC.01  3-Jul-2019

 ----------------------------------------------------------------------
 #t hf aug-cc-pvdz iop(5/13=1,5/36=2,99/5=2) pseudo=read geom=check gue
 ss=(read,tcheck) scf=(maxcycle=1)
 ----------------------------------------------------------------------
 -----
 title
 -----
 Structure from the checkpoint file:  "BDE49_nonexpt_2018_mol2.chk"
 Charge =  0 Multiplicity = 2

                         Standard orientation:
 ---------------------------------------------------------------------
 Center     Atomic      Atomic             Coordinates (Angstroms)
 Number     Number       Type             X           Y           Z
 ---------------------------------------------------------------------
      1         14           0        1.932082   -0.000000   -0.072754
      2         14           0       -0.390201    0.000000    0.004425
      3          9           0       -0.970658   -1.282114   -0.736839
      4          9           0       -1.018021   -0.000001    1.467215
      5          9           0       -0.970658    1.282115   -0.736837
      6          1           0        2.523855   -1.226443    0.507375
      7          1           0        2.523855    1.226443    0.507376
 ---------------------------------------------------------------------

 SCF Done:  E(UHF) =  -877.717008035     A.U. after    2 cycles

 The electronic state is 2-A.
 Alpha  occ. eigenvalues --  -69.21585 -69.10210 -26.13843 -26.13841 -26.13802
 Alpha  occ. eigenvalues --   -6.95200  -6.85745  -4.06202  -4.06194  -4.05919
 Alpha  occ. eigenvalues --   -3.97112  -3.96184  -3.96177  -1.68097  -1.66252
 Alpha  occ. eigenvalues --   -1.66249  -0.87363  -0.80393  -0.80385  -0.78520
 Alpha  occ. eigenvalues --   -0.75384  -0.75329  -0.72975  -0.72969  -0.72344
 Alpha  occ. eigenvalues --   -0.71574  -0.51920  -0.48390  -0.35654
 Alpha virt. eigenvalues --    0.03410   0.04914   0.05859   0.06602   0.07134
 Alpha virt. eigenvalues --    0.07559   0.07575   0.08107   0.11518   0.12657
 Alpha virt. eigenvalues --    0.14073   0.15552   0.15767   0.17613   0.18255

  Beta  occ. eigenvalues --  -69.21580 -69.09632 -26.13859 -26.13857 -26.13707
  Beta  occ. eigenvalues --   -6.95191  -6.84893  -4.06194  -4.06179  -4.05917
  Beta  occ. eigenvalues --   -3.95763  -3.95760  -3.94879  -1.68045  -1.66304
  Beta  occ. eigenvalues --   -1.66063  -0.87217  -0.80427  -0.80232  -0.77887
  Beta  occ. eigenvalues --   -0.75383  -0.75159  -0.72984  -0.72806  -0.71517
  Beta  occ. eigenvalues --   -0.68233  -0.51402  -0.47377
  Beta virt. eigenvalues --    0.00264   0.03693   0.05001   0.05991   0.07310
  Beta virt. eigenvalues --    0.07656   0.07756   0.08570   0.08728   0.12676
  Beta virt. eigenvalues --    0.13167   0.15893   0.17561   0.18022   0.18650

 Mulliken charges and spin densities:
               1          2
     1  Si  -0.118539   1.116295
     2  Si   2.399873  -0.051608
     3  F   -0.735825   0.008245
     4  F   -0.756819  -0.034815
     5  F   -0.735825   0.008245
     6  H   -0.026432  -0.023181
     7  H   -0.026432  -0.023181
 Sum of Mulliken charges =  -0.00000   1.00000

 Dipole moment (field-independent basis, Debye):
    X=              2.7826    Y=             -0.0000    Z=              0.0040  Tot=              2.7827
                          Isotropic Fermi Contact Couplings
        Atom                 a.u.       MegaHertz       Gauss      10(-4) cm-1
     1  Si(29)             0.49566    -440.50414    -157.18283    -146.93636
     2  Si(29)             0.00639      -5.67546      -2.02515      -1.89313
     3  F(19)             -0.00486     -20.44755      -7.29619      -6.82057
     4  F(19)              0.02208      92.90284      33.15004      30.98905
     5  F(19)             -0.00486     -20.44753      -7.29619      -6.82056
     6  H(1)              -0.00474     -21.19613      -7.56331      -7.07027
     7  H(1)              -0.00474     -21.19614      -7.56331      -7.07027
 --------------------------------------------------------

 Normal termination of Gaussian 16 at Tue Apr  8 23:55:25 2025.
