 Gaussian 16, Revision C.01,

 ----------------------------------------------------------------------
 #t hf aug-cc-pvdz symm=none int=(grid=ultrafine) guess=(read,tcheck) s
 table=(opt,rrhf)
 ----------------------------------------------------------------------
 -----
 title
 -----
 Symbolic Z-matrix:
 Charge =  0 Multiplicity = 1

 SCF Done:  E(RHF) =  -871.439459900     A.U. after   10 cycles
 Normal termination of Gaussian 16 at Tue Apr  8 22:56:37 2025.
 Gaussian 16:  ES64L-G16RevC.01  3-Jul-2019

 ----------------------------------------------------------------------
 #t hf aug-cc-pvdz iop(5/13=1,5/36=2,99/5=2) pseudo=read geom=check gue
 ss=(read,tcheck) scf=(maxcycle=1)
 ----------------------------------------------------------------------
 -----
 title
 -----
 Structure from the checkpoint file:  "BDE49_expt_1939_mol1.chk"
 Charge =  0 Multiplicity = 1

                         Standard orientation:
 ---------------------------------------------------------------------
 Center     Atomic      Atomic             Coordinates (Angstroms)
 Number     Number       Type             X           Y           Z
 ---------------------------------------------------------------------
      1         14           0        1.958631   -0.420723    0.000008
      2         14           0        0.000000    0.893405   -0.000004
      3          1           0        1.993879   -1.286270   -1.203701
      4          1           0        1.993872   -1.286259    1.203724
      5          1           0        3.166734    0.439499    0.000008
      6         14           0       -1.958631   -0.420723   -0.000004
      7          1           0        0.000004    1.769312   -1.200495
      8          1           0       -0.000004    1.769323    1.200479
      9          1           0       -1.993872   -1.286270   -1.203713
     10          1           0       -3.166734    0.439499   -0.000012
     11          1           0       -1.993880   -1.286259    1.203712
 ---------------------------------------------------------------------

 SCF Done:  E(RHF) =  -871.499861427     A.U. after    2 cycles

 The electronic state is 1-A.
 Alpha  occ. eigenvalues --  -69.06480 -69.06479 -69.06039  -6.81885  -6.81883
 Alpha  occ. eigenvalues --   -6.81541  -3.92642  -3.92640  -3.92640  -3.92637
 Alpha  occ. eigenvalues --   -3.92623  -3.92619  -3.92283  -3.92257  -3.92244
 Alpha  occ. eigenvalues --   -0.75241  -0.70153  -0.64262  -0.50545  -0.49280
 Alpha  occ. eigenvalues --   -0.48436  -0.48391  -0.46929  -0.41923  -0.38074
 Alpha virt. eigenvalues --    0.03674   0.04220   0.04567   0.06274   0.06830
 Alpha virt. eigenvalues --    0.07213   0.07496   0.07627   0.08513   0.09328
 Alpha virt. eigenvalues --    0.09386   0.09557   0.10233   0.10312   0.10322

 Mulliken charges:
               1
     1  Si  -0.006145
     2  Si  -0.125522
     3  H    0.005464
     4  H    0.005465
     5  H    0.020080
     6  Si  -0.006145
     7  H    0.037897
     8  H    0.037897
     9  H    0.005464
    10  H    0.020080
    11  H    0.005465
 Sum of Mulliken charges =  -0.00000

 Dipole moment (field-independent basis, Debye):
    X=              0.0000    Y=              0.0633    Z=              0.0000  Tot=              0.0633

 Test job not archived.
 1\1\GINC-SE218\SP\RHF\Aug-CC-pVDZ\H8Si3\OHZDE\08-Apr-2025\0\\#t hf aug
 -cc-pvdz iop(5/13=1,5/36=2,99/5=2) pseudo=read geom=check guess=(read,
 tcheck) scf=(maxcycle=1)\\title\\0,1\Si,0,1.958631,-0.420723,0.000008\
 Si,0,0.,0.893405,-0.000004\H,0,1.993879,-1.28627,-1.203701\H,0,1.99387
 2,-1.286259,1.203724\H,0,3.166734,0.439499,0.000008\Si,0,-1.958631,-0.
 420723,-0.000004\H,0,0.000004,1.769312,-1.200495\H,0,-0.000004,1.76932
 3,1.200479\H,0,-1.993872,-1.28627,-1.203713\H,0,-3.166734,0.439499,-0.
 000012\H,0,-1.99388,-1.286259,1.203712\\Version=ES64L-G16RevC.01\State

 Normal termination of Gaussian 16 at Tue Apr  8 22:56:40 2025.
