 Gaussian 16, Revision C.01,

 ----------------------------------------------------------------------
 #t hf aug-cc-pvdz symm=none int=(grid=ultrafine) guess=(read,tcheck) s
 table=(opt,rrhf)
 ----------------------------------------------------------------------
 -----
 title
 -----
 Symbolic Z-matrix:
 Charge =  0 Multiplicity = 1

 SCF Done:  E(RHF) =  -632.919218061     A.U. after   12 cycles

 1\1\GINC-SE159\Stability\RHF\Aug-CC-pVDZ\C6H14S1\OHZDE\08-Apr-2025\0\\
 #t hf aug-cc-pvdz symm=none int=(grid=ultrafine) guess=(read,tcheck) s
 table=(opt,rrhf)\\title\\0,1\C,0,1.094778,1.172735,-0.193254\C,0,-0.20
 5937,0.904526,0.57195\C,0,-3.686667,-0.693857,-0.304291\C,0,-2.588018,
 -0.033511,0.53353\H,0,-3.353452,-1.656475,-0.704116\H,0,-4.5877,-0.873
 828,0.288447\C,0,-1.303092,0.232272,-0.258856\H,0,-2.354327,-0.670873,
 1.395085\H,0,-2.962758,0.910699,0.947561\H,0,-1.536784,0.866416,-1.124
 448\H,0,-0.921529,-0.710913,-0.66423\H,0,-0.575407,1.868357,0.946708\H

 Normal termination of Gaussian 16 at Tue Apr  8 22:46:40 2025.
 Gaussian 16:  ES64L-G16RevC.01  3-Jul-2019

 ----------------------------------------------------------------------
 #t hf aug-cc-pvdz iop(5/13=1,5/36=2,99/5=2) pseudo=read geom=check gue
 ss=(read,tcheck) scf=(maxcycle=1)
 ----------------------------------------------------------------------
 -----
 title
 -----
 Structure from the checkpoint file:  "BDE49_expt_1573_mol1.chk"
 Charge =  0 Multiplicity = 1

                         Standard orientation:
 ---------------------------------------------------------------------
 Center     Atomic      Atomic             Coordinates (Angstroms)
 Number     Number       Type             X           Y           Z
 ---------------------------------------------------------------------
      1          6           0        1.094778    1.172735   -0.193254
      2          6           0       -0.205937    0.904526    0.571950
      3          6           0       -3.686667   -0.693857   -0.304291
      4          6           0       -2.588018   -0.033511    0.533530
      5          1           0       -3.353452   -1.656475   -0.704116
      6          1           0       -4.587700   -0.873828    0.288447
      7          6           0       -1.303092    0.232272   -0.258856
      8          1           0       -2.354327   -0.670873    1.395085
      9          1           0       -2.962758    0.910699    0.947561
     10          1           0       -1.536784    0.866416   -1.124448
     11          1           0       -0.921529   -0.710913   -0.664230
     12          1           0       -0.575407    1.868357    0.946708
     13          1           0        0.006494    0.299603    1.460975
     14         16           0        2.040897   -0.307604   -0.721411
     15          1           0        1.768289    1.804796    0.392141
     16          6           0        2.734681   -0.852105    0.873195
     17          1           0        1.956129   -1.162758    1.571115
     18          1           0        3.345243   -0.065332    1.320903
     19          1           0        3.371176   -1.711082    0.657063
     20          1           0        0.884204    1.706561   -1.124506
     21          1           0       -3.968405   -0.063861   -1.153776
 ---------------------------------------------------------------------

 SCF Done:  E(RHF) =  -633.015719838     A.U. after    2 cycles

 The electronic state is 1-A.
 Alpha  occ. eigenvalues --  -93.51995 -11.26394 -11.26035 -11.23513 -11.22763
 Alpha  occ. eigenvalues --  -11.22404 -11.22131  -8.81703  -6.15857  -6.15642
 Alpha  occ. eigenvalues --   -6.15336  -1.08300  -1.04022  -0.99126  -0.92569
 Alpha  occ. eigenvalues --   -0.85224  -0.79870  -0.76823  -0.64870  -0.62075
 Alpha  occ. eigenvalues --   -0.60195  -0.58743  -0.57242  -0.56552  -0.56098
 Alpha  occ. eigenvalues --   -0.51754  -0.50765  -0.47407  -0.47090  -0.46469
 Alpha  occ. eigenvalues --   -0.46106  -0.41651  -0.33182
 Alpha virt. eigenvalues --    0.03442   0.04118   0.04252   0.04793   0.05864
 Alpha virt. eigenvalues --    0.05930   0.06501   0.06761   0.07969   0.08461
 Alpha virt. eigenvalues --    0.08682   0.08999   0.09726   0.10896   0.12115

 Mulliken charges:
               1
     1  C    0.423725
     2  C    0.217688
     3  C    0.510354
     4  C    0.225042
     5  H   -0.079384
     6  H   -0.057479
     7  C   -0.102251
     8  H   -0.150597
     9  H   -0.150034
    10  H   -0.179312
    11  H   -0.169899
    12  H   -0.120189
    13  H   -0.221537
    14  S    0.399485
    15  H   -0.114213
    16  C    0.093843
    17  H   -0.103437
    18  H   -0.090430
    19  H   -0.105237
    20  H   -0.147095
    21  H   -0.079042
 Sum of Mulliken charges =  -0.00000

 Dipole moment (field-independent basis, Debye):
    X=             -0.3651    Y=              0.6794    Z=              1.6223  Tot=              1.7963

 Test job not archived.
 1\1\GINC-SE159\SP\RHF\Aug-CC-pVDZ\C6H14S1\OHZDE\08-Apr-2025\0\\#t hf a
 ug-cc-pvdz iop(5/13=1,5/36=2,99/5=2) pseudo=read geom=check guess=(rea
 d,tcheck) scf=(maxcycle=1)\\title\\0,1\C,0,1.094778,1.172735,-0.193254
 \C,0,-0.205937,0.904526,0.57195\C,0,-3.686667,-0.693857,-0.304291\C,0,
 -2.588018,-0.033511,0.53353\H,0,-3.353452,-1.656475,-0.704116\H,0,-4.5
 877,-0.873828,0.288447\C,0,-1.303092,0.232272,-0.258856\H,0,-2.354327,
 -0.670873,1.395085\H,0,-2.962758,0.910699,0.947561\H,0,-1.536784,0.866
 416,-1.124448\H,0,-0.921529,-0.710913,-0.66423\H,0,-0.575407,1.868357,

 Normal termination of Gaussian 16 at Tue Apr  8 22:46:50 2025.
