 Gaussian 16, Revision C.01,

 ----------------------------------------------------------------------
 #t hf aug-cc-pvdz symm=none int=(grid=ultrafine) guess=(read,tcheck) s
 table=(opt,rrhf)
 ----------------------------------------------------------------------
 -----
 title
 -----
 Symbolic Z-matrix:
 Charge =  0 Multiplicity = 1

 SCF Done:  E(RHF) =  -828.314783036     A.U. after   11 cycles
 Normal termination of Gaussian 16 at Tue Apr  8 23:43:13 2025.
 Gaussian 16:  ES64L-G16RevC.01  3-Jul-2019

 ----------------------------------------------------------------------
 #t hf aug-cc-pvdz iop(5/13=1,5/36=2,99/5=2) pseudo=read geom=check gue
 ss=(read,tcheck) scf=(maxcycle=1)
 ----------------------------------------------------------------------
 -----
 title
 -----
 Structure from the checkpoint file:  "BDE49_nonexpt_1734_mol1.chk"
 Charge =  0 Multiplicity = 1

                         Standard orientation:
 ---------------------------------------------------------------------
 Center     Atomic      Atomic             Coordinates (Angstroms)
 Number     Number       Type             X           Y           Z
 ---------------------------------------------------------------------
      1         14           0       -0.202122    0.901076    0.176192
      2          6           0        1.460510    0.340743   -0.477724
      3          6           0        2.067346   -0.883315    0.229236
      4          1           0        1.422617   -1.759742    0.129566
      5          1           0        2.211547   -0.698550    1.297450
      6          1           0        3.041762   -1.138844   -0.195488
      7         17           0       -1.626501   -0.611054   -0.078474
      8          1           0        2.132629    1.204871   -0.388978
      9          1           0        1.355319    0.150615   -1.551693
     10          1           0       -0.699822    2.082617   -0.557965
     11          1           0       -0.150957    1.187318    1.625400
 ---------------------------------------------------------------------

 SCF Done:  E(RHF) =  -828.384227071     A.U. after    2 cycles

 The electronic state is 1-A.
 Alpha  occ. eigenvalues -- -103.64435 -69.10668 -11.23980 -11.23780 -10.67875
 Alpha  occ. eigenvalues --   -8.33565  -8.33348  -8.33343  -6.85561  -3.96418
 Alpha  occ. eigenvalues --   -3.96265  -3.96251  -1.12770  -1.02488  -0.85856
 Alpha  occ. eigenvalues --   -0.69377  -0.62205  -0.59118  -0.54166  -0.52767
 Alpha  occ. eigenvalues --   -0.50916  -0.50070  -0.48669  -0.45018  -0.43261
 Alpha virt. eigenvalues --    0.03270   0.04723   0.04925   0.05176   0.06702
 Alpha virt. eigenvalues --    0.07364   0.07485   0.07947   0.09771   0.10345
 Alpha virt. eigenvalues --    0.12656   0.13922   0.14625   0.15243   0.15519

 Mulliken charges:
               1
     1  Si   0.801727
     2  C    0.031810
     3  C    0.233361
     4  H   -0.082497
     5  H   -0.102224
     6  H   -0.073787
     7  Cl  -0.554856
     8  H   -0.146515
     9  H   -0.123873
    10  H   -0.016719
    11  H    0.033572
 Sum of Mulliken charges =   0.00000

 Dipole moment (field-independent basis, Debye):
    X=              2.1013    Y=              1.0027    Z=             -0.0831  Tot=              2.3297

 Test job not archived.
 1\1\GINC-SE365\SP\RHF\Aug-CC-pVDZ\C2H7Cl1Si1\OHZDE\08-Apr-2025\0\\#t h
 f aug-cc-pvdz iop(5/13=1,5/36=2,99/5=2) pseudo=read geom=check guess=(
 read,tcheck) scf=(maxcycle=1)\\title\\0,1\Si,0,-0.202122,0.901076,0.17
 6192\C,0,1.46051,0.340743,-0.477724\C,0,2.067346,-0.883315,0.229236\H,
 0,1.422617,-1.759742,0.129566\H,0,2.211547,-0.69855,1.29745\H,0,3.0417
 62,-1.138844,-0.195488\Cl,0,-1.626501,-0.611054,-0.078474\H,0,2.132629
 ,1.204871,-0.388978\H,0,1.355319,0.150615,-1.551693\H,0,-0.699822,2.08
 2617,-0.557965\H,0,-0.150957,1.187318,1.6254\\Version=ES64L-G16RevC.01

 Normal termination of Gaussian 16 at Tue Apr  8 23:43:16 2025.
