 Gaussian 16, Revision C.01,

 ----------------------------------------------------------------------
 #t hf aug-cc-pvdz symm=none int=(grid=ultrafine) guess=(read,tcheck) s
 table=(opt,rrhf)
 ----------------------------------------------------------------------
 -----
 title
 -----
 Symbolic Z-matrix:
 Charge =  0 Multiplicity = 1

 SCF Done:  E(RHF) =  -614.931112764     A.U. after   15 cycles
 Normal termination of Gaussian 16 at Wed Apr  9 00:01:49 2025.
 Gaussian 16:  ES64L-G16RevC.01  3-Jul-2019

 ----------------------------------------------------------------------
 #t hf aug-cc-pvdz iop(5/13=1,5/36=2,99/5=2) pseudo=read geom=check gue
 ss=(read,tcheck) scf=(maxcycle=1)
 ----------------------------------------------------------------------
 -----
 title
 -----
 Structure from the checkpoint file:  "BDE49_nonexpt_2150_mol1.chk"
 Charge =  0 Multiplicity = 1

                         Standard orientation:
 ---------------------------------------------------------------------
 Center     Atomic      Atomic             Coordinates (Angstroms)
 Number     Number       Type             X           Y           Z
 ---------------------------------------------------------------------
      1         14           0       -2.398689   -0.239813   -0.428458
      2          7           0       -0.863274   -1.010317   -0.133303
      3          6           0        0.420048   -0.459328   -0.071157
      4          6           0        0.650443    0.900751   -0.335527
      5          6           0        1.522606   -1.265845    0.257553
      6          6           0        2.803350   -0.730727    0.320442
      7          6           0        3.023794    0.620885    0.059891
      8          6           0        1.936489    1.427142   -0.268668
      9          1           0        4.022920    1.036494    0.110793
     10          1           0        2.086580    2.480508   -0.479255
     11          1           0       -0.175346    1.549146   -0.606835
     12          1           0        1.365763   -2.320269    0.464763
     13          1           0        3.635666   -1.377487    0.576278
     14          1           0       -0.880379   -2.007578    0.024953
     15          6           0       -2.945343    0.916597    0.941466
     16          1           0       -3.054021    0.380224    1.887838
     17          1           0       -3.911687    1.365974    0.690662
     18          1           0       -2.228867    1.727812    1.094671
     19          1           0       -3.340307   -1.376626   -0.550750
     20          1           0       -2.364077    0.514556   -1.705573
 ---------------------------------------------------------------------

 SCF Done:  E(RHF) =  -615.058069402     A.U. after    2 cycles

 The electronic state is 1-A.
 Alpha  occ. eigenvalues --  -69.07927 -15.61839 -11.29322 -11.24586 -11.24571
 Alpha  occ. eigenvalues --  -11.23443 -11.23427 -11.22933 -11.21819  -6.82925
 Alpha  occ. eigenvalues --   -3.93806  -3.93717  -3.93642  -1.18817  -1.11105
 Alpha  occ. eigenvalues --   -1.00793  -0.97850  -0.94178  -0.83435  -0.81595
 Alpha  occ. eigenvalues --   -0.71600  -0.69740  -0.66621  -0.62465  -0.60424
 Alpha  occ. eigenvalues --   -0.58799  -0.57417  -0.56359  -0.54069  -0.53714
 Alpha  occ. eigenvalues --   -0.50906  -0.48772  -0.47563  -0.46811  -0.42576
 Alpha  occ. eigenvalues --   -0.34105  -0.29266
 Alpha virt. eigenvalues --    0.03091   0.03731   0.03926   0.04947   0.05308
 Alpha virt. eigenvalues --    0.05621   0.06945   0.07142   0.07850   0.08249
 Alpha virt. eigenvalues --    0.08485   0.10174   0.10558   0.11455   0.11899

 Mulliken charges:
               1
     1  Si   0.812788
     2  N   -0.730681
     3  C    0.559759
     4  C    0.470472
     5  C    0.544784
     6  C    0.522010
     7  C    0.526407
     8  C    0.483377
     9  H   -0.460620
    10  H   -0.445229
    11  H   -0.709727
    12  H   -0.628997
    13  H   -0.434640
    14  H   -0.143144
    15  C    0.251774
    16  H   -0.208212
    17  H   -0.253480
    18  H   -0.207552
    19  H   -0.012623
    20  H    0.063533
 Sum of Mulliken charges =  -0.00000

 Dipole moment (field-independent basis, Debye):
    X=             -0.6908    Y=             -0.4541    Z=              0.5749  Tot=              1.0069

 Test job not archived.
 1\1\GINC-SE423\SP\RHF\Aug-CC-pVDZ\C7H11N1Si1\OHZDE\09-Apr-2025\0\\#t h
 f aug-cc-pvdz iop(5/13=1,5/36=2,99/5=2) pseudo=read geom=check guess=(
 read,tcheck) scf=(maxcycle=1)\\title\\0,1\Si,0,-2.398689,-0.239813,-0.
 428458\N,0,-0.863274,-1.010317,-0.133303\C,0,0.420048,-0.459328,-0.071
 157\C,0,0.650443,0.900751,-0.335527\C,0,1.522606,-1.265845,0.257553\C,
 0,2.80335,-0.730727,0.320442\C,0,3.023794,0.620885,0.059891\C,0,1.9364
 89,1.427142,-0.268668\H,0,4.02292,1.036494,0.110793\H,0,2.08658,2.4805
 08,-0.479255\H,0,-0.175346,1.549146,-0.606835\H,0,1.365763,-2.320269,0

 Normal termination of Gaussian 16 at Wed Apr  9 00:02:00 2025.
