 Gaussian 16, Revision C.01,

 ----------------------------------------------------------------------
 #t hf aug-cc-pvdz symm=none int=(grid=ultrafine) guess=(read,tcheck) s
 table=(opt,rrhf)
 ----------------------------------------------------------------------
 -----
 title
 -----
 Symbolic Z-matrix:
 Charge =  0 Multiplicity = 1

 SCF Done:  E(RHF) =  -809.219245025     A.U. after   12 cycles
 Normal termination of Gaussian 16 at Wed Apr  9 00:09:26 2025.
 Gaussian 16:  ES64L-G16RevC.01  3-Jul-2019

 ----------------------------------------------------------------------
 #t hf aug-cc-pvdz iop(5/13=1,5/36=2,99/5=2) pseudo=read geom=check gue
 ss=(read,tcheck) scf=(maxcycle=1)
 ----------------------------------------------------------------------
 -----
 title
 -----
 Structure from the checkpoint file:  "BDE49_nonexpt_2358_mol1.chk"
 Charge =  0 Multiplicity = 1

                         Standard orientation:
 ---------------------------------------------------------------------
 Center     Atomic      Atomic             Coordinates (Angstroms)
 Number     Number       Type             X           Y           Z
 ---------------------------------------------------------------------
      1         14           0       -0.955140   -0.949042   -0.255561
      2         14           0        1.348164   -0.922821    0.275269
      3          8           0       -1.561413    0.515999    0.238921
      4          1           0       -1.660915   -2.065346    0.437857
      5          1           0       -1.201523   -1.133247   -1.713434
      6          6           0       -2.921029    0.912480    0.095151
      7          1           0       -3.023821    1.920057    0.501232
      8          1           0       -3.590897    0.241891    0.646310
      9          1           0       -3.222646    0.925226   -0.959038
     10          8           0        2.125118    0.379279   -0.380999
     11          1           0        2.010072   -2.117791   -0.294597
     12          1           0        1.502144   -0.945405    1.756168
     13          6           0        1.874031    1.739935   -0.037102
     14          1           0        2.434490    2.366956   -0.732145
     15          1           0        2.214191    1.954611    0.982594
     16          1           0        0.808920    1.982414   -0.112534
 ---------------------------------------------------------------------

 SCF Done:  E(RHF) =  -809.356716237     A.U. after    2 cycles

 The electronic state is 1-A.
 Alpha  occ. eigenvalues --  -69.08618 -69.08586 -20.56623 -20.56039 -11.29568
 Alpha  occ. eigenvalues --  -11.28801  -6.83489  -6.83478  -3.94379  -3.94369
 Alpha  occ. eigenvalues --   -3.94257  -3.94236  -3.94213  -3.94160  -1.30760
 Alpha  occ. eigenvalues --   -1.30173  -0.93440  -0.92801  -0.73853  -0.70451
 Alpha  occ. eigenvalues --   -0.64517  -0.63965  -0.63084  -0.62792  -0.61621
 Alpha  occ. eigenvalues --   -0.58339  -0.50608  -0.50024  -0.49193  -0.48721
 Alpha  occ. eigenvalues --   -0.45773  -0.44632  -0.38306
 Alpha virt. eigenvalues --    0.03392   0.04273   0.04837   0.05235   0.06065
 Alpha virt. eigenvalues --    0.06191   0.06532   0.07335   0.07371   0.08635
 Alpha virt. eigenvalues --    0.09377   0.09660   0.10131   0.10168   0.11561

 Mulliken charges:
               1
     1  Si   0.583393
     2  Si   0.388797
     3  O   -0.755047
     4  H    0.004576
     5  H   -0.005260
     6  C    0.844646
     7  H   -0.278094
     8  H   -0.164688
     9  H   -0.137040
    10  O   -0.941159
    11  H    0.049502
    12  H    0.077642
    13  C    0.879735
    14  H   -0.221525
    15  H   -0.143182
    16  H   -0.182297
 Sum of Mulliken charges =  -0.00000

 Dipole moment (field-independent basis, Debye):
    X=             -1.8010    Y=              0.8807    Z=              0.3169  Tot=              2.0297

 Test job not archived.
 1\1\GINC-SE361\SP\RHF\Aug-CC-pVDZ\C2H10O2Si2\OHZDE\09-Apr-2025\0\\#t h
 f aug-cc-pvdz iop(5/13=1,5/36=2,99/5=2) pseudo=read geom=check guess=(
 read,tcheck) scf=(maxcycle=1)\\title\\0,1\Si,0,-0.95514,-0.949042,-0.2
 55561\Si,0,1.348164,-0.922821,0.275269\O,0,-1.561413,0.515999,0.238921
 \H,0,-1.660915,-2.065346,0.437857\H,0,-1.201523,-1.133247,-1.713434\C,
 0,-2.921029,0.91248,0.095151\H,0,-3.023821,1.920057,0.501232\H,0,-3.59
 0897,0.241891,0.64631\H,0,-3.222646,0.925226,-0.959038\O,0,2.125118,0.
 379279,-0.380999\H,0,2.010072,-2.117791,-0.294597\H,0,1.502144,-0.9454

 Normal termination of Gaussian 16 at Wed Apr  9 00:09:31 2025.
