 Gaussian 16, Revision C.01,

 ----------------------------------------------------------------------
 #t hf aug-cc-pvdz symm=none int=(grid=ultrafine) guess=(read,tcheck) s
 table=(opt,rrhf)
 ----------------------------------------------------------------------
 -----
 title
 -----
 Symbolic Z-matrix:
 Charge =  0 Multiplicity = 1

 SCF Done:  E(RHF) =  -131.943448076     A.U. after   11 cycles
 Normal termination of Gaussian 16 at Tue Apr  8 23:00:35 2025.
 Gaussian 16:  ES64L-G16RevC.01  3-Jul-2019

 ----------------------------------------------------------------------
 #t hf aug-cc-pvdz iop(5/13=1,5/36=2,99/5=2) pseudo=read geom=check gue
 ss=(read,tcheck) scf=(maxcycle=1)
 ----------------------------------------------------------------------
 -----
 title
 -----
 Structure from the checkpoint file:  "BDE49_expt_298_mol1.chk"
 Charge =  0 Multiplicity = 1

                         Standard orientation:
 ---------------------------------------------------------------------
 Center     Atomic      Atomic             Coordinates (Angstroms)
 Number     Number       Type             X           Y           Z
 ---------------------------------------------------------------------
      1          6           0       -1.175720   -0.000001   -0.000001
      2          6           0        0.280806    0.000004    0.000004
      3          1           0       -1.553403   -0.476393    0.906927
      4          1           0       -1.553387   -0.547233   -0.866034
      5          1           0       -1.553375    1.023628   -0.040902
      6          7           0        1.432807   -0.000003   -0.000001
 ---------------------------------------------------------------------

 SCF Done:  E(RHF) =  -131.984869209     A.U. after    2 cycles

 The electronic state is 1-A.
 Alpha  occ. eigenvalues --  -15.63930 -11.29769 -11.29222  -1.19543  -1.03612
 Alpha  occ. eigenvalues --   -0.70017  -0.63262  -0.63262  -0.54646  -0.46164
 Alpha  occ. eigenvalues --   -0.46164
 Alpha virt. eigenvalues --    0.02569   0.05126   0.05126   0.07558   0.11623
 Alpha virt. eigenvalues --    0.12469   0.12469   0.14357   0.14357   0.15112
 Alpha virt. eigenvalues --    0.18115   0.18115   0.21304   0.24348   0.25372

 Mulliken charges:
               1
     1  C    0.367152
     2  C   -0.309499
     3  H    0.046954
     4  H    0.046955
     5  H    0.046962
     6  N   -0.198524
 Sum of Mulliken charges =  -0.00000

 Dipole moment (field-independent basis, Debye):
    X=             -4.1529    Y=              0.0000    Z=              0.0000  Tot=              4.1529

 Test job not archived.
 1\1\GINC-SE082\SP\RHF\Aug-CC-pVDZ\C2H3N1\OHZDE\08-Apr-2025\0\\#t hf au
 g-cc-pvdz iop(5/13=1,5/36=2,99/5=2) pseudo=read geom=check guess=(read
 ,tcheck) scf=(maxcycle=1)\\title\\0,1\C,0,1.17572,0.000001,-0.000001\C
 ,0,-0.280806,-0.000004,0.000004\H,0,1.553403,0.498566,0.894929\H,0,1.5
 53387,0.525756,-0.879238\H,0,1.553375,-1.024324,-0.015701\N,0,-1.43280
 7,0.000003,-0.000001\\Version=ES64L-G16RevC.01\State=1-A\HF=-131.98486
 92\RMSD=3.330e-03\Dipole=1.6338575,-0.0000008,0.0000002\Quadrupole=-1.
 5823751,0.7912016,0.7911735,0.0000285,0.0000028,-0.000002\PG=C01 [X(C2

 Normal termination of Gaussian 16 at Tue Apr  8 23:00:37 2025.
