 Gaussian 16, Revision C.01,

 ----------------------------------------------------------------------
 #t hf aug-cc-pvdz symm=none int=(grid=ultrafine) guess=(read,tcheck) s
 table=(opt,rrhf)
 ----------------------------------------------------------------------
 -----
 title
 -----
 Symbolic Z-matrix:
 Charge =  0 Multiplicity = 1

 SCF Done:  E(RHF) =  -626.582175336     A.U. after   14 cycles
 Normal termination of Gaussian 16 at Tue Apr  8 23:15:46 2025.
 Gaussian 16:  ES64L-G16RevC.01  3-Jul-2019

 ----------------------------------------------------------------------
 #t hf aug-cc-pvdz iop(5/13=1,5/36=2,99/5=2) pseudo=read geom=check gue
 ss=(read,tcheck) scf=(maxcycle=1)
 ----------------------------------------------------------------------
 -----
 title
 -----
 Structure from the checkpoint file:  "BDE49_nonexpt_1051_mol1.chk"
 Charge =  0 Multiplicity = 1

                         Standard orientation:
 ---------------------------------------------------------------------
 Center     Atomic      Atomic             Coordinates (Angstroms)
 Number     Number       Type             X           Y           Z
 ---------------------------------------------------------------------
      1         17           0       -1.335747   -0.400181    0.000000
      2          8           0        0.000000    0.798017    0.000000
      3          6           0        1.161570    0.250466    0.000000
      4          7           0        2.248327   -0.154837    0.000000
 ---------------------------------------------------------------------

 SCF Done:  E(RHF) =  -626.653451411     A.U. after    2 cycles

 The electronic state is 1-A'.
 Alpha  occ. eigenvalues -- -103.78707 -20.75037 -15.66614 -11.37575 -10.81239
 Alpha  occ. eigenvalues --   -8.46993  -8.46510  -8.46491  -1.48302  -1.21873
 Alpha  occ. eigenvalues --   -1.17970  -0.84596  -0.73390  -0.71624  -0.57624
 Alpha  occ. eigenvalues --   -0.54832  -0.54791  -0.47939  -0.46811
 Alpha virt. eigenvalues --   -0.03566   0.05861   0.08728   0.09245   0.09396
 Alpha virt. eigenvalues --    0.12564   0.13551   0.14172   0.18276   0.19155
 Alpha virt. eigenvalues --    0.20634   0.22695   0.23838   0.25690   0.27591

 Mulliken charges:
               1
     1  Cl   0.412196
     2  O   -0.427683
     3  C    0.081971
     4  N   -0.066484
 Sum of Mulliken charges =  -0.00000

 Dipole moment (field-independent basis, Debye):
    X=             -3.3378    Y=             -0.1737    Z=              0.0000  Tot=              3.3423

 Test job not archived.
 1\1\GINC-SE329\SP\RHF\Aug-CC-pVDZ\C1Cl1N1O1\OHZDE\08-Apr-2025\0\\#t hf
  aug-cc-pvdz iop(5/13=1,5/36=2,99/5=2) pseudo=read geom=check guess=(r
 ead,tcheck) scf=(maxcycle=1)\\title\\0,1\Cl,0,-1.335747,-0.400181,0.\O
 ,0,0.,0.798017,0.\C,0,1.16157,0.250466,0.\N,0,2.248327,-0.154836,0.\\V
 ersion=ES64L-G16RevC.01\State=1-A'\HF=-626.6534514\RMSD=2.589e-03\Dipo
 le=-1.3131894,-0.0683417,0.\Quadrupole=-2.6047173,1.4963524,1.1083648,
 2.33191,0.,0.\PG=CS [SG(C1Cl1N1O1)]\\@

 Normal termination of Gaussian 16 at Tue Apr  8 23:15:48 2025.
