 Gaussian 16, Revision C.01,

 ----------------------------------------------------------------------
 #t hf aug-cc-pvdz symm=none int=(grid=ultrafine) guess=(read,tcheck) s
 table=(opt,rrhf)
 ----------------------------------------------------------------------
 -----
 title
 -----
 Symbolic Z-matrix:
 Charge =  0 Multiplicity = 1

 SCF Done:  E(RHF) =  -1073.15298856     A.U. after   20 cycles
 Normal termination of Gaussian 16 at Tue Apr  8 23:17:21 2025.
 Gaussian 16:  ES64L-G16RevC.01  3-Jul-2019

 ----------------------------------------------------------------------
 #t hf aug-cc-pvdz iop(5/13=1,5/36=2,99/5=2) pseudo=read geom=check gue
 ss=(read,tcheck) scf=(maxcycle=1)
 ----------------------------------------------------------------------
 -----
 title
 -----
 Structure from the checkpoint file:  "BDE49_nonexpt_1004_mol1.chk"
 Charge =  0 Multiplicity = 1

                         Standard orientation:
 ---------------------------------------------------------------------
 Center     Atomic      Atomic             Coordinates (Angstroms)
 Number     Number       Type             X           Y           Z
 ---------------------------------------------------------------------
      1          6           0        2.506464   -0.036336    0.011830
      2          6           0        2.001796    1.259898   -0.003518
      3          6           0        0.626151    1.434919   -0.028838
      4          6           0        1.682764   -1.155170    0.002992
      5          6           0        0.306563   -0.966939   -0.021940
      6          6           0       -0.229142    0.324941   -0.038104
      7          1           0        2.684330    2.097963    0.004157
      8          1           0        0.192754    2.426486   -0.041739
      9          1           0        2.123240   -2.141915    0.016823
     10          1           0       -0.347912   -1.829356   -0.025521
     11          6           0       -1.703977    0.599539   -0.067080
     12         16           0       -2.782021   -0.871335   -0.144197
     13          7           0       -4.449888    0.169076    0.187847
     14          8           0       -5.410382   -0.465634    0.158780
     15          8           0       -2.157133    1.712458   -0.051845
     16          7           0        3.977605   -0.232463    0.038664
     17          8           0        4.678263    0.768804    0.045272
     18          8           0        4.392025   -1.382279    0.052270
 ---------------------------------------------------------------------

 SCF Done:  E(RHF) =  -1073.37175133     A.U. after    2 cycles

 The electronic state is 1-A.
 Alpha  occ. eigenvalues --  -93.58721 -20.73475 -20.63360 -20.63333 -20.60464
 Alpha  occ. eigenvalues --  -15.93572 -15.87713 -11.41250 -11.34424 -11.30829
 Alpha  occ. eigenvalues --  -11.30178 -11.30062 -11.29944 -11.29487  -8.88425
 Alpha  occ. eigenvalues --   -6.22457  -6.22291  -6.21942  -1.59130  -1.56604
 Alpha  occ. eigenvalues --   -1.40441  -1.38223  -1.21123  -1.11489  -1.06862
 Alpha  occ. eigenvalues --   -1.04442  -0.99058  -0.93333  -0.88880  -0.86618
 Alpha  occ. eigenvalues --   -0.80873  -0.80522  -0.76248  -0.75365  -0.74215
 Alpha  occ. eigenvalues --   -0.72749  -0.71785  -0.70080  -0.69032  -0.67328
 Alpha  occ. eigenvalues --   -0.64843  -0.62516  -0.61617  -0.61377  -0.55240
 Alpha  occ. eigenvalues --   -0.55114  -0.53053  -0.52637  -0.48877  -0.45170
 Alpha  occ. eigenvalues --   -0.41681  -0.40195  -0.39710  -0.38850
 Alpha virt. eigenvalues --   -0.00271   0.03079   0.03658   0.04351   0.04964
 Alpha virt. eigenvalues --    0.05780   0.06259   0.07461   0.08137   0.08359
 Alpha virt. eigenvalues --    0.08823   0.09436   0.09748   0.11251   0.11561

 Mulliken charges:
               1
     1  C    1.070999
     2  C    0.693224
     3  C   -0.006180
     4  C    0.224182
     5  C    0.533630
     6  C    1.354270
     7  H   -0.442790
     8  H   -0.651159
     9  H   -0.446969
    10  H   -0.540812
    11  C   -0.587493
    12  S    0.494585
    13  N    0.017077
    14  O   -0.275613
    15  O   -0.457719
    16  N    0.115805
    17  O   -0.547724
    18  O   -0.547313
 Sum of Mulliken charges =  -0.00000

 Dipole moment (field-independent basis, Debye):
    X=             -2.5545    Y=             -0.9787    Z=              0.0002  Tot=              2.7355

 Test job not archived.
 1\1\GINC-SE092\SP\RHF\Aug-CC-pVDZ\C7H4N2O4S1\OHZDE\08-Apr-2025\0\\#t h
 f aug-cc-pvdz iop(5/13=1,5/36=2,99/5=2) pseudo=read geom=check guess=(
 read,tcheck) scf=(maxcycle=1)\\title\\0,1\C,0,-2.506464,-0.036336,-0.0
 1183\C,0,-2.001796,1.259898,0.003518\C,0,-0.626151,1.434919,0.028838\C
 ,0,-1.682764,-1.15517,-0.002992\C,0,-0.306563,-0.966939,0.02194\C,0,0.
 229142,0.324941,0.038104\H,0,-2.68433,2.097963,-0.004157\H,0,-0.192754
 ,2.426486,0.041739\H,0,-2.12324,-2.141915,-0.016823\H,0,0.347912,-1.82
 9356,0.025521\C,0,1.703977,0.599539,0.06708\S,0,2.782021,-0.871335,0.1

 Normal termination of Gaussian 16 at Tue Apr  8 23:17:35 2025.
