 Gaussian 16, Revision C.01,

 ----------------------------------------------------------------------
 #t hf aug-cc-pvdz symm=none int=(grid=ultrafine) guess=(read,tcheck) s
 table=(opt,rrhf)
 ----------------------------------------------------------------------
 -----
 title
 -----
 Symbolic Z-matrix:
 Charge =  0 Multiplicity = 1

 SCF Done:  E(RHF) =  -901.970332583     A.U. after   13 cycles
 Normal termination of Gaussian 16 at Tue Apr  8 23:49:20 2025.
 Gaussian 16:  ES64L-G16RevC.01  3-Jul-2019

 ----------------------------------------------------------------------
 #t hf aug-cc-pvdz iop(5/13=1,5/36=2,99/5=2) pseudo=read geom=check gue
 ss=(read,tcheck) scf=(maxcycle=1)
 ----------------------------------------------------------------------
 -----
 title
 -----
 Structure from the checkpoint file:  "BDE49_nonexpt_1872_mol1.chk"
 Charge =  0 Multiplicity = 1

                         Standard orientation:
 ---------------------------------------------------------------------
 Center     Atomic      Atomic             Coordinates (Angstroms)
 Number     Number       Type             X           Y           Z
 ---------------------------------------------------------------------
      1          6           0       -0.619265    0.396339    0.857752
      2         14           0       -2.015875   -0.317637   -0.238604
      3          6           0        0.640266    0.656303    0.104181
      4          8           0        1.000219    1.657704   -0.406089
      5          1           0       -3.217991   -0.413872    0.617439
      6          1           0       -1.640028   -1.653921   -0.739745
      7          1           0       -2.266989    0.603898   -1.365917
      8         17           0        1.684325   -0.865356   -0.036877
      9          1           0       -0.443735   -0.306377    1.673119
     10          1           0       -0.970295    1.350756    1.259587
 ---------------------------------------------------------------------

 SCF Done:  E(RHF) =  -902.059516435     A.U. after    2 cycles

 The electronic state is 1-A.
 Alpha  occ. eigenvalues -- -103.66657 -69.09295 -20.61415 -11.43110 -11.27503
 Alpha  occ. eigenvalues --  -10.69974  -8.35669  -8.35392  -8.35381  -6.84552
 Alpha  occ. eigenvalues --   -3.95351  -3.95317  -3.95302  -1.42290  -1.15782
 Alpha  occ. eigenvalues --   -1.03227  -0.79053  -0.72445  -0.69481  -0.68364
 Alpha  occ. eigenvalues --   -0.62136  -0.59983  -0.50850  -0.50046  -0.48954
 Alpha  occ. eigenvalues --   -0.47628  -0.47454  -0.46069
 Alpha virt. eigenvalues --    0.02910   0.04258   0.04750   0.06030   0.07271
 Alpha virt. eigenvalues --    0.07979   0.08466   0.08761   0.09576   0.10429
 Alpha virt. eigenvalues --    0.11003   0.14019   0.14163   0.14664   0.14951

 Mulliken charges:
               1
     1  C    0.174210
     2  Si   0.435618
     3  C    0.076985
     4  O   -0.369434
     5  H   -0.012276
     6  H    0.011662
     7  H    0.013772
     8  Cl  -0.190934
     9  H   -0.082822
    10  H   -0.056780
 Sum of Mulliken charges =   0.00000

 Dipole moment (field-independent basis, Debye):
    X=             -2.9753    Y=             -0.8443    Z=              1.7716  Tot=              3.5642

 Test job not archived.
 1\1\GINC-SE396\SP\RHF\Aug-CC-pVDZ\C2H5Cl1O1Si1\OHZDE\08-Apr-2025\0\\#t
  hf aug-cc-pvdz iop(5/13=1,5/36=2,99/5=2) pseudo=read geom=check guess
 =(read,tcheck) scf=(maxcycle=1)\\title\\0,1\C,0,-0.619265,0.396339,0.8
 57752\Si,0,-2.015875,-0.317637,-0.238604\C,0,0.640266,0.656303,0.10418
 1\O,0,1.000219,1.657704,-0.406089\H,0,-3.217991,-0.413872,0.617439\H,0
 ,-1.640028,-1.653921,-0.739745\H,0,-2.266989,0.603898,-1.365917\Cl,0,1
 .684325,-0.865356,-0.036877\H,0,-0.443735,-0.306377,1.673119\H,0,-0.97
 0295,1.350756,1.259587\\Version=ES64L-G16RevC.01\State=1-A\HF=-902.059

 Normal termination of Gaussian 16 at Tue Apr  8 23:49:23 2025.
