 Gaussian 16, Revision C.01,

 ----------------------------------------------------------------------
 #t hf aug-cc-pvdz symm=none int=(grid=ultrafine) guess=(read,tcheck) s
 table=(opt,rrhf)
 ----------------------------------------------------------------------
 -----
 title
 -----
 Symbolic Z-matrix:
 Charge =  0 Multiplicity = 1

 SCF Done:  E(RHF) =  -433.601383899     A.U. after   13 cycles
 Normal termination of Gaussian 16 at Wed Apr  9 00:43:09 2025.
 Gaussian 16:  ES64L-G16RevC.01  3-Jul-2019

 ----------------------------------------------------------------------
 #t hf aug-cc-pvdz iop(5/13=1,5/36=2,99/5=2) pseudo=read geom=check gue
 ss=(read,tcheck) scf=(maxcycle=1)
 ----------------------------------------------------------------------
 -----
 title
 -----
 Structure from the checkpoint file:  "BDE49_nonexpt_771_mol1.chk"
 Charge =  0 Multiplicity = 1

                         Standard orientation:
 ---------------------------------------------------------------------
 Center     Atomic      Atomic             Coordinates (Angstroms)
 Number     Number       Type             X           Y           Z
 ---------------------------------------------------------------------
      1          5           0       -1.315978    1.604646    0.133219
      2         14           0       -1.342629   -0.389726   -0.147848
      3          6           0        1.770262    0.953099    0.012937
      4          6           0        0.318168   -1.128786    0.428201
      5          6           0        1.561671   -0.538090   -0.261562
      6          1           0        0.275444   -2.210657    0.261060
      7          1           0        0.393317   -0.989041    1.513443
      8          1           0        1.498991   -0.704530   -1.342998
      9          1           0        2.451784   -1.082374    0.075396
     10          1           0        1.852177    1.154779    1.084569
     11          1           0        0.939399    1.560939   -0.378327
     12          1           0        2.675766    1.328982   -0.470864
     13          1           0       -1.376025    2.395987   -0.757081
     14          1           0       -1.228245    2.040118    1.241102
     15          1           0       -1.572767   -0.782028   -1.564031
     16          1           0       -2.433756   -0.996580    0.664044
 ---------------------------------------------------------------------

 SCF Done:  E(RHF) =  -433.669995508     A.U. after    2 cycles

 The electronic state is 1-A.
 Alpha  occ. eigenvalues --  -69.03920 -11.23929 -11.23568 -11.22067  -7.61879
 Alpha  occ. eigenvalues --   -6.79395  -3.90171  -3.90153  -3.90117  -1.05130
 Alpha  occ. eigenvalues --   -0.92745  -0.81053  -0.71420  -0.63990  -0.61646
 Alpha  occ. eigenvalues --   -0.60876  -0.56109  -0.51472  -0.50562  -0.49163
 Alpha  occ. eigenvalues --   -0.48274  -0.45192  -0.42769  -0.39554
 Alpha virt. eigenvalues --    0.03397   0.03664   0.04359   0.04732   0.05538
 Alpha virt. eigenvalues --    0.06104   0.06355   0.06870   0.07137   0.08002
 Alpha virt. eigenvalues --    0.09273   0.09639   0.09915   0.10337   0.10829

 Mulliken charges:
               1
     1  B   -0.689336
     2  Si  -0.035709
     3  C    0.457738
     4  C    0.133328
     5  C    0.159035
     6  H   -0.214793
     7  H   -0.157032
     8  H   -0.115749
     9  H   -0.091540
    10  H   -0.114309
    11  H   -0.232526
    12  H   -0.077220
    13  H    0.349671
    14  H    0.438907
    15  H    0.148037
    16  H    0.041498
 Sum of Mulliken charges =  -0.00000

 Dipole moment (field-independent basis, Debye):
    X=              0.9390    Y=             -0.0182    Z=              0.1994  Tot=              0.9601

 Test job not archived.
 1\1\GINC-SE338\SP\RHF\Aug-CC-pVDZ\C3H11B1Si1\OHZDE\09-Apr-2025\0\\#t h
 f aug-cc-pvdz iop(5/13=1,5/36=2,99/5=2) pseudo=read geom=check guess=(
 read,tcheck) scf=(maxcycle=1)\\title\\0,1\B,0,-1.315978,1.604646,0.133
 219\Si,0,-1.342629,-0.389726,-0.147848\C,0,1.770262,0.953099,0.012937\
 C,0,0.318168,-1.128786,0.428201\C,0,1.561671,-0.53809,-0.261562\H,0,0.
 275444,-2.210657,0.26106\H,0,0.393317,-0.989041,1.513443\H,0,1.498991,
 -0.70453,-1.342998\H,0,2.451784,-1.082374,0.075396\H,0,1.852177,1.1547
 79,1.084569\H,0,0.939399,1.560939,-0.378327\H,0,2.675766,1.328982,-0.4

 Normal termination of Gaussian 16 at Wed Apr  9 00:43:13 2025.
