 Gaussian 16, Revision C.01,

 ----------------------------------------------------------------------
 #t hf aug-cc-pvdz symm=none int=(grid=ultrafine) guess=(read,tcheck) s
 table=(opt,rrhf)
 ----------------------------------------------------------------------
 -----
 title
 -----
 Symbolic Z-matrix:
 Charge =  0 Multiplicity = 1

 SCF Done:  E(RHF) =  -769.016327699     A.U. after   13 cycles
 Normal termination of Gaussian 16 at Wed Apr  9 00:09:36 2025.
 Gaussian 16:  ES64L-G16RevC.01  3-Jul-2019

 ----------------------------------------------------------------------
 #t hf aug-cc-pvdz iop(5/13=1,5/36=2,99/5=2) pseudo=read geom=check gue
 ss=(read,tcheck) scf=(maxcycle=1)
 ----------------------------------------------------------------------
 -----
 title
 -----
 Structure from the checkpoint file:  "BDE49_nonexpt_2361_mol1.chk"
 Charge =  0 Multiplicity = 1

                         Standard orientation:
 ---------------------------------------------------------------------
 Center     Atomic      Atomic             Coordinates (Angstroms)
 Number     Number       Type             X           Y           Z
 ---------------------------------------------------------------------
      1         14           0       -0.214416    1.112884    0.231705
      2         14           0       -1.827372   -0.568734   -0.134589
      3          8           0        1.322713    0.714784   -0.423836
      4          1           0       -0.032372    1.400951    1.671947
      5          1           0       -0.528330    2.367334   -0.481496
      6          6           0        1.880358   -0.481146   -0.205019
      7          1           0       -3.160034    0.081690   -0.215472
      8          1           0       -1.839081   -1.550635    0.969623
      9          1           0       -1.559526   -1.250580   -1.422273
     10          8           0        1.371736   -1.368727    0.427874
     11          1           0        2.866639   -0.548446   -0.684136
 ---------------------------------------------------------------------

 SCF Done:  E(RHF) =  -769.126072432     A.U. after    2 cycles

 The electronic state is 1-A.
 Alpha  occ. eigenvalues --  -69.10955 -69.06628 -20.61740 -20.58330 -11.41327
 Alpha  occ. eigenvalues --   -6.85800  -6.82031  -3.96681  -3.96519  -3.96479
 Alpha  occ. eigenvalues --   -3.92792  -3.92783  -3.92770  -1.42406  -1.33038
 Alpha  occ. eigenvalues --   -0.89388  -0.74992  -0.73626  -0.71109  -0.66035
 Alpha  occ. eigenvalues --   -0.63556  -0.57085  -0.52559  -0.49906  -0.49486
 Alpha  occ. eigenvalues --   -0.48309  -0.47385  -0.40680
 Alpha virt. eigenvalues --    0.03463   0.04217   0.04685   0.05967   0.06830
 Alpha virt. eigenvalues --    0.07339   0.07604   0.07799   0.08881   0.09567
 Alpha virt. eigenvalues --    0.10390   0.10452   0.11110   0.12606   0.13114

 Mulliken charges:
               1
     1  Si   0.523726
     2  Si  -0.218708
     3  O   -0.720347
     4  H    0.046893
     5  H    0.047626
     6  C    0.679893
     7  H    0.025964
     8  H    0.072704
     9  H    0.063233
    10  O   -0.308719
    11  H   -0.212264
 Sum of Mulliken charges =   0.00000

 Dipole moment (field-independent basis, Debye):
    X=              0.2814    Y=              1.4163    Z=             -0.8350  Tot=              1.6680

 Test job not archived.
 1\1\GINC-SE096\SP\RHF\Aug-CC-pVDZ\C1H6O2Si2\OHZDE\09-Apr-2025\0\\#t hf
  aug-cc-pvdz iop(5/13=1,5/36=2,99/5=2) pseudo=read geom=check guess=(r
 ead,tcheck) scf=(maxcycle=1)\\title\\0,1\Si,0,-0.214416,1.112884,0.231
 705\Si,0,-1.827372,-0.568734,-0.134589\O,0,1.322713,0.714784,-0.423836
 \H,0,-0.032372,1.400951,1.671947\H,0,-0.52833,2.367334,-0.481496\C,0,1
 .880358,-0.481146,-0.205019\H,0,-3.160034,0.08169,-0.215472\H,0,-1.839
 081,-1.550635,0.969623\H,0,-1.559526,-1.25058,-1.422273\O,0,1.371736,-
 1.368727,0.427874\H,0,2.866639,-0.548446,-0.684136\\Version=ES64L-G16R

 Normal termination of Gaussian 16 at Wed Apr  9 00:09:40 2025.
