 Gaussian 16, Revision C.01,

 ----------------------------------------------------------------------
 #t hf aug-cc-pvdz symm=none int=(grid=ultrafine) guess=(read,tcheck) s
 table=(opt,rrhf)
 ----------------------------------------------------------------------
 -----
 title
 -----
 Symbolic Z-matrix:
 Charge =  0 Multiplicity = 1

 SCF Done:  E(RHF) =  -651.999414267     A.U. after   15 cycles
 Normal termination of Gaussian 16 at Tue Apr  8 23:14:54 2025.
 Gaussian 16:  ES64L-G16RevC.01  3-Jul-2019

 ----------------------------------------------------------------------
 #t hf aug-cc-pvdz iop(5/13=1,5/36=2,99/5=2) pseudo=read geom=check gue
 ss=(read,tcheck) scf=(maxcycle=1)
 ----------------------------------------------------------------------
 -----
 title
 -----
 Structure from the checkpoint file:  "BDE49_nonexpt_1034_mol1.chk"
 Charge =  0 Multiplicity = 1

                         Standard orientation:
 ---------------------------------------------------------------------
 Center     Atomic      Atomic             Coordinates (Angstroms)
 Number     Number       Type             X           Y           Z
 ---------------------------------------------------------------------
      1         17           0       -1.838080   -0.051310   -0.066370
      2          8           0       -0.265889   -0.640574    0.390119
      3          6           0        0.803635    0.020194   -0.329894
      4          6           0        0.979684    1.465020    0.115765
      5          1           0        0.077242    2.048114   -0.076229
      6          1           0        1.804575    1.930236   -0.430734
      7          1           0        1.200827    1.508510    1.185241
      8          6           0        2.011899   -0.859604   -0.023242
      9          1           0        0.574859   -0.024434   -1.400452
     10          1           0        2.218172   -0.867809    1.049633
     11          1           0        2.890137   -0.467049   -0.541937
     12          1           0        1.837343   -1.884375   -0.353944
 ---------------------------------------------------------------------

 SCF Done:  E(RHF) =  -652.080116085     A.U. after    2 cycles

 The electronic state is 1-A.
 Alpha  occ. eigenvalues -- -103.70319 -20.64414 -11.31193 -11.23962 -11.23591
 Alpha  occ. eigenvalues --  -10.73027  -8.38783  -8.38390  -8.38367  -1.36055
 Alpha  occ. eigenvalues --   -1.11849  -1.02761  -0.94798  -0.81479  -0.69032
 Alpha  occ. eigenvalues --   -0.65033  -0.64020  -0.58432  -0.55886  -0.55249
 Alpha  occ. eigenvalues --   -0.53885  -0.50179  -0.48993  -0.46777  -0.44243
 Alpha virt. eigenvalues --    0.03470   0.04663   0.04844   0.05560   0.06523
 Alpha virt. eigenvalues --    0.07279   0.07686   0.07974   0.10662   0.12971
 Alpha virt. eigenvalues --    0.13739   0.14851   0.15443   0.16236   0.16616

 Mulliken charges:
               1
     1  Cl   0.199759
     2  O   -0.726515
     3  C    0.106295
     4  C    0.309972
     5  H   -0.086274
     6  H    0.003676
     7  H    0.030147
     8  C    0.410415
     9  H   -0.170540
    10  H   -0.004632
    11  H   -0.003367
    12  H   -0.068936
 Sum of Mulliken charges =  -0.00000

 Dipole moment (field-independent basis, Debye):
    X=              1.8307    Y=              0.9769    Z=             -0.9612  Tot=              2.2869

 Test job not archived.
 1\1\GINC-SE435\SP\RHF\Aug-CC-pVDZ\C3H7Cl1O1\OHZDE\08-Apr-2025\0\\#t hf
  aug-cc-pvdz iop(5/13=1,5/36=2,99/5=2) pseudo=read geom=check guess=(r
 ead,tcheck) scf=(maxcycle=1)\\title\\0,1\Cl,0,-1.83808,-0.05131,-0.066
 37\O,0,-0.265889,-0.640574,0.390119\C,0,0.803635,0.020194,-0.329894\C,
 0,0.979684,1.46502,0.115765\H,0,0.077242,2.048114,-0.076229\H,0,1.8045
 75,1.930236,-0.430734\H,0,1.200827,1.50851,1.185241\C,0,2.011899,-0.85
 9604,-0.023242\H,0,0.574859,-0.024434,-1.400452\H,0,2.218172,-0.867809
 ,1.049633\H,0,2.890137,-0.467049,-0.541937\H,0,1.837343,-1.884375,-0.3

 Normal termination of Gaussian 16 at Tue Apr  8 23:14:57 2025.
