 Gaussian 16, Revision C.01,

 ----------------------------------------------------------------------
 #t hf aug-cc-pvdz symm=none int=(grid=ultrafine) guess=(read,tcheck) s
 table=(opt,rrhf)
 ----------------------------------------------------------------------
 -----
 title
 -----
 Symbolic Z-matrix:
 Charge =  0 Multiplicity = 1

 SCF Done:  E(RHF) =  -750.497000287     A.U. after   18 cycles
 Normal termination of Gaussian 16 at Tue Apr  8 22:55:26 2025.
 Gaussian 16:  ES64L-G16RevC.01  3-Jul-2019

 ----------------------------------------------------------------------
 #t hf aug-cc-pvdz iop(5/13=1,5/36=2,99/5=2) pseudo=read geom=check gue
 ss=(read,tcheck) scf=(maxcycle=1)
 ----------------------------------------------------------------------
 -----
 title
 -----
 Structure from the checkpoint file:  "BDE49_expt_1804_mol1.chk"
 Charge =  0 Multiplicity = 1

                         Standard orientation:
 ---------------------------------------------------------------------
 Center     Atomic      Atomic             Coordinates (Angstroms)
 Number     Number       Type             X           Y           Z
 ---------------------------------------------------------------------
      1          6           0        2.150476   -0.066180    0.000000
      2          6           0        1.302765   -1.167567    0.000012
      3          6           0       -0.069805   -0.951165    0.000009
      4          6           0        1.674613    1.240975   -0.000013
      5          6           0        0.302266    1.446011   -0.000015
      6          6           0       -0.573211    0.354392   -0.000004
      7          1           0        1.723342   -2.163129    0.000022
      8          1           0       -0.753108   -1.789200    0.000017
      9          1           0        2.375681    2.063535   -0.000022
     10          1           0       -0.111583    2.446097   -0.000025
     11          6           0       -2.044027    0.648784   -0.000008
     12          8           0       -2.781092   -0.495834    0.000004
     13          7           0       -4.354076   -0.233223    0.000125
     14          8           0       -4.878139   -1.242284   -0.000144
     15          8           0       -2.505328    1.759574    0.000013
     16          7           0        3.617067   -0.293389    0.000003
     17          8           0        4.008067   -1.451714    0.000027
     18          8           0        4.339774    0.692444    0.000002
 ---------------------------------------------------------------------

 SCF Done:  E(RHF) =  -750.721853676     A.U. after    2 cycles

 The electronic state is 1-A.
 Alpha  occ. eigenvalues --  -20.76240 -20.65807 -20.62956 -20.62936 -20.58713
 Alpha  occ. eigenvalues --  -15.93164 -15.92692 -11.42733 -11.33874 -11.30117
 Alpha  occ. eigenvalues --  -11.29507 -11.29404 -11.29240 -11.28934  -1.63994
 Alpha  occ. eigenvalues --   -1.56191  -1.43283  -1.37798  -1.34218  -1.20492
 Alpha  occ. eigenvalues --   -1.10700  -1.06098  -1.01004  -0.97034  -0.88679
 Alpha  occ. eigenvalues --   -0.88128  -0.83838  -0.80037  -0.78996  -0.76952
 Alpha  occ. eigenvalues --   -0.75011  -0.74774  -0.73805  -0.73140  -0.68949
 Alpha  occ. eigenvalues --   -0.66886  -0.66058  -0.65650  -0.64218  -0.60975
 Alpha  occ. eigenvalues --   -0.55351  -0.54592  -0.52695  -0.52296  -0.52247
 Alpha  occ. eigenvalues --   -0.51238  -0.48507  -0.48089  -0.39678  -0.38313
 Alpha virt. eigenvalues --    0.00540   0.03066   0.03653   0.03822   0.05277
 Alpha virt. eigenvalues --    0.06337   0.07657   0.07723   0.08059   0.09061
 Alpha virt. eigenvalues --    0.09822   0.10583   0.11738   0.11814   0.12211

 Mulliken charges:
               1
     1  C    1.035967
     2  C    0.522807
     3  C    0.228171
     4  C    0.665101
     5  C   -0.025986
     6  C    1.306260
     7  H   -0.458312
     8  H   -0.590693
     9  H   -0.448458
    10  H   -0.630198
    11  C    0.072690
    12  O   -0.608616
    13  N    0.553390
    14  O   -0.235733
    15  O   -0.391567
    16  N    0.099036
    17  O   -0.547932
    18  O   -0.545929
 Sum of Mulliken charges =  -0.00000

 Dipole moment (field-independent basis, Debye):
    X=             -4.0191    Y=             -0.9461    Z=              0.0001  Tot=              4.1289

 Test job not archived.
 1\1\GINC-SE051\SP\RHF\Aug-CC-pVDZ\C7H4N2O5\OHZDE\08-Apr-2025\0\\#t hf
 aug-cc-pvdz iop(5/13=1,5/36=2,99/5=2) pseudo=read geom=check guess=(re
 ad,tcheck) scf=(maxcycle=1)\\title\\0,1\C,0,2.150476,-0.06618,0.\C,0,1
 .302765,-1.167567,0.000012\C,0,-0.069805,-0.951165,0.000009\C,0,1.6746
 13,1.240975,-0.000013\C,0,0.302266,1.446011,-0.000015\C,0,-0.573211,0.
 354392,-0.000004\H,0,1.723342,-2.163129,0.000022\H,0,-0.753108,-1.7892
 ,0.000017\H,0,2.375681,2.063535,-0.000022\H,0,-0.111583,2.446097,-0.00
 0025\C,0,-2.044027,0.648784,-0.000008\O,0,-2.781092,-0.495834,0.000004

 Normal termination of Gaussian 16 at Tue Apr  8 22:55:39 2025.
