 Gaussian 16, Revision C.01,

 ----------------------------------------------------------------------
 #t hf aug-cc-pvdz symm=none int=(grid=ultrafine) guess=(read,tcheck) s
 table=opt
 ----------------------------------------------------------------------
 -----
 title
 -----
 Symbolic Z-matrix:
 Charge =  0 Multiplicity = 2

 SCF Done:  E(UHF) =  -1198.77997328     A.U. after   27 cycles
 Normal termination of Gaussian 16 at Tue Apr  8 23:07:59 2025.
 Gaussian 16:  ES64L-G16RevC.01  3-Jul-2019

 ----------------------------------------------------------------------
 #t hf aug-cc-pvdz iop(5/13=1,5/36=2,99/5=2) pseudo=read geom=check gue
 ss=(read,tcheck) scf=(maxcycle=1)
 ----------------------------------------------------------------------
 -----
 title
 -----
 Structure from the checkpoint file:  "BDE49_expt_645_mol2.chk"
 Charge =  0 Multiplicity = 2

                         Standard orientation:
 ---------------------------------------------------------------------
 Center     Atomic      Atomic             Coordinates (Angstroms)
 Number     Number       Type             X           Y           Z
 ---------------------------------------------------------------------
      1          8           0        0.545951   -0.000775    1.366579
      2          8           0        1.853231   -0.001938    1.251210
      3          6           0       -0.139031    0.000219    0.075344
      4          6           0       -1.557918    0.001401    0.405511
      5          7           0       -2.679230    0.001177    0.666541
      6         17           0        0.287883    1.470397   -0.837595
      7         17           0        0.285226   -1.470177   -0.838477
 ---------------------------------------------------------------------

 SCF Done:  E(UHF) =  -1198.90184909     A.U. after    2 cycles

 The electronic state is 2-A.
 Alpha  occ. eigenvalues -- -103.72413-103.72412 -20.74787 -20.74593 -15.69891
 Alpha  occ. eigenvalues --  -11.51633 -11.34036 -10.75694 -10.75688  -8.41434
 Alpha  occ. eigenvalues --   -8.41429  -8.41060  -8.41059  -8.41053  -8.41053
 Alpha  occ. eigenvalues --   -1.58887  -1.31566  -1.23563  -1.21801  -1.19445
 Alpha  occ. eigenvalues --   -0.99094  -0.83999  -0.83788  -0.77319  -0.70179
 Alpha  occ. eigenvalues --   -0.68922  -0.59965  -0.59330  -0.57843  -0.54298
 Alpha  occ. eigenvalues --   -0.53477  -0.53403  -0.50920  -0.50823  -0.49822
 Alpha virt. eigenvalues --    0.05002   0.06622   0.06627   0.08746   0.09282
 Alpha virt. eigenvalues --    0.09543   0.10495   0.12355   0.12865   0.13833
 Alpha virt. eigenvalues --    0.13970   0.14051   0.17095   0.17623   0.17711

  Beta  occ. eigenvalues -- -103.72405-103.72405 -20.73921 -20.70599 -15.69978
  Beta  occ. eigenvalues --  -11.51727 -11.33976 -10.75687 -10.75682  -8.41396
  Beta  occ. eigenvalues --   -8.41391  -8.41058  -8.41057  -8.41051  -8.41050
  Beta  occ. eigenvalues --   -1.53137  -1.29149  -1.23488  -1.19361  -1.15141
  Beta  occ. eigenvalues --   -0.97356  -0.82612  -0.75340  -0.72374  -0.68863
  Beta  occ. eigenvalues --   -0.61207  -0.60011  -0.56756  -0.54176  -0.53295
  Beta  occ. eigenvalues --   -0.52510  -0.50870  -0.50761  -0.49864
  Beta virt. eigenvalues --    0.03705   0.05045   0.06677   0.06923   0.08794
  Beta virt. eigenvalues --    0.09326   0.10151   0.10771   0.12458   0.13821
  Beta virt. eigenvalues --    0.13858   0.14081   0.14410   0.17152   0.17667

 Mulliken charges and spin densities:
               1          2
     1  O   -0.442925   0.042805
     2  O   -0.041126   0.969760
     3  C    0.538933  -0.019103
     4  C   -0.082337   0.030965
     5  N   -0.056603  -0.028965
     6  Cl   0.042055   0.002267
     7  Cl   0.042003   0.002270
 Sum of Mulliken charges =  -0.00000   1.00000

 Dipole moment (field-independent basis, Debye):
    X=              1.4969    Y=              0.0002    Z=             -1.1887  Tot=              1.9115
                          Isotropic Fermi Contact Couplings
        Atom                 a.u.       MegaHertz       Gauss      10(-4) cm-1
     1  O(17)              0.06891     -41.77500     -14.90636     -13.93464
     2  O(17)              0.29759    -180.39493     -64.36940     -60.17327
     3  C(13)             -0.01777     -19.97758      -7.12850      -6.66380
     4  C(13)              0.00352       3.95810       1.41235       1.32028
     5  N(14)             -0.00646      -2.08654      -0.74453      -0.69599
     6  Cl(35)            -0.00438      -1.91967      -0.68499      -0.64033
     7  Cl(35)            -0.00438      -1.91942      -0.68490      -0.64025
 --------------------------------------------------------

 Normal termination of Gaussian 16 at Tue Apr  8 23:08:03 2025.
