 Gaussian 16, Revision C.01,

 ----------------------------------------------------------------------
 #t hf aug-cc-pvdz symm=none int=(grid=ultrafine) guess=(read,tcheck) s
 table=opt
 ----------------------------------------------------------------------
 -----
 title
 -----
 Symbolic Z-matrix:
 Charge =  0 Multiplicity = 2

 SCF Done:  E(UHF) =  -212.140213953     A.U. after   18 cycles
 Normal termination of Gaussian 16 at Tue Apr  8 22:43:25 2025.
 Gaussian 16:  ES64L-G16RevC.01  3-Jul-2019

 ----------------------------------------------------------------------
 #t hf aug-cc-pvdz iop(5/13=1,5/36=2,99/5=2) pseudo=read geom=check gue
 ss=(read,tcheck) scf=(maxcycle=1)
 ----------------------------------------------------------------------
 -----
 title
 -----
 Structure from the checkpoint file:  "BDE49_expt_1528_mol2.chk"
 Charge =  0 Multiplicity = 2

                         Standard orientation:
 ---------------------------------------------------------------------
 Center     Atomic      Atomic             Coordinates (Angstroms)
 Number     Number       Type             X           Y           Z
 ---------------------------------------------------------------------
      1          6           0        0.000000    0.425355    0.000000
      2          8           0        1.141667    0.181975    0.000000
      3          9           0       -1.014815   -0.445326   -0.000000
 ---------------------------------------------------------------------

 SCF Done:  E(UHF) =  -212.216786211     A.U. after    2 cycles

 The electronic state is 2-A'.
 Alpha  occ. eigenvalues --  -26.20898 -20.65696 -11.48038  -1.76078  -1.46125
 Alpha  occ. eigenvalues --   -0.97300  -0.83890  -0.81896  -0.78855  -0.67040
 Alpha  occ. eigenvalues --   -0.60714  -0.49847
 Alpha virt. eigenvalues --    0.07409   0.07935   0.08919   0.09073   0.12445
 Alpha virt. eigenvalues --    0.21683   0.22772   0.24172   0.27341   0.29014
 Alpha virt. eigenvalues --    0.32071   0.32693   0.34377   0.42367   0.46941

  Beta  occ. eigenvalues --  -26.19770 -20.65184 -11.45345  -1.72417  -1.44060
  Beta  occ. eigenvalues --   -0.91468  -0.80331  -0.79473  -0.75032  -0.62390
  Beta  occ. eigenvalues --   -0.59012
  Beta virt. eigenvalues --    0.01372   0.08161   0.09011   0.09196   0.12388
  Beta virt. eigenvalues --    0.16901   0.21961   0.23123   0.24116   0.28255
  Beta virt. eigenvalues --    0.29108   0.32318   0.34062   0.36396   0.44239

 Mulliken charges and spin densities:
               1          2
     1  C    0.454817   0.841736
     2  O   -0.207846   0.049737
     3  F   -0.246971   0.108527
 Sum of Mulliken charges =  -0.00000   1.00000

 Dipole moment (field-independent basis, Debye):
    X=             -0.9585    Y=              0.8383    Z=             -0.0000  Tot=              1.2734
                          Isotropic Fermi Contact Couplings
        Atom                 a.u.       MegaHertz       Gauss      10(-4) cm-1
     1  C(13)              0.71972     809.10832     288.70997     269.88949
     2  O(17)              0.08013     -48.57237     -17.33183     -16.20200
     3  F(19)              0.21445     902.27480     321.95408     300.96648
 --------------------------------------------------------
       Center         ----  Spin Dipole Couplings  ----
                      3XX-RR        3YY-RR        3ZZ-RR
 --------------------------------------------------------
     1   Atom       -0.192734      0.385712     -0.192978

 Normal termination of Gaussian 16 at Tue Apr  8 22:43:26 2025.
