 Gaussian 16, Revision C.01,

 ----------------------------------------------------------------------
 #t hf aug-cc-pvdz symm=none int=(grid=ultrafine) guess=(read,tcheck) s
 table=(opt,rrhf)
 ----------------------------------------------------------------------
 -----
 title
 -----
 Symbolic Z-matrix:
 Charge =  0 Multiplicity = 1

 SCF Done:  E(RHF) =  -1563.09786013     A.U. after   13 cycles
 Normal termination of Gaussian 16 at Tue Apr  8 23:24:31 2025.
 Gaussian 16:  ES64L-G16RevC.01  3-Jul-2019

 ----------------------------------------------------------------------
 #t hf aug-cc-pvdz iop(5/13=1,5/36=2,99/5=2) pseudo=read geom=check gue
 ss=(read,tcheck) scf=(maxcycle=1)
 ----------------------------------------------------------------------
 -----
 title
 -----
 Structure from the checkpoint file:  "BDE49_nonexpt_1281_mol1.chk"
 Charge =  0 Multiplicity = 1

                         Standard orientation:
 ---------------------------------------------------------------------
 Center     Atomic      Atomic             Coordinates (Angstroms)
 Number     Number       Type             X           Y           Z
 ---------------------------------------------------------------------
      1          6           0       -0.649770   -0.001331    0.348202
      2         15           0        1.179068   -0.137236    0.029295
      3          8           0        1.758426   -1.259700    0.758870
      4          8           0        1.758496    1.288807    0.428127
      5          6           0       -0.966735   -0.016962    1.832094
      6          1           0       -0.565311   -0.930195    2.272648
      7          1           0       -2.044637    0.027034    1.990029
      8          1           0       -0.497553    0.843718    2.312767
      9         17           0       -1.292478    1.527011   -0.409519
     10         17           0       -1.432623   -1.421398   -0.469838
     11          8           0        1.329396   -0.105551   -1.561384
     12          1           0        1.162125   -0.959819   -1.978728
     13          1           0        1.514559    2.003697   -0.173742
 ---------------------------------------------------------------------

 SCF Done:  E(RHF) =  -1563.29616356     A.U. after    2 cycles

 The electronic state is 1-A.
 Alpha  occ. eigenvalues -- -103.69050-103.68959 -81.44254 -20.63741 -20.63542
 Alpha  occ. eigenvalues --  -20.54202 -11.40419 -11.27117 -10.72310 -10.72218
 Alpha  occ. eigenvalues --   -8.38023  -8.37932  -8.37727  -8.37713  -8.37631
 Alpha  occ. eigenvalues --   -8.37616  -7.92569  -5.07255  -5.07168  -5.06809
 Alpha  occ. eigenvalues --   -1.40435  -1.36780  -1.28052  -1.23301  -1.15456
 Alpha  occ. eigenvalues --   -1.03309  -0.89266  -0.82920  -0.79927  -0.71599
 Alpha  occ. eigenvalues --   -0.68475  -0.65514  -0.64177  -0.63504  -0.60617
 Alpha  occ. eigenvalues --   -0.59842  -0.58817  -0.55638  -0.54893  -0.52178
 Alpha  occ. eigenvalues --   -0.51016  -0.49544  -0.49163  -0.47151  -0.45568
 Alpha virt. eigenvalues --    0.03229   0.04387   0.04959   0.06403   0.06983
 Alpha virt. eigenvalues --    0.07502   0.08855   0.09550   0.10396   0.11437
 Alpha virt. eigenvalues --    0.12478   0.13538   0.14360   0.14861   0.16350

 Mulliken charges:
               1
     1  C   -0.844222
     2  P    2.515601
     3  O   -0.889308
     4  O   -0.679103
     5  C    0.695009
     6  H    0.005440
     7  H   -0.033573
     8  H    0.001099
     9  Cl  -0.196016
    10  Cl  -0.164488
    11  O   -0.731479
    12  H    0.164428
    13  H    0.156613
 Sum of Mulliken charges =  -0.00000

 Dipole moment (field-independent basis, Debye):
    X=             -1.7454    Y=              1.8580    Z=             -1.0847  Tot=              2.7704

 Test job not archived.
 1\1\GINC-SE344\SP\RHF\Aug-CC-pVDZ\C2H5Cl2O3P1\OHZDE\08-Apr-2025\0\\#t
 hf aug-cc-pvdz iop(5/13=1,5/36=2,99/5=2) pseudo=read geom=check guess=
 (read,tcheck) scf=(maxcycle=1)\\title\\0,1\C,0,-0.64977,-0.001331,0.34
 8202\P,0,1.179068,-0.137235,0.029295\O,0,1.758427,-1.259699,0.75887\O,
 0,1.758495,1.288808,0.428127\C,0,-0.966735,-0.016962,1.832094\H,0,-0.5
 6531,-0.930195,2.272648\H,0,-2.044637,0.027033,1.990029\H,0,-0.497554,
 0.843718,2.312767\Cl,0,-1.292479,1.52701,-0.409519\Cl,0,-1.432622,-1.4
 21399,-0.469838\O,0,1.329396,-0.10555,-1.561384\H,0,1.162126,-0.959818

 Normal termination of Gaussian 16 at Tue Apr  8 23:24:37 2025.
