 Gaussian 16, Revision C.01,

 ----------------------------------------------------------------------
 #t hf aug-cc-pvdz symm=none int=(grid=ultrafine) guess=(read,tcheck) s
 table=(opt,rrhf)
 ----------------------------------------------------------------------
 -----
 title
 -----
 Symbolic Z-matrix:
 Charge =  0 Multiplicity = 1

 SCF Done:  E(RHF) =  -747.517574750     A.U. after   15 cycles
 Normal termination of Gaussian 16 at Wed Apr  9 00:04:23 2025.
 Gaussian 16:  ES64L-G16RevC.01  3-Jul-2019

 ----------------------------------------------------------------------
 #t hf aug-cc-pvdz iop(5/13=1,5/36=2,99/5=2) pseudo=read geom=check gue
 ss=(read,tcheck) scf=(maxcycle=1)
 ----------------------------------------------------------------------
 -----
 title
 -----
 Structure from the checkpoint file:  "BDE49_nonexpt_2201_mol1.chk"
 Charge =  0 Multiplicity = 1

                         Standard orientation:
 ---------------------------------------------------------------------
 Center     Atomic      Atomic             Coordinates (Angstroms)
 Number     Number       Type             X           Y           Z
 ---------------------------------------------------------------------
      1          6           0       -1.539954   -0.045432   -0.000026
      2          6           0       -1.018479    1.256286   -0.000021
      3          6           0        0.351125    1.477025   -0.000011
      4          6           0       -0.644228   -1.122150   -0.000018
      5          6           0        0.726568   -0.914686   -0.000007
      6          6           0        1.230984    0.391283   -0.000004
      7          1           0       -1.052287   -2.125342   -0.000021
      8          1           0        1.402369   -1.762912   -0.000002
      9          8           0        2.564183    0.667737    0.000006
     10         14           0        3.892724   -0.338317    0.000021
     11          1           0       -1.682373    2.112158   -0.000027
     12          6           0       -3.006069   -0.342094   -0.000040
     13          8           0       -3.409212   -1.489679    0.000023
     14          6           0       -3.986450    0.818633    0.000020
     15          1           0        0.762990    2.478453   -0.000009
     16          1           0       -3.846790    1.450433   -0.882055
     17          1           0       -3.846712    1.450414    0.882096
     18          1           0       -4.998025    0.416489    0.000061
     19          1           0        5.049908    0.571860    0.000031
     20          1           0        3.896029   -1.196385   -1.205571
     21          1           0        3.896004   -1.196380    1.205617
 ---------------------------------------------------------------------

 SCF Done:  E(RHF) =  -747.687451341     A.U. after    2 cycles

 The electronic state is 1-A.
 Alpha  occ. eigenvalues --  -69.11300 -20.60117 -20.55544 -11.34540 -11.33771
 Alpha  occ. eigenvalues --  -11.27056 -11.26409 -11.25491 -11.25182 -11.25119
 Alpha  occ. eigenvalues --  -11.24488  -6.86101  -3.97014  -3.96861  -3.96833
 Alpha  occ. eigenvalues --   -1.36089  -1.34799  -1.15597  -1.04182  -1.03019
 Alpha  occ. eigenvalues --   -0.99020  -0.87900  -0.85359  -0.78089  -0.76436
 Alpha  occ. eigenvalues --   -0.70400  -0.68045  -0.66009  -0.63958  -0.63266
 Alpha  occ. eigenvalues --   -0.61997  -0.60922  -0.60845  -0.57964  -0.56794
 Alpha  occ. eigenvalues --   -0.54623  -0.52763  -0.51194  -0.50161  -0.48383
 Alpha  occ. eigenvalues --   -0.47843  -0.43054  -0.36027  -0.33615
 Alpha virt. eigenvalues --    0.02921   0.03508   0.04322   0.04922   0.05187
 Alpha virt. eigenvalues --    0.05546   0.06079   0.06998   0.07197   0.07566
 Alpha virt. eigenvalues --    0.08495   0.08626   0.09110   0.09978   0.10121

 Mulliken charges:
               1
     1  C    1.128691
     2  C    0.673543
     3  C    0.547873
     4  C   -0.148746
     5  C    0.998269
     6  C   -0.017535
     7  H   -0.643689
     8  H   -0.609247
     9  O   -0.834486
    10  Si   0.270674
    11  H   -0.702790
    12  C   -0.419594
    13  O   -0.526419
    14  C    0.520835
    15  H   -0.528054
    16  H    0.098844
    17  H    0.098830
    18  H   -0.154749
    19  H    0.053824
    20  H    0.096963
    21  H    0.096963
 Sum of Mulliken charges =  -0.00000

 Dipole moment (field-independent basis, Debye):
    X=              2.0976    Y=              2.3858    Z=             -0.0001  Tot=              3.1768

 Test job not archived.
 1\1\GINC-SE403\SP\RHF\Aug-CC-pVDZ\C8H10O2Si1\OHZDE\09-Apr-2025\0\\#t h
 f aug-cc-pvdz iop(5/13=1,5/36=2,99/5=2) pseudo=read geom=check guess=(
 read,tcheck) scf=(maxcycle=1)\\title\\0,1\C,0,-1.539954,-0.045432,-0.0
 00026\C,0,-1.018479,1.256286,-0.000021\C,0,0.351125,1.477025,-0.000011
 \C,0,-0.644228,-1.12215,-0.000018\C,0,0.726568,-0.914686,-0.000007\C,0
 ,1.230984,0.391283,-0.000004\H,0,-1.052287,-2.125342,-0.000021\H,0,1.4
 02369,-1.762912,-0.000002\O,0,2.564183,0.667737,0.000006\Si,0,3.892724
 ,-0.338317,0.000021\H,0,-1.682373,2.112158,-0.000027\C,0,-3.006069,-0.

 Normal termination of Gaussian 16 at Wed Apr  9 00:04:35 2025.
