 Gaussian 16, Revision C.01,

 ----------------------------------------------------------------------
 #t hf aug-cc-pvdz symm=none int=(grid=ultrafine) guess=(read,tcheck) s
 table=(opt,rrhf)
 ----------------------------------------------------------------------
 -----
 title
 -----
 Symbolic Z-matrix:
 Charge =  0 Multiplicity = 1

 SCF Done:  E(RHF) =  -611.923077997     A.U. after   14 cycles
 Normal termination of Gaussian 16 at Wed Apr  9 00:06:02 2025.
 Gaussian 16:  ES64L-G16RevC.01  3-Jul-2019

 ----------------------------------------------------------------------
 #t hf aug-cc-pvdz iop(5/13=1,5/36=2,99/5=2) pseudo=read geom=check gue
 ss=(read,tcheck) scf=(maxcycle=1)
 ----------------------------------------------------------------------
 -----
 title
 -----
 Structure from the checkpoint file:  "BDE49_nonexpt_2255_mol1.chk"
 Charge =  0 Multiplicity = 1

                         Standard orientation:
 ---------------------------------------------------------------------
 Center     Atomic      Atomic             Coordinates (Angstroms)
 Number     Number       Type             X           Y           Z
 ---------------------------------------------------------------------
      1          6           0        1.675251    0.000000    0.368683
      2          8           0       -0.948800   -0.000000   -0.714692
      3          7           0       -2.341949   -0.000001   -0.824299
      4          8           0       -2.905965    0.000003    0.213189
      5          6           0        2.083454    1.275169   -0.394255
      6         14           0       -0.149146   -0.000003    0.814657
      7          6           0        2.083457   -1.275166   -0.394258
      8          1           0        3.160788   -1.278205   -0.589326
      9          1           0        1.571376   -1.336153   -1.358403
     10          1           0        1.846553   -2.182863    0.167986
     11          1           0        1.846547    2.182864    0.167991
     12          1           0        1.571372    1.336158   -1.358400
     13          1           0        3.160784    1.278212   -0.589323
     14          1           0        2.195830    0.000000    1.337940
     15          1           0       -0.543211    1.215243    1.558722
     16          1           0       -0.543209   -1.215252    1.558718
 ---------------------------------------------------------------------

 SCF Done:  E(RHF) =  -612.053044638     A.U. after    2 cycles

 The electronic state is 1-A.
 Alpha  occ. eigenvalues --  -69.10173 -20.66920 -20.62425 -15.85813 -11.24024
 Alpha  occ. eigenvalues --  -11.23666 -11.23658  -6.85067  -3.95959  -3.95786
 Alpha  occ. eigenvalues --   -3.95785  -1.54542  -1.33333  -1.05743  -0.94001
 Alpha  occ. eigenvalues --   -0.93569  -0.81603  -0.77277  -0.74516  -0.69196
 Alpha  occ. eigenvalues --   -0.66269  -0.62626  -0.59892  -0.57538  -0.55357
 Alpha  occ. eigenvalues --   -0.55108  -0.53787  -0.49480  -0.49198  -0.47433
 Alpha  occ. eigenvalues --   -0.46886  -0.42707
 Alpha virt. eigenvalues --    0.03123   0.04547   0.04670   0.05303   0.06555
 Alpha virt. eigenvalues --    0.06567   0.07126   0.07539   0.07577   0.08626
 Alpha virt. eigenvalues --    0.09822   0.10031   0.11234   0.12586   0.14256

 Mulliken charges:
               1
     1  C   -0.396405
     2  O   -0.699822
     3  N    0.230073
     4  O   -0.287067
     5  C    0.490094
     6  Si   0.671762
     7  C    0.490092
     8  H   -0.078763
     9  H   -0.072016
    10  H   -0.136297
    11  H   -0.136297
    12  H   -0.072014
    13  H   -0.078767
    14  H   -0.156397
    15  H    0.115912
    16  H    0.115912
 Sum of Mulliken charges =  -0.00000

 Dipole moment (field-independent basis, Debye):
    X=              2.2775    Y=             -0.0000    Z=              0.7093  Tot=              2.3854

 Test job not archived.
 1\1\GINC-SE423\SP\RHF\Aug-CC-pVDZ\C3H9N1O2Si1\OHZDE\09-Apr-2025\0\\#t
 hf aug-cc-pvdz iop(5/13=1,5/36=2,99/5=2) pseudo=read geom=check guess=
 (read,tcheck) scf=(maxcycle=1)\\title\\0,1\C,0,-1.675251,0.,0.368683\O
 ,0,0.9488,0.,-0.714692\N,0,2.341949,0.000001,-0.824299\O,0,2.905965,-0
 .000003,0.213189\C,0,-2.083454,-1.275169,-0.394255\Si,0,0.149146,0.000
 003,0.814657\C,0,-2.083457,1.275166,-0.394258\H,0,-3.160788,1.278205,-
 0.589326\H,0,-1.571376,1.336153,-1.358403\H,0,-1.846553,2.182863,0.167
 986\H,0,-1.846547,-2.182864,0.167991\H,0,-1.571372,-1.336158,-1.3584\H

 Normal termination of Gaussian 16 at Wed Apr  9 00:06:08 2025.
