 Gaussian 16, Revision C.01,

 ----------------------------------------------------------------------
 #t hf aug-cc-pvdz symm=none int=(grid=ultrafine) guess=(read,tcheck) s
 table=(opt,rrhf)
 ----------------------------------------------------------------------
 -----
 title
 -----
 Symbolic Z-matrix:
 Charge =  0 Multiplicity = 1

 SCF Done:  E(RHF) =  -268.018988623     A.U. after   12 cycles
 Normal termination of Gaussian 16 at Tue Apr  8 22:31:30 2025.
 Gaussian 16:  ES64L-G16RevC.01  3-Jul-2019

 ----------------------------------------------------------------------
 #t hf aug-cc-pvdz iop(5/13=1,5/36=2,99/5=2) pseudo=read geom=check gue
 ss=(read,tcheck) scf=(maxcycle=1)
 ----------------------------------------------------------------------
 -----
 title
 -----
 Structure from the checkpoint file:  "BDE49_expt_1070_mol1.chk"
 Charge =  0 Multiplicity = 1

                         Standard orientation:
 ---------------------------------------------------------------------
 Center     Atomic      Atomic             Coordinates (Angstroms)
 Number     Number       Type             X           Y           Z
 ---------------------------------------------------------------------
      1          6           0       -0.445837    0.027532   -0.337041
      2          6           0        0.750218   -0.738616    0.215444
      3          8           0       -0.317669    1.348514    0.219712
      4          1           0       -0.902457    1.942118   -0.259720
      5          8           0        1.971248   -0.112425   -0.135342
      6          1           0        0.774450   -1.748594   -0.200637
      7          1           0        0.641164   -0.819405    1.307917
      8          1           0        1.855486    0.817621    0.094696
      9          6           0       -1.784467   -0.602650    0.029305
     10          1           0       -0.336342    0.082175   -1.428851
     11          1           0       -1.897224   -0.653208    1.115278
     12          1           0       -1.868266   -1.613933   -0.380041
     13          1           0       -2.614926   -0.013078   -0.369851
 ---------------------------------------------------------------------

 SCF Done:  E(RHF) =  -268.104994103     A.U. after    2 cycles

 The electronic state is 1-A.
 Alpha  occ. eigenvalues --  -20.58298 -20.56272 -11.29816 -11.28325 -11.23781
 Alpha  occ. eigenvalues --   -1.33958  -1.30648  -1.03868  -0.92639  -0.82195
 Alpha  occ. eigenvalues --   -0.73647  -0.67841  -0.64823  -0.61991  -0.58427
 Alpha  occ. eigenvalues --   -0.56868  -0.55998  -0.52590  -0.49609  -0.46794
 Alpha  occ. eigenvalues --   -0.44690
 Alpha virt. eigenvalues --    0.03091   0.04467   0.04914   0.05133   0.06856
 Alpha virt. eigenvalues --    0.07266   0.07460   0.08047   0.11937   0.12822
 Alpha virt. eigenvalues --    0.14431   0.15298   0.15373   0.16407   0.16660

 Mulliken charges:
               1
     1  C   -0.021837
     2  C    0.904560
     3  O   -0.636697
     4  H    0.141515
     5  O   -0.582090
     6  H   -0.132267
     7  H   -0.081482
     8  H    0.185611
     9  C    0.393421
    10  H   -0.125709
    11  H    0.035732
    12  H    0.005136
    13  H   -0.085894
 Sum of Mulliken charges =  -0.00000

 Dipole moment (field-independent basis, Debye):
    X=             -2.9079    Y=              0.2619    Z=             -0.6797  Tot=              2.9977

 Test job not archived.
 1\1\GINC-SE059\SP\RHF\Aug-CC-pVDZ\C3H8O2\OHZDE\08-Apr-2025\0\\#t hf au
 g-cc-pvdz iop(5/13=1,5/36=2,99/5=2) pseudo=read geom=check guess=(read
 ,tcheck) scf=(maxcycle=1)\\title\\0,1\C,0,-0.445837,0.027532,-0.337041
 \C,0,0.750218,-0.738616,0.215444\O,0,-0.317669,1.348514,0.219712\H,0,-
 0.902457,1.942118,-0.25972\O,0,1.971248,-0.112426,-0.135342\H,0,0.7744
 5,-1.748594,-0.200637\H,0,0.641164,-0.819405,1.307917\H,0,1.855486,0.8
 1762,0.094696\C,0,-1.784467,-0.60265,0.029305\H,0,-0.336342,0.082175,-
 1.428851\H,0,-1.897224,-0.653208,1.115278\H,0,-1.868266,-1.613933,-0.3

 Normal termination of Gaussian 16 at Tue Apr  8 22:31:34 2025.
