 Gaussian 16, Revision C.01,

 ----------------------------------------------------------------------
 #t hf aug-cc-pvdz symm=none int=(grid=ultrafine) guess=(read,tcheck) s
 table=(opt,rrhf)
 ----------------------------------------------------------------------
 -----
 title
 -----
 Symbolic Z-matrix:
 Charge =  0 Multiplicity = 1

 SCF Done:  E(RHF) =  -797.069266564     A.U. after   17 cycles
 Normal termination of Gaussian 16 at Wed Apr  9 00:43:59 2025.
 Gaussian 16:  ES64L-G16RevC.01  3-Jul-2019

 ----------------------------------------------------------------------
 #t hf aug-cc-pvdz iop(5/13=1,5/36=2,99/5=2) pseudo=read geom=check gue
 ss=(read,tcheck) scf=(maxcycle=1)
 ----------------------------------------------------------------------
 -----
 title
 -----
 Structure from the checkpoint file:  "BDE49_nonexpt_661_mol1.chk"
 Charge =  0 Multiplicity = 1

                         Standard orientation:
 ---------------------------------------------------------------------
 Center     Atomic      Atomic             Coordinates (Angstroms)
 Number     Number       Type             X           Y           Z
 ---------------------------------------------------------------------
      1          6           0       -2.510519   -0.063398   -0.000348
      2          6           0       -1.663860   -1.165406   -0.000333
      3          6           0       -0.291405   -0.949806   -0.000242
      4          6           0       -2.035664    1.243832   -0.000258
      5          6           0       -0.663477    1.448735   -0.000167
      6          6           0        0.211015    0.356044   -0.000158
      7          1           0       -2.084842   -2.160750   -0.000399
      8          1           0        0.394350   -1.785737   -0.000233
      9          1           0       -2.737001    2.066023   -0.000268
     10          1           0       -0.251641    2.449488   -0.000101
     11          6           0        1.676467    0.630070   -0.000057
     12          8           0        2.420695   -0.489074   -0.000055
     13          5           0        3.839850   -0.493916    0.000035
     14          8           0        4.374424   -1.738177    0.000017
     15          8           0        2.138714    1.753403    0.000018
     16          7           0       -3.978186   -0.290107   -0.000457
     17          8           0       -4.700045    0.696259    0.000801
     18          8           0       -4.369353   -1.448060    0.000737
     19          1           0        5.336139   -1.711096    0.000080
     20          8           0        4.589284    0.628423    0.000131
     21          1           0        4.025944    1.419783    0.000130
 ---------------------------------------------------------------------

 SCF Done:  E(RHF) =  -797.319705657     A.U. after    2 cycles

 The electronic state is 1-A.
 Alpha  occ. eigenvalues --  -20.63946 -20.63245 -20.63235 -20.60124 -20.60083
 Alpha  occ. eigenvalues --  -20.59504 -15.93452 -11.44342 -11.34329 -11.30457
 Alpha  occ. eigenvalues --  -11.29815 -11.29763 -11.29624 -11.29475  -7.72189
 Alpha  occ. eigenvalues --   -1.56488  -1.45467  -1.38099  -1.37136  -1.34917
 Alpha  occ. eigenvalues --   -1.33153  -1.20922  -1.11158  -1.06505  -0.99750
 Alpha  occ. eigenvalues --   -0.91563  -0.88657  -0.84764  -0.80349  -0.80108
 Alpha  occ. eigenvalues --   -0.77674  -0.75569  -0.74497  -0.74092  -0.73508
 Alpha  occ. eigenvalues --   -0.69437  -0.68509  -0.67623  -0.66289  -0.64631
 Alpha  occ. eigenvalues --   -0.61471  -0.60757  -0.60564  -0.57772  -0.55685
 Alpha  occ. eigenvalues --   -0.54931  -0.54380  -0.53271  -0.52948  -0.52531
 Alpha  occ. eigenvalues --   -0.51180  -0.48764  -0.40196  -0.38683
 Alpha virt. eigenvalues --    0.00143   0.02709   0.03654   0.03995   0.05109
 Alpha virt. eigenvalues --    0.05306   0.06199   0.06777   0.07471   0.07539
 Alpha virt. eigenvalues --    0.08589   0.08945   0.09312   0.09414   0.10727

 Mulliken charges:
               1
     1  C    0.969893
     2  C    0.486209
     3  C    0.374020
     4  C    0.491936
     5  C    0.305375
     6  C    1.238843
     7  H   -0.461629
     8  H   -0.626713
     9  H   -0.456669
    10  H   -0.636013
    11  C    0.207895
    12  O   -0.776391
    13  B    0.756724
    14  O   -0.400252
    15  O   -0.494191
    16  N    0.094535
    17  O   -0.542462
    18  O   -0.542061
    19  H    0.222225
    20  O   -0.555668
    21  H    0.344392
 Sum of Mulliken charges =  -0.00000

 Dipole moment (field-independent basis, Debye):
    X=              3.2716    Y=              0.0355    Z=             -0.0036  Tot=              3.2718

 Test job not archived.
 1\1\GINC-SE284\SP\RHF\Aug-CC-pVDZ\C7H6B1N1O6\OHZDE\09-Apr-2025\0\\#t h
 f aug-cc-pvdz iop(5/13=1,5/36=2,99/5=2) pseudo=read geom=check guess=(
 read,tcheck) scf=(maxcycle=1)\\title\\0,1\C,0,-2.510519,-0.063398,-0.0
 00348\C,0,-1.66386,-1.165406,-0.000333\C,0,-0.291405,-0.949806,-0.0002
 42\C,0,-2.035664,1.243832,-0.000258\C,0,-0.663477,1.448735,-0.000167\C
 ,0,0.211015,0.356044,-0.000158\H,0,-2.084842,-2.16075,-0.000399\H,0,0.
 39435,-1.785737,-0.000233\H,0,-2.737001,2.066023,-0.000268\H,0,-0.2516
 41,2.449488,-0.000101\C,0,1.676467,0.63007,-0.000057\O,0,2.420695,-0.4

 Normal termination of Gaussian 16 at Wed Apr  9 00:44:21 2025.
