 Gaussian 16, Revision C.01,

 ----------------------------------------------------------------------
 #t hf aug-cc-pvdz symm=none int=(grid=ultrafine) guess=(read,tcheck) s
 table=(opt,rrhf)
 ----------------------------------------------------------------------
 -----
 title
 -----
 Symbolic Z-matrix:
 Charge =  0 Multiplicity = 1

 SCF Done:  E(RHF) =  -769.721152524     A.U. after   20 cycles
 Normal termination of Gaussian 16 at Tue Apr  8 22:55:35 2025.
 Gaussian 16:  ES64L-G16RevC.01  3-Jul-2019

 ----------------------------------------------------------------------
 #t hf aug-cc-pvdz iop(5/13=1,5/36=2,99/5=2) pseudo=read geom=check gue
 ss=(read,tcheck) scf=(maxcycle=1)
 ----------------------------------------------------------------------
 -----
 title
 -----
 Structure from the checkpoint file:  "BDE49_expt_1751_mol1.chk"
 Charge =  0 Multiplicity = 1

                         Standard orientation:
 ---------------------------------------------------------------------
 Center     Atomic      Atomic             Coordinates (Angstroms)
 Number     Number       Type             X           Y           Z
 ---------------------------------------------------------------------
      1          6           0       -2.843435   -0.887659   -0.352730
      2          7           0       -2.016753    0.202970    0.061004
      3          6           0       -0.584224    0.110740    0.031984
      4          7           0       -2.679711    1.335602    0.525690
      5          8           0       -1.972784    2.234592    0.883801
      6          8           0       -2.329986   -1.909527   -0.729538
      7          6           0        0.143180    0.999867   -0.759401
      8          6           0        1.529559    0.926361   -0.782157
      9          6           0        2.159177   -0.045188   -0.013665
     10          6           0        1.448837   -0.940767    0.776683
     11          6           0        0.063172   -0.856036    0.800951
     12          1           0       -0.514065   -1.543003    1.404527
     13          1           0        1.982276   -1.681671    1.354876
     14          1           0       -0.371171    1.744475   -1.351835
     15          1           0        2.124044    1.599703   -1.382957
     16          6           0       -4.334848   -0.664673   -0.285352
     17          1           0       -4.654169   -0.450580    0.735754
     18          1           0       -4.812001   -1.574136   -0.644897
     19          1           0       -4.635098    0.186013   -0.899032
     20          7           0        3.638432   -0.130106   -0.039203
     21          8           0        4.237144    0.671251   -0.742287
     22          8           0        4.165363   -0.995806    0.644681
 ---------------------------------------------------------------------

 SCF Done:  E(RHF) =  -769.950528096     A.U. after    2 cycles

 The electronic state is 1-A.
 Alpha  occ. eigenvalues --  -20.66516 -20.62463 -20.62453 -20.59173 -15.92728
 Alpha  occ. eigenvalues --  -15.84658 -15.73883 -11.41640 -11.33654 -11.33084
 Alpha  occ. eigenvalues --  -11.29348 -11.29323 -11.28824 -11.28779 -11.27599
 Alpha  occ. eigenvalues --   -1.55722  -1.52509  -1.40606  -1.37326  -1.27943
 Alpha  occ. eigenvalues --   -1.19811  -1.10126  -1.06068  -1.03532  -0.98969
 Alpha  occ. eigenvalues --   -0.93593  -0.88766  -0.85884  -0.81057  -0.79675
 Alpha  occ. eigenvalues --   -0.77494  -0.74893  -0.73878  -0.73362  -0.71025
 Alpha  occ. eigenvalues --   -0.68295  -0.66749  -0.66499  -0.66061  -0.64016
 Alpha  occ. eigenvalues --   -0.63465  -0.62341  -0.59106  -0.56584  -0.55182
 Alpha  occ. eigenvalues --   -0.55014  -0.52242  -0.51885  -0.49048  -0.48108
 Alpha  occ. eigenvalues --   -0.46755  -0.46289  -0.38518  -0.38103
 Alpha virt. eigenvalues --    0.02103   0.02634   0.02986   0.03685   0.04915
 Alpha virt. eigenvalues --    0.05277   0.06004   0.06250   0.07561   0.08148
 Alpha virt. eigenvalues --    0.08756   0.09531   0.10480   0.11216   0.11439

 Mulliken charges:
               1
     1  C    0.222994
     2  N   -0.334317
     3  C   -0.160454
     4  N    0.009210
     5  O   -0.432816
     6  O   -0.486511
     7  C    0.854506
     8  C    0.729053
     9  C    1.188820
    10  C    0.613267
    11  C    0.589170
    12  H   -0.618909
    13  H   -0.469599
    14  H   -0.600019
    15  H   -0.468697
    16  C    0.215884
    17  H    0.098620
    18  H   -0.064758
    19  H    0.102541
    20  N    0.122569
    21  O   -0.556377
    22  O   -0.554175
 Sum of Mulliken charges =  -0.00000

 Dipole moment (field-independent basis, Debye):
    X=             -6.1328    Y=              0.4635    Z=              0.0978  Tot=              6.1511

 Test job not archived.
 1\1\GINC-SE393\SP\RHF\Aug-CC-pVDZ\C8H7N3O4\OHZDE\08-Apr-2025\0\\#t hf
 aug-cc-pvdz iop(5/13=1,5/36=2,99/5=2) pseudo=read geom=check guess=(re
 ad,tcheck) scf=(maxcycle=1)\\title\\0,1\C,0,-2.843435,-0.887659,-0.352
 73\N,0,-2.016753,0.20297,0.061004\C,0,-0.584224,0.11074,0.031984\N,0,-
 2.679711,1.335602,0.52569\O,0,-1.972784,2.234592,0.883801\O,0,-2.32998
 6,-1.909527,-0.729538\C,0,0.14318,0.999867,-0.759401\C,0,1.529559,0.92
 6361,-0.782157\C,0,2.159177,-0.045188,-0.013665\C,0,1.448837,-0.940767
 ,0.776683\C,0,0.063172,-0.856036,0.800951\H,0,-0.514065,-1.543003,1.40

 Normal termination of Gaussian 16 at Tue Apr  8 22:55:55 2025.
