 Gaussian 16, Revision C.01,

 ----------------------------------------------------------------------
 #t hf aug-cc-pvdz symm=none int=(grid=ultrafine) guess=(read,tcheck) s
 table=(opt,rrhf)
 ----------------------------------------------------------------------
 -----
 title
 -----
 Symbolic Z-matrix:
 Charge =  0 Multiplicity = 1

 SCF Done:  E(RHF) =  -558.048685701     A.U. after   14 cycles
 Normal termination of Gaussian 16 at Wed Apr  9 00:03:53 2025.
 Gaussian 16:  ES64L-G16RevC.01  3-Jul-2019

 ----------------------------------------------------------------------
 #t hf aug-cc-pvdz iop(5/13=1,5/36=2,99/5=2) pseudo=read geom=check gue
 ss=(read,tcheck) scf=(maxcycle=1)
 ----------------------------------------------------------------------
 -----
 title
 -----
 Structure from the checkpoint file:  "BDE49_nonexpt_2226_mol1.chk"
 Charge =  0 Multiplicity = 1

                         Standard orientation:
 ---------------------------------------------------------------------
 Center     Atomic      Atomic             Coordinates (Angstroms)
 Number     Number       Type             X           Y           Z
 ---------------------------------------------------------------------
      1          6           0       -2.916512   -0.111405   -0.467646
      2          6           0       -1.941832    0.291206    0.627362
      3          1           0       -2.553351   -0.993870   -0.995428
      4          1           0       -3.040417    0.699908   -1.188562
      5          1           0       -3.893356   -0.343650   -0.033338
      6         14           0        1.518267   -0.598036    0.204851
      7          6           0        2.554382    0.869874   -0.295269
      8          1           0        3.565710    0.775783    0.113464
      9          1           0        2.118909    1.797444    0.083547
     10          1           0        2.630669    0.944903   -1.382967
     11          8           0       -0.662562    0.674232    0.124686
     12          8           0       -0.043735   -0.540943   -0.432149
     13          1           0       -1.817087   -0.503498    1.371350
     14          1           0       -2.270942    1.199555    1.142978
     15          1           0        1.456223   -0.710683    1.680716
     16          1           0        2.022046   -1.857747   -0.386661
 ---------------------------------------------------------------------

 SCF Done:  E(RHF) =  -558.167859910     A.U. after    2 cycles

 The electronic state is 1-A.
 Alpha  occ. eigenvalues --  -69.08892 -20.63870 -20.61231 -11.29526 -11.22698
 Alpha  occ. eigenvalues --  -11.21779  -6.83722  -3.94629  -3.94496  -3.94449
 Alpha  occ. eigenvalues --   -1.40320  -1.18963  -1.00069  -0.94281  -0.84362
 Alpha  occ. eigenvalues --   -0.72632  -0.68334  -0.66421  -0.62077  -0.58445
 Alpha  occ. eigenvalues --   -0.56959  -0.56337  -0.54375  -0.53730  -0.51823
 Alpha  occ. eigenvalues --   -0.49574  -0.46589  -0.46178  -0.44118
 Alpha virt. eigenvalues --    0.03418   0.04385   0.04925   0.05076   0.05982
 Alpha virt. eigenvalues --    0.06260   0.06621   0.07496   0.08033   0.08635
 Alpha virt. eigenvalues --    0.09780   0.10121   0.11616   0.13310   0.13936

 Mulliken charges:
               1
     1  C    0.184284
     2  C    0.773211
     3  H   -0.068247
     4  H   -0.047369
     5  H   -0.019030
     6  Si   1.194339
     7  C    0.205954
     8  H   -0.252767
     9  H   -0.190111
    10  H   -0.166308
    11  O   -0.436644
    12  O   -0.778054
    13  H   -0.151856
    14  H   -0.193169
    15  H   -0.034439
    16  H   -0.019793
 Sum of Mulliken charges =  -0.00000

 Dipole moment (field-independent basis, Debye):
    X=             -0.2883    Y=              0.2484    Z=              0.9604  Tot=              1.0330

 Test job not archived.
 1\1\GINC-SE341\SP\RHF\Aug-CC-pVDZ\C3H10O2Si1\OHZDE\09-Apr-2025\0\\#t h
 f aug-cc-pvdz iop(5/13=1,5/36=2,99/5=2) pseudo=read geom=check guess=(
 read,tcheck) scf=(maxcycle=1)\\title\\0,1\C,0,-2.916512,-0.111405,-0.4
 67646\C,0,-1.941832,0.291206,0.627362\H,0,-2.553351,-0.99387,-0.995428
 \H,0,-3.040417,0.699908,-1.188562\H,0,-3.893356,-0.34365,-0.033338\Si,
 0,1.518267,-0.598036,0.204851\C,0,2.554382,0.869874,-0.295269\H,0,3.56
 571,0.775783,0.113464\H,0,2.118909,1.797444,0.083547\H,0,2.630669,0.94
 4903,-1.382967\O,0,-0.662562,0.674232,0.124686\O,0,-0.043735,-0.540943

 Normal termination of Gaussian 16 at Wed Apr  9 00:03:59 2025.
