 Gaussian 16, Revision C.01,

 ----------------------------------------------------------------------
 #t hf aug-cc-pvdz symm=none int=(grid=ultrafine) guess=(read,tcheck) s
 table=(opt,rrhf)
 ----------------------------------------------------------------------
 -----
 title
 -----
 Symbolic Z-matrix:
 Charge =  0 Multiplicity = 1

 SCF Done:  E(RHF) =  -708.961539236     A.U. after   15 cycles
 Normal termination of Gaussian 16 at Wed Apr  9 00:44:27 2025.
 Gaussian 16:  ES64L-G16RevC.01  3-Jul-2019

 ----------------------------------------------------------------------
 #t hf aug-cc-pvdz iop(5/13=1,5/36=2,99/5=2) pseudo=read geom=check gue
 ss=(read,tcheck) scf=(maxcycle=1)
 ----------------------------------------------------------------------
 -----
 title
 -----
 Structure from the checkpoint file:  "BDE49_nonexpt_794_mol1.chk"
 Charge =  0 Multiplicity = 1

                         Standard orientation:
 ---------------------------------------------------------------------
 Center     Atomic      Atomic             Coordinates (Angstroms)
 Number     Number       Type             X           Y           Z
 ---------------------------------------------------------------------
      1         14           0        0.131198    0.689724    0.461055
      2          5           0       -1.629700   -0.228812    0.015046
      3          7           0        1.461617   -0.603207    0.028585
      4          8           0       -1.691271   -1.551342   -0.258441
      5          8           0       -2.747073    0.547266    0.010929
      6          8           0        1.109215   -1.790522   -0.063549
      7          8           0        2.617035   -0.237255   -0.115736
      8          6           0        0.607977    2.232804   -0.471417
      9          1           0        0.526546    2.083019   -1.550482
     10          1           0        1.632435    2.525852   -0.235284
     11          1           0       -0.064939    3.048894   -0.192099
     12          1           0       -0.809707   -1.963275   -0.225441
     13          1           0       -3.544249    0.041606   -0.195992
     14          1           0        0.389210    0.832270    1.912068
 ---------------------------------------------------------------------

 SCF Done:  E(RHF) =  -709.122259934     A.U. after    2 cycles

 The electronic state is 1-A.
 Alpha  occ. eigenvalues --  -69.11510 -20.62884 -20.62001 -20.60427 -20.59299
 Alpha  occ. eigenvalues --  -15.88532 -11.24812  -7.68471  -6.86725  -3.97582
 Alpha  occ. eigenvalues --   -3.97381  -3.97322  -1.53571  -1.36352  -1.35681
 Alpha  occ. eigenvalues --   -1.32567  -0.97936  -0.93141  -0.80530  -0.80150
 Alpha  occ. eigenvalues --   -0.76214  -0.73487  -0.71057  -0.66657  -0.63181
 Alpha  occ. eigenvalues --   -0.60841  -0.60746  -0.59012  -0.58548  -0.53715
 Alpha  occ. eigenvalues --   -0.52466  -0.49576  -0.47966  -0.47812  -0.44525
 Alpha virt. eigenvalues --    0.02684   0.03736   0.04443   0.05372   0.06137
 Alpha virt. eigenvalues --    0.06244   0.06891   0.06952   0.07762   0.08148
 Alpha virt. eigenvalues --    0.09046   0.09851   0.10030   0.11470   0.12576

 Mulliken charges:
               1
     1  Si   0.825675
     2  B    0.796238
     3  N    0.291654
     4  O   -0.524966
     5  O   -0.463002
     6  O   -0.618971
     7  O   -0.534434
     8  C    0.264029
     9  H   -0.162375
    10  H   -0.210828
    11  H   -0.170544
    12  H    0.291867
    13  H    0.198709
    14  H    0.016948
 Sum of Mulliken charges =  -0.00000

 Dipole moment (field-independent basis, Debye):
    X=             -2.6947    Y=              2.8573    Z=              0.2701  Tot=              3.9368

 Test job not archived.
 1\1\GINC-SE187\SP\RHF\Aug-CC-pVDZ\C1H6B1N1O4Si1\OHZDE\09-Apr-2025\0\\#
 t hf aug-cc-pvdz iop(5/13=1,5/36=2,99/5=2) pseudo=read geom=check gues
 s=(read,tcheck) scf=(maxcycle=1)\\title\\0,1\Si,0,0.131198,0.689724,0.
 461055\B,0,-1.6297,-0.228812,0.015046\N,0,1.461617,-0.603207,0.028585\
 O,0,-1.691271,-1.551342,-0.258441\O,0,-2.747073,0.547266,0.010929\O,0,
 1.109215,-1.790522,-0.063549\O,0,2.617035,-0.237255,-0.115736\C,0,0.60
 7977,2.232804,-0.471417\H,0,0.526546,2.083019,-1.550482\H,0,1.632435,2
 .525852,-0.235284\H,0,-0.064939,3.048894,-0.192099\H,0,-0.809707,-1.96

 Normal termination of Gaussian 16 at Wed Apr  9 00:44:33 2025.
