 Gaussian 16, Revision C.01,

 ----------------------------------------------------------------------
 #t hf aug-cc-pvdz symm=none int=(grid=ultrafine) guess=(read,tcheck) s
 table=(opt,rrhf)
 ----------------------------------------------------------------------
 -----
 title
 -----
 Symbolic Z-matrix:
 Charge =  0 Multiplicity = 1

 SCF Done:  E(RHF) =  -272.367010437     A.U. after   13 cycles
 Normal termination of Gaussian 16 at Wed Apr  9 00:37:06 2025.
 Gaussian 16:  ES64L-G16RevC.01  3-Jul-2019

 ----------------------------------------------------------------------
 #t hf aug-cc-pvdz iop(5/13=1,5/36=2,99/5=2) pseudo=read geom=check gue
 ss=(read,tcheck) scf=(maxcycle=1)
 ----------------------------------------------------------------------
 -----
 title
 -----
 Structure from the checkpoint file:  "BDE49_nonexpt_590_mol1.chk"
 Charge =  0 Multiplicity = 1

                         Standard orientation:
 ---------------------------------------------------------------------
 Center     Atomic      Atomic             Coordinates (Angstroms)
 Number     Number       Type             X           Y           Z
 ---------------------------------------------------------------------
      1          6           0       -1.589578    0.231965   -0.000018
      2          5           0        0.937101   -0.021649   -0.000035
      3          6           0        2.099446   -1.083168   -0.000001
      4          1           0        1.774775   -2.127778    0.000011
      5          1           0        2.748050   -0.931348    0.871792
      6          1           0        2.748070   -0.931375   -0.871784
      7          6           0        1.245193    1.529828   -0.000006
      8          1           0        2.318743    1.732447   -0.000001
      9          1           0        0.819517    2.032897    0.876038
     10          1           0        0.819517    2.032931   -0.876030
     11          8           0       -2.691608   -0.260621    0.000057
     12          7           0       -0.413467   -0.501114   -0.000024
     13          1           0       -1.422604    1.321389    0.000035
     14          1           0       -0.594806   -1.499896   -0.000016
 ---------------------------------------------------------------------

 SCF Done:  E(RHF) =  -272.455206323     A.U. after    2 cycles

 The electronic state is 1-A.
 Alpha  occ. eigenvalues --  -20.55980 -15.64818 -11.37393 -11.21763 -11.21567
 Alpha  occ. eigenvalues --   -7.62880  -1.36384  -1.18017  -0.97016  -0.93521
 Alpha  occ. eigenvalues --   -0.84636  -0.75064  -0.68229  -0.63548  -0.59333
 Alpha  occ. eigenvalues --   -0.59251  -0.56359  -0.54833  -0.54661  -0.52511
 Alpha  occ. eigenvalues --   -0.47615  -0.45005  -0.43535
 Alpha virt. eigenvalues --    0.02757   0.04134   0.04252   0.04890   0.06518
 Alpha virt. eigenvalues --    0.07192   0.07298   0.07975   0.08059   0.09422
 Alpha virt. eigenvalues --    0.10003   0.10082   0.11033   0.13762   0.14586

 Mulliken charges:
               1
     1  C    0.812017
     2  B    0.444843
     3  C    0.545265
     4  H   -0.391040
     5  H   -0.066058
     6  H   -0.066025
     7  C    0.484428
     8  H   -0.323209
     9  H   -0.112777
    10  H   -0.112769
    11  O   -0.455232
    12  N   -0.453266
    13  H   -0.206004
    14  H   -0.100172
 Sum of Mulliken charges =  -0.00000

 Dipole moment (field-independent basis, Debye):
    X=              3.6062    Y=              0.6488    Z=             -0.0002  Tot=              3.6641

 Test job not archived.
 1\1\GINC-SE250\SP\RHF\Aug-CC-pVDZ\C3H8B1N1O1\OHZDE\09-Apr-2025\0\\#t h
 f aug-cc-pvdz iop(5/13=1,5/36=2,99/5=2) pseudo=read geom=check guess=(
 read,tcheck) scf=(maxcycle=1)\\title\\0,1\C,0,-1.589578,0.231965,-0.00
 0018\B,0,0.937101,-0.021649,-0.000035\C,0,2.099446,-1.083168,-0.000001
 \H,0,1.774775,-2.127778,0.000011\H,0,2.74805,-0.931348,0.871792\H,0,2.
 74807,-0.931375,-0.871784\C,0,1.245193,1.529828,-0.000006\H,0,2.318743
 ,1.732447,-0.000001\H,0,0.819517,2.032897,0.876038\H,0,0.819517,2.0329
 31,-0.87603\O,0,-2.691608,-0.260622,0.000057\N,0,-0.413467,-0.501114,-

 Normal termination of Gaussian 16 at Wed Apr  9 00:37:10 2025.
