 Gaussian 16, Revision C.01,

 ----------------------------------------------------------------------
 #t hf aug-cc-pvdz symm=none int=(grid=ultrafine) guess=(read,tcheck) s
 table=(opt,rrhf)
 ----------------------------------------------------------------------
 -----
 title
 -----
 Symbolic Z-matrix:
 Charge =  0 Multiplicity = 1

 SCF Done:  E(RHF) =  -694.320042955     A.U. after   12 cycles
 Normal termination of Gaussian 16 at Tue Apr  8 22:47:20 2025.
 Gaussian 16:  ES64L-G16RevC.01  3-Jul-2019

 ----------------------------------------------------------------------
 #t hf aug-cc-pvdz iop(5/13=1,5/36=2,99/5=2) pseudo=read geom=check gue
 ss=(read,tcheck) scf=(maxcycle=1)
 ----------------------------------------------------------------------
 -----
 title
 -----
 Structure from the checkpoint file:  "BDE49_expt_1661_mol1.chk"
 Charge =  0 Multiplicity = 1

                         Standard orientation:
 ---------------------------------------------------------------------
 Center     Atomic      Atomic             Coordinates (Angstroms)
 Number     Number       Type             X           Y           Z
 ---------------------------------------------------------------------
      1          6           0       -2.230033    0.824351    0.311319
      2          6           0       -0.831143    1.038469   -0.245360
      3          1           0       -2.934031    1.560270   -0.072817
      4          1           0       -2.244705    0.845920    1.400802
      5         17           0       -2.928595   -0.796584   -0.155282
      6          6           0        0.243047    0.117184    0.340857
      7          1           0       -0.569078    2.084513   -0.035293
      8          1           0       -0.860262    0.938954   -1.335393
      9          6           0        1.640720    0.390925   -0.225442
     10          1           0       -0.030706   -0.925209    0.148657
     11          1           0        0.262727    0.235553    1.431983
     12          6           0        2.724758   -0.523501    0.356490
     13          1           0        1.913376    1.437853   -0.037948
     14          1           0        1.618139    0.273524   -1.316515
     15          6           0        4.118358   -0.248438   -0.215383
     16          1           0        2.452152   -1.568787    0.168730
     17          1           0        2.747721   -0.406785    1.446730
     18          1           0        4.136005   -0.391748   -1.300273
     19          1           0        4.867021   -0.916126    0.219369
     20          1           0        4.433510    0.780057   -0.013129
 ---------------------------------------------------------------------

 SCF Done:  E(RHF) =  -694.412872391     A.U. after    2 cycles

 The electronic state is 1-A.
 Alpha  occ. eigenvalues -- -103.64175 -11.30419 -11.24688 -11.23244 -11.23038
 Alpha  occ. eigenvalues --  -11.22963 -11.22390 -10.67450  -8.33163  -8.32891
 Alpha  occ. eigenvalues --   -8.32881  -1.15492  -1.07795  -1.02911  -0.95810
 Alpha  occ. eigenvalues --   -0.87411  -0.80631  -0.79307  -0.66273  -0.63849
 Alpha  occ. eigenvalues --   -0.62066  -0.59752  -0.56798  -0.55914  -0.54670
 Alpha  occ. eigenvalues --   -0.51615  -0.50046  -0.48208  -0.47208  -0.46877
 Alpha  occ. eigenvalues --   -0.46457  -0.43923  -0.43550
 Alpha virt. eigenvalues --    0.03361   0.03797   0.04340   0.04918   0.05681
 Alpha virt. eigenvalues --    0.06113   0.06600   0.07138   0.08057   0.08773
 Alpha virt. eigenvalues --    0.09399   0.09531   0.10715   0.11246   0.12509

 Mulliken charges:
               1
     1  C    0.382322
     2  C    0.234458
     3  H    0.008137
     4  H   -0.017285
     5  Cl  -0.167241
     6  C    0.143704
     7  H   -0.091377
     8  H   -0.155534
     9  C    0.040511
    10  H   -0.173198
    11  H   -0.172204
    12  C    0.338154
    13  H   -0.193935
    14  H   -0.178135
    15  C    0.532213
    16  H   -0.146321
    17  H   -0.150217
    18  H   -0.085349
    19  H   -0.062147
    20  H   -0.086557
 Sum of Mulliken charges =   0.00000

 Dipole moment (field-independent basis, Debye):
    X=              1.3313    Y=              2.0274    Z=              0.5387  Tot=              2.4845

 Test job not archived.
 1\1\GINC-SE457\SP\RHF\Aug-CC-pVDZ\C6H13Cl1\OHZDE\08-Apr-2025\0\\#t hf
 aug-cc-pvdz iop(5/13=1,5/36=2,99/5=2) pseudo=read geom=check guess=(re
 ad,tcheck) scf=(maxcycle=1)\\title\\0,1\C,0,-2.230033,0.824351,0.31131
 9\C,0,-0.831143,1.038469,-0.24536\H,0,-2.934031,1.56027,-0.072817\H,0,
 -2.244705,0.84592,1.400802\Cl,0,-2.928595,-0.796584,-0.155282\C,0,0.24
 3047,0.117184,0.340857\H,0,-0.569078,2.084513,-0.035293\H,0,-0.860262,
 0.938954,-1.335393\C,0,1.64072,0.390925,-0.225442\H,0,-0.030706,-0.925
 209,0.148657\H,0,0.262727,0.235553,1.431983\C,0,2.724758,-0.523501,0.3

 Normal termination of Gaussian 16 at Tue Apr  8 22:47:28 2025.
