 Gaussian 16, Revision C.01,

 ----------------------------------------------------------------------
 #t hf aug-cc-pvdz symm=none int=(grid=ultrafine) guess=(read,tcheck) s
 table=(opt,rrhf)
 ----------------------------------------------------------------------
 -----
 title
 -----
 Symbolic Z-matrix:
 Charge =  0 Multiplicity = 1

 SCF Done:  E(RHF) =  -549.216439994     A.U. after   13 cycles
 Normal termination of Gaussian 16 at Tue Apr  8 23:34:55 2025.
 Gaussian 16:  ES64L-G16RevC.01  3-Jul-2019

 ----------------------------------------------------------------------
 #t hf aug-cc-pvdz iop(5/13=1,5/36=2,99/5=2) pseudo=read geom=check gue
 ss=(read,tcheck) scf=(maxcycle=1)
 ----------------------------------------------------------------------
 -----
 title
 -----
 Structure from the checkpoint file:  "BDE49_nonexpt_1510_mol1.chk"
 Charge =  0 Multiplicity = 1

                         Standard orientation:
 ---------------------------------------------------------------------
 Center     Atomic      Atomic             Coordinates (Angstroms)
 Number     Number       Type             X           Y           Z
 ---------------------------------------------------------------------
      1         15           0        0.054729   -0.912753   -0.140451
      2          7           0       -1.454722   -0.294998    0.442846
      3          8           0       -1.838423    0.996623   -0.082589
      4          6           0        1.179093    0.531294   -0.200656
      5          6           0        2.442242    0.437937    0.214065
      6          1           0        0.786222    1.471790   -0.577250
      7          1           0        2.847522   -0.492549    0.601767
      8          1           0        3.122812    1.283720    0.177759
      9          1           0       -2.648345    0.790359   -0.562496
     10          1           0       -0.322889   -0.901326   -1.505532
     11          1           0       -1.443836   -0.184084    1.452853
 ---------------------------------------------------------------------

 SCF Done:  E(RHF) =  -549.307756041     A.U. after    2 cycles

 The electronic state is 1-A.
 Alpha  occ. eigenvalues --  -81.27932 -20.61251 -15.67620 -11.25600 -11.24650
 Alpha  occ. eigenvalues --   -7.77999  -4.92108  -4.91903  -4.91653  -1.35608
 Alpha  occ. eigenvalues --   -1.06903  -1.03765  -0.82665  -0.74652  -0.70145
 Alpha  occ. eigenvalues --   -0.66506  -0.63907  -0.59749  -0.57150  -0.50456
 Alpha  occ. eigenvalues --   -0.49836  -0.41028  -0.38889  -0.35314
 Alpha virt. eigenvalues --    0.03604   0.04391   0.05086   0.05570   0.06744
 Alpha virt. eigenvalues --    0.07061   0.09594   0.09609   0.10092   0.12517
 Alpha virt. eigenvalues --    0.13817   0.15089   0.16567   0.16660   0.18040

 Mulliken charges:
               1
     1  P    0.713697
     2  N   -0.342651
     3  O   -0.526949
     4  C    0.233015
     5  C    0.476922
     6  H   -0.476570
     7  H   -0.257122
     8  H   -0.223898
     9  H    0.202610
    10  H    0.093538
    11  H    0.107408
 Sum of Mulliken charges =  -0.00000

 Dipole moment (field-independent basis, Debye):
    X=              0.0097    Y=              0.3704    Z=             -0.0495  Tot=              0.3738

 Test job not archived.
 1\1\GINC-SE102\SP\RHF\Aug-CC-pVDZ\C2H6N1O1P1\OHZDE\08-Apr-2025\0\\#t h
 f aug-cc-pvdz iop(5/13=1,5/36=2,99/5=2) pseudo=read geom=check guess=(
 read,tcheck) scf=(maxcycle=1)\\title\\0,1\P,0,0.054729,-0.912753,-0.14
 0451\N,0,-1.454722,-0.294998,0.442846\O,0,-1.838423,0.996623,-0.082589
 \C,0,1.179093,0.531294,-0.200656\C,0,2.442242,0.437937,0.214065\H,0,0.
 786222,1.47179,-0.57725\H,0,2.847522,-0.492549,0.601767\H,0,3.122812,1
 .28372,0.177759\H,0,-2.648345,0.790359,-0.562496\H,0,-0.322889,-0.9013
 26,-1.505532\H,0,-1.443836,-0.184084,1.452853\\Version=ES64L-G16RevC.0

 Normal termination of Gaussian 16 at Tue Apr  8 23:34:59 2025.
