 Gaussian 16, Revision C.01,

 ----------------------------------------------------------------------
 #t hf aug-cc-pvdz symm=none int=(grid=ultrafine) guess=(read,tcheck) s
 table=(opt,rrhf)
 ----------------------------------------------------------------------
 -----
 title
 -----
 Symbolic Z-matrix:
 Charge =  0 Multiplicity = 1

 SCF Done:  E(RHF) =  -672.196750447     A.U. after   12 cycles
 Normal termination of Gaussian 16 at Wed Apr  9 00:02:30 2025.
 Gaussian 16:  ES64L-G16RevC.01  3-Jul-2019

 ----------------------------------------------------------------------
 #t hf aug-cc-pvdz iop(5/13=1,5/36=2,99/5=2) pseudo=read geom=check gue
 ss=(read,tcheck) scf=(maxcycle=1)
 ----------------------------------------------------------------------
 -----
 title
 -----
 Structure from the checkpoint file:  "BDE49_nonexpt_2176_mol1.chk"
 Charge =  0 Multiplicity = 1

                         Standard orientation:
 ---------------------------------------------------------------------
 Center     Atomic      Atomic             Coordinates (Angstroms)
 Number     Number       Type             X           Y           Z
 ---------------------------------------------------------------------
      1         14           0       -0.833394   -0.204691    0.018635
      2          8           0       -0.791385   -0.344284    1.655555
      3          8           0       -2.213105    0.573325   -0.426995
      4          1           0       -1.602291   -0.601068    2.101637
      5          6           0        0.706768    0.754885   -0.450784
      6          6           0        2.011618    0.231033    0.190414
      7          6           0        2.366130   -1.226007   -0.128057
      8          1           0        1.948506    0.356704    1.276242
      9          1           0        2.835252    0.873612   -0.145546
     10          1           0        1.678843   -1.926604    0.358063
     11          1           0        3.367976   -1.472613    0.233249
     12          1           0        2.348666   -1.416793   -1.206144
     13          6           0        0.516189    2.255384   -0.141603
     14          1           0        0.800329    0.644920   -1.541289
     15          1           0        0.423895    2.424286    0.935340
     16          1           0       -0.383488    2.652017   -0.616563
     17          1           0        1.374370    2.836539   -0.495997
     18          1           0       -2.719283    0.160128   -1.130504
     19          8           0       -0.967307   -1.663628   -0.748862
     20          1           0       -0.235113   -2.280529   -0.686796
 ---------------------------------------------------------------------

 SCF Done:  E(RHF) =  -672.368464406     A.U. after    2 cycles

 The electronic state is 1-A.
 Alpha  occ. eigenvalues --  -69.12038 -20.56886 -20.56599 -20.56406 -11.23287
 Alpha  occ. eigenvalues --  -11.23160 -11.22182 -11.21979  -6.86264  -3.97287
 Alpha  occ. eigenvalues --   -3.97281  -3.97070  -1.32098  -1.29120  -1.28679
 Alpha  occ. eigenvalues --   -1.06096  -0.97917  -0.86291  -0.80059  -0.75969
 Alpha  occ. eigenvalues --   -0.72930  -0.71434  -0.63294  -0.60546  -0.59594
 Alpha  occ. eigenvalues --   -0.58688  -0.57309  -0.56948  -0.56788  -0.54914
 Alpha  occ. eigenvalues --   -0.52790  -0.51949  -0.51258  -0.49890  -0.47227
 Alpha  occ. eigenvalues --   -0.46277  -0.41740
 Alpha virt. eigenvalues --    0.03081   0.04287   0.04603   0.04813   0.06101
 Alpha virt. eigenvalues --    0.06365   0.06828   0.06961   0.07215   0.08875
 Alpha virt. eigenvalues --    0.09021   0.09393   0.09467   0.10150   0.11740

 Mulliken charges:
               1
     1  Si   2.361276
     2  O   -0.832873
     3  O   -0.893210
     4  H    0.100678
     5  C   -0.550036
     6  C    0.345651
     7  C    0.487735
     8  H   -0.132137
     9  H   -0.111052
    10  H   -0.137228
    11  H   -0.100590
    12  H   -0.092271
    13  C    0.612587
    14  H   -0.256294
    15  H   -0.072658
    16  H   -0.117866
    17  H   -0.083363
    18  H    0.159349
    19  O   -0.808665
    20  H    0.120968
 Sum of Mulliken charges =   0.00000

 Dipole moment (field-independent basis, Debye):
    X=              0.5375    Y=             -1.2120    Z=             -0.5643  Tot=              1.4410

 Test job not archived.
 1\1\GINC-SE250\SP\RHF\Aug-CC-pVDZ\C4H12O3Si1\OHZDE\09-Apr-2025\0\\#t h
 f aug-cc-pvdz iop(5/13=1,5/36=2,99/5=2) pseudo=read geom=check guess=(
 read,tcheck) scf=(maxcycle=1)\\title\\0,1\Si,0,-0.833394,-0.204691,0.0
 18635\O,0,-0.791385,-0.344284,1.655555\O,0,-2.213105,0.573325,-0.42699
 5\H,0,-1.602291,-0.601068,2.101637\C,0,0.706768,0.754885,-0.450784\C,0
 ,2.011618,0.231033,0.190414\C,0,2.36613,-1.226007,-0.128057\H,0,1.9485
 06,0.356704,1.276242\H,0,2.835252,0.873612,-0.145546\H,0,1.678843,-1.9
 26604,0.358063\H,0,3.367976,-1.472613,0.233249\H,0,2.348666,-1.416793,

 Normal termination of Gaussian 16 at Wed Apr  9 00:02:40 2025.
