 Gaussian 16, Revision C.01,

 ----------------------------------------------------------------------
 #t hf aug-cc-pvdz symm=none int=(grid=ultrafine) guess=(read,tcheck) s
 table=(opt,rrhf)
 ----------------------------------------------------------------------
 -----
 title
 -----
 Symbolic Z-matrix:
 Charge =  0 Multiplicity = 1

 SCF Done:  E(RHF) =  -990.248319769     A.U. after   13 cycles

 1\1\GINC-SE127\Stability\RHF\Aug-CC-pVDZ\C5H10S2\OHZDE\08-Apr-2025\0\\
 #t hf aug-cc-pvdz symm=none int=(grid=ultrafine) guess=(read,tcheck) s
 table=(opt,rrhf)\\title\\0,1\S,0,0.24843,1.510373,0.006939\C,0,1.84607
 6,0.655027,-0.258562\C,0,1.747864,-0.72878,0.368305\H,0,2.617229,1.262
 254,0.222431\H,0,2.0595,0.584133,-1.325867\S,0,0.203111,-1.484749,-0.2
 38147\H,0,1.745659,-0.672449,1.458508\H,0,2.567458,-1.377769,0.049914\
 C,0,-0.872166,0.005209,0.025583\C,0,-1.584872,-0.057071,1.381828\H,0,-
 0.873284,-0.172513,2.199568\H,0,-2.280768,-0.900637,1.40373\H,0,-2.153

 Normal termination of Gaussian 16 at Tue Apr  8 23:03:28 2025.
 Gaussian 16:  ES64L-G16RevC.01  3-Jul-2019

 ----------------------------------------------------------------------
 #t hf aug-cc-pvdz iop(5/13=1,5/36=2,99/5=2) pseudo=read geom=check gue
 ss=(read,tcheck) scf=(maxcycle=1)
 ----------------------------------------------------------------------
 -----
 title
 -----
 Structure from the checkpoint file:  "BDE49_expt_379_mol1.chk"
 Charge =  0 Multiplicity = 1

                         Standard orientation:
 ---------------------------------------------------------------------
 Center     Atomic      Atomic             Coordinates (Angstroms)
 Number     Number       Type             X           Y           Z
 ---------------------------------------------------------------------
      1         16           0        0.248430    1.510373    0.006939
      2          6           0        1.846076    0.655027   -0.258562
      3          6           0        1.747864   -0.728780    0.368305
      4          1           0        2.617229    1.262253    0.222431
      5          1           0        2.059500    0.584133   -1.325867
      6         16           0        0.203111   -1.484749   -0.238147
      7          1           0        1.745659   -0.672449    1.458508
      8          1           0        2.567458   -1.377770    0.049914
      9          6           0       -0.872166    0.005209    0.025583
     10          6           0       -1.584872   -0.057071    1.381828
     11          1           0       -0.873284   -0.172513    2.199568
     12          1           0       -2.280768   -0.900636    1.403730
     13          1           0       -2.153613    0.862148    1.555048
     14          6           0       -1.883064    0.078130   -1.124656
     15          1           0       -1.379247    0.166919   -2.086608
     16          1           0       -2.540466    0.942130   -0.994252
     17          1           0       -2.510147   -0.819289   -1.138126
 ---------------------------------------------------------------------

 SCF Done:  E(RHF) =  -990.346252149     A.U. after    2 cycles

 The electronic state is 1-A.
 Alpha  occ. eigenvalues --  -93.53108 -93.52778 -11.31321 -11.28000 -11.27804
 Alpha  occ. eigenvalues --  -11.23714 -11.23599  -8.82859  -8.82516  -6.17009
 Alpha  occ. eigenvalues --   -6.16816  -6.16671  -6.16484  -6.16462  -6.16139
 Alpha  occ. eigenvalues --   -1.12530  -1.05190  -0.96203  -0.94215  -0.89449
 Alpha  occ. eigenvalues --   -0.79902  -0.72459  -0.65569  -0.62128  -0.59859
 Alpha  occ. eigenvalues --   -0.59728  -0.58278  -0.55704  -0.54573  -0.50595
 Alpha  occ. eigenvalues --   -0.47739  -0.46400  -0.46058  -0.40502  -0.34524
 Alpha  occ. eigenvalues --   -0.34147
 Alpha virt. eigenvalues --    0.03567   0.04206   0.04935   0.05345   0.06233
 Alpha virt. eigenvalues --    0.06303   0.06484   0.07830   0.08695   0.09011
 Alpha virt. eigenvalues --    0.09324   0.11361   0.11658   0.13268   0.13522

 Mulliken charges:
               1
     1  S    0.401967
     2  C   -0.135882
     3  C    0.004678
     4  H   -0.047940
     5  H   -0.088137
     6  S    0.389053
     7  H   -0.117857
     8  H   -0.073664
     9  C   -1.576294
    10  C    0.681845
    11  H   -0.121223
    12  H   -0.018989
    13  H   -0.020100
    14  C    0.838354
    15  H   -0.073561
    16  H   -0.017605
    17  H   -0.024646
 Sum of Mulliken charges =  -0.00000

 Dipole moment (field-independent basis, Debye):
    X=              0.7826    Y=             -0.1765    Z=              0.4059  Tot=              0.8991

 Test job not archived.
 1\1\GINC-SE127\SP\RHF\Aug-CC-pVDZ\C5H10S2\OHZDE\08-Apr-2025\0\\#t hf a
 ug-cc-pvdz iop(5/13=1,5/36=2,99/5=2) pseudo=read geom=check guess=(rea
 d,tcheck) scf=(maxcycle=1)\\title\\0,1\S,0,0.24843,1.510373,0.006939\C
 ,0,1.846076,0.655027,-0.258562\C,0,1.747864,-0.72878,0.368305\H,0,2.61
 7229,1.262254,0.222431\H,0,2.0595,0.584133,-1.325867\S,0,0.203111,-1.4
 84749,-0.238147\H,0,1.745659,-0.672449,1.458508\H,0,2.567458,-1.377769
 ,0.049914\C,0,-0.872166,0.005209,0.025583\C,0,-1.584872,-0.057071,1.38
 1828\H,0,-0.873284,-0.172513,2.199568\H,0,-2.280768,-0.900637,1.40373\

 Normal termination of Gaussian 16 at Tue Apr  8 23:03:35 2025.
