 Gaussian 16, Revision C.01,

 ----------------------------------------------------------------------
 #t hf aug-cc-pvdz symm=none int=(grid=ultrafine) guess=(read,tcheck) s
 table=(opt,rrhf)
 ----------------------------------------------------------------------
 -----
 title
 -----
 Symbolic Z-matrix:
 Charge =  0 Multiplicity = 1

 SCF Done:  E(RHF) =  -766.885633291     A.U. after   12 cycles
 Normal termination of Gaussian 16 at Wed Apr  9 00:13:36 2025.
 Gaussian 16:  ES64L-G16RevC.01  3-Jul-2019

 ----------------------------------------------------------------------
 #t hf aug-cc-pvdz iop(5/13=1,5/36=2,99/5=2) pseudo=read geom=check gue
 ss=(read,tcheck) scf=(maxcycle=1)
 ----------------------------------------------------------------------
 -----
 title
 -----
 Structure from the checkpoint file:  "BDE49_nonexpt_2495_mol1.chk"
 Charge =  0 Multiplicity = 1

                         Standard orientation:
 ---------------------------------------------------------------------
 Center     Atomic      Atomic             Coordinates (Angstroms)
 Number     Number       Type             X           Y           Z
 ---------------------------------------------------------------------
      1         16           0       -0.114786   -0.996419   -0.211073
      2         14           0       -1.620892    0.517477    0.048186
      3          6           0        1.365876   -0.203337    0.575907
      4          6           0        2.072072    0.822622   -0.303830
      5          1           0        2.026291   -1.044015    0.796781
      6          1           0        1.061028    0.225942    1.532268
      7          1           0        2.377219    0.379202   -1.253794
      8          1           0        2.967275    1.198553    0.202676
      9          1           0        1.428333    1.676998   -0.524360
     10          1           0       -2.877281   -0.094980   -0.431840
     11          1           0       -1.342144    1.747927   -0.729014
     12          1           0       -1.739351    0.892684    1.477388
 ---------------------------------------------------------------------

 SCF Done:  E(RHF) =  -766.953920617     A.U. after    2 cycles

 The electronic state is 1-A.
 Alpha  occ. eigenvalues --  -93.51882 -69.08804 -11.27977 -11.23950  -8.81806
 Alpha  occ. eigenvalues --   -6.83867  -6.15915  -6.15725  -6.15461  -3.94684
 Alpha  occ. eigenvalues --   -3.94620  -3.94585  -1.05694  -0.92940  -0.82090
 Alpha  occ. eigenvalues --   -0.69343  -0.63263  -0.59306  -0.54781  -0.52374
 Alpha  occ. eigenvalues --   -0.50149  -0.49197  -0.45897  -0.41481  -0.35315
 Alpha virt. eigenvalues --    0.03368   0.04427   0.05124   0.05188   0.06583
 Alpha virt. eigenvalues --    0.07070   0.07297   0.07992   0.09139   0.09840
 Alpha virt. eigenvalues --    0.11035   0.11629   0.13188   0.14235   0.14969

 Mulliken charges:
               1
     1  S   -0.123265
     2  Si   0.365452
     3  C   -0.080927
     4  C    0.281589
     5  H   -0.030003
     6  H   -0.150872
     7  H   -0.056547
     8  H   -0.043796
     9  H   -0.118794
    10  H   -0.052646
    11  H   -0.006211
    12  H    0.016019
 Sum of Mulliken charges =  -0.00000

 Dipole moment (field-independent basis, Debye):
    X=              1.0044    Y=              1.2614    Z=              0.7165  Tot=              1.7644

 Test job not archived.
 1\1\GINC-SE365\SP\RHF\Aug-CC-pVDZ\C2H8S1Si1\OHZDE\09-Apr-2025\0\\#t hf
  aug-cc-pvdz iop(5/13=1,5/36=2,99/5=2) pseudo=read geom=check guess=(r
 ead,tcheck) scf=(maxcycle=1)\\title\\0,1\S,0,-0.114786,-0.996419,-0.21
 1073\Si,0,-1.620892,0.517478,0.048186\C,0,1.365876,-0.203337,0.575907\
 C,0,2.072072,0.822621,-0.30383\H,0,2.026291,-1.044016,0.796781\H,0,1.0
 61028,0.225942,1.532268\H,0,2.377219,0.379201,-1.253794\H,0,2.967275,1
 .198552,0.202676\H,0,1.428333,1.676998,-0.52436\H,0,-2.877281,-0.09497
 9,-0.43184\H,0,-1.342144,1.747928,-0.729014\H,0,-1.739351,0.892685,1.4

 Normal termination of Gaussian 16 at Wed Apr  9 00:13:39 2025.
