 Gaussian 16, Revision C.01,

 ----------------------------------------------------------------------
 #t hf aug-cc-pvdz symm=none int=(grid=ultrafine) guess=(read,tcheck) s
 table=(opt,rrhf)
 ----------------------------------------------------------------------
 -----
 title
 -----
 Symbolic Z-matrix:
 Charge =  0 Multiplicity = 1

 SCF Done:  E(RHF) =  -707.657164201     A.U. after   14 cycles
 Normal termination of Gaussian 16 at Tue Apr  8 23:51:21 2025.
 Gaussian 16:  ES64L-G16RevC.01  3-Jul-2019

 ----------------------------------------------------------------------
 #t hf aug-cc-pvdz iop(5/13=1,5/36=2,99/5=2) pseudo=read geom=check gue
 ss=(read,tcheck) scf=(maxcycle=1)
 ----------------------------------------------------------------------
 -----
 title
 -----
 Structure from the checkpoint file:  "BDE49_nonexpt_1890_mol1.chk"
 Charge =  0 Multiplicity = 1

                         Standard orientation:
 ---------------------------------------------------------------------
 Center     Atomic      Atomic             Coordinates (Angstroms)
 Number     Number       Type             X           Y           Z
 ---------------------------------------------------------------------
      1         14           0       -0.647597   -1.408626   -0.339955
      2          6           0        0.476370   -0.967257    1.125147
      3          8           0       -1.439688   -0.052896   -0.946715
      4          1           0       -1.611066   -2.414469    0.165722
      5          1           0        0.056430   -1.925158   -1.526938
      6          8           0       -2.229262    0.497754    0.164008
      7          6           0       -1.855769    1.863598    0.269667
      8          1           0       -2.490429    2.255982    1.068306
      9          1           0       -2.063790    2.393350   -0.664211
     10          1           0       -0.800767    1.964185    0.539822
     11          8           0        1.305880    0.175052    0.928178
     12          8           0        2.092910   -0.120816   -0.275297
     13          6           0        2.769327    1.081464   -0.584887
     14          1           0        3.380155    0.836385   -1.456088
     15          1           0        3.414077    1.393075    0.243085
     16          1           0        2.066405    1.881927   -0.837227
     17          1           0        1.082521   -1.835161    1.424613
     18          1           0       -0.145477   -0.688937    1.981327
 ---------------------------------------------------------------------

 SCF Done:  E(RHF) =  -707.823816269     A.U. after    2 cycles

 The electronic state is 1-A.
 Alpha  occ. eigenvalues --  -69.09382 -20.64349 -20.64082 -20.63929 -20.61676
 Alpha  occ. eigenvalues --  -11.29390 -11.29147 -11.28465  -6.84231  -3.95143
 Alpha  occ. eigenvalues --   -3.94997  -3.94967  -1.42403  -1.40842  -1.22531
 Alpha  occ. eigenvalues --   -1.19101  -0.93097  -0.91752  -0.90781  -0.73974
 Alpha  occ. eigenvalues --   -0.70268  -0.69102  -0.68376  -0.67684  -0.66481
 Alpha  occ. eigenvalues --   -0.62903  -0.60171  -0.57424  -0.56869  -0.55669
 Alpha  occ. eigenvalues --   -0.53375  -0.52375  -0.51074  -0.47878  -0.47387
 Alpha  occ. eigenvalues --   -0.45717  -0.42203
 Alpha virt. eigenvalues --    0.03363   0.04455   0.04552   0.05045   0.05812
 Alpha virt. eigenvalues --    0.06095   0.06540   0.07181   0.07449   0.08858
 Alpha virt. eigenvalues --    0.09571   0.09814   0.11434   0.12412   0.13087

 Mulliken charges:
               1
     1  Si   0.970882
     2  C    0.690906
     3  O   -0.745915
     4  H   -0.004939
     5  H    0.101173
     6  O   -0.480063
     7  C    0.913218
     8  H   -0.159503
     9  H   -0.111317
    10  H   -0.157724
    11  O   -0.410775
    12  O   -0.441959
    13  C    0.854982
    14  H   -0.218499
    15  H   -0.130904
    16  H   -0.121243
    17  H   -0.270022
    18  H   -0.278297
 Sum of Mulliken charges =  -0.00000

 Dipole moment (field-independent basis, Debye):
    X=              1.3067    Y=              1.1880    Z=              0.8573  Tot=              1.9631

 Test job not archived.
 1\1\GINC-SE060\SP\RHF\Aug-CC-pVDZ\C3H10O4Si1\OHZDE\08-Apr-2025\0\\#t h
 f aug-cc-pvdz iop(5/13=1,5/36=2,99/5=2) pseudo=read geom=check guess=(
 read,tcheck) scf=(maxcycle=1)\\title\\0,1\Si,0,-0.647597,-1.408626,-0.
 339955\C,0,0.47637,-0.967257,1.125147\O,0,-1.439688,-0.052896,-0.94671
 5\H,0,-1.611066,-2.414469,0.165722\H,0,0.05643,-1.925158,-1.526938\O,0
 ,-2.229262,0.497754,0.164008\C,0,-1.855769,1.863598,0.269667\H,0,-2.49
 0429,2.255982,1.068306\H,0,-2.06379,2.39335,-0.664211\H,0,-0.800767,1.
 964185,0.539822\O,0,1.30588,0.175052,0.928178\O,0,2.09291,-0.120816,-0

 Normal termination of Gaussian 16 at Tue Apr  8 23:51:30 2025.
