 Gaussian 16, Revision C.01,

 ----------------------------------------------------------------------
 #t hf aug-cc-pvdz symm=none int=(grid=ultrafine) guess=(read,tcheck) s
 table=(opt,rrhf)
 ----------------------------------------------------------------------
 -----
 title
 -----
 Symbolic Z-matrix:
 Charge =  0 Multiplicity = 1

 SCF Done:  E(RHF) =  -1601.05665694     A.U. after   12 cycles
 Normal termination of Gaussian 16 at Tue Apr  8 23:10:30 2025.
 Gaussian 16:  ES64L-G16RevC.01  3-Jul-2019

 ----------------------------------------------------------------------
 #t hf aug-cc-pvdz iop(5/13=1,5/36=2,99/5=2) pseudo=read geom=check gue
 ss=(read,tcheck) scf=(maxcycle=1)
 ----------------------------------------------------------------------
 -----
 title
 -----
 Structure from the checkpoint file:  "BDE49_expt_805_mol1.chk"
 Charge =  0 Multiplicity = 1

                         Standard orientation:
 ---------------------------------------------------------------------
 Center     Atomic      Atomic             Coordinates (Angstroms)
 Number     Number       Type             X           Y           Z
 ---------------------------------------------------------------------
      1         14           0       -0.000000   -0.306541   -0.510594
      2         16           0       -1.684584   -1.163665    0.515773
      3         16           0        1.684585   -1.163664    0.515773
      4         16           0       -0.000000    1.846032   -0.569537
      5          1           0       -0.000000   -0.644179   -1.952708
      6          6           0       -3.061039   -0.494087   -0.510419
      7          1           0       -3.028980    0.593933   -0.542434
      8          1           0       -3.982170   -0.815479   -0.024954
      9          1           0       -3.026312   -0.902673   -1.519690
     10          6           0        3.061039   -0.494087   -0.510419
     11          1           0        3.982170   -0.815479   -0.024954
     12          1           0        3.028980    0.593934   -0.542434
     13          1           0        3.026312   -0.902673   -1.519690
     14          6           0        0.000000    2.278200    1.219836
     15          1           0        0.892078    1.889162    1.708177
     16          1           0       -0.892079    1.889162    1.708177
     17          1           0        0.000000    3.366462    1.272708
 ---------------------------------------------------------------------

 SCF Done:  E(RHF) =  -1601.17615270     A.U. after    2 cycles

 The electronic state is 1-A.
 Alpha  occ. eigenvalues --  -93.52767 -93.52766 -93.52708 -69.12935 -11.27504
 Alpha  occ. eigenvalues --  -11.27504 -11.27188  -8.82651  -8.82644  -8.82598
 Alpha  occ. eigenvalues --   -6.87456  -6.16772  -6.16745  -6.16717  -6.16583
 Alpha  occ. eigenvalues --   -6.16569  -6.16520  -6.16322  -6.16307  -6.16275
 Alpha  occ. eigenvalues --   -3.98237  -3.98229  -3.98147  -1.03446  -1.01740
 Alpha  occ. eigenvalues --   -1.01519  -0.88061  -0.84808  -0.83965  -0.65773
 Alpha  occ. eigenvalues --   -0.60742  -0.60426  -0.59979  -0.59418  -0.58931
 Alpha  occ. eigenvalues --   -0.58042  -0.53499  -0.48430  -0.47517  -0.45995
 Alpha  occ. eigenvalues --   -0.43108  -0.41004  -0.36271  -0.36133  -0.34867
 Alpha virt. eigenvalues --    0.03346   0.04033   0.04591   0.05076   0.06131
 Alpha virt. eigenvalues --    0.06436   0.06804   0.07479   0.08386   0.08444
 Alpha virt. eigenvalues --    0.08796   0.09199   0.10035   0.10866   0.12548

 Mulliken charges:
               1
     1  Si   1.350816
     2  S   -0.266759
     3  S   -0.266759
     4  S   -0.236784
     5  H    0.126721
     6  C    0.112558
     7  H   -0.122397
     8  H   -0.116395
     9  H   -0.124069
    10  C    0.112554
    11  H   -0.116395
    12  H   -0.122394
    13  H   -0.124069
    14  C    0.152928
    15  H   -0.116565
    16  H   -0.116562
    17  H   -0.126428
 Sum of Mulliken charges =  -0.00000

 Dipole moment (field-independent basis, Debye):
    X=             -0.0000    Y=              1.3289    Z=             -0.5834  Tot=              1.4513

 Test job not archived.
 1\1\GINC-SE423\SP\RHF\Aug-CC-pVDZ\C3H10S3Si1\OHZDE\08-Apr-2025\0\\#t h
 f aug-cc-pvdz iop(5/13=1,5/36=2,99/5=2) pseudo=read geom=check guess=(
 read,tcheck) scf=(maxcycle=1)\\title\\0,1\Si,0,0.,-0.306541,-0.510594\
 S,0,-1.684584,-1.163665,0.515773\S,0,1.684585,-1.163664,0.515773\S,0,0
 .,1.846032,-0.569537\H,0,0.,-0.644179,-1.952708\C,0,-3.061039,-0.49408
 7,-0.510419\H,0,-3.02898,0.593933,-0.542434\H,0,-3.98217,-0.815479,-0.
 024954\H,0,-3.026312,-0.902673,-1.51969\C,0,3.061039,-0.494087,-0.5104
 19\H,0,3.98217,-0.815479,-0.024954\H,0,3.02898,0.593934,-0.542434\H,0,

 Normal termination of Gaussian 16 at Tue Apr  8 23:10:38 2025.
