 Gaussian 16, Revision C.01,

 ----------------------------------------------------------------------
 #t hf aug-cc-pvdz symm=none int=(grid=ultrafine) guess=(read,tcheck) s
 table=opt
 ----------------------------------------------------------------------
 -----
 title
 -----
 Symbolic Z-matrix:
 Charge =  0 Multiplicity = 2

 SCF Done:  E(UHF) =  -964.119206715     A.U. after   21 cycles
 Normal termination of Gaussian 16 at Wed Apr  9 00:15:39 2025.
 Gaussian 16:  ES64L-G16RevC.01  3-Jul-2019

 ----------------------------------------------------------------------
 #t hf aug-cc-pvdz iop(5/13=1,5/36=2,99/5=2) pseudo=read geom=check gue
 ss=(read,tcheck) scf=(maxcycle=1)
 ----------------------------------------------------------------------
 -----
 title
 -----
 Structure from the checkpoint file:  "BDE49_nonexpt_2549_mol2.chk"
 Charge =  0 Multiplicity = 2

                         Standard orientation:
 ---------------------------------------------------------------------
 Center     Atomic      Atomic             Coordinates (Angstroms)
 Number     Number       Type             X           Y           Z
 ---------------------------------------------------------------------
      1         16           0        1.702463    0.114548    0.143073
      2         15           0       -0.320031   -0.092689   -0.108687
      3          8           0       -0.530886   -1.246690   -1.000643
      4          8           0       -1.075488   -0.200978    1.307747
      5          1           0       -1.050765   -1.098078    1.664450
      6          8           0       -0.846431    1.341273   -0.558655
      7          1           0       -1.765746    1.506800   -0.310904
 ---------------------------------------------------------------------

 SCF Done:  E(UHF) =  -964.277016329     A.U. after    2 cycles

 The electronic state is 2-A.
 Alpha  occ. eigenvalues --  -93.59132 -81.45304 -20.63850 -20.63632 -20.54310
 Alpha  occ. eigenvalues --   -8.89048  -7.93467  -6.24369  -6.22654  -6.22239
 Alpha  occ. eigenvalues --   -5.08070  -5.07989  -5.07632  -1.40509  -1.36589
 Alpha  occ. eigenvalues --   -1.27795  -1.01494  -0.85237  -0.79668  -0.69565
 Alpha  occ. eigenvalues --   -0.67340  -0.63010  -0.62045  -0.60194  -0.54840
 Alpha  occ. eigenvalues --   -0.51028  -0.50073  -0.46537  -0.42858
 Alpha virt. eigenvalues --    0.02808   0.04695   0.06681   0.09230   0.10399
 Alpha virt. eigenvalues --    0.11513   0.12413   0.12804   0.13289   0.16995
 Alpha virt. eigenvalues --    0.18281   0.19394   0.21146   0.22284   0.22810

  Beta  occ. eigenvalues --  -93.58232 -81.45344 -20.63849 -20.63611 -20.54003
  Beta  occ. eigenvalues --   -8.88046  -7.93524  -6.22152  -6.21686  -6.20386
  Beta  occ. eigenvalues --   -5.08123  -5.08023  -5.07735  -1.40483  -1.36572
  Beta  occ. eigenvalues --   -1.26952  -0.94082  -0.83783  -0.79485  -0.69263
  Beta  occ. eigenvalues --   -0.66847  -0.62125  -0.61696  -0.59523  -0.53236
  Beta  occ. eigenvalues --   -0.50477  -0.46609  -0.40579
  Beta virt. eigenvalues --   -0.02362   0.02852   0.04706   0.06859   0.09608
  Beta virt. eigenvalues --    0.10549   0.11810   0.12722   0.13212   0.14041
  Beta virt. eigenvalues --    0.17398   0.18320   0.19789   0.21452   0.22805

 Mulliken charges and spin densities:
               1          2
     1  S   -0.250012   1.069965
     2  P    2.049484  -0.105742
     3  O   -0.853524   0.036300
     4  O   -0.666824  -0.007469
     5  H    0.172019   0.003764
     6  O   -0.624482   0.006947
     7  H    0.173340  -0.003765
 Sum of Mulliken charges =  -0.00000   1.00000

 Dipole moment (field-independent basis, Debye):
    X=             -0.7238    Y=              1.3896    Z=              3.0027  Tot=              3.3869
                          Isotropic Fermi Contact Couplings
        Atom                 a.u.       MegaHertz       Gauss      10(-4) cm-1
     1  S(33)              0.18225      62.59767      22.33641      20.88034
     2  P(31)             -0.05519     -99.95189     -35.66532     -33.34036
     3  O(17)              0.03145     -19.06727      -6.80368      -6.36016
     4  O(17)             -0.00096       0.58461       0.20860       0.19500
     5  H(1)               0.00001       0.05871       0.02095       0.01958
     6  O(17)              0.00022      -0.13596      -0.04851      -0.04535
     7  H(1)              -0.00029      -1.31287      -0.46847      -0.43793
 --------------------------------------------------------

 Normal termination of Gaussian 16 at Wed Apr  9 00:15:42 2025.
