 Gaussian 16, Revision C.01,

 ----------------------------------------------------------------------
 #t hf aug-cc-pvdz symm=none int=(grid=ultrafine) guess=(read,tcheck) s
 table=(opt,rrhf)
 ----------------------------------------------------------------------
 -----
 title
 -----
 Symbolic Z-matrix:
 Charge =  0 Multiplicity = 1

 SCF Done:  E(RHF) =  -1280.01181521     A.U. after   12 cycles
 Normal termination of Gaussian 16 at Wed Apr  9 00:19:01 2025.
 Gaussian 16:  ES64L-G16RevC.01  3-Jul-2019

 ----------------------------------------------------------------------
 #t hf aug-cc-pvdz iop(5/13=1,5/36=2,99/5=2) pseudo=read geom=check gue
 ss=(read,tcheck) scf=(maxcycle=1)
 ----------------------------------------------------------------------
 -----
 title
 -----
 Structure from the checkpoint file:  "BDE49_nonexpt_261_mol1.chk"
 Charge =  0 Multiplicity = 1

                         Standard orientation:
 ---------------------------------------------------------------------
 Center     Atomic      Atomic             Coordinates (Angstroms)
 Number     Number       Type             X           Y           Z
 ---------------------------------------------------------------------
      1         17           0       -1.370356    1.519552   -0.009065
      2         17           0       -1.370326   -1.519566   -0.009076
      3          9           0        1.618144   -1.085545   -0.610561
      4          9           0        1.618144    1.085678   -0.610351
      5          9           0        1.508062   -0.000114    1.279050
      6          6           0        1.086990    0.000010   -0.012806
      7          5           0       -0.525898    0.000002   -0.027603
 ---------------------------------------------------------------------

 SCF Done:  E(RHF) =  -1280.17601183     A.U. after    2 cycles

 The electronic state is 1-A.
 Alpha  occ. eigenvalues -- -103.70323-103.70322 -26.17706 -26.17594 -26.17584
 Alpha  occ. eigenvalues --  -11.52706 -10.73830 -10.73799  -8.39512  -8.39506
 Alpha  occ. eigenvalues --   -8.39276  -8.39274  -8.39235  -8.39231  -7.77765
 Alpha  occ. eigenvalues --   -1.76819  -1.69943  -1.69909  -1.21877  -1.18186
 Alpha  occ. eigenvalues --   -1.04246  -0.89367  -0.88517  -0.88513  -0.78191
 Alpha  occ. eigenvalues --   -0.78140  -0.73880  -0.73823  -0.72670  -0.71823
 Alpha  occ. eigenvalues --   -0.62065  -0.62037  -0.55840  -0.51145  -0.51019
 Alpha  occ. eigenvalues --   -0.50139
 Alpha virt. eigenvalues --    0.03484   0.04515   0.05359   0.05434   0.05605
 Alpha virt. eigenvalues --    0.10935   0.12064   0.12256   0.12659   0.14191
 Alpha virt. eigenvalues --    0.14864   0.17770   0.17838   0.18587   0.19392

 Mulliken charges:
               1
     1  Cl  -0.229332
     2  Cl  -0.229351
     3  F   -0.345123
     4  F   -0.345118
     5  F   -0.353395
     6  C    0.866171
     7  B    0.636147
 Sum of Mulliken charges =  -0.00000

 Dipole moment (field-independent basis, Debye):
    X=             -1.7199    Y=              0.0000    Z=             -0.1869  Tot=              1.7300

 Test job not archived.
 1\1\GINC-SE099\SP\RHF\Aug-CC-pVDZ\C1B1Cl2F3\OHZDE\09-Apr-2025\0\\#t hf
  aug-cc-pvdz iop(5/13=1,5/36=2,99/5=2) pseudo=read geom=check guess=(r
 ead,tcheck) scf=(maxcycle=1)\\title\\0,1\Cl,0,-1.370356,1.519552,-0.00
 9065\Cl,0,-1.370326,-1.519566,-0.009076\F,0,1.618144,-1.085545,-0.6105
 61\F,0,1.618144,1.085678,-0.610351\F,0,1.508062,-0.000114,1.27905\C,0,
 1.08699,0.00001,-0.012806\B,0,-0.525898,0.000002,-0.027603\\Version=ES
 64L-G16RevC.01\State=1-A\HF=-1280.1760118\RMSD=4.762e-03\Dipole=-0.676
 6684,0.0000139,-0.0735327\Quadrupole=-1.4730176,0.3738039,1.0992137,-0

 Normal termination of Gaussian 16 at Wed Apr  9 00:19:04 2025.
