 Gaussian 16, Revision C.01,

 ----------------------------------------------------------------------
 #t hf aug-cc-pvdz symm=none int=(grid=ultrafine) guess=(read,tcheck) s
 table=(opt,rrhf)
 ----------------------------------------------------------------------
 -----
 title
 -----
 Symbolic Z-matrix:
 Charge =  0 Multiplicity = 1

 SCF Done:  E(RHF) =  -713.280319205     A.U. after   14 cycles
 Normal termination of Gaussian 16 at Wed Apr  9 00:09:49 2025.
 Gaussian 16:  ES64L-G16RevC.01  3-Jul-2019

 ----------------------------------------------------------------------
 #t hf aug-cc-pvdz iop(5/13=1,5/36=2,99/5=2) pseudo=read geom=check gue
 ss=(read,tcheck) scf=(maxcycle=1)
 ----------------------------------------------------------------------
 -----
 title
 -----
 Structure from the checkpoint file:  "BDE49_nonexpt_2381_mol1.chk"
 Charge =  0 Multiplicity = 1

                         Standard orientation:
 ---------------------------------------------------------------------
 Center     Atomic      Atomic             Coordinates (Angstroms)
 Number     Number       Type             X           Y           Z
 ---------------------------------------------------------------------
      1         14           0       -2.139972    0.339753   -0.333015
      2         14           0       -0.255790   -0.728054    0.610010
      3          6           0        1.391060   -0.041052   -0.084872
      4          1           0       -0.285345   -2.178281    0.293197
      5          1           0       -0.295624   -0.555345    2.084996
      6          1           0       -2.109109    1.792797   -0.036485
      7          1           0       -3.387845   -0.230750    0.229783
      8          7           0        2.156683   -0.713506   -0.854986
      9          1           0       -2.152623    0.156643   -1.804151
     10          1           0        1.783473   -1.649445   -1.034319
     11          6           0        1.805065    1.363890    0.287597
     12          1           0        1.049245    2.091970   -0.026296
     13          1           0        2.756456    1.604365   -0.189558
     14          1           0        1.908504    1.461769    1.373462
 ---------------------------------------------------------------------

 SCF Done:  E(RHF) =  -713.361590546     A.U. after    2 cycles

 The electronic state is 1-A.
 Alpha  occ. eigenvalues --  -69.07392 -69.06980 -15.62479 -11.29017 -11.23977
 Alpha  occ. eigenvalues --   -6.82812  -6.82395  -3.93575  -3.93557  -3.93524
 Alpha  occ. eigenvalues --   -3.93150  -3.93147  -3.93120  -1.17943  -0.98327
 Alpha  occ. eigenvalues --   -0.77946  -0.73649  -0.69053  -0.60921  -0.58597
 Alpha  occ. eigenvalues --   -0.56395  -0.53246  -0.50159  -0.49168  -0.47895
 Alpha  occ. eigenvalues --   -0.44351  -0.40597  -0.37742
 Alpha virt. eigenvalues --    0.03225   0.03989   0.04796   0.05214   0.06493
 Alpha virt. eigenvalues --    0.06848   0.06912   0.07262   0.08009   0.08899
 Alpha virt. eigenvalues --    0.09410   0.09487   0.09767   0.09944   0.10783

 Mulliken charges:
               1
     1  Si  -0.241863
     2  Si   0.135126
     3  C    0.124603
     4  H   -0.002391
     5  H    0.082603
     6  H    0.085665
     7  H    0.015923
     8  N   -0.398615
     9  H    0.071633
    10  H   -0.005257
    11  C    0.226497
    12  H   -0.002036
    13  H   -0.072063
    14  H   -0.019822
 Sum of Mulliken charges =  -0.00000

 Dipole moment (field-independent basis, Debye):
    X=             -1.5803    Y=              0.2208    Z=              1.0410  Tot=              1.9052

 Test job not archived.
 1\1\GINC-SE073\SP\RHF\Aug-CC-pVDZ\C2H9N1Si2\OHZDE\09-Apr-2025\0\\#t hf
  aug-cc-pvdz iop(5/13=1,5/36=2,99/5=2) pseudo=read geom=check guess=(r
 ead,tcheck) scf=(maxcycle=1)\\title\\0,1\Si,0,-2.139972,0.339753,-0.33
 3015\Si,0,-0.25579,-0.728054,0.61001\C,0,1.39106,-0.041052,-0.084872\H
 ,0,-0.285345,-2.178281,0.293197\H,0,-0.295624,-0.555345,2.084996\H,0,-
 2.109109,1.792797,-0.036485\H,0,-3.387845,-0.23075,0.229783\N,0,2.1566
 83,-0.713506,-0.854986\H,0,-2.152623,0.156643,-1.804151\H,0,1.783473,-
 1.649445,-1.034319\C,0,1.805065,1.36389,0.287597\H,0,1.049245,2.09197,

 Normal termination of Gaussian 16 at Wed Apr  9 00:09:53 2025.
