 Gaussian 16, Revision C.01,

 ----------------------------------------------------------------------
 #t hf aug-cc-pvdz symm=none int=(grid=ultrafine) guess=(read,tcheck) s
 table=(opt,rrhf)
 ----------------------------------------------------------------------
 -----
 title
 -----
 Symbolic Z-matrix:
 Charge =  0 Multiplicity = 1

 SCF Done:  E(RHF) =  -789.081242277     A.U. after   12 cycles
 Normal termination of Gaussian 16 at Tue Apr  8 23:17:06 2025.
 Gaussian 16:  ES64L-G16RevC.01  3-Jul-2019

 ----------------------------------------------------------------------
 #t hf aug-cc-pvdz iop(5/13=1,5/36=2,99/5=2) pseudo=read geom=check gue
 ss=(read,tcheck) scf=(maxcycle=1)
 ----------------------------------------------------------------------
 -----
 title
 -----
 Structure from the checkpoint file:  "BDE49_expt_833_mol1.chk"
 Charge =  0 Multiplicity = 1

                         Standard orientation:
 ---------------------------------------------------------------------
 Center     Atomic      Atomic             Coordinates (Angstroms)
 Number     Number       Type             X           Y           Z
 ---------------------------------------------------------------------
      1          6           0        6.959910   -0.444370   -0.016349
      2          6           0        5.697789    0.422577    0.007112
      3          1           0        6.994565   -1.068125   -0.915094
      4          1           0        6.997029   -1.112343    0.849942
      5          1           0        7.866016    0.167521   -0.002290
      6          6           0        4.400482   -0.393974   -0.011506
      7          1           0        5.706982    1.103933   -0.852309
      8          1           0        5.709430    1.060138    0.899488
      9          6           0        3.131631    0.465604    0.011643
     10          1           0        4.391772   -1.076248    0.848532
     11          1           0        4.389384   -1.032498   -0.904465
     12          6           0        1.834955   -0.351890   -0.006996
     13          1           0        3.141387    1.147542   -0.848461
     14          1           0        3.143780    1.103920    0.904589
     15          6           0        0.566320    0.508382    0.016053
     16          1           0        1.825059   -1.033777    0.853090
     17          1           0        1.822692   -0.990117   -0.899889
     18          6           0       -0.729808   -0.309895   -0.003066
     19          1           0        0.576161    1.190196   -0.844049
     20          1           0        0.578214    1.146455    0.909104
     21          6           0       -1.998031    0.551592    0.020226
     22          1           0       -0.740326   -0.991652    0.856912
     23          1           0       -0.742797   -0.947373   -0.896160
     24          6           0       -3.291554   -0.274398   -0.003765
     25          1           0       -1.987695    1.233738   -0.839443
     26          1           0       -1.986961    1.187743    0.914446
     27          6           0       -4.546356    0.597212    0.028615
     28          1           0       -3.303860   -0.957664    0.853620
     29          1           0       -3.316450   -0.903930   -0.899134
     30          1           0       -4.572502    1.224221    0.922264
     31         16           0       -6.129589   -0.332845   -0.086851
     32          1           0       -4.572081    1.266732   -0.835345
     33          1           0       -5.998395   -1.017931    1.062460
 ---------------------------------------------------------------------

 SCF Done:  E(RHF) =  -789.223792546     A.U. after    2 cycles

 The electronic state is 1-A.
 Alpha  occ. eigenvalues --  -93.52956 -11.27075 -11.23777 -11.23339 -11.22974
 Alpha  occ. eigenvalues --  -11.22758 -11.22670 -11.22616 -11.22528 -11.22447
 Alpha  occ. eigenvalues --  -11.22164  -8.82676  -6.16845  -6.16639  -6.16293
 Alpha  occ. eigenvalues --   -1.09128  -1.07450  -1.04703  -1.00964  -0.96471
 Alpha  occ. eigenvalues --   -0.91455  -0.86219  -0.81786  -0.79903  -0.78883
 Alpha  occ. eigenvalues --   -0.78549  -0.66842  -0.65263  -0.62764  -0.59729
 Alpha  occ. eigenvalues --   -0.59613  -0.58793  -0.57236  -0.56030  -0.55411
 Alpha  occ. eigenvalues --   -0.53311  -0.51921  -0.51162  -0.49932  -0.48918
 Alpha  occ. eigenvalues --   -0.48603  -0.47307  -0.47119  -0.46496  -0.46137
 Alpha  occ. eigenvalues --   -0.46098  -0.45059  -0.42480  -0.35134
 Alpha virt. eigenvalues --    0.03435   0.03494   0.04031   0.04237   0.04758
 Alpha virt. eigenvalues --    0.05058   0.05359   0.06228   0.06325   0.06645
 Alpha virt. eigenvalues --    0.06893   0.07600   0.07990   0.08808   0.09004

 Mulliken charges:
               1
     1  C    0.657737
     2  C    0.543557
     3  H   -0.092882
     4  H   -0.092517
     5  H   -0.066517
     6  C    0.253940
     7  H   -0.168444
     8  H   -0.169208
     9  C    0.213313
    10  H   -0.200078
    11  H   -0.197661
    12  C    0.172213
    13  H   -0.211496
    14  H   -0.210275
    15  C    0.142759
    16  H   -0.202082
    17  H   -0.205677
    18  C    0.158780
    19  H   -0.213801
    20  H   -0.214931
    21  C    0.378436
    22  H   -0.224499
    23  H   -0.215326
    24  C    0.527878
    25  H   -0.197434
    26  H   -0.199007
    27  C    0.191414
    28  H   -0.177440
    29  H   -0.147624
    30  H   -0.142587
    31  S    0.382820
    32  H   -0.105270
    33  H    0.031910
 Sum of Mulliken charges =  -0.00000

 Dipole moment (field-independent basis, Debye):
    X=              1.8564    Y=              0.4279    Z=              0.6863  Tot=              2.0249

 Test job not archived.
 1\1\GINC-SE247\SP\RHF\Aug-CC-pVDZ\C10H22S1\OHZDE\08-Apr-2025\0\\#t hf
 aug-cc-pvdz iop(5/13=1,5/36=2,99/5=2) pseudo=read geom=check guess=(re
 ad,tcheck) scf=(maxcycle=1)\\title\\0,1\C,0,6.95991,-0.44437,-0.016349
 \C,0,5.697789,0.422577,0.007112\H,0,6.994565,-1.068125,-0.915094\H,0,6
 .997029,-1.112343,0.849942\H,0,7.866016,0.167521,-0.00229\C,0,4.400482
 ,-0.393974,-0.011506\H,0,5.706982,1.103933,-0.852309\H,0,5.70943,1.060
 138,0.899488\C,0,3.131631,0.465604,0.011643\H,0,4.391772,-1.076248,0.8
 48532\H,0,4.389384,-1.032498,-0.904465\C,0,1.834955,-0.35189,-0.006996

 Normal termination of Gaussian 16 at Tue Apr  8 23:17:33 2025.
