 Gaussian 16, Revision C.01,

 ----------------------------------------------------------------------
 #t hf aug-cc-pvdz symm=none int=(grid=ultrafine) guess=(read,tcheck) s
 table=opt
 ----------------------------------------------------------------------
 -----
 title
 -----
 Symbolic Z-matrix:
 Charge =  0 Multiplicity = 2

 SCF Done:  E(UHF) =  -484.739038626     A.U. after   14 cycles

 1\1\GINC-SE333\Stability\UHF\Aug-CC-pVDZ\B1Cl1H1\OHZDE\08-Apr-2025\0\\
 #t hf aug-cc-pvdz symm=none int=(grid=ultrafine) guess=(read,tcheck) s
 table=opt\\title\\0,2\B,0,0.043228,1.247835,0.\Cl,0,0.043228,-0.478786
 ,0.\H,0,-0.951006,1.900186,0.\\Version=ES64L-G16RevC.01\HF=-484.739038
 6\S2=0.754572\S2-1=0.\S2A=0.750014\RMSD=8.218e-09\Dipole=-0.174002,0.2
 157671,0.\Quadrupole=-0.7982579,0.1015448,0.6967131,-0.68067,0.,0.\PG=
 Unknown\\@
 The archive entry for this job was punched.

 Normal termination of Gaussian 16 at Tue Apr  8 23:20:49 2025.
 Gaussian 16:  ES64L-G16RevC.01  3-Jul-2019

 ----------------------------------------------------------------------
 #t hf aug-cc-pvdz iop(5/13=1,5/36=2,99/5=2) pseudo=read geom=check gue
 ss=(read,tcheck) scf=(maxcycle=1)
 ----------------------------------------------------------------------
 -----
 title
 -----
 Structure from the checkpoint file:  "BDE49_nonexpt_11_mol2.chk"
 Charge =  0 Multiplicity = 2

                         Standard orientation:
 ---------------------------------------------------------------------
 Center     Atomic      Atomic             Coordinates (Angstroms)
 Number     Number       Type             X           Y           Z
 ---------------------------------------------------------------------
      1          5           0        0.043228    1.247835    0.000000
      2         17           0        0.043228   -0.478786    0.000000
      3          1           0       -0.951006    1.900186    0.000000
 ---------------------------------------------------------------------

 SCF Done:  E(UHF) =  -484.765296310     A.U. after    2 cycles

 The electronic state is 2-A'.
 Alpha  occ. eigenvalues -- -103.67879 -10.71408  -8.37141  -8.36880  -8.36820
 Alpha  occ. eigenvalues --   -7.70749  -1.17643  -0.70647  -0.58200  -0.52125
 Alpha  occ. eigenvalues --   -0.50962  -0.35802
 Alpha virt. eigenvalues --    0.03404   0.05060   0.05685   0.05769   0.08781
 Alpha virt. eigenvalues --    0.10995   0.13839   0.16512   0.17192   0.21031
 Alpha virt. eigenvalues --    0.24413   0.25431   0.27971   0.30264   0.32538

  Beta  occ. eigenvalues -- -103.67808 -10.71326  -8.37028  -8.36854  -8.36611
  Beta  occ. eigenvalues --   -7.68733  -1.16857  -0.66823  -0.55994  -0.51036
  Beta  occ. eigenvalues --   -0.49020
  Beta virt. eigenvalues --    0.04008   0.04504   0.05565   0.05835   0.07981
  Beta virt. eigenvalues --    0.10849   0.13641   0.15087   0.16575   0.17591
  Beta virt. eigenvalues --    0.22041   0.25508   0.26399   0.28772   0.32667

 Mulliken charges and spin densities:
               1          2
     1  B   -0.077916   0.991170
     2  Cl  -0.205341  -0.000935
     3  H    0.283258   0.009766
 Sum of Mulliken charges =   0.00000   1.00000

 Dipole moment (field-independent basis, Debye):
    X=             -0.4336    Y=              0.6385    Z=              0.0000  Tot=              0.7718
                          Isotropic Fermi Contact Couplings
        Atom                 a.u.       MegaHertz       Gauss      10(-4) cm-1
     1  B(11)              0.33904     486.31341     173.52872     162.21669
     2  Cl(35)             0.06233      27.32941       9.75181       9.11611
     3  H(1)               0.01896      84.75735      30.24353      28.27201
 --------------------------------------------------------
       Center         ----  Spin Dipole Couplings  ----
                      3XX-RR        3YY-RR        3ZZ-RR
 --------------------------------------------------------
     1   Atom        0.322584     -0.116615     -0.205970

 Normal termination of Gaussian 16 at Tue Apr  8 23:20:51 2025.
