 Gaussian 16, Revision C.01,

 ----------------------------------------------------------------------
 #t hf aug-cc-pvdz symm=none int=(grid=ultrafine) guess=(read,tcheck) s
 table=opt
 ----------------------------------------------------------------------
 -----
 title
 -----
 Symbolic Z-matrix:
 Charge =  0 Multiplicity = 2

 SCF Done:  E(UHF) =  -963.941191368     A.U. after   18 cycles
 Normal termination of Gaussian 16 at Tue Apr  8 23:22:59 2025.
 Gaussian 16:  ES64L-G16RevC.01  3-Jul-2019

 ----------------------------------------------------------------------
 #t hf aug-cc-pvdz iop(5/13=1,5/36=2,99/5=2) pseudo=read geom=check gue
 ss=(read,tcheck) scf=(maxcycle=1)
 ----------------------------------------------------------------------
 -----
 title
 -----
 Structure from the checkpoint file:  "BDE49_nonexpt_1256_mol2.chk"
 Charge =  0 Multiplicity = 2

                         Standard orientation:
 ---------------------------------------------------------------------
 Center     Atomic      Atomic             Coordinates (Angstroms)
 Number     Number       Type             X           Y           Z
 ---------------------------------------------------------------------
      1         16           0       -0.415460    0.127366    0.091330
      2          8           0       -0.881046   -0.971111   -1.031829
      3          8           0       -0.825937    1.407369   -0.408576
      4          8           0       -0.852247   -0.376350    1.373216
      5         15           0        1.767616    0.039275   -0.045817
      6          1           0       -1.155212   -1.771301   -0.558321
      7          1           0        1.762175   -1.334954    0.321828
 ---------------------------------------------------------------------

 SCF Done:  E(UHF) =  -964.109367944     A.U. after    2 cycles

 The electronic state is 2-A.
 Alpha  occ. eigenvalues --  -93.83631 -81.33928 -20.65572 -20.59155 -20.58582
 Alpha  occ. eigenvalues --   -9.09837  -7.84314  -6.44470  -6.44364  -6.44058
 Alpha  occ. eigenvalues --   -4.98932  -4.97805  -4.97515  -1.48045  -1.36585
 Alpha  occ. eigenvalues --   -1.34105  -0.94767  -0.84150  -0.76206  -0.71713
 Alpha  occ. eigenvalues --   -0.69698  -0.66250  -0.60669  -0.56234  -0.55531
 Alpha  occ. eigenvalues --   -0.52828  -0.50345  -0.44848  -0.41751
 Alpha virt. eigenvalues --    0.02539   0.04401   0.05841   0.08601   0.08884
 Alpha virt. eigenvalues --    0.10158   0.11437   0.13258   0.13698   0.14497
 Alpha virt. eigenvalues --    0.15824   0.17441   0.18363   0.19706   0.20234

  Beta  occ. eigenvalues --  -93.83671 -81.33198 -20.65511 -20.59079 -20.58594
  Beta  occ. eigenvalues --   -9.09889  -7.83443  -6.44493  -6.44396  -6.44185
  Beta  occ. eigenvalues --   -4.97287  -4.97123  -4.95603  -1.48004  -1.36476
  Beta  occ. eigenvalues --   -1.34022  -0.93191  -0.81224  -0.75555  -0.71559
  Beta  occ. eigenvalues --   -0.67869  -0.66193  -0.60058  -0.55913  -0.54948
  Beta  occ. eigenvalues --   -0.52462  -0.49276  -0.43218
  Beta virt. eigenvalues --   -0.01274   0.02747   0.04646   0.06299   0.08732
  Beta virt. eigenvalues --    0.10267   0.10757   0.11583   0.13806   0.14163
  Beta virt. eigenvalues --    0.15501   0.17387   0.18164   0.18733   0.21302

 Mulliken charges and spin densities:
               1          2
     1  S    2.017173  -0.054360
     2  O   -0.721839  -0.016269
     3  O   -0.921368   0.000547
     4  O   -0.961157  -0.000538
     5  P    0.369075   1.221737
     6  H    0.169769   0.000186
     7  H    0.048346  -0.151302
 Sum of Mulliken charges =  -0.00000   1.00000

 Dipole moment (field-independent basis, Debye):
    X=              3.3868    Y=             -3.2992    Z=             -0.5249  Tot=              4.7572
                          Isotropic Fermi Contact Couplings
        Atom                 a.u.       MegaHertz       Gauss      10(-4) cm-1
     1  S(33)             -0.05618     -19.29673      -6.88555      -6.43670
     2  O(17)              0.01172      -7.10535      -2.53537      -2.37009
     3  O(17)             -0.00112       0.67672       0.24147       0.22573
     4  O(17)              0.00974      -5.90441      -2.10684      -1.96950
     5  P(31)              0.23207     420.29697     149.97241     140.19598
     6  H(1)              -0.00012      -0.51509      -0.18380      -0.17182
     7  H(1)              -0.01561     -69.77050     -24.89585     -23.27293
 --------------------------------------------------------

 Normal termination of Gaussian 16 at Tue Apr  8 23:23:03 2025.
