 Gaussian 16, Revision C.01,

 ----------------------------------------------------------------------
 #t hf aug-cc-pvdz symm=none int=(grid=ultrafine) guess=(read,tcheck) s
 table=(opt,rrhf)
 ----------------------------------------------------------------------
 -----
 title
 -----
 Symbolic Z-matrix:
 Charge =  0 Multiplicity = 1

 SCF Done:  E(RHF) =  -700.417877510     A.U. after   16 cycles
 Normal termination of Gaussian 16 at Wed Apr  9 00:26:52 2025.
 Gaussian 16:  ES64L-G16RevC.01  3-Jul-2019

 ----------------------------------------------------------------------
 #t hf aug-cc-pvdz iop(5/13=1,5/36=2,99/5=2) pseudo=read geom=check gue
 ss=(read,tcheck) scf=(maxcycle=1)
 ----------------------------------------------------------------------
 -----
 title
 -----
 Structure from the checkpoint file:  "BDE49_nonexpt_291_mol1.chk"
 Charge =  0 Multiplicity = 1

                         Standard orientation:
 ---------------------------------------------------------------------
 Center     Atomic      Atomic             Coordinates (Angstroms)
 Number     Number       Type             X           Y           Z
 ---------------------------------------------------------------------
      1          6           0       -0.065105   -0.034347    0.185334
      2          5           0        0.647215    1.329924   -0.333862
      3          7           0        0.190862   -1.271205   -0.691072
      4          7           0       -1.585612    0.194585    0.047249
      5          6           0        0.309375   -0.405189    1.624173
      6          8           0       -1.969180    0.390797   -1.094259
      7          8           0        1.192238   -1.274205   -1.402593
      8          8           0        1.627792    1.380394   -1.251844
      9          8           0       -0.574748   -2.200664   -0.568119
     10          8           0        0.191862    2.433763    0.306624
     11          8           0       -2.266125    0.198317    1.049189
     12          6           0        1.795901   -0.732847    1.807066
     13          1           0       -0.315510   -1.245271    1.933953
     14          1           0        0.029537    0.450948    2.239767
     15          1           0        2.096606   -1.613389    1.234865
     16          1           0        1.992892   -0.941559    2.860070
     17          1           0        2.439881    0.098371    1.508015
     18          1           0        0.606716    3.246193   -0.004024
     19          1           0        1.821318    0.498504   -1.607993
 ---------------------------------------------------------------------

 SCF Done:  E(RHF) =  -700.636391767     A.U. after    2 cycles

 The electronic state is 1-A.
 Alpha  occ. eigenvalues --  -20.66318 -20.65666 -20.64891 -20.64013 -20.61939
 Alpha  occ. eigenvalues --  -20.61209 -15.95499 -15.94188 -11.39117 -11.29093
 Alpha  occ. eigenvalues --  -11.26694  -7.71431  -1.59552  -1.57444  -1.40975
 Alpha  occ. eigenvalues --   -1.39690  -1.38162  -1.34729  -1.17359  -1.04943
 Alpha  occ. eigenvalues --   -0.96901  -0.90647  -0.85570  -0.84680  -0.81460
 Alpha  occ. eigenvalues --   -0.79457  -0.77880  -0.76875  -0.75955  -0.74285
 Alpha  occ. eigenvalues --   -0.71606  -0.66451  -0.65065  -0.62645  -0.62376
 Alpha  occ. eigenvalues --   -0.60015  -0.58578  -0.56196  -0.55732  -0.55091
 Alpha  occ. eigenvalues --   -0.54052  -0.52690  -0.52353  -0.51532  -0.50800
 Alpha  occ. eigenvalues --   -0.49244
 Alpha virt. eigenvalues --    0.02199   0.03448   0.03919   0.04518   0.05358
 Alpha virt. eigenvalues --    0.05562   0.06439   0.06605   0.06893   0.07587
 Alpha virt. eigenvalues --    0.08835   0.09119   0.11062   0.11963   0.12792

 Mulliken charges:
               1
     1  C    0.828067
     2  B    0.848339
     3  N    0.259319
     4  N    0.219773
     5  C    0.203430
     6  O   -0.556669
     7  O   -0.625233
     8  O   -0.424978
     9  O   -0.533801
    10  O   -0.555375
    11  O   -0.535300
    12  C    0.582784
    13  H    0.037617
    14  H   -0.004125
    15  H   -0.028852
    16  H   -0.070695
    17  H   -0.100040
    18  H    0.196078
    19  H    0.259662
 Sum of Mulliken charges =  -0.00000

 Dipole moment (field-independent basis, Debye):
    X=              3.9546    Y=              1.5867    Z=              2.5417  Tot=              4.9615

 Test job not archived.
 1\1\GINC-SE435\SP\RHF\Aug-CC-pVDZ\C3H7B1N2O6\OHZDE\09-Apr-2025\0\\#t h
 f aug-cc-pvdz iop(5/13=1,5/36=2,99/5=2) pseudo=read geom=check guess=(
 read,tcheck) scf=(maxcycle=1)\\title\\0,1\C,0,-0.065105,-0.034347,0.18
 5334\B,0,0.647216,1.329924,-0.333862\N,0,0.190861,-1.271205,-0.691072\
 N,0,-1.585612,0.194586,0.047249\C,0,0.309375,-0.405189,1.624173\O,0,-1
 .96918,0.390799,-1.094259\O,0,1.192237,-1.274206,-1.402593\O,0,1.62779
 3,1.380393,-1.251844\O,0,-0.57475,-2.200663,-0.568119\O,0,0.191864,2.4
 33763,0.306624\O,0,-2.266125,0.198319,1.049189\C,0,1.7959,-0.732848,1.

 Normal termination of Gaussian 16 at Wed Apr  9 00:27:04 2025.
