 Gaussian 16, Revision C.01,

 ----------------------------------------------------------------------
 #t hf aug-cc-pvdz symm=none int=(grid=ultrafine) guess=(read,tcheck) s
 table=(opt,rrhf)
 ----------------------------------------------------------------------
 -----
 title
 -----
 Symbolic Z-matrix:
 Charge =  0 Multiplicity = 1

 SCF Done:  E(RHF) =  -293.420856655     A.U. after   12 cycles
 Normal termination of Gaussian 16 at Wed Apr  9 00:22:00 2025.
 Gaussian 16:  ES64L-G16RevC.01  3-Jul-2019

 ----------------------------------------------------------------------
 #t hf aug-cc-pvdz iop(5/13=1,5/36=2,99/5=2) pseudo=read geom=check gue
 ss=(read,tcheck) scf=(maxcycle=1)
 ----------------------------------------------------------------------
 -----
 title
 -----
 Structure from the checkpoint file:  "BDE49_nonexpt_267_mol1.chk"
 Charge =  0 Multiplicity = 1

                         Standard orientation:
 ---------------------------------------------------------------------
 Center     Atomic      Atomic             Coordinates (Angstroms)
 Number     Number       Type             X           Y           Z
 ---------------------------------------------------------------------
      1          6           0       -0.276937   -0.617410    0.000021
      2          5           0        1.199654   -0.054398    0.000026
      3          8           0        1.516385    1.282136   -0.000019
      4          8           0        2.238790   -0.940280   -0.000005
      5          6           0       -1.408647    0.422159   -0.000004
      6          6           0       -2.810461   -0.194878   -0.000002
      7          1           0       -2.960546   -0.824168    0.882516
      8          1           0       -2.960536   -0.824197   -0.882501
      9          1           0       -3.589382    0.572912   -0.000019
     10          1           0       -1.310742    1.074252   -0.878243
     11          1           0       -1.310753    1.074280    0.878216
     12          1           0        0.747435    1.857785   -0.000029
     13          1           0        3.090215   -0.489467   -0.000027
     14          1           0       -0.384548   -1.281727    0.868026
     15          1           0       -0.384538   -1.281756   -0.867963
 ---------------------------------------------------------------------

 SCF Done:  E(RHF) =  -293.520673427     A.U. after    2 cycles

 The electronic state is 1-A.
 Alpha  occ. eigenvalues --  -20.58093 -20.57113 -11.23907 -11.22685 -11.20921
 Alpha  occ. eigenvalues --   -7.64994  -1.34039  -1.30133  -1.04973  -0.92797
 Alpha  occ. eigenvalues --   -0.81661  -0.77079  -0.73470  -0.64064  -0.63643
 Alpha  occ. eigenvalues --   -0.58613  -0.58075  -0.57593  -0.53414  -0.53087
 Alpha  occ. eigenvalues --   -0.51760  -0.48231  -0.47571  -0.45539
 Alpha virt. eigenvalues --    0.03089   0.04276   0.04643   0.04847   0.06208
 Alpha virt. eigenvalues --    0.06997   0.07008   0.07548   0.08112   0.08936
 Alpha virt. eigenvalues --    0.10221   0.10659   0.11322   0.13573   0.14759

 Mulliken charges:
               1
     1  C    0.410356
     2  B    0.810477
     3  O   -0.461616
     4  O   -0.589155
     5  C   -0.052951
     6  C    0.362844
     7  H   -0.033874
     8  H   -0.033874
     9  H   -0.058610
    10  H   -0.179143
    11  H   -0.179140
    12  H    0.197354
    13  H    0.186823
    14  H   -0.189744
    15  H   -0.189746
 Sum of Mulliken charges =  -0.00000

 Dipole moment (field-independent basis, Debye):
    X=             -1.0799    Y=              1.2266    Z=              0.0000  Tot=              1.6343

 Test job not archived.
 1\1\GINC-SE165\SP\RHF\Aug-CC-pVDZ\C3H9B1O2\OHZDE\09-Apr-2025\0\\#t hf
 aug-cc-pvdz iop(5/13=1,5/36=2,99/5=2) pseudo=read geom=check guess=(re
 ad,tcheck) scf=(maxcycle=1)\\title\\0,1\C,0,-0.276937,-0.61741,0.00002
 1\B,0,1.199654,-0.054398,0.000026\O,0,1.516385,1.282136,-0.000019\O,0,
 2.23879,-0.94028,-0.000005\C,0,-1.408647,0.422159,-0.000004\C,0,-2.810
 461,-0.194878,-0.000002\H,0,-2.960546,-0.824168,0.882516\H,0,-2.960536
 ,-0.824197,-0.882501\H,0,-3.589382,0.572913,-0.000019\H,0,-1.310742,1.
 074252,-0.878243\H,0,-1.310753,1.07428,0.878216\H,0,0.747435,1.857785,

 Normal termination of Gaussian 16 at Wed Apr  9 00:22:05 2025.
