 Gaussian 16, Revision C.01,

 ----------------------------------------------------------------------
 #t hf aug-cc-pvdz symm=none int=(grid=ultrafine) guess=(read,tcheck) s
 table=(opt,rrhf)
 ----------------------------------------------------------------------
 -----
 title
 -----
 Symbolic Z-matrix:
 Charge =  0 Multiplicity = 1

 SCF Done:  E(RHF) =  -2092.78485562     A.U. after   16 cycles
 Normal termination of Gaussian 16 at Tue Apr  8 23:14:06 2025.
 Gaussian 16:  ES64L-G16RevC.01  3-Jul-2019

 ----------------------------------------------------------------------
 #t hf aug-cc-pvdz iop(5/13=1,5/36=2,99/5=2) pseudo=read geom=check gue
 ss=(read,tcheck) scf=(maxcycle=1)
 ----------------------------------------------------------------------
 -----
 title
 -----
 Structure from the checkpoint file:  "BDE49_nonexpt_1013_mol1.chk"
 Charge =  0 Multiplicity = 1

                         Standard orientation:
 ---------------------------------------------------------------------
 Center     Atomic      Atomic             Coordinates (Angstroms)
 Number     Number       Type             X           Y           Z
 ---------------------------------------------------------------------
      1         16           0        1.302625    1.081419   -0.438650
      2          7           0        2.541186   -0.260169   -0.106939
      3          8           0        2.225305   -1.406882   -0.245540
      4          8           0        3.603370    0.223734    0.214119
      5          8           0       -0.010270    0.163747   -0.923742
      6          6           0       -1.072112   -0.046431   -0.037308
      7         17           0       -2.194361   -1.096598   -0.926576
      8         17           0       -1.877926    1.518037    0.360127
      9         17           0       -0.559764   -0.836011    1.485986
 ---------------------------------------------------------------------

 SCF Done:  E(RHF) =  -2092.96331784     A.U. after    2 cycles

 The electronic state is 1-A.
 Alpha  occ. eigenvalues -- -103.71144-103.71076-103.71017 -93.69950 -20.70255
 Alpha  occ. eigenvalues --  -20.66507 -20.65750 -15.96477 -11.53052 -10.74464
 Alpha  occ. eigenvalues --  -10.74398 -10.74334  -8.98625  -8.40174  -8.40122
 Alpha  occ. eigenvalues --   -8.40053  -8.39840  -8.39828  -8.39762  -8.39758
 Alpha  occ. eigenvalues --   -8.39713  -8.39699  -6.32751  -6.32465  -6.31932
 Alpha  occ. eigenvalues --   -1.59653  -1.45991  -1.42337  -1.26367  -1.18378
 Alpha  occ. eigenvalues --   -1.18075  -1.07370  -0.93064  -0.85952  -0.80704
 Alpha  occ. eigenvalues --   -0.77804  -0.77007  -0.73516  -0.72984  -0.68886
 Alpha  occ. eigenvalues --   -0.61167  -0.59772  -0.56134  -0.53545  -0.52881
 Alpha  occ. eigenvalues --   -0.52684  -0.51673  -0.49896  -0.49522  -0.49366
 Alpha  occ. eigenvalues --   -0.48326  -0.44675
 Alpha virt. eigenvalues --    0.04493   0.04988   0.05649   0.05711   0.07785
 Alpha virt. eigenvalues --    0.08116   0.08499   0.09899   0.10718   0.11244
 Alpha virt. eigenvalues --    0.12186   0.12754   0.14283   0.15111   0.15582

 Mulliken charges:
               1
     1  S    1.073306
     2  N    0.353329
     3  O   -0.453136
     4  O   -0.508480
     5  O   -0.641785
     6  C   -0.170512
     7  Cl   0.123865
     8  Cl   0.129962
     9  Cl   0.093451
 Sum of Mulliken charges =  -0.00000

 Dipole moment (field-independent basis, Debye):
    X=             -1.7985    Y=              1.9311    Z=             -0.0806  Tot=              2.6401

 Test job not archived.
 1\1\GINC-SE361\SP\RHF\Aug-CC-pVDZ\C1Cl3N1O3S1\OHZDE\08-Apr-2025\0\\#t
 hf aug-cc-pvdz iop(5/13=1,5/36=2,99/5=2) pseudo=read geom=check guess=
 (read,tcheck) scf=(maxcycle=1)\\title\\0,1\S,0,1.302625,1.081419,-0.43
 865\N,0,2.541186,-0.260169,-0.106939\O,0,2.225305,-1.406882,-0.24554\O
 ,0,3.60337,0.223734,0.214119\O,0,-0.01027,0.163747,-0.923742\C,0,-1.07
 2112,-0.046431,-0.037308\Cl,0,-2.194361,-1.096598,-0.926576\Cl,0,-1.87
 7926,1.518037,0.360127\Cl,0,-0.559764,-0.836011,1.485986\\Version=ES64
 L-G16RevC.01\State=1-A\HF=-2092.9633178\RMSD=3.345e-03\Dipole=-0.70758

 Normal termination of Gaussian 16 at Tue Apr  8 23:14:11 2025.
