 Gaussian 16, Revision C.01,

 ----------------------------------------------------------------------
 #t hf aug-cc-pvdz symm=none int=(grid=ultrafine) guess=(read,tcheck) s
 table=(opt,rrhf)
 ----------------------------------------------------------------------
 -----
 title
 -----
 Symbolic Z-matrix:
 Charge =  0 Multiplicity = 1

 SCF Done:  E(RHF) =  -1100.92257077     A.U. after   14 cycles
 Normal termination of Gaussian 16 at Tue Apr  8 23:37:57 2025.
 Gaussian 16:  ES64L-G16RevC.01  3-Jul-2019

 ----------------------------------------------------------------------
 #t hf aug-cc-pvdz iop(5/13=1,5/36=2,99/5=2) pseudo=read geom=check gue
 ss=(read,tcheck) scf=(maxcycle=1)
 ----------------------------------------------------------------------
 -----
 title
 -----
 Structure from the checkpoint file:  "BDE49_nonexpt_1589_mol1.chk"
 Charge =  0 Multiplicity = 1

                         Standard orientation:
 ---------------------------------------------------------------------
 Center     Atomic      Atomic             Coordinates (Angstroms)
 Number     Number       Type             X           Y           Z
 ---------------------------------------------------------------------
      1         17           0        2.084844    0.003254   -0.000000
      2          8           0        0.596243    0.909438   -0.000003
      3         15           0       -0.800700    0.064355   -0.000000
      4          8           0       -0.707160   -0.971322   -1.195109
      5          8           0       -1.876122    1.049429   -0.000003
      6          8           0       -0.707160   -0.971314    1.195115
      7          1           0       -0.939127   -0.575236    2.043613
      8          1           0       -0.939126   -0.575249   -2.043610
 ---------------------------------------------------------------------

 SCF Done:  E(RHF) =  -1101.11504391     A.U. after    2 cycles

 The electronic state is 1-A.
 Alpha  occ. eigenvalues -- -103.74649 -81.47239 -20.67890 -20.64297 -20.64290
 Alpha  occ. eigenvalues --  -20.54863 -10.77254  -8.43020  -8.42570  -8.42553
 Alpha  occ. eigenvalues --   -7.95175  -5.09876  -5.09744  -5.09700  -1.42594
 Alpha  occ. eigenvalues --   -1.38269  -1.37817  -1.28583  -1.13242  -0.88963
 Alpha  occ. eigenvalues --   -0.76744  -0.76219  -0.70123  -0.69297  -0.66670
 Alpha  occ. eigenvalues --   -0.65207  -0.61116  -0.59004  -0.58945  -0.51531
 Alpha  occ. eigenvalues --   -0.51368  -0.50054  -0.49012
 Alpha virt. eigenvalues --    0.02396   0.03265   0.04247   0.08036   0.09308
 Alpha virt. eigenvalues --    0.11003   0.11204   0.13955   0.14136   0.14263
 Alpha virt. eigenvalues --    0.17053   0.17798   0.21468   0.22530   0.22786

 Mulliken charges:
               1
     1  Cl   0.317934
     2  O   -0.869648
     3  P    2.296210
     4  O   -0.637661
     5  O   -0.794056
     6  O   -0.637661
     7  H    0.162440
     8  H    0.162441
 Sum of Mulliken charges =  -0.00000

 Dipole moment (field-independent basis, Debye):
    X=              1.5728    Y=             -1.6797    Z=              0.0000  Tot=              2.3011

 Test job not archived.
 1\1\GINC-SE038\SP\RHF\Aug-CC-pVDZ\Cl1H2O4P1\OHZDE\08-Apr-2025\0\\#t hf
  aug-cc-pvdz iop(5/13=1,5/36=2,99/5=2) pseudo=read geom=check guess=(r
 ead,tcheck) scf=(maxcycle=1)\\title\\0,1\Cl,0,2.084844,-0.003254,0.\O,
 0,0.596243,-0.909438,0.000003\P,0,-0.8007,-0.064355,0.\O,0,-0.70716,0.
 971322,1.195109\O,0,-1.876122,-1.049429,0.000003\O,0,-0.70716,0.971314
 ,-1.195115\H,0,-0.939127,0.575236,-2.043613\H,0,-0.939126,0.575249,2.0
 4361\\Version=ES64L-G16RevC.01\State=1-A\HF=-1101.1150439\RMSD=3.967e-
 03\Dipole=0.6188033,0.6608509,-0.0000027\Quadrupole=-2.505954,-5.64368

 Normal termination of Gaussian 16 at Tue Apr  8 23:38:03 2025.
