 Gaussian 16, Revision C.01,

 ----------------------------------------------------------------------
 #t hf aug-cc-pvdz symm=none int=(grid=ultrafine) guess=(read,tcheck) s
 table=(opt,rrhf)
 ----------------------------------------------------------------------
 -----
 title
 -----
 Symbolic Z-matrix:
 Charge =  0 Multiplicity = 1

 SCF Done:  E(RHF) =  -896.885561329     A.U. after   14 cycles
 Normal termination of Gaussian 16 at Tue Apr  8 22:54:01 2025.
 Gaussian 16:  ES64L-G16RevC.01  3-Jul-2019

 ----------------------------------------------------------------------
 #t hf aug-cc-pvdz iop(5/13=1,5/36=2,99/5=2) pseudo=read geom=check gue
 ss=(read,tcheck) scf=(maxcycle=1)
 ----------------------------------------------------------------------
 -----
 title
 -----
 Structure from the checkpoint file:  "BDE49_expt_1870_mol1.chk"
 Charge =  0 Multiplicity = 1

                         Standard orientation:
 ---------------------------------------------------------------------
 Center     Atomic      Atomic             Coordinates (Angstroms)
 Number     Number       Type             X           Y           Z
 ---------------------------------------------------------------------
      1          8           0        0.886297    0.071439    0.738338
      2          8           0        0.000000    0.919442   -0.000001
      3          8           0       -0.886296    0.071434   -0.738336
      4          6           0        2.061715   -0.077851    0.001492
      5          9           0        2.838763   -0.834225    0.764733
      6          9           0        2.651219    1.092363   -0.226878
      7          9           0        1.847601   -0.678379   -1.165361
      8          6           0       -2.061715   -0.077851   -0.001492
      9          9           0       -2.838761   -0.834231   -0.764730
     10          9           0       -2.651220    1.092365    0.226869
     11          9           0       -1.847604   -0.678371    1.165365
 ---------------------------------------------------------------------

 SCF Done:  E(RHF) =  -897.207195080     A.U. after    2 cycles

 The electronic state is 1-A.
 Alpha  occ. eigenvalues --  -26.20794 -26.20794 -26.20346 -26.20346 -26.20319
 Alpha  occ. eigenvalues --  -26.20319 -20.79352 -20.73696 -20.73691 -11.61691
 Alpha  occ. eigenvalues --  -11.61691  -1.81150  -1.81145  -1.73789  -1.73787
 Alpha  occ. eigenvalues --   -1.73289  -1.73272  -1.57423  -1.43953  -1.24965
 Alpha  occ. eigenvalues --   -1.05682  -1.03943  -0.94052  -0.93561  -0.93395
 Alpha  occ. eigenvalues --   -0.92894  -0.92726  -0.88655  -0.82276  -0.81931
 Alpha  occ. eigenvalues --   -0.81178  -0.81100  -0.78004  -0.77273  -0.76949
 Alpha  occ. eigenvalues --   -0.76868  -0.76106  -0.75477  -0.75461  -0.74544
 Alpha  occ. eigenvalues --   -0.74279  -0.70217  -0.62727  -0.60619  -0.58959
 Alpha virt. eigenvalues --    0.07441   0.07912   0.07927   0.08139   0.09559
 Alpha virt. eigenvalues --    0.10114   0.10257   0.11625   0.15084   0.17729
 Alpha virt. eigenvalues --    0.18779   0.19923   0.20614   0.20994   0.23739

 Mulliken charges:
               1
     1  O   -0.331001
     2  O   -0.232355
     3  O   -0.331000
     4  C    1.186950
     5  F   -0.230916
     6  F   -0.256215
     7  F   -0.252641
     8  C    1.186950
     9  F   -0.230917
    10  F   -0.256216
    11  F   -0.252640
 Sum of Mulliken charges =  -0.00000

 Dipole moment (field-independent basis, Debye):
    X=              0.0000    Y=              0.0717    Z=              0.0000  Tot=              0.0717

 Test job not archived.
 1\1\GINC-SE250\SP\RHF\Aug-CC-pVDZ\C2F6O3\OHZDE\08-Apr-2025\0\\#t hf au
 g-cc-pvdz iop(5/13=1,5/36=2,99/5=2) pseudo=read geom=check guess=(read
 ,tcheck) scf=(maxcycle=1)\\title\\0,1\O,0,0.886297,0.071439,0.738338\O
 ,0,0.,0.919442,-0.000001\O,0,-0.886296,0.071434,-0.738336\C,0,2.061715
 ,-0.077851,0.001492\F,0,2.838763,-0.834225,0.764733\F,0,2.651219,1.092
 363,-0.226878\F,0,1.847601,-0.678379,-1.165361\C,0,-2.061715,-0.077851
 ,-0.001492\F,0,-2.838761,-0.834231,-0.76473\F,0,-2.65122,1.092365,0.22
 6869\F,0,-1.847604,-0.678371,1.165365\\Version=ES64L-G16RevC.01\State=

 Normal termination of Gaussian 16 at Tue Apr  8 22:54:08 2025.
