 Gaussian 16, Revision C.01,

 ----------------------------------------------------------------------
 #t hf aug-cc-pvdz symm=none int=(grid=ultrafine) guess=(read,tcheck) s
 table=opt
 ----------------------------------------------------------------------
 -----
 title
 -----
 Symbolic Z-matrix:
 Charge =  0 Multiplicity = 2

 SCF Done:  E(UHF) =  -664.873432423     A.U. after   22 cycles
 Normal termination of Gaussian 16 at Wed Apr  9 00:15:06 2025.
 Gaussian 16:  ES64L-G16RevC.01  3-Jul-2019

 ----------------------------------------------------------------------
 #t hf aug-cc-pvdz iop(5/13=1,5/36=2,99/5=2) pseudo=read geom=check gue
 ss=(read,tcheck) scf=(maxcycle=1)
 ----------------------------------------------------------------------
 -----
 title
 -----
 Structure from the checkpoint file:  "BDE49_nonexpt_2520_mol2.chk"
 Charge =  0 Multiplicity = 2

                         Standard orientation:
 ---------------------------------------------------------------------
 Center     Atomic      Atomic             Coordinates (Angstroms)
 Number     Number       Type             X           Y           Z
 ---------------------------------------------------------------------
      1         16           0       -0.861035   -0.289815   -0.239105
      2          6           0        0.935105    0.282969   -0.420312
      3          8           0       -1.699118    0.891094   -0.481809
      4          8           0       -0.947004   -1.027996    1.028270
      5          6           0        1.207364    1.316781    0.668850
      6          1           0        0.501598    2.146219    0.611838
      7          1           0        2.218909    1.713072    0.538306
      8          1           0        1.140425    0.863525    1.659765
      9          6           0        1.843664   -0.936615   -0.385086
     10          1           0        0.918321    0.746615   -1.409121
     11          1           0        2.881252   -0.617938   -0.521462
     12          1           0        1.602755   -1.646027   -1.179848
     13          1           0        1.765480   -1.452022    0.573800
 ---------------------------------------------------------------------

 SCF Done:  E(UHF) =  -665.019602342     A.U. after    2 cycles

 The electronic state is 2-A.
 Alpha  occ. eigenvalues --  -93.74896 -20.59606 -20.59465 -11.31989 -11.26206
 Alpha  occ. eigenvalues --  -11.25931  -9.02380  -6.37087  -6.36670  -6.36256
 Alpha  occ. eigenvalues --   -1.42710  -1.33142  -1.11170  -0.96890  -0.91584
 Alpha  occ. eigenvalues --   -0.81165  -0.71314  -0.68501  -0.68133  -0.65702
 Alpha  occ. eigenvalues --   -0.60529  -0.59228  -0.57352  -0.57131  -0.53435
 Alpha  occ. eigenvalues --   -0.53336  -0.52017  -0.50554  -0.40876
 Alpha virt. eigenvalues --    0.02736   0.04213   0.04514   0.05504   0.06904
 Alpha virt. eigenvalues --    0.07365   0.07587   0.09187   0.10896   0.12301
 Alpha virt. eigenvalues --    0.13225   0.14154   0.14778   0.15170   0.15291

  Beta  occ. eigenvalues --  -93.74559 -20.58143 -20.58042 -11.31434 -11.26251
  Beta  occ. eigenvalues --  -11.25921  -9.01959  -6.36637  -6.36362  -6.35348
  Beta  occ. eigenvalues --   -1.39595  -1.29060  -1.09870  -0.96789  -0.88221
  Beta  occ. eigenvalues --   -0.78252  -0.68571  -0.66390  -0.64474  -0.62282
  Beta  occ. eigenvalues --   -0.59773  -0.57855  -0.56401  -0.53127  -0.52744
  Beta  occ. eigenvalues --   -0.50804  -0.47184  -0.45344
  Beta virt. eigenvalues --   -0.00420   0.02829   0.04291   0.04548   0.05713
  Beta virt. eigenvalues --    0.06938   0.07394   0.07602   0.09413   0.11051
  Beta virt. eigenvalues --    0.12671   0.13379   0.14237   0.14859   0.15252

 Mulliken charges and spin densities:
               1          2
     1  S    1.947816   0.274532
     2  C   -1.049966   0.260303
     3  O   -0.937462   0.261298
     4  O   -0.940350   0.269364
     5  C    0.572393  -0.028611
     6  H   -0.057186  -0.000046
     7  H   -0.027186   0.007350
     8  H    0.010769  -0.001407
     9  C    0.638618  -0.032297
    10  H   -0.082015  -0.013682
    11  H   -0.017559   0.003354
    12  H   -0.077240  -0.001726
    13  H    0.019367   0.001570
 Sum of Mulliken charges =  -0.00000   1.00000

 Dipole moment (field-independent basis, Debye):
    X=              4.5740    Y=              0.0376    Z=             -1.8201  Tot=              4.9230
                          Isotropic Fermi Contact Couplings
        Atom                 a.u.       MegaHertz       Gauss      10(-4) cm-1
     1  S(33)              0.40093     137.70962      49.13822      45.93499
     2  C(13)              0.07552      84.90116      30.29485      28.31998
     3  O(17)              0.10692     -64.81481     -23.12754     -21.61989
     4  O(17)              0.11025     -66.83100     -23.84696     -22.29242
     5  C(13)             -0.00048      -0.54300      -0.19376      -0.18113
     6  H(1)              -0.00000      -0.00671      -0.00240      -0.00224
     7  H(1)               0.00414      18.50669       6.60365       6.17317
     8  H(1)              -0.00008      -0.37626      -0.13426      -0.12551

 Normal termination of Gaussian 16 at Wed Apr  9 00:15:11 2025.
