 Gaussian 16, Revision C.01,

 ----------------------------------------------------------------------
 #t hf aug-cc-pvdz symm=none int=(grid=ultrafine) guess=(read,tcheck) s
 table=(opt,rrhf)
 ----------------------------------------------------------------------
 -----
 title
 -----
 Symbolic Z-matrix:
 Charge =  0 Multiplicity = 1

 SCF Done:  E(RHF) =  -1191.42777852     A.U. after   12 cycles
 Normal termination of Gaussian 16 at Wed Apr  9 00:39:46 2025.
 Gaussian 16:  ES64L-G16RevC.01  3-Jul-2019

 ----------------------------------------------------------------------
 #t hf aug-cc-pvdz iop(5/13=1,5/36=2,99/5=2) pseudo=read geom=check gue
 ss=(read,tcheck) scf=(maxcycle=1)
 ----------------------------------------------------------------------
 -----
 title
 -----
 Structure from the checkpoint file:  "BDE49_nonexpt_671_mol1.chk"
 Charge =  0 Multiplicity = 1

                         Standard orientation:
 ---------------------------------------------------------------------
 Center     Atomic      Atomic             Coordinates (Angstroms)
 Number     Number       Type             X           Y           Z
 ---------------------------------------------------------------------
      1         17           0       -1.969906    1.523690   -0.000036
      2         17           0       -2.271773   -1.514716    0.000061
      3          8           0        0.104910   -0.267144   -0.000042
      4          7           0        2.430202    0.323379   -0.000035
      5          6           0        1.124703    0.831273   -0.000149
      6          6           0        2.832082   -0.367806    1.221793
      7          6           0        2.832183   -0.368153   -1.221638
      8          5           0       -1.207778   -0.093421   -0.000013
      9          1           0        3.916236   -0.501694    1.220281
     10          1           0        2.359264   -1.354330    1.330638
     11          1           0        2.567732    0.240316    2.089908
     12          1           0        2.359417   -1.354730   -1.330214
     13          1           0        3.916344   -0.501987   -1.220039
     14          1           0        2.567840    0.239695   -2.089946
     15          1           0        0.938019    1.424558    0.895042
     16          1           0        0.938081    1.424349   -0.895492
 ---------------------------------------------------------------------

 SCF Done:  E(RHF) =  -1191.55317620     A.U. after    2 cycles

 The electronic state is 1-A.
 Alpha  occ. eigenvalues -- -103.66455-103.65732 -20.60193 -15.63552 -11.34629
 Alpha  occ. eigenvalues --  -11.26895 -11.26892 -10.69921 -10.69191  -8.35615
 Alpha  occ. eigenvalues --   -8.35394  -8.35378  -8.34891  -8.34665  -8.34642
 Alpha  occ. eigenvalues --   -7.74910  -1.35856  -1.21787  -1.16548  -1.13676
 Alpha  occ. eigenvalues --   -0.97854  -0.96736  -0.82753  -0.75767  -0.69502
 Alpha  occ. eigenvalues --   -0.68300  -0.65128  -0.61890  -0.61203  -0.60556
 Alpha  occ. eigenvalues --   -0.55684  -0.54477  -0.53527  -0.52457  -0.51747
 Alpha  occ. eigenvalues --   -0.49709  -0.48798  -0.47265  -0.46052  -0.38076
 Alpha virt. eigenvalues --    0.03154   0.04029   0.04438   0.05267   0.06422
 Alpha virt. eigenvalues --    0.06507   0.07269   0.07280   0.07728   0.08971
 Alpha virt. eigenvalues --    0.09668   0.09670   0.12155   0.12673   0.13178

 Mulliken charges:
               1
     1  Cl  -0.349887
     2  Cl  -0.383901
     3  O   -0.079121
     4  N   -0.775199
     5  C    0.860275
     6  C    0.782486
     7  C    0.782511
     8  B    0.416581
     9  H   -0.176437
    10  H   -0.009842
    11  H   -0.172434
    12  H   -0.009838
    13  H   -0.176437
    14  H   -0.172450
    15  H   -0.268160
    16  H   -0.268146
 Sum of Mulliken charges =  -0.00000

 Dipole moment (field-independent basis, Debye):
    X=              2.9264    Y=              0.6791    Z=             -0.0001  Tot=              3.0042

 Test job not archived.
 1\1\GINC-SE187\SP\RHF\Aug-CC-pVDZ\C3H8B1Cl2N1O1\OHZDE\09-Apr-2025\0\\#
 t hf aug-cc-pvdz iop(5/13=1,5/36=2,99/5=2) pseudo=read geom=check gues
 s=(read,tcheck) scf=(maxcycle=1)\\title\\0,1\Cl,0,1.969906,1.52369,0.0
 00036\Cl,0,2.271773,-1.514716,-0.000061\O,0,-0.10491,-0.267144,0.00004
 2\N,0,-2.430202,0.323379,0.000035\C,0,-1.124703,0.831273,0.000149\C,0,
 -2.832082,-0.367806,-1.221793\C,0,-2.832183,-0.368153,1.221638\B,0,1.2
 07778,-0.093421,0.000013\H,0,-3.916236,-0.501694,-1.220281\H,0,-2.3592
 64,-1.35433,-1.330638\H,0,-2.567732,0.240316,-2.089908\H,0,-2.359417,-

 Normal termination of Gaussian 16 at Wed Apr  9 00:39:53 2025.
