 Gaussian 16, Revision C.01,

 ----------------------------------------------------------------------
 #t hf aug-cc-pvdz symm=none int=(grid=ultrafine) guess=(read,tcheck) s
 table=opt
 ----------------------------------------------------------------------
 -----
 title
 -----
 Symbolic Z-matrix:
 Charge =  0 Multiplicity = 2

 SCF Done:  E(UHF) =  -876.864711257     A.U. after   17 cycles
 Normal termination of Gaussian 16 at Tue Apr  8 23:51:29 2025.
 Gaussian 16:  ES64L-G16RevC.01  3-Jul-2019

 ----------------------------------------------------------------------
 #t hf aug-cc-pvdz iop(5/13=1,5/36=2,99/5=2) pseudo=read geom=check gue
 ss=(read,tcheck) scf=(maxcycle=1)
 ----------------------------------------------------------------------
 -----
 title
 -----
 Structure from the checkpoint file:  "BDE49_nonexpt_1932_mol2.chk"
 Charge =  0 Multiplicity = 2

                         Standard orientation:
 ---------------------------------------------------------------------
 Center     Atomic      Atomic             Coordinates (Angstroms)
 Number     Number       Type             X           Y           Z
 ---------------------------------------------------------------------
      1         14           0       -1.800359    0.241780   -0.163246
      2         16           0        0.406106   -0.193722    0.034641
      3          1           0       -2.412172   -1.105113   -0.077266
      4          1           0       -2.213007    1.100442    0.978039
      5          8           0        0.625116   -0.567144    1.430830
      6          8           0        0.786593   -1.102460   -1.038737
      7          6           0        1.277883    1.359571   -0.240317
      8          1           0        0.947509    2.090073    0.497870
      9          1           0        1.086937    1.695190   -1.259061
     10          1           0        2.337094    1.133443   -0.103239
 ---------------------------------------------------------------------

 SCF Done:  E(UHF) =  -877.012941028     A.U. after    2 cycles

 The electronic state is 2-A.
 Alpha  occ. eigenvalues --  -93.76615 -69.13144 -20.55644 -20.55522 -11.29077
 Alpha  occ. eigenvalues --   -9.03615  -6.88385  -6.38204  -6.37949  -6.37886
 Alpha  occ. eigenvalues --   -3.99657  -3.98815  -3.98733  -1.40800  -1.29855
 Alpha  occ. eigenvalues --   -1.03658  -0.85983  -0.74823  -0.67181  -0.66300
 Alpha  occ. eigenvalues --   -0.65922  -0.61204  -0.59950  -0.53671  -0.51992
 Alpha  occ. eigenvalues --   -0.50213  -0.49103  -0.43482  -0.37536
 Alpha virt. eigenvalues --    0.02500   0.03851   0.05150   0.05302   0.06040
 Alpha virt. eigenvalues --    0.06944   0.07703   0.08033   0.10460   0.11355
 Alpha virt. eigenvalues --    0.12715   0.13524   0.13647   0.14853   0.16202

  Beta  occ. eigenvalues --  -93.76591 -69.12557 -20.55524 -20.55369 -11.29090
  Beta  occ. eigenvalues --   -9.03581  -6.87488  -6.38208  -6.37934  -6.37795
  Beta  occ. eigenvalues --   -3.98420  -3.98336  -3.97455  -1.40511  -1.29453
  Beta  occ. eigenvalues --   -1.03617  -0.84960  -0.72738  -0.66943  -0.66117
  Beta  occ. eigenvalues --   -0.64078  -0.60995  -0.59556  -0.52549  -0.51064
  Beta  occ. eigenvalues --   -0.49898  -0.48759  -0.41573
  Beta virt. eigenvalues --   -0.00482   0.02907   0.04100   0.05216   0.05756
  Beta virt. eigenvalues --    0.06389   0.07729   0.07924   0.08613   0.11266
  Beta virt. eigenvalues --    0.11972   0.13156   0.13878   0.14496   0.16041

 Mulliken charges and spin densities:
               1          2
     1  Si   0.398653   0.908886
     2  S    2.006809  -0.011550
     3  H   -0.037869   0.027537
     4  H   -0.005737   0.044949
     5  O   -1.088518   0.028867
     6  O   -1.082312   0.000722
     7  C   -0.128090   0.002430
     8  H   -0.041417  -0.000202
     9  H   -0.032364  -0.000188
    10  H    0.010846  -0.001452
 Sum of Mulliken charges =   0.00000   1.00000

 Dipole moment (field-independent basis, Debye):
    X=             -2.5477    Y=              4.7887    Z=             -1.2268  Tot=              5.5612
                          Isotropic Fermi Contact Couplings
        Atom                 a.u.       MegaHertz       Gauss      10(-4) cm-1
     1  Si(29)             0.60949    -541.67199    -193.28204    -180.68233
     2  S(33)              0.04955      17.02012       6.07320       5.67730
     3  H(1)               0.00498      22.24332       7.93697       7.41957
     4  H(1)               0.01062      47.45546      16.93329      15.82944
     5  O(17)              0.02901     -17.58433      -6.27453      -5.86550
     6  O(17)             -0.00160       0.97171       0.34673       0.32413
     7  C(13)             -0.00399      -4.48975      -1.60205      -1.49762
     8  H(1)               0.00006       0.26590       0.09488       0.08870

 1\1\GINC-SE435\SP\UHF\Aug-CC-pVDZ\C1H5O2S1Si1(2)\OHZDE\08-Apr-2025\0\\
 #t hf aug-cc-pvdz iop(5/13=1,5/36=2,99/5=2) pseudo=read geom=check gue
 ss=(read,tcheck) scf=(maxcycle=1)\\title\\0,2\Si,0,-1.800359,0.24178,-
 0.163246\S,0,0.406106,-0.193722,0.034641\H,0,-2.412172,-1.105113,-0.07
 7266\H,0,-2.213007,1.100442,0.978039\O,0,0.625116,-0.567144,1.43083\O,
 0,0.786593,-1.10246,-1.038737\C,0,1.277883,1.359571,-0.240317\H,0,0.94
 7509,2.090073,0.49787\H,0,1.086937,1.69519,-1.259061\H,0,2.337094,1.13
 3443,-0.103239\\Version=ES64L-G16RevC.01\State=2-A\HF=-877.012941\S2=0

 Normal termination of Gaussian 16 at Tue Apr  8 23:51:32 2025.
