 Gaussian 16, Revision C.01,

 ----------------------------------------------------------------------
 #t hf aug-cc-pvdz symm=none int=(grid=ultrafine) guess=(read,tcheck) s
 table=(opt,rrhf)
 ----------------------------------------------------------------------
 -----
 title
 -----
 Symbolic Z-matrix:
 Charge =  0 Multiplicity = 1

 SCF Done:  E(RHF) =  -389.183200187     A.U. after   15 cycles
 Normal termination of Gaussian 16 at Wed Apr  9 00:38:53 2025.
 Gaussian 16:  ES64L-G16RevC.01  3-Jul-2019

 ----------------------------------------------------------------------
 #t hf aug-cc-pvdz iop(5/13=1,5/36=2,99/5=2) pseudo=read geom=check gue
 ss=(read,tcheck) scf=(maxcycle=1)
 ----------------------------------------------------------------------
 -----
 title
 -----
 Structure from the checkpoint file:  "BDE49_nonexpt_580_mol1.chk"
 Charge =  0 Multiplicity = 1

                         Standard orientation:
 ---------------------------------------------------------------------
 Center     Atomic      Atomic             Coordinates (Angstroms)
 Number     Number       Type             X           Y           Z
 ---------------------------------------------------------------------
      1          5           0       -2.208836   -0.000073    0.158484
      2          6           0        0.333029    0.000229   -0.563164
      3          6           0        1.018988    1.199584   -0.328724
      4          6           0        1.018944   -1.199311   -0.329541
      5          6           0        2.339400   -1.202238    0.114815
      6          6           0        3.006977   -0.000127    0.339777
      7          6           0        2.339443    1.202161    0.115634
      8          1           0        4.035792   -0.000262    0.681713
      9          1           0        2.848799    2.145305    0.282279
     10          1           0        0.511282    2.143147   -0.503906
     11          1           0        0.511205   -2.142736   -0.505368
     12          1           0        2.848722   -2.145514    0.280818
     13          7           0       -1.801074   -0.000719    1.493420
     14          6           0       -3.747717    0.000181   -0.214763
     15          1           0       -4.002760   -0.873512   -0.826440
     16          1           0       -4.002688    0.874544   -0.825512
     17          1           0       -4.414644   -0.000251    0.653348
     18          6           0       -1.109378    0.000405   -1.004759
     19          1           0       -1.303286    0.870425   -1.645645
     20          1           0       -1.303286   -0.869104   -1.646338
     21          1           0       -2.446790   -0.001051    2.267560
     22          1           0       -0.828771   -0.000893    1.765488
 ---------------------------------------------------------------------

 SCF Done:  E(RHF) =  -389.300773231     A.U. after    2 cycles

 The electronic state is 1-A.
 Alpha  occ. eigenvalues --  -15.60657 -11.24743 -11.24189 -11.24177 -11.23643
 Alpha  occ. eigenvalues --  -11.23521 -11.23516 -11.20843 -11.19689  -7.59285
 Alpha  occ. eigenvalues --   -1.14093  -1.11575  -1.03054  -1.00343  -0.93865
 Alpha  occ. eigenvalues --   -0.91025  -0.82348  -0.79603  -0.69550  -0.68091
 Alpha  occ. eigenvalues --   -0.67135  -0.63504  -0.63209  -0.58466  -0.57782
 Alpha  occ. eigenvalues --   -0.55198  -0.54522  -0.52243  -0.51704  -0.49939
 Alpha  occ. eigenvalues --   -0.48446  -0.47936  -0.44419  -0.41839  -0.33621
 Alpha  occ. eigenvalues --   -0.31969
 Alpha virt. eigenvalues --    0.02854   0.03801   0.04107   0.04623   0.05509
 Alpha virt. eigenvalues --    0.05586   0.06471   0.07159   0.07389   0.07501
 Alpha virt. eigenvalues --    0.08240   0.09009   0.09938   0.10512   0.10913

 Mulliken charges:
               1
     1  B    0.545931
     2  C    0.381393
     3  C    0.617755
     4  C    0.617796
     5  C    0.153057
     6  C    0.718058
     7  C    0.153071
     8  H   -0.441959
     9  H   -0.457912
    10  H   -0.647670
    11  H   -0.647673
    12  H   -0.457918
    13  N   -0.310074
    14  C    0.530317
    15  H   -0.131744
    16  H   -0.131708
    17  H   -0.341626
    18  C    0.221231
    19  H   -0.184872
    20  H   -0.184807
    21  H   -0.087352
    22  H    0.086706
 Sum of Mulliken charges =  -0.00000

 Dipole moment (field-independent basis, Debye):
    X=             -0.3184    Y=             -0.0005    Z=              0.9477  Tot=              0.9998

 Test job not archived.
 1\1\GINC-SE227\SP\RHF\Aug-CC-pVDZ\C8H12B1N1\OHZDE\09-Apr-2025\0\\#t hf
  aug-cc-pvdz iop(5/13=1,5/36=2,99/5=2) pseudo=read geom=check guess=(r
 ead,tcheck) scf=(maxcycle=1)\\title\\0,1\B,0,-2.208836,-0.000073,0.158
 484\C,0,0.333029,0.000229,-0.563164\C,0,1.018988,1.199584,-0.328724\C,
 0,1.018944,-1.199311,-0.329541\C,0,2.3394,-1.202238,0.114815\C,0,3.006
 977,-0.000127,0.339777\C,0,2.339443,1.202161,0.115634\H,0,4.035792,-0.
 000262,0.681713\H,0,2.848799,2.145305,0.282279\H,0,0.511282,2.143147,-
 0.503906\H,0,0.511205,-2.142736,-0.505368\H,0,2.848722,-2.145514,0.280

 Normal termination of Gaussian 16 at Wed Apr  9 00:39:07 2025.
