 Gaussian 16, Revision C.01,

 ----------------------------------------------------------------------
 #t hf aug-cc-pvdz symm=none int=(grid=ultrafine) guess=(read,tcheck) s
 table=(opt,rrhf)
 ----------------------------------------------------------------------
 -----
 title
 -----
 Symbolic Z-matrix:
 Charge =  0 Multiplicity = 1

 SCF Done:  E(RHF) =  -911.702301118     A.U. after   16 cycles
 Normal termination of Gaussian 16 at Tue Apr  8 23:12:18 2025.
 Gaussian 16:  ES64L-G16RevC.01  3-Jul-2019

 ----------------------------------------------------------------------
 #t hf aug-cc-pvdz iop(5/13=1,5/36=2,99/5=2) pseudo=read geom=check gue
 ss=(read,tcheck) scf=(maxcycle=1)
 ----------------------------------------------------------------------
 -----
 title
 -----
 Structure from the checkpoint file:  "BDE49_expt_554_mol1.chk"
 Charge =  0 Multiplicity = 1

                         Standard orientation:
 ---------------------------------------------------------------------
 Center     Atomic      Atomic             Coordinates (Angstroms)
 Number     Number       Type             X           Y           Z
 ---------------------------------------------------------------------
      1          6           0        1.563594    0.013383    2.338692
      2          6           0        1.010133   -0.347961    3.563950
      3          6           0       -0.365523   -0.519362    3.688025
      4          6           0       -1.185878   -0.315000    2.579662
      5          6           0       -0.642864    0.087927    1.362315
      6          6           0        0.745967    0.244133    1.228524
      7          7           0        1.297736    0.636277   -0.000000
      8          6           0        0.745967    0.244133   -1.228524
      9          1           0       -0.800480   -0.813585    4.635499
     10          1           0        1.660123   -0.507740    4.416359
     11          1           0       -2.258107   -0.452516    2.660161
     12          6           0       -0.642864    0.087927   -1.362315
     13          1           0        2.638844    0.125534    2.238457
     14          1           0        2.305353    0.696749   -0.000000
     15          6           0        1.563594    0.013383   -2.338692
     16          6           0        1.010133   -0.347961   -3.563950
     17          6           0       -0.365523   -0.519362   -3.688025
     18          6           0       -1.185878   -0.315000   -2.579662
     19          1           0        2.638844    0.125534   -2.238457
     20          1           0       -2.258107   -0.452516   -2.660161
     21          1           0        1.660123   -0.507740   -4.416359
     22          1           0       -0.800480   -0.813585   -4.635499
     23         16           0       -1.710963    0.511781    0.000000
 ---------------------------------------------------------------------

 SCF Done:  E(RHF) =  -911.869952570     A.U. after    2 cycles

 The electronic state is 1-A'.
 Alpha  occ. eigenvalues --  -93.54719 -15.65917 -11.30504 -11.30493 -11.27795
 Alpha  occ. eigenvalues --  -11.27774 -11.25635 -11.25634 -11.25432 -11.25431
 Alpha  occ. eigenvalues --  -11.25065 -11.25062 -11.24404 -11.24404  -8.84463
 Alpha  occ. eigenvalues --   -6.18719  -6.18478  -6.18069  -1.25193  -1.15671
 Alpha  occ. eigenvalues --   -1.13365  -1.06654  -1.03098  -1.01886  -0.98737
 Alpha  occ. eigenvalues --   -0.91961  -0.85578  -0.85394  -0.82976  -0.77591
 Alpha  occ. eigenvalues --   -0.73112  -0.72197  -0.66188  -0.66065  -0.64239
 Alpha  occ. eigenvalues --   -0.63411  -0.60905  -0.60734  -0.58686  -0.58557
 Alpha  occ. eigenvalues --   -0.55497  -0.52966  -0.52124  -0.51650  -0.49130
 Alpha  occ. eigenvalues --   -0.47188  -0.45863  -0.41862  -0.35485  -0.34806
 Alpha  occ. eigenvalues --   -0.31969  -0.27313
 Alpha virt. eigenvalues --    0.02856   0.03383   0.03844   0.04764   0.04928
 Alpha virt. eigenvalues --    0.06192   0.06361   0.07128   0.07884   0.09218
 Alpha virt. eigenvalues --    0.09584   0.10563   0.10750   0.10964   0.11341

 Mulliken charges:
               1
     1  C    1.215699
     2  C    0.231767
     3  C    0.501979
     4  C    0.480029
     5  C   -0.020622
     6  C   -0.099657
     7  N   -0.695669
     8  C   -0.099657
     9  H   -0.451922
    10  H   -0.446416
    11  H   -0.508758
    12  C   -0.020622
    13  H   -0.652763
    14  H   -0.074328
    15  C    1.215699
    16  C    0.231767
    17  C    0.501979
    18  C    0.480029
    19  H   -0.652763
    20  H   -0.508758
    21  H   -0.446416
    22  H   -0.451922
    23  S    0.271324
 Sum of Mulliken charges =   0.00000

 Dipole moment (field-independent basis, Debye):
    X=              2.2185    Y=             -0.7335    Z=             -0.0000  Tot=              2.3366

 Test job not archived.
 1\1\GINC-SE252\SP\RHF\Aug-CC-pVDZ\C12H9N1S1\OHZDE\08-Apr-2025\0\\#t hf
  aug-cc-pvdz iop(5/13=1,5/36=2,99/5=2) pseudo=read geom=check guess=(r
 ead,tcheck) scf=(maxcycle=1)\\title\\0,1\C,0,1.563594,0.013383,2.33869
 2\C,0,1.010133,-0.347961,3.56395\C,0,-0.365523,-0.519362,3.688025\C,0,
 -1.185878,-0.315,2.579662\C,0,-0.642864,0.087927,1.362315\C,0,0.745967
 ,0.244133,1.228524\N,0,1.297736,0.636277,0.\C,0,0.745967,0.244133,-1.2
 28524\H,0,-0.80048,-0.813585,4.635499\H,0,1.660123,-0.50774,4.416359\H
 ,0,-2.258107,-0.452516,2.660161\C,0,-0.642864,0.087927,-1.362315\H,0,2

 Normal termination of Gaussian 16 at Tue Apr  8 23:12:31 2025.
