 Gaussian 16, Revision C.01,

 ----------------------------------------------------------------------
 #t hf aug-cc-pvdz symm=none int=(grid=ultrafine) guess=(read,tcheck) s
 table=(opt,rrhf)
 ----------------------------------------------------------------------
 -----
 title
 -----
 Symbolic Z-matrix:
 Charge =  0 Multiplicity = 1

 SCF Done:  E(RHF) =  -1052.49477819     A.U. after   14 cycles
 Normal termination of Gaussian 16 at Tue Apr  8 23:38:33 2025.
 Gaussian 16:  ES64L-G16RevC.01  3-Jul-2019

 ----------------------------------------------------------------------
 #t hf aug-cc-pvdz iop(5/13=1,5/36=2,99/5=2) pseudo=read geom=check gue
 ss=(read,tcheck) scf=(maxcycle=1)
 ----------------------------------------------------------------------
 -----
 title
 -----
 Structure from the checkpoint file:  "BDE49_nonexpt_1615_mol1.chk"
 Charge =  0 Multiplicity = 1

                         Standard orientation:
 ---------------------------------------------------------------------
 Center     Atomic      Atomic             Coordinates (Angstroms)
 Number     Number       Type             X           Y           Z
 ---------------------------------------------------------------------
      1          8           0       -0.249386    0.631965   -0.642666
      2         15           0       -1.655805    0.085591    0.033947
      3          8           0       -2.540707    1.241416    0.068058
      4          8           0       -1.228740   -0.656218    1.360616
      5          8           0        0.744879   -0.441348   -0.730106
      6          6           0        1.851561   -0.005635   -0.040003
      7          9           0        2.729301   -0.996711   -0.128199
      8          9           0        1.580215    0.229240    1.258994
      9          9           0        2.372553    1.105717   -0.549433
     10          1           0       -0.732467   -0.098732    1.972919
     11          8           0       -2.099030   -1.181224   -0.799744
     12          1           0       -2.694581   -0.952249   -1.523625
 ---------------------------------------------------------------------

 SCF Done:  E(RHF) =  -1052.81526937     A.U. after    2 cycles

 The electronic state is 1-A.
 Alpha  occ. eigenvalues --  -81.48286 -26.20599 -26.20430 -26.19993 -20.72986
 Alpha  occ. eigenvalues --  -20.71228 -20.65136 -20.65118 -20.55908 -11.61513
 Alpha  occ. eigenvalues --   -7.96229  -5.10928  -5.10799  -5.10774  -1.80800
 Alpha  occ. eigenvalues --   -1.73531  -1.72961  -1.51197  -1.42219  -1.38673
 Alpha  occ. eigenvalues --   -1.31442  -1.28222  -1.04528  -0.93428  -0.93167
 Alpha  occ. eigenvalues --   -0.90217  -0.89814  -0.82092  -0.81548  -0.78973
 Alpha  occ. eigenvalues --   -0.77372  -0.77010  -0.76226  -0.75343  -0.73930
 Alpha  occ. eigenvalues --   -0.71979  -0.70023  -0.67988  -0.64679  -0.62331
 Alpha  occ. eigenvalues --   -0.60260  -0.59291  -0.57566  -0.52527  -0.52177
 Alpha virt. eigenvalues --    0.03088   0.04299   0.07320   0.07877   0.09210
 Alpha virt. eigenvalues --    0.09538   0.10250   0.11207   0.11779   0.12936
 Alpha virt. eigenvalues --    0.15353   0.16852   0.17537   0.19064   0.20626

 Mulliken charges:
               1
     1  O   -0.654315
     2  P    2.377546
     3  O   -0.760285
     4  O   -0.619671
     5  O   -0.435500
     6  C    1.186718
     7  F   -0.239691
     8  F   -0.299544
     9  F   -0.252157
    10  H    0.164431
    11  O   -0.637066
    12  H    0.169534
 Sum of Mulliken charges =  -0.00000

 Dipole moment (field-independent basis, Debye):
    X=              0.3224    Y=             -1.5481    Z=             -0.0718  Tot=              1.5830

 Test job not archived.
 1\1\GINC-SE366\SP\RHF\Aug-CC-pVDZ\C1H2F3O5P1\OHZDE\08-Apr-2025\0\\#t h
 f aug-cc-pvdz iop(5/13=1,5/36=2,99/5=2) pseudo=read geom=check guess=(
 read,tcheck) scf=(maxcycle=1)\\title\\0,1\O,0,0.249386,-0.631965,-0.64
 2666\P,0,1.655805,-0.085591,0.033947\O,0,2.540707,-1.241416,0.068058\O
 ,0,1.22874,0.656218,1.360616\O,0,-0.744879,0.441348,-0.730106\C,0,-1.8
 51561,0.005635,-0.040003\F,0,-2.729301,0.996711,-0.128199\F,0,-1.58021
 5,-0.22924,1.258994\F,0,-2.372553,-1.105717,-0.549433\H,0,0.732467,0.0
 98732,1.972919\O,0,2.09903,1.181224,-0.799744\H,0,2.694581,0.952249,-1

 Normal termination of Gaussian 16 at Tue Apr  8 23:38:39 2025.
