 Gaussian 16, Revision C.01,

 ----------------------------------------------------------------------
 #t hf aug-cc-pvdz symm=none int=(grid=ultrafine) guess=(read,tcheck) s
 table=(opt,rrhf)
 ----------------------------------------------------------------------
 -----
 title
 -----
 Symbolic Z-matrix:
 Charge =  0 Multiplicity = 1

 SCF Done:  E(RHF) =  -572.854256117     A.U. after   14 cycles
 Normal termination of Gaussian 16 at Tue Apr  8 23:58:36 2025.
 Gaussian 16:  ES64L-G16RevC.01  3-Jul-2019

 ----------------------------------------------------------------------
 #t hf aug-cc-pvdz iop(5/13=1,5/36=2,99/5=2) pseudo=read geom=check gue
 ss=(read,tcheck) scf=(maxcycle=1)
 ----------------------------------------------------------------------
 -----
 title
 -----
 Structure from the checkpoint file:  "BDE49_nonexpt_2100_mol1.chk"
 Charge =  0 Multiplicity = 1

                         Standard orientation:
 ---------------------------------------------------------------------
 Center     Atomic      Atomic             Coordinates (Angstroms)
 Number     Number       Type             X           Y           Z
 ---------------------------------------------------------------------
      1         14           0       -0.080487   -1.031405   -0.005224
      2          7           0        1.260213    0.282151   -0.020714
      3          8           0        0.995755    1.410962   -0.429147
      4          8           0        2.365550   -0.074555    0.375471
      5          6           0       -1.705484   -0.259020   -0.492129
      6          6           0       -2.256809    0.777112    0.504904
      7          1           0       -1.572024    1.621074    0.605199
      8          1           0       -2.407530    0.341501    1.496569
      9          1           0       -3.219881    1.167044    0.166404
     10          1           0       -2.417988   -1.083634   -0.625526
     11          1           0       -1.576058    0.193097   -1.481028
     12          1           0       -0.041080   -1.544820    1.376042
     13          1           0        0.423218   -2.029450   -0.966768
 ---------------------------------------------------------------------

 SCF Done:  E(RHF) =  -572.968279247     A.U. after    2 cycles

 The electronic state is 1-A.
 Alpha  occ. eigenvalues --  -69.12637 -20.61629 -20.61580 -15.87969 -11.25467
 Alpha  occ. eigenvalues --  -11.24941  -6.87732  -3.98600  -3.98419  -3.98406
 Alpha  occ. eigenvalues --   -1.52908  -1.35266  -1.04094  -0.93659  -0.86933
 Alpha  occ. eigenvalues --   -0.78880  -0.72734  -0.70532  -0.67166  -0.62935
 Alpha  occ. eigenvalues --   -0.60032  -0.54909  -0.52313  -0.51843  -0.51030
 Alpha  occ. eigenvalues --   -0.47778  -0.46700  -0.46042
 Alpha virt. eigenvalues --    0.02557   0.04190   0.04301   0.05065   0.06266
 Alpha virt. eigenvalues --    0.06511   0.07232   0.07633   0.07856   0.09320
 Alpha virt. eigenvalues --    0.10414   0.11900   0.12930   0.13973   0.14561

 Mulliken charges:
               1
     1  Si   0.798200
     2  N    0.347766
     3  O   -0.520125
     4  O   -0.592219
     5  C    0.123573
     6  C    0.228345
     7  H   -0.078190
     8  H   -0.096088
     9  H   -0.077659
    10  H   -0.179326
    11  H   -0.073168
    12  H    0.091353
    13  H    0.027538
 Sum of Mulliken charges =  -0.00000

 Dipole moment (field-independent basis, Debye):
    X=             -4.3731    Y=             -2.6017    Z=             -0.2035  Tot=              5.0925

 Test job not archived.
 1\1\GINC-SE367\SP\RHF\Aug-CC-pVDZ\C2H7N1O2Si1\OHZDE\08-Apr-2025\0\\#t
 hf aug-cc-pvdz iop(5/13=1,5/36=2,99/5=2) pseudo=read geom=check guess=
 (read,tcheck) scf=(maxcycle=1)\\title\\0,1\Si,0,-0.080487,-1.031405,-0
 .005224\N,0,1.260213,0.282151,-0.020714\O,0,0.995755,1.410962,-0.42914
 7\O,0,2.36555,-0.074555,0.375471\C,0,-1.705484,-0.25902,-0.492129\C,0,
 -2.256809,0.777112,0.504904\H,0,-1.572024,1.621074,0.605199\H,0,-2.407
 53,0.341502,1.496569\H,0,-3.219881,1.167045,0.166404\H,0,-2.417988,-1.
 083633,-0.625526\H,0,-1.576058,0.193097,-1.481028\H,0,-0.04108,-1.5448

 Normal termination of Gaussian 16 at Tue Apr  8 23:58:40 2025.
