 Gaussian 16, Revision C.01,

 ----------------------------------------------------------------------
 #t hf aug-cc-pvdz symm=none int=(grid=ultrafine) guess=(read,tcheck) s
 table=(opt,rrhf)
 ----------------------------------------------------------------------
 -----
 title
 -----
 Symbolic Z-matrix:
 Charge =  0 Multiplicity = 1

 SCF Done:  E(RHF) =  -799.691205129     A.U. after   15 cycles
 Normal termination of Gaussian 16 at Tue Apr  8 23:06:43 2025.
 Gaussian 16:  ES64L-G16RevC.01  3-Jul-2019

 ----------------------------------------------------------------------
 #t hf aug-cc-pvdz iop(5/13=1,5/36=2,99/5=2) pseudo=read geom=check gue
 ss=(read,tcheck) scf=(maxcycle=1)
 ----------------------------------------------------------------------
 -----
 title
 -----
 Structure from the checkpoint file:  "BDE49_expt_449_mol1.chk"
 Charge =  0 Multiplicity = 1

                         Standard orientation:
 ---------------------------------------------------------------------
 Center     Atomic      Atomic             Coordinates (Angstroms)
 Number     Number       Type             X           Y           Z
 ---------------------------------------------------------------------
      1          6           0       -0.857044    1.252041    0.020652
      2          6           0        0.524766    1.389371   -0.010746
      3          6           0       -1.420083   -0.019529   -0.003601
      4          6           0       -0.610263   -1.148029   -0.058257
      5          6           0        0.773151   -1.010148   -0.091470
      6          6           0        1.359170    0.262317   -0.070242
      7          1           0        0.961247    2.383297    0.005777
      8          1           0       -1.492810    2.126937    0.066956
      9          1           0       -1.058124   -2.133623   -0.074265
     10          1           0        1.414804   -1.879075   -0.131364
     11          7           0        2.743691    0.442066   -0.162382
     12          7           0        3.565839   -0.658762    0.145849
     13          1           0        4.368341   -0.657738   -0.471531
     14          1           0        3.881854   -0.638377    1.113034
     15          1           0        3.061063    1.340820    0.181661
     16         17           0       -3.171840   -0.198912    0.041614
 ---------------------------------------------------------------------

 SCF Done:  E(RHF) =  -799.809380752     A.U. after    2 cycles

 The electronic state is 1-A.
 Alpha  occ. eigenvalues -- -103.65466 -15.66750 -15.66027 -11.29544 -11.29460
 Alpha  occ. eigenvalues --  -11.25801 -11.25583 -11.24747 -11.24018 -10.68722
 Alpha  occ. eigenvalues --   -8.34458  -8.34162  -8.34139  -1.26912  -1.18506
 Alpha  occ. eigenvalues --   -1.12951  -1.05410  -1.01996  -0.95144  -0.85029
 Alpha  occ. eigenvalues --   -0.80778  -0.72606  -0.70505  -0.68808  -0.64985
 Alpha  occ. eigenvalues --   -0.62619  -0.60921  -0.59919  -0.54796  -0.52601
 Alpha  occ. eigenvalues --   -0.51235  -0.49537  -0.45743  -0.43264  -0.42757
 Alpha  occ. eigenvalues --   -0.35123  -0.29732
 Alpha virt. eigenvalues --    0.02505   0.03524   0.04478   0.04751   0.05680
 Alpha virt. eigenvalues --    0.06512   0.08351   0.09975   0.10086   0.10571
 Alpha virt. eigenvalues --    0.11484   0.13455   0.13741   0.14199   0.14719

 Mulliken charges:
               1
     1  C    0.594128
     2  C    0.868369
     3  C   -0.307082
     4  C    0.512852
     5  C    0.765138
     6  C    0.486701
     7  H   -0.590318
     8  H   -0.423838
     9  H   -0.416653
    10  H   -0.592231
    11  N   -0.438199
    12  N   -0.217715
    13  H    0.106207
    14  H    0.065004
    15  H   -0.030296
    16  Cl  -0.382067
 Sum of Mulliken charges =  -0.00000

 Dipole moment (field-independent basis, Debye):
    X=              4.5535    Y=              1.1327    Z=              0.9630  Tot=              4.7901

 Test job not archived.
 1\1\GINC-SE092\SP\RHF\Aug-CC-pVDZ\C6H7Cl1N2\OHZDE\08-Apr-2025\0\\#t hf
  aug-cc-pvdz iop(5/13=1,5/36=2,99/5=2) pseudo=read geom=check guess=(r
 ead,tcheck) scf=(maxcycle=1)\\title\\0,1\C,0,-0.857044,1.252041,0.0206
 52\C,0,0.524766,1.389371,-0.010746\C,0,-1.420083,-0.019529,-0.003601\C
 ,0,-0.610263,-1.148029,-0.058257\C,0,0.773151,-1.010148,-0.09147\C,0,1
 .35917,0.262317,-0.070242\H,0,0.961247,2.383297,0.005777\H,0,-1.49281,
 2.126937,0.066956\H,0,-1.058124,-2.133623,-0.074265\H,0,1.414804,-1.87
 9075,-0.131364\N,0,2.743691,0.442066,-0.162382\N,0,3.565839,-0.658762,

 Normal termination of Gaussian 16 at Tue Apr  8 23:06:51 2025.
