 Gaussian 16, Revision C.01,

 ----------------------------------------------------------------------
 #t hf aug-cc-pvdz symm=none int=(grid=ultrafine) guess=(read,tcheck) s
 table=(opt,rrhf)
 ----------------------------------------------------------------------
 -----
 title
 -----
 Symbolic Z-matrix:
 Charge =  0 Multiplicity = 1

 SCF Done:  E(RHF) =  -741.733037211     A.U. after   15 cycles
 Normal termination of Gaussian 16 at Tue Apr  8 23:15:53 2025.
 Gaussian 16:  ES64L-G16RevC.01  3-Jul-2019

 ----------------------------------------------------------------------
 #t hf aug-cc-pvdz iop(5/13=1,5/36=2,99/5=2) pseudo=read geom=check gue
 ss=(read,tcheck) scf=(maxcycle=1)
 ----------------------------------------------------------------------
 -----
 title
 -----
 Structure from the checkpoint file:  "BDE49_nonexpt_1053_mol1.chk"
 Charge =  0 Multiplicity = 1

                         Standard orientation:
 ---------------------------------------------------------------------
 Center     Atomic      Atomic             Coordinates (Angstroms)
 Number     Number       Type             X           Y           Z
 ---------------------------------------------------------------------
      1         17           0       -2.227050   -0.004671    0.000001
      2          8           0       -0.684102   -0.761436    0.000005
      3          6           0        0.391543    0.140224   -0.000004
      4          8           0        0.290418    1.334436   -0.000007
      5          7           0        1.521307   -0.606411   -0.000009
      6          6           0        2.843091    0.000709    0.000008
      7          1           0        1.425886   -1.609071    0.000008
      8          1           0        2.713100    1.081303   -0.000067
      9          1           0        3.406726   -0.288828   -0.890998
     10          1           0        3.406659   -0.288711    0.891094
 ---------------------------------------------------------------------

 SCF Done:  E(RHF) =  -741.843788937     A.U. after    2 cycles

 The electronic state is 1-A.
 Alpha  occ. eigenvalues -- -103.72846 -20.67721 -20.56433 -15.67158 -11.43997
 Alpha  occ. eigenvalues --  -11.28857 -10.75459  -8.41238  -8.40777  -8.40762
 Alpha  occ. eigenvalues --   -1.44097  -1.35075  -1.22821  -1.12084  -0.96262
 Alpha  occ. eigenvalues --   -0.82143  -0.77466  -0.70199  -0.69678  -0.64781
 Alpha  occ. eigenvalues --   -0.62341  -0.60451  -0.56827  -0.55501  -0.49830
 Alpha  occ. eigenvalues --   -0.48804  -0.47204  -0.41725
 Alpha virt. eigenvalues --    0.02831   0.04263   0.04953   0.05247   0.06709
 Alpha virt. eigenvalues --    0.09422   0.10681   0.11350   0.12494   0.14576
 Alpha virt. eigenvalues --    0.15051   0.15172   0.15704   0.17163   0.17978

 Mulliken charges:
               1
     1  Cl   0.326185
     2  O   -0.698604
     3  C    0.689212
     4  O   -0.359141
     5  N   -0.271127
     6  C    0.731833
     7  H   -0.064855
     8  H   -0.155451
     9  H   -0.099033
    10  H   -0.099019
 Sum of Mulliken charges =   0.00000

 Dipole moment (field-independent basis, Debye):
    X=              2.4315    Y=             -2.5366    Z=              0.0000  Tot=              3.5137

 Test job not archived.
 1\1\GINC-SE069\SP\RHF\Aug-CC-pVDZ\C2H4Cl1N1O2\OHZDE\08-Apr-2025\0\\#t
 hf aug-cc-pvdz iop(5/13=1,5/36=2,99/5=2) pseudo=read geom=check guess=
 (read,tcheck) scf=(maxcycle=1)\\title\\0,1\Cl,0,-2.22705,-0.004671,0.0
 00001\O,0,-0.684102,-0.761436,0.000005\C,0,0.391543,0.140224,-0.000004
 \O,0,0.290418,1.334436,-0.000007\N,0,1.521307,-0.606411,-0.000009\C,0,
 2.843091,0.000709,0.000008\H,0,1.425886,-1.609071,0.000008\H,0,2.7131,
 1.081303,-0.000067\H,0,3.406726,-0.288828,-0.890998\H,0,3.406659,-0.28
 8711,0.891094\\Version=ES64L-G16RevC.01\State=1-A\HF=-741.8437889\RMSD

 Normal termination of Gaussian 16 at Tue Apr  8 23:15:56 2025.
