 Gaussian 16, Revision C.01,

 ----------------------------------------------------------------------
 #t hf aug-cc-pvdz symm=none int=(grid=ultrafine) guess=(read,tcheck) s
 table=opt
 ----------------------------------------------------------------------
 -----
 title
 -----
 Symbolic Z-matrix:
 Charge =  0 Multiplicity = 2

 SCF Done:  E(UHF) =  -367.091445442     A.U. after   19 cycles
 Normal termination of Gaussian 16 at Tue Apr  8 23:26:57 2025.
 Gaussian 16:  ES64L-G16RevC.01  3-Jul-2019

 ----------------------------------------------------------------------
 #t hf aug-cc-pvdz iop(5/13=1,5/36=2,99/5=2) pseudo=read geom=check gue
 ss=(read,tcheck) scf=(maxcycle=1)
 ----------------------------------------------------------------------
 -----
 title
 -----
 Structure from the checkpoint file:  "BDE49_nonexpt_132_mol2.chk"
 Charge =  0 Multiplicity = 2

                         Standard orientation:
 ---------------------------------------------------------------------
 Center     Atomic      Atomic             Coordinates (Angstroms)
 Number     Number       Type             X           Y           Z
 ---------------------------------------------------------------------
      1          5           0       -1.339109   -0.177009    0.069561
      2         15           0        0.471298    0.016601   -0.111563
      3          1           0        1.031155   -1.027468    0.650948
      4          1           0        0.873402    1.125418    0.672764
      5          1           0       -2.278486    0.538074    0.001923
 ---------------------------------------------------------------------

 SCF Done:  E(UHF) =  -367.119235378     A.U. after    2 cycles

 The electronic state is 2-A.
 Alpha  occ. eigenvalues --  -81.25598  -7.76313  -7.65559  -4.90345  -4.90291
 Alpha  occ. eigenvalues --   -4.89988  -0.82651  -0.65681  -0.54921  -0.50622
 Alpha  occ. eigenvalues --   -0.36504  -0.33020
 Alpha virt. eigenvalues --    0.03584   0.03941   0.05296   0.05548   0.07924
 Alpha virt. eigenvalues --    0.08784   0.09066   0.10850   0.12383   0.13449
 Alpha virt. eigenvalues --    0.14978   0.17882   0.20008   0.22123   0.24280

  Beta  occ. eigenvalues --  -81.25653  -7.76380  -7.63757  -4.90438  -4.90351
  Beta  occ. eigenvalues --   -4.90104  -0.81157  -0.61546  -0.53263  -0.49383
  Beta  occ. eigenvalues --   -0.35931
  Beta virt. eigenvalues --    0.03426   0.04842   0.04953   0.05407   0.07040
  Beta virt. eigenvalues --    0.08751   0.09222   0.10904   0.11083   0.12928
  Beta virt. eigenvalues --    0.14553   0.15882   0.18172   0.21746   0.22626

 Mulliken charges and spin densities:
               1          2
     1  B   -0.293279   1.093430
     2  P   -0.241094  -0.075630
     3  H    0.095622  -0.005417
     4  H    0.107465   0.035512
     5  H    0.331286  -0.047896
 Sum of Mulliken charges =   0.00000   1.00000

 Dipole moment (field-independent basis, Debye):
    X=              0.2860    Y=              0.4386    Z=              0.6874  Tot=              0.8641
                          Isotropic Fermi Contact Couplings
        Atom                 a.u.       MegaHertz       Gauss      10(-4) cm-1
     1  B(11)              0.23500     337.07854     120.27801     112.43730
     2  P(31)             -0.04926     -89.20871     -31.83189     -29.75682
     3  H(1)               0.00684      30.58519      10.91356      10.20212
     4  H(1)               0.01354      60.52427      21.59657      20.18872
     5  H(1)              -0.00756     -33.81191     -12.06493     -11.27844
 --------------------------------------------------------
       Center         ----  Spin Dipole Couplings  ----
                      3XX-RR        3YY-RR        3ZZ-RR

 Normal termination of Gaussian 16 at Tue Apr  8 23:26:59 2025.
