 Gaussian 16, Revision C.01,

 ----------------------------------------------------------------------
 #t hf aug-cc-pvdz symm=none int=(grid=ultrafine) guess=(read,tcheck) s
 table=opt
 ----------------------------------------------------------------------
 -----
 title
 -----
 Symbolic Z-matrix:
 Charge =  0 Multiplicity = 2

 SCF Done:  E(UHF) =  -700.659406325     A.U. after   17 cycles
 Normal termination of Gaussian 16 at Tue Apr  8 23:51:36 2025.
 Gaussian 16:  ES64L-G16RevC.01  3-Jul-2019

 ----------------------------------------------------------------------
 #t hf aug-cc-pvdz iop(5/13=1,5/36=2,99/5=2) pseudo=read geom=check gue
 ss=(read,tcheck) scf=(maxcycle=1)
 ----------------------------------------------------------------------
 -----
 title
 -----
 Structure from the checkpoint file:  "BDE49_nonexpt_1934_mol2.chk"
 Charge =  0 Multiplicity = 2

                         Standard orientation:
 ---------------------------------------------------------------------
 Center     Atomic      Atomic             Coordinates (Angstroms)
 Number     Number       Type             X           Y           Z
 ---------------------------------------------------------------------
      1          6           0        0.848727    1.552015   -0.105772
      2         16           0        0.467210   -0.130095    0.055895
      3          8           0        1.382076   -0.887983   -0.750136
      4          8           0       -0.941062   -0.241068   -0.729827
      5          8           0        0.261345   -0.421284    1.450246
      6          6           0       -2.153061    0.100117   -0.015115
      7          1           0       -2.962625   -0.213036   -0.670945
      8          1           0       -2.208479    1.177814    0.154961
      9          1           0       -2.197660   -0.436133    0.931651
     10          1           0        0.799613    1.997429   -1.089434
     11          1           0        1.300923    2.045339    0.742506
 ---------------------------------------------------------------------

 SCF Done:  E(UHF) =  -700.841722525     A.U. after    2 cycles

 The electronic state is 2-A.
 Alpha  occ. eigenvalues --  -93.83380 -20.63951 -20.57851 -20.57346 -11.32168
 Alpha  occ. eigenvalues --  -11.32002  -9.09435  -6.44139  -6.44048  -6.43766
 Alpha  occ. eigenvalues --   -1.47649  -1.35843  -1.33241  -1.06794  -0.98500
 Alpha  occ. eigenvalues --   -0.83835  -0.75382  -0.72887  -0.70911  -0.66894
 Alpha  occ. eigenvalues --   -0.66083  -0.63969  -0.58034  -0.55109  -0.54607
 Alpha  occ. eigenvalues --   -0.52412  -0.51399  -0.51336  -0.45307
 Alpha virt. eigenvalues --    0.02774   0.04132   0.04815   0.05542   0.06556
 Alpha virt. eigenvalues --    0.09282   0.10592   0.12011   0.12394   0.13647
 Alpha virt. eigenvalues --    0.14748   0.15036   0.15522   0.16058   0.17447

  Beta  occ. eigenvalues --  -93.83458 -20.63902 -20.57818 -20.57088 -11.32166
  Beta  occ. eigenvalues --  -11.29493  -9.09537  -6.44197  -6.44123  -6.43985
  Beta  occ. eigenvalues --   -1.47427  -1.35640  -1.32839  -1.01747  -0.96371
  Beta  occ. eigenvalues --   -0.82395  -0.74536  -0.72247  -0.70430  -0.66165
  Beta  occ. eigenvalues --   -0.65164  -0.63430  -0.57807  -0.54697  -0.52881
  Beta  occ. eigenvalues --   -0.52066  -0.50758  -0.49878
  Beta virt. eigenvalues --    0.02266   0.03271   0.04227   0.04883   0.05948
  Beta virt. eigenvalues --    0.06600   0.09309   0.11405   0.12367   0.12418
  Beta virt. eigenvalues --    0.14351   0.14970   0.15227   0.15605   0.16432

 Mulliken charges and spin densities:
               1          2
     1  C    0.061787   1.267664
     2  S    2.722542  -0.078586
     3  O   -0.950401   0.021186
     4  O   -0.956406   0.001977
     5  O   -1.006838   0.006701
     6  C    0.697450   0.001375
     7  H   -0.199237  -0.000281
     8  H   -0.083270  -0.009707
     9  H   -0.031843   0.000233
    10  H   -0.147607  -0.099047
    11  H   -0.106177  -0.111516
 Sum of Mulliken charges =  -0.00000   1.00000

 Dipole moment (field-independent basis, Debye):
    X=             -2.6862    Y=              4.4316    Z=             -0.2514  Tot=              5.1883
                          Isotropic Fermi Contact Couplings
        Atom                 a.u.       MegaHertz       Gauss      10(-4) cm-1
     1  C(13)              0.21942     246.66704      88.01694      82.27927
     2  S(33)             -0.11674     -40.09639     -14.30739     -13.37471
     3  O(17)              0.02697     -16.34900      -5.83373      -5.45344
     4  O(17)              0.00110      -0.66804      -0.23837      -0.22283
     5  O(17)              0.00255      -1.54694      -0.55199      -0.51600
     6  C(13)              0.00088       0.98754       0.35238       0.32941
     7  H(1)              -0.00019      -0.85419      -0.30480      -0.28493
     8  H(1)              -0.00026      -1.15449      -0.41195      -0.38509

 Normal termination of Gaussian 16 at Tue Apr  8 23:51:41 2025.
