 Gaussian 16, Revision C.01,

 ----------------------------------------------------------------------
 #t hf aug-cc-pvdz symm=none int=(grid=ultrafine) guess=(read,tcheck) s
 table=(opt,rrhf)
 ----------------------------------------------------------------------
 -----
 title
 -----
 Symbolic Z-matrix:
 Charge =  0 Multiplicity = 1

 SCF Done:  E(RHF) =  -2132.61039255     A.U. after   15 cycles
 Normal termination of Gaussian 16 at Tue Apr  8 23:38:42 2025.
 Gaussian 16:  ES64L-G16RevC.01  3-Jul-2019

 ----------------------------------------------------------------------
 #t hf aug-cc-pvdz iop(5/13=1,5/36=2,99/5=2) pseudo=read geom=check gue
 ss=(read,tcheck) scf=(maxcycle=1)
 ----------------------------------------------------------------------
 -----
 title
 -----
 Structure from the checkpoint file:  "BDE49_nonexpt_1614_mol1.chk"
 Charge =  0 Multiplicity = 1

                         Standard orientation:
 ---------------------------------------------------------------------
 Center     Atomic      Atomic             Coordinates (Angstroms)
 Number     Number       Type             X           Y           Z
 ---------------------------------------------------------------------
      1          8           0        0.790960    0.769513   -0.255506
      2         15           0        2.262927    0.056533   -0.033995
      3          8           0        3.142754    1.125499    0.418200
      4          8           0        2.608440   -0.694300   -1.381028
      5          8           0       -0.195833   -0.216958   -0.736395
      6          6           0       -1.380405   -0.003949   -0.073464
      7         17           0       -2.448552   -1.236332   -0.783302
      8         17           0       -2.037285    1.638378   -0.346825
      9         17           0       -1.228969   -0.275916    1.714261
     10          1           0        3.085004   -0.131004   -2.002773
     11          8           0        1.999894   -1.213503    0.865879
     12          1           0        1.635514   -0.999504    1.734001
 ---------------------------------------------------------------------

 SCF Done:  E(RHF) =  -2132.87270190     A.U. after    2 cycles

 The electronic state is 1-A.
 Alpha  occ. eigenvalues -- -103.71168-103.70794-103.70362 -81.47859 -20.72915
 Alpha  occ. eigenvalues --  -20.70424 -20.64766 -20.64733 -20.55520 -11.52452
 Alpha  occ. eigenvalues --  -10.74475 -10.74096 -10.73673  -8.40199  -8.39843
 Alpha  occ. eigenvalues --   -8.39834  -8.39811  -8.39488  -8.39471  -8.39394
 Alpha  occ. eigenvalues --   -8.39043  -8.39041  -7.95800  -5.10506  -5.10373
 Alpha  occ. eigenvalues --   -5.10353  -1.51061  -1.41929  -1.38281  -1.32926
 Alpha  occ. eigenvalues --   -1.28936  -1.22669  -1.17956  -1.17472  -0.89713
 Alpha  occ. eigenvalues --   -0.89353  -0.80636  -0.77262  -0.75478  -0.74795
 Alpha  occ. eigenvalues --   -0.70794  -0.69170  -0.67125  -0.63956  -0.63191
 Alpha  occ. eigenvalues --   -0.60807  -0.59511  -0.59015  -0.55461  -0.53550
 Alpha  occ. eigenvalues --   -0.52926  -0.52234  -0.51735  -0.51437  -0.49511
 Alpha  occ. eigenvalues --   -0.49221  -0.48041
 Alpha virt. eigenvalues --    0.03133   0.04273   0.05934   0.07043   0.08270
 Alpha virt. eigenvalues --    0.08791   0.09100   0.09725   0.10512   0.11185
 Alpha virt. eigenvalues --    0.12151   0.12758   0.13913   0.14787   0.15429

 Mulliken charges:
               1
     1  O   -0.622168
     2  P    2.391973
     3  O   -0.753652
     4  O   -0.627711
     5  O   -0.217693
     6  C   -0.194770
     7  Cl   0.106365
     8  Cl   0.142721
     9  Cl   0.077750
    10  H    0.167596
    11  O   -0.628796
    12  H    0.158386
 Sum of Mulliken charges =  -0.00000

 Dipole moment (field-independent basis, Debye):
    X=             -1.0437    Y=             -1.3395    Z=             -0.5506  Tot=              1.7852

 Test job not archived.
 1\1\GINC-SE363\SP\RHF\Aug-CC-pVDZ\C1H2Cl3O5P1\OHZDE\08-Apr-2025\0\\#t
 hf aug-cc-pvdz iop(5/13=1,5/36=2,99/5=2) pseudo=read geom=check guess=
 (read,tcheck) scf=(maxcycle=1)\\title\\0,1\O,0,0.79096,0.769513,-0.255
 506\P,0,2.262927,0.056533,-0.033995\O,0,3.142754,1.125499,0.4182\O,0,2
 .60844,-0.6943,-1.381028\O,0,-0.195833,-0.216958,-0.736395\C,0,-1.3804
 05,-0.003949,-0.073464\Cl,0,-2.448552,-1.236332,-0.783302\Cl,0,-2.0372
 85,1.638378,-0.346825\Cl,0,-1.228969,-0.275916,1.714261\H,0,3.085004,-
 0.131004,-2.002773\O,0,1.999894,-1.213503,0.865879\H,0,1.635514,-0.999

 Normal termination of Gaussian 16 at Tue Apr  8 23:38:50 2025.
