 Gaussian 16, Revision C.01,

 ----------------------------------------------------------------------
 #t hf aug-cc-pvdz symm=none int=(grid=ultrafine) guess=(read,tcheck) s
 table=(opt,rrhf)
 ----------------------------------------------------------------------
 -----
 title
 -----
 Symbolic Z-matrix:
 Charge =  0 Multiplicity = 1

 SCF Done:  E(RHF) =  -807.443172758     A.U. after   12 cycles

 1\1\GINC-SE253\Stability\RHF\Aug-CC-pVDZ\B2Cl1F3\OHZDE\08-Apr-2025\0\\
 #t hf aug-cc-pvdz symm=none int=(grid=ultrafine) guess=(read,tcheck) s
 table=(opt,rrhf)\\title\\0,1\B,0,1.180725,-0.04275,-0.00001\B,0,-0.449
 389,0.454424,-0.000138\F,0,-0.814545,1.723492,-0.000399\F,0,1.840216,-
 0.256546,1.128062\Cl,0,-1.732273,-0.761376,0.000204\F,0,1.840103,-0.25
 7498,-1.127968\\Version=ES64L-G16RevC.01\HF=-807.4431728\RMSD=7.729e-0
 9\Dipole=-0.0738881,0.0525153,-0.000058\Quadrupole=-1.7386554,0.938906
 8,0.7997486,1.4251444,-0.0004288,-0.0007083\PG=Unknown\\@

 Normal termination of Gaussian 16 at Tue Apr  8 23:50:19 2025.
 Gaussian 16:  ES64L-G16RevC.01  3-Jul-2019

 ----------------------------------------------------------------------
 #t hf aug-cc-pvdz iop(5/13=1,5/36=2,99/5=2) pseudo=read geom=check gue
 ss=(read,tcheck) scf=(maxcycle=1)
 ----------------------------------------------------------------------
 -----
 title
 -----
 Structure from the checkpoint file:  "BDE49_nonexpt_18_mol1.chk"
 Charge =  0 Multiplicity = 1

                         Standard orientation:
 ---------------------------------------------------------------------
 Center     Atomic      Atomic             Coordinates (Angstroms)
 Number     Number       Type             X           Y           Z
 ---------------------------------------------------------------------
      1          5           0        1.180725   -0.042750   -0.000010
      2          5           0       -0.449389    0.454424   -0.000138
      3          9           0       -0.814545    1.723492   -0.000399
      4          9           0        1.840216   -0.256546    1.128062
      5         17           0       -1.732273   -0.761377    0.000204
      6          9           0        1.840103   -0.257498   -1.127968
 ---------------------------------------------------------------------

 SCF Done:  E(RHF) =  -807.601588144     A.U. after    2 cycles

 The electronic state is 1-A.
 Alpha  occ. eigenvalues -- -103.68515 -26.16701 -26.15863 -26.15856 -10.72011
 Alpha  occ. eigenvalues --   -8.37693  -8.37478  -8.37449  -7.75925  -7.75755
 Alpha  occ. eigenvalues --   -1.71217  -1.70848  -1.68911  -1.17955  -0.90057
 Alpha  occ. eigenvalues --   -0.87583  -0.83969  -0.81639  -0.78981  -0.78298
 Alpha  occ. eigenvalues --   -0.77181  -0.73950  -0.73473  -0.65922  -0.54399
 Alpha  occ. eigenvalues --   -0.51570  -0.48902
 Alpha virt. eigenvalues --    0.04508   0.04643   0.04853   0.05014   0.07537
 Alpha virt. eigenvalues --    0.07549   0.07826   0.08704   0.11254   0.13172
 Alpha virt. eigenvalues --    0.13709   0.15971   0.17406   0.21297   0.23342

 Mulliken charges:
               1
     1  B    1.026128
     2  B    0.617295
     3  F   -0.396703
     4  F   -0.450898
     5  Cl  -0.344929
     6  F   -0.450894
 Sum of Mulliken charges =  -0.00000

 Dipole moment (field-independent basis, Debye):
    X=             -0.2911    Y=              0.0204    Z=             -0.0001  Tot=              0.2918

 Test job not archived.
 1\1\GINC-SE253\SP\RHF\Aug-CC-pVDZ\B2Cl1F3\OHZDE\08-Apr-2025\0\\#t hf a
 ug-cc-pvdz iop(5/13=1,5/36=2,99/5=2) pseudo=read geom=check guess=(rea
 d,tcheck) scf=(maxcycle=1)\\title\\0,1\B,0,1.180725,-0.04275,-0.00001\
 B,0,-0.449389,0.454424,-0.000138\F,0,-0.814545,1.723492,-0.000399\F,0,
 1.840216,-0.256546,1.128062\Cl,0,-1.732273,-0.761376,0.000204\F,0,1.84
 0103,-0.257498,-1.127968\\Version=ES64L-G16RevC.01\State=1-A\HF=-807.6
 015881\RMSD=7.261e-03\Dipole=-0.1145174,0.0080172,-0.0000525\Quadrupol
 e=-1.8541034,0.9913203,0.8627831,1.6681474,-0.0004999,-0.0007783\PG=C0

 Normal termination of Gaussian 16 at Tue Apr  8 23:50:21 2025.
