 Gaussian 16, Revision C.01,

 ----------------------------------------------------------------------
 #t hf aug-cc-pvdz symm=none int=(grid=ultrafine) guess=(read,tcheck) s
 table=(opt,rrhf)
 ----------------------------------------------------------------------
 -----
 title
 -----
 Symbolic Z-matrix:
 Charge =  0 Multiplicity = 1

 SCF Done:  E(RHF) =  -193.130793001     A.U. after   11 cycles
 Normal termination of Gaussian 16 at Tue Apr  8 22:31:23 2025.
 Gaussian 16:  ES64L-G16RevC.01  3-Jul-2019

 ----------------------------------------------------------------------
 #t hf aug-cc-pvdz iop(5/13=1,5/36=2,99/5=2) pseudo=read geom=check gue
 ss=(read,tcheck) scf=(maxcycle=1)
 ----------------------------------------------------------------------
 -----
 title
 -----
 Structure from the checkpoint file:  "BDE49_expt_1073_mol1.chk"
 Charge =  0 Multiplicity = 1

                         Standard orientation:
 ---------------------------------------------------------------------
 Center     Atomic      Atomic             Coordinates (Angstroms)
 Number     Number       Type             X           Y           Z
 ---------------------------------------------------------------------
      1          6           0        0.000000    0.708464    0.000000
      2          8           0       -0.015244   -0.708332    0.000000
      3          6           0        1.444678    1.173758    0.000000
      4          6           0       -1.319401   -1.245121    0.000000
      5          1           0       -0.530140    1.092421    0.886846
      6          1           0       -0.530140    1.092421   -0.886846
      7          1           0        1.965659    0.801238    0.885050
      8          1           0        1.496277    2.265885    0.000000
      9          1           0        1.965659    0.801238   -0.885050
     10          1           0       -1.886757   -0.938758    0.892016
     11          1           0       -1.223510   -2.331634    0.000000
     12          1           0       -1.886757   -0.938758   -0.892016
 ---------------------------------------------------------------------

 SCF Done:  E(RHF) =  -193.196529238     A.U. after    2 cycles

 The electronic state is 1-A'.
 Alpha  occ. eigenvalues --  -20.56719 -11.28434 -11.28050 -11.22364  -1.33077
 Alpha  occ. eigenvalues --   -1.01994  -0.91204  -0.83062  -0.67535  -0.66304
 Alpha  occ. eigenvalues --   -0.63249  -0.58404  -0.53842  -0.51145  -0.50458
 Alpha  occ. eigenvalues --   -0.48453  -0.43292
 Alpha virt. eigenvalues --    0.03615   0.04679   0.05245   0.05250   0.06739
 Alpha virt. eigenvalues --    0.07228   0.07451   0.08612   0.12191   0.13354
 Alpha virt. eigenvalues --    0.14457   0.15616   0.16202   0.16785   0.17115

 Mulliken charges:
               1
     1  C    0.569535
     2  O   -0.663689
     3  C    0.190200
     4  C    0.690178
     5  H   -0.136254
     6  H   -0.136254
     7  H   -0.043923
     8  H   -0.032975
     9  H   -0.043923
    10  H   -0.068488
    11  H   -0.255919
    12  H   -0.068488
 Sum of Mulliken charges =   0.00000

 Dipole moment (field-independent basis, Debye):
    X=             -1.1625    Y=              0.8758    Z=             -0.0000  Tot=              1.4555

 Test job not archived.
 1\1\GINC-SE177\SP\RHF\Aug-CC-pVDZ\C3H8O1\OHZDE\08-Apr-2025\0\\#t hf au
 g-cc-pvdz iop(5/13=1,5/36=2,99/5=2) pseudo=read geom=check guess=(read
 ,tcheck) scf=(maxcycle=1)\\title\\0,1\C,0,0.,0.708464,0.\O,0,-0.015244
 ,-0.708332,0.\C,0,1.444678,1.173758,0.\C,0,-1.319401,-1.245121,0.\H,0,
 -0.53014,1.092421,0.886846\H,0,-0.53014,1.092421,-0.886846\H,0,1.96565
 9,0.801238,0.88505\H,0,1.496277,2.265885,0.\H,0,1.965659,0.801238,-0.8
 8505\H,0,-1.886757,-0.938758,0.892016\H,0,-1.22351,-2.331634,0.\H,0,-1
 .886757,-0.938758,-0.892016\\Version=ES64L-G16RevC.01\State=1-A'\HF=-1

 Normal termination of Gaussian 16 at Tue Apr  8 22:31:26 2025.
