 Gaussian 16, Revision C.01,

 ----------------------------------------------------------------------
 #t hf aug-cc-pvdz symm=none int=(grid=ultrafine) guess=(read,tcheck) s
 table=(opt,rrhf)
 ----------------------------------------------------------------------
 -----
 title
 -----
 Symbolic Z-matrix:
 Charge =  0 Multiplicity = 1

 SCF Done:  E(RHF) =  -906.421547876     A.U. after   12 cycles
 Normal termination of Gaussian 16 at Tue Apr  8 23:44:48 2025.
 Gaussian 16:  ES64L-G16RevC.01  3-Jul-2019

 ----------------------------------------------------------------------
 #t hf aug-cc-pvdz iop(5/13=1,5/36=2,99/5=2) pseudo=read geom=check gue
 ss=(read,tcheck) scf=(maxcycle=1)
 ----------------------------------------------------------------------
 -----
 title
 -----
 Structure from the checkpoint file:  "BDE49_nonexpt_1748_mol1.chk"
 Charge =  0 Multiplicity = 1

                         Standard orientation:
 ---------------------------------------------------------------------
 Center     Atomic      Atomic             Coordinates (Angstroms)
 Number     Number       Type             X           Y           Z
 ---------------------------------------------------------------------
      1         14           0        0.280054   -0.376056    0.000290
      2          6           0       -1.427000   -0.504206   -0.775385
      3          6           0       -2.559296    0.244385   -0.051610
      4          1           0       -1.665822   -1.574547   -0.841069
      5          1           0       -1.347655   -0.153578   -1.810967
      6          1           0       -2.700005   -0.125267    0.967950
      7          1           0       -3.511246    0.124013   -0.576171
      8          1           0       -2.349560    1.314936    0.011446
      9          6           0        1.550938   -1.296780   -1.019056
     10          1           0        1.320022   -2.367021   -1.042534
     11          1           0        2.552996   -1.176289   -0.599444
     12          1           0        1.570522   -0.931596   -2.049063
     13          6           0        0.295712   -0.935906    1.786301
     14          1           0        0.004345   -1.989158    1.858541
     15          1           0       -0.396579   -0.349476    2.395156
     16          1           0        1.294227   -0.830915    2.218421
     17         17           0        0.832110    1.663454   -0.010460
 ---------------------------------------------------------------------

 SCF Done:  E(RHF) =  -906.517338990     A.U. after    2 cycles

 The electronic state is 1-A.
 Alpha  occ. eigenvalues -- -103.63129 -69.09206 -11.23228 -11.22579 -11.22141
 Alpha  occ. eigenvalues --  -11.22124 -10.66536  -8.32223  -8.32027  -8.32026
 Alpha  occ. eigenvalues --   -6.84062  -3.94919  -3.94758  -3.94747  -1.11485
 Alpha  occ. eigenvalues --   -1.01713  -0.95593  -0.93198  -0.84591  -0.64742
 Alpha  occ. eigenvalues --   -0.61439  -0.58865  -0.57753  -0.56844  -0.55929
 Alpha  occ. eigenvalues --   -0.55074  -0.52070  -0.50501  -0.48508  -0.47679
 Alpha  occ. eigenvalues --   -0.46901  -0.42939  -0.41615
 Alpha virt. eigenvalues --    0.02791   0.04322   0.04621   0.05104   0.06431
 Alpha virt. eigenvalues --    0.06479   0.06884   0.07019   0.07755   0.08803
 Alpha virt. eigenvalues --    0.09384   0.09575   0.10346   0.10897   0.12468

 Mulliken charges:
               1
     1  Si   1.298766
     2  C    0.298325
     3  C    0.229135
     4  H   -0.165434
     5  H   -0.245509
     6  H   -0.114450
     7  H   -0.078650
     8  H   -0.096806
     9  C    0.485754
    10  H   -0.153649
    11  H   -0.268684
    12  H   -0.258719
    13  C    0.470773
    14  H   -0.172944
    15  H   -0.278548
    16  H   -0.274180
    17  Cl  -0.675180
 Sum of Mulliken charges =  -0.00000

 Dipole moment (field-independent basis, Debye):
    X=             -0.7651    Y=             -2.4956    Z=             -0.0293  Tot=              2.6104

 Test job not archived.
 1\1\GINC-SE058\SP\RHF\Aug-CC-pVDZ\C4H11Cl1Si1\OHZDE\08-Apr-2025\0\\#t
 hf aug-cc-pvdz iop(5/13=1,5/36=2,99/5=2) pseudo=read geom=check guess=
 (read,tcheck) scf=(maxcycle=1)\\title\\0,1\Si,0,0.280054,-0.376056,0.0
 0029\C,0,-1.427,-0.504206,-0.775385\C,0,-2.559296,0.244385,-0.05161\H,
 0,-1.665822,-1.574547,-0.841069\H,0,-1.347655,-0.153578,-1.810967\H,0,
 -2.700005,-0.125267,0.96795\H,0,-3.511246,0.124013,-0.576171\H,0,-2.34
 956,1.314936,0.011446\C,0,1.550938,-1.29678,-1.019056\H,0,1.320022,-2.
 367021,-1.042534\H,0,2.552996,-1.176289,-0.599444\H,0,1.570522,-0.9315

 Normal termination of Gaussian 16 at Tue Apr  8 23:44:55 2025.
