 Gaussian 16, Revision C.01,

 ----------------------------------------------------------------------
 #t hf aug-cc-pvdz symm=none int=(grid=ultrafine) guess=(read,tcheck) s
 table=(opt,rrhf)
 ----------------------------------------------------------------------
 -----
 title
 -----
 Symbolic Z-matrix:
 Charge =  0 Multiplicity = 1

 SCF Done:  E(RHF) =  -857.605121623     A.U. after   11 cycles

 1\1\GINC-SE116\Stability\RHF\Aug-CC-pVDZ\Cl1H1S1\OHZDE\09-Apr-2025\0\\
 #t hf aug-cc-pvdz symm=none int=(grid=ultrafine) guess=(read,tcheck) s
 table=(opt,rrhf)\\title\\0,1\S,0,0.039387,1.034531,0.\Cl,0,0.039387,-1
 .0422,0.\H,0,-1.299773,1.164902,0.\\Version=ES64L-G16RevC.01\HF=-857.6
 051216\RMSD=8.566e-09\Dipole=-0.387951,0.4382025,0.\Quadrupole=0.88642
 61,1.1479337,-2.0343598,-1.1641096,0.,0.\PG=Unknown\\@
 The archive entry for this job was punched.

 Normal termination of Gaussian 16 at Wed Apr  9 00:17:54 2025.
 Gaussian 16:  ES64L-G16RevC.01  3-Jul-2019

 ----------------------------------------------------------------------
 #t hf aug-cc-pvdz iop(5/13=1,5/36=2,99/5=2) pseudo=read geom=check gue
 ss=(read,tcheck) scf=(maxcycle=1)
 ----------------------------------------------------------------------
 -----
 title
 -----
 Structure from the checkpoint file:  "BDE49_nonexpt_2592_mol1.chk"
 Charge =  0 Multiplicity = 1

                         Standard orientation:
 ---------------------------------------------------------------------
 Center     Atomic      Atomic             Coordinates (Angstroms)
 Number     Number       Type             X           Y           Z
 ---------------------------------------------------------------------
      1         16           0        0.039387    1.034531    0.000000
      2         17           0        0.039387   -1.042200    0.000000
      3          1           0       -1.299773    1.164902    0.000000
 ---------------------------------------------------------------------

 SCF Done:  E(RHF) =  -857.646662429     A.U. after    2 cycles

 The electronic state is 1-A'.
 Alpha  occ. eigenvalues -- -103.68844 -93.60937 -10.71985  -8.90321  -8.37722
 Alpha  occ. eigenvalues --   -8.37357  -8.37332  -6.24383  -6.24157  -6.23719
 Alpha  occ. eigenvalues --   -1.17459  -0.94267  -0.60972  -0.53829  -0.52593
 Alpha  occ. eigenvalues --   -0.47018  -0.38753
 Alpha virt. eigenvalues --    0.02801   0.04185   0.10965   0.11783   0.12193
 Alpha virt. eigenvalues --    0.13026   0.15919   0.16361   0.17904   0.20105
 Alpha virt. eigenvalues --    0.28333   0.28415   0.30760   0.35768   0.42428

 Mulliken charges:
               1
     1  S    0.146002
     2  Cl  -0.302234
     3  H    0.156233
 Sum of Mulliken charges =   0.00000

 Dipole moment (field-independent basis, Debye):
    X=             -0.9531    Y=              1.2470    Z=              0.0000  Tot=              1.5695

 Test job not archived.
 1\1\GINC-SE116\SP\RHF\Aug-CC-pVDZ\Cl1H1S1\OHZDE\09-Apr-2025\0\\#t hf a
 ug-cc-pvdz iop(5/13=1,5/36=2,99/5=2) pseudo=read geom=check guess=(rea
 d,tcheck) scf=(maxcycle=1)\\title\\0,1\S,0,0.039387,1.034531,0.\Cl,0,0
 .039387,-1.0422,0.\H,0,-1.299773,1.164902,0.\\Version=ES64L-G16RevC.01
 \State=1-A'\HF=-857.6466624\RMSD=5.514e-03\Dipole=-0.3749873,0.4905927
 ,0.\Quadrupole=0.8467146,1.2057987,-2.0525132,-1.1421652,0.,0.\PG=CS [
 SG(Cl1H1S1)]\\@

 Normal termination of Gaussian 16 at Wed Apr  9 00:17:56 2025.
