 Gaussian 16, Revision C.01,

 ----------------------------------------------------------------------
 #t hf aug-cc-pvdz symm=none int=(grid=ultrafine) guess=(read,tcheck) s
 table=(opt,rrhf)
 ----------------------------------------------------------------------
 -----
 title
 -----
 Symbolic Z-matrix:
 Charge =  0 Multiplicity = 1

 SCF Done:  E(RHF) =  -515.809009767     A.U. after   12 cycles
 Normal termination of Gaussian 16 at Tue Apr  8 22:44:30 2025.
 Gaussian 16:  ES64L-G16RevC.01  3-Jul-2019

 ----------------------------------------------------------------------
 #t hf aug-cc-pvdz iop(5/13=1,5/36=2,99/5=2) pseudo=read geom=check gue
 ss=(read,tcheck) scf=(maxcycle=1)
 ----------------------------------------------------------------------
 -----
 title
 -----
 Structure from the checkpoint file:  "BDE49_expt_1547_mol1.chk"
 Charge =  0 Multiplicity = 1

                         Standard orientation:
 ---------------------------------------------------------------------
 Center     Atomic      Atomic             Coordinates (Angstroms)
 Number     Number       Type             X           Y           Z
 ---------------------------------------------------------------------
      1         16           0       -1.751441    0.016062    0.000000
      2          6           0        0.000000    0.596137    0.000000
      3          6           0        0.942601   -0.608399    0.000000
      4          1           0        0.168551    1.209200    0.887623
      5          1           0        0.168551    1.209200   -0.887623
      6          1           0       -2.326424    1.230657    0.000000
      7          6           0        2.416100   -0.188140    0.000000
      8          1           0        0.735264   -1.229163   -0.877925
      9          1           0        0.735264   -1.229163    0.877925
     10          1           0        2.659473    0.409028   -0.883908
     11          1           0        3.070698   -1.063378    0.000000
     12          1           0        2.659473    0.409028    0.883908
 ---------------------------------------------------------------------

 SCF Done:  E(RHF) =  -515.867997282     A.U. after    2 cycles

 The electronic state is 1-A'.
 Alpha  occ. eigenvalues --  -93.52956 -11.27114 -11.24290 -11.23313  -8.82693
 Alpha  occ. eigenvalues --   -6.16872  -6.16631  -6.16286  -1.07506  -0.98211
 Alpha  occ. eigenvalues --   -0.87440  -0.80273  -0.65089  -0.59208  -0.58907
 Alpha  occ. eigenvalues --   -0.56219  -0.50663  -0.48867  -0.48318  -0.44414
 Alpha  occ. eigenvalues --   -0.35213
 Alpha virt. eigenvalues --    0.03523   0.04336   0.05071   0.05156   0.06855
 Alpha virt. eigenvalues --    0.07348   0.07865   0.08196   0.10763   0.11585
 Alpha virt. eigenvalues --    0.12861   0.14729   0.15647   0.16503   0.16609

 Mulliken charges:
               1
     1  S    0.308342
     2  C   -0.078102
     3  C    0.090269
     4  H   -0.150810
     5  H   -0.150810
     6  H    0.040608
     7  C    0.332249
     8  H   -0.096952
     9  H   -0.096952
    10  H   -0.063225
    11  H   -0.071392
    12  H   -0.063225
 Sum of Mulliken charges =  -0.00000

 Dipole moment (field-independent basis, Debye):
    X=              1.4687    Y=              1.0442    Z=             -0.0000  Tot=              1.8021

 Test job not archived.
 1\1\GINC-SE334\SP\RHF\Aug-CC-pVDZ\C3H8S1\OHZDE\08-Apr-2025\0\\#t hf au
 g-cc-pvdz iop(5/13=1,5/36=2,99/5=2) pseudo=read geom=check guess=(read
 ,tcheck) scf=(maxcycle=1)\\title\\0,1\S,0,-1.751441,0.016062,0.\C,0,0.
 ,0.596137,0.\C,0,0.942601,-0.608399,0.\H,0,0.168551,1.2092,0.887623\H,
 0,0.168551,1.2092,-0.887623\H,0,-2.326424,1.230657,0.\C,0,2.4161,-0.18
 814,0.\H,0,0.735264,-1.229163,-0.877925\H,0,0.735264,-1.229163,0.87792
 5\H,0,2.659473,0.409028,-0.883908\H,0,3.070698,-1.063378,0.\H,0,2.6594
 73,0.409028,0.883908\\Version=ES64L-G16RevC.01\State=1-A'\HF=-515.8679

 Normal termination of Gaussian 16 at Tue Apr  8 22:44:34 2025.
