 Gaussian 16, Revision C.01,

 ----------------------------------------------------------------------
 #t hf aug-cc-pvdz symm=none int=(grid=ultrafine) guess=(read,tcheck) s
 table=(opt,rrhf)
 ----------------------------------------------------------------------
 -----
 title
 -----
 Symbolic Z-matrix:
 Charge =  0 Multiplicity = 1

 SCF Done:  E(RHF) =  -404.064447303     A.U. after   13 cycles
 Normal termination of Gaussian 16 at Wed Apr  9 00:38:44 2025.
 Gaussian 16:  ES64L-G16RevC.01  3-Jul-2019

 ----------------------------------------------------------------------
 #t hf aug-cc-pvdz iop(5/13=1,5/36=2,99/5=2) pseudo=read geom=check gue
 ss=(read,tcheck) scf=(maxcycle=1)
 ----------------------------------------------------------------------
 -----
 title
 -----
 Structure from the checkpoint file:  "BDE49_nonexpt_639_mol1.chk"
 Charge =  0 Multiplicity = 1

                         Standard orientation:
 ---------------------------------------------------------------------
 Center     Atomic      Atomic             Coordinates (Angstroms)
 Number     Number       Type             X           Y           Z
 ---------------------------------------------------------------------
      1          8           0       -0.206346   -0.439656   -0.634474
      2          5           0       -1.384683   -0.037673   -0.007722
      3          8           0       -2.368473   -0.976938   -0.005611
      4          8           0       -1.546848    1.186024    0.562429
      5          8           0        0.745993    0.665451   -0.614545
      6          6           0        2.041539    0.082594   -0.456647
      7          6           0        2.276951   -0.518289    0.919857
      8          1           0        2.702192    0.934554   -0.643741
      9          1           0        2.191979   -0.653524   -1.252211
     10          1           0        2.119054    0.228763    1.701913
     11          1           0        3.304703   -0.884256    0.996779
     12          1           0        1.602421   -1.357564    1.094604
     13          1           0       -0.743529    1.710390    0.463172
     14          1           0       -3.158946   -0.654876    0.436440
 ---------------------------------------------------------------------

 SCF Done:  E(RHF) =  -404.203010146     A.U. after    2 cycles

 The electronic state is 1-A.
 Alpha  occ. eigenvalues --  -20.65297 -20.63277 -20.58451 -20.58199 -11.30543
 Alpha  occ. eigenvalues --  -11.23823  -7.69229  -1.43339  -1.34632  -1.31588
 Alpha  occ. eigenvalues --   -1.21541  -1.01381  -0.85801  -0.78842  -0.76762
 Alpha  occ. eigenvalues --   -0.72351  -0.69988  -0.66475  -0.62050  -0.60671
 Alpha  occ. eigenvalues --   -0.59213  -0.58641  -0.55596  -0.54857  -0.53354
 Alpha  occ. eigenvalues --   -0.52830  -0.50385  -0.46664
 Alpha virt. eigenvalues --    0.03276   0.04513   0.04835   0.05001   0.06312
 Alpha virt. eigenvalues --    0.06746   0.07246   0.07697   0.08672   0.09822
 Alpha virt. eigenvalues --    0.10867   0.12956   0.14050   0.14569   0.16035

 Mulliken charges:
               1
     1  O   -0.282744
     2  B    0.830051
     3  O   -0.479425
     4  O   -0.340923
     5  O   -0.600094
     6  C    0.789380
     7  C    0.149345
     8  H   -0.192197
     9  H   -0.133576
    10  H   -0.029488
    11  H   -0.045932
    12  H   -0.033744
    13  H    0.219159
    14  H    0.150188
 Sum of Mulliken charges =   0.00000

 Dipole moment (field-independent basis, Debye):
    X=              1.9442    Y=              0.9039    Z=              1.1020  Tot=              2.4107

 Test job not archived.
 1\1\GINC-SE141\SP\RHF\Aug-CC-pVDZ\C2H7B1O4\OHZDE\09-Apr-2025\0\\#t hf
 aug-cc-pvdz iop(5/13=1,5/36=2,99/5=2) pseudo=read geom=check guess=(re
 ad,tcheck) scf=(maxcycle=1)\\title\\0,1\O,0,-0.206346,-0.439656,-0.634
 474\B,0,-1.384683,-0.037673,-0.007722\O,0,-2.368473,-0.976938,-0.00561
 1\O,0,-1.546848,1.186024,0.562429\O,0,0.745993,0.665451,-0.614545\C,0,
 2.041539,0.082594,-0.456647\C,0,2.276951,-0.518289,0.919857\H,0,2.7021
 92,0.934554,-0.643741\H,0,2.191979,-0.653524,-1.252211\H,0,2.119054,0.
 228763,1.701913\H,0,3.304703,-0.884256,0.996779\H,0,1.602421,-1.357564

 Normal termination of Gaussian 16 at Wed Apr  9 00:38:49 2025.
