 Gaussian 16, Revision C.01,

 ----------------------------------------------------------------------
 #t hf aug-cc-pvdz symm=none int=(grid=ultrafine) guess=(read,tcheck) s
 table=(opt,rrhf)
 ----------------------------------------------------------------------
 -----
 title
 -----
 Symbolic Z-matrix:
 Charge =  0 Multiplicity = 1

 SCF Done:  E(RHF) =  -802.699525404     A.U. after   13 cycles
 Normal termination of Gaussian 16 at Wed Apr  9 00:05:29 2025.
 Gaussian 16:  ES64L-G16RevC.01  3-Jul-2019

 ----------------------------------------------------------------------
 #t hf aug-cc-pvdz iop(5/13=1,5/36=2,99/5=2) pseudo=read geom=check gue
 ss=(read,tcheck) scf=(maxcycle=1)
 ----------------------------------------------------------------------
 -----
 title
 -----
 Structure from the checkpoint file:  "BDE49_nonexpt_2263_mol1.chk"
 Charge =  0 Multiplicity = 1

                         Standard orientation:
 ---------------------------------------------------------------------
 Center     Atomic      Atomic             Coordinates (Angstroms)
 Number     Number       Type             X           Y           Z
 ---------------------------------------------------------------------
      1          6           0       -1.966457    0.848504   -0.008949
      2         16           0       -0.999520   -0.670367   -0.157935
      3          1           0       -1.490716    1.681602   -0.527221
      4          1           0       -2.129690    1.088710    1.041986
      5          1           0       -2.927977    0.630439   -0.482787
      6          8           0        0.387942   -0.205441    0.707580
      7         14           0        1.765958    0.206103   -0.143787
      8          1           0        2.748848    0.582688    0.891754
      9          1           0        1.501609    1.346759   -1.050569
     10          1           0        2.262038   -0.937266   -0.940132
 ---------------------------------------------------------------------

 SCF Done:  E(RHF) =  -802.794085791     A.U. after    2 cycles

 The electronic state is 1-A.
 Alpha  occ. eigenvalues --  -93.58940 -69.09888 -20.59153 -11.27442  -8.87989
 Alpha  occ. eigenvalues --   -6.84691  -6.22202  -6.21837  -6.21485  -3.95596
 Alpha  occ. eigenvalues --   -3.95463  -3.95431  -1.31064  -1.02422  -0.85506
 Alpha  occ. eigenvalues --   -0.71820  -0.62569  -0.61316  -0.61049  -0.58111
 Alpha  occ. eigenvalues --   -0.55832  -0.48628  -0.47607  -0.44536  -0.35293
 Alpha virt. eigenvalues --    0.03495   0.04620   0.05353   0.05857   0.06629
 Alpha virt. eigenvalues --    0.07318   0.07566   0.09485   0.09638   0.09968
 Alpha virt. eigenvalues --    0.12165   0.13561   0.15319   0.15481   0.15635

 Mulliken charges:
               1
     1  C    0.007724
     2  S    0.641921
     3  H   -0.093304
     4  H   -0.039188
     5  H   -0.048551
     6  O   -1.073234
     7  Si   0.697229
     8  H   -0.004992
     9  H   -0.054603
    10  H   -0.033001
 Sum of Mulliken charges =  -0.00000

 Dipole moment (field-independent basis, Debye):
    X=             -0.8374    Y=              1.4011    Z=             -0.8046  Tot=              1.8198

 Test job not archived.
 1\1\GINC-SE362\SP\RHF\Aug-CC-pVDZ\C1H6O1S1Si1\OHZDE\09-Apr-2025\0\\#t
 hf aug-cc-pvdz iop(5/13=1,5/36=2,99/5=2) pseudo=read geom=check guess=
 (read,tcheck) scf=(maxcycle=1)\\title\\0,1\C,0,-1.966457,0.848505,-0.0
 08949\S,0,-0.99952,-0.670367,-0.157935\H,0,-1.490716,1.681602,-0.52722
 1\H,0,-2.12969,1.088711,1.041986\H,0,-2.927977,0.63044,-0.482787\O,0,0
 .387942,-0.205441,0.70758\Si,0,1.765958,0.206103,-0.143787\H,0,2.74884
 8,0.582687,0.891754\H,0,1.501609,1.346759,-1.050569\H,0,2.262038,-0.93
 7266,-0.940132\\Version=ES64L-G16RevC.01\State=1-A\HF=-802.7940858\RMS

 Normal termination of Gaussian 16 at Wed Apr  9 00:05:32 2025.
