 Gaussian 16, Revision C.01,

 ----------------------------------------------------------------------
 #t hf aug-cc-pvdz symm=none int=(grid=ultrafine) guess=(read,tcheck) s
 table=(opt,rrhf)
 ----------------------------------------------------------------------
 -----
 title
 -----
 Symbolic Z-matrix:
 Charge =  0 Multiplicity = 1

 SCF Done:  E(RHF) =  -517.613151283     A.U. after   12 cycles
 Normal termination of Gaussian 16 at Wed Apr  9 00:41:59 2025.
 Gaussian 16:  ES64L-G16RevC.01  3-Jul-2019

 ----------------------------------------------------------------------
 #t hf aug-cc-pvdz iop(5/13=1,5/36=2,99/5=2) pseudo=read geom=check gue
 ss=(read,tcheck) scf=(maxcycle=1)
 ----------------------------------------------------------------------
 -----
 title
 -----
 Structure from the checkpoint file:  "BDE49_nonexpt_748_mol1.chk"
 Charge =  0 Multiplicity = 1

                         Standard orientation:
 ---------------------------------------------------------------------
 Center     Atomic      Atomic             Coordinates (Angstroms)
 Number     Number       Type             X           Y           Z
 ---------------------------------------------------------------------
      1         15           0        1.415948   -0.000000   -0.119949
      2          5           0       -0.545805    0.000000    0.013132
      3          8           0       -1.270573   -1.152979    0.003672
      4          8           0       -1.270573    1.152979    0.003672
      5          1           0       -0.739270    1.951340    0.021619
      6          1           0       -0.739270   -1.951340    0.021618
      7          1           0        1.648754   -1.040552    0.815789
      8          1           0        1.648754    1.040554    0.815787
 ---------------------------------------------------------------------

 SCF Done:  E(RHF) =  -517.695222484     A.U. after    2 cycles

 The electronic state is 1-A.
 Alpha  occ. eigenvalues --  -81.25245 -20.59124 -20.59123  -7.75859  -7.68569
 Alpha  occ. eigenvalues --   -4.89852  -4.89784  -4.89523  -1.35318  -1.32161
 Alpha  occ. eigenvalues --   -0.82243  -0.80845  -0.70587  -0.63898  -0.62057
 Alpha  occ. eigenvalues --   -0.60055  -0.53128  -0.52153  -0.46117  -0.36473
 Alpha virt. eigenvalues --    0.02811   0.04981   0.05671   0.06152   0.07392
 Alpha virt. eigenvalues --    0.07668   0.09651   0.10013   0.10157   0.10607
 Alpha virt. eigenvalues --    0.13545   0.15879   0.17596   0.18337   0.20370

 Mulliken charges:
               1
     1  P   -0.455281
     2  B    0.759526
     3  O   -0.479800
     4  O   -0.479800
     5  H    0.223701
     6  H    0.223701
     7  H    0.103977
     8  H    0.103977
 Sum of Mulliken charges =  -0.00000

 Dipole moment (field-independent basis, Debye):
    X=              2.0610    Y=              0.0000    Z=              0.6420  Tot=              2.1587

 Test job not archived.
 1\1\GINC-SE127\SP\RHF\Aug-CC-pVDZ\B1H4O2P1\OHZDE\09-Apr-2025\0\\#t hf
 aug-cc-pvdz iop(5/13=1,5/36=2,99/5=2) pseudo=read geom=check guess=(re
 ad,tcheck) scf=(maxcycle=1)\\title\\0,1\P,0,1.415948,0.,-0.119949\B,0,
 -0.545805,0.,0.013132\O,0,-1.270573,-1.152979,0.003672\O,0,-1.270573,1
 .152979,0.003672\H,0,-0.73927,1.95134,0.021619\H,0,-0.73927,-1.95134,0
 .021618\H,0,1.648754,-1.040552,0.815789\H,0,1.648754,1.040554,0.815787
 \\Version=ES64L-G16RevC.01\State=1-A\HF=-517.6952225\RMSD=8.686e-03\Di
 pole=0.8108669,0.0000001,0.2525789\Quadrupole=-5.7479401,6.0756554,-0.

 Normal termination of Gaussian 16 at Wed Apr  9 00:42:01 2025.
