 Gaussian 16, Revision C.01,

 ----------------------------------------------------------------------
 #t hf aug-cc-pvdz symm=none int=(grid=ultrafine) guess=(read,tcheck) s
 table=(opt,rrhf)
 ----------------------------------------------------------------------
 -----
 title
 -----
 Symbolic Z-matrix:
 Charge =  0 Multiplicity = 1

 SCF Done:  E(RHF) =  -704.368372804     A.U. after   15 cycles
 Normal termination of Gaussian 16 at Wed Apr  9 00:20:41 2025.
 Gaussian 16:  ES64L-G16RevC.01  3-Jul-2019

 ----------------------------------------------------------------------
 #t hf aug-cc-pvdz iop(5/13=1,5/36=2,99/5=2) pseudo=read geom=check gue
 ss=(read,tcheck) scf=(maxcycle=1)
 ----------------------------------------------------------------------
 -----
 title
 -----
 Structure from the checkpoint file:  "BDE49_nonexpt_2657_mol1.chk"
 Charge =  0 Multiplicity = 1

                         Standard orientation:
 ---------------------------------------------------------------------
 Center     Atomic      Atomic             Coordinates (Angstroms)
 Number     Number       Type             X           Y           Z
 ---------------------------------------------------------------------
      1          9           0       -1.701955   -1.259989   -0.000111
      2         16           0       -1.466588    0.412449    0.000042
      3          6           0        0.326071    0.535014    0.000037
      4          8           0        0.747902    1.672225   -0.000029
      5          7           0        1.009311   -0.621961    0.000040
      6          6           0        2.465948   -0.668282    0.000002
      7          1           0        0.473948   -1.477708    0.000073
      8          1           0        2.836825   -1.180835    0.891024
      9          1           0        2.834948    0.355681   -0.000037
     10          1           0        2.836776   -1.180886   -0.891010
 ---------------------------------------------------------------------

 SCF Done:  E(RHF) =  -704.491957166     A.U. after    2 cycles

 The electronic state is 1-A.
 Alpha  occ. eigenvalues --  -93.64476 -26.14949 -20.57081 -15.68155 -11.42029
 Alpha  occ. eigenvalues --  -11.29404  -8.93406  -6.27570  -6.27193  -6.26735
 Alpha  occ. eigenvalues --   -1.65734  -1.38604  -1.23351  -1.03254  -0.95591
 Alpha  occ. eigenvalues --   -0.81814  -0.78180  -0.75173  -0.74041  -0.67818
 Alpha  occ. eigenvalues --   -0.65817  -0.65530  -0.58685  -0.57752  -0.57065
 Alpha  occ. eigenvalues --   -0.45789  -0.42924  -0.40539
 Alpha virt. eigenvalues --    0.02946   0.04518   0.04978   0.06360   0.06646
 Alpha virt. eigenvalues --    0.08257   0.10743   0.11738   0.12406   0.13041
 Alpha virt. eigenvalues --    0.13460   0.14964   0.15517   0.16481   0.16749

 Mulliken charges:
               1
     1  F   -0.648276
     2  S    0.898496
     3  C    0.073517
     4  O   -0.447640
     5  N   -0.243355
     6  C    0.734601
     7  H   -0.020890
     8  H   -0.092536
     9  H   -0.161376
    10  H   -0.092540
 Sum of Mulliken charges =  -0.00000

 Dipole moment (field-independent basis, Debye):
    X=              1.5501    Y=             -2.5437    Z=              0.0003  Tot=              2.9788

 Test job not archived.
 1\1\GINC-SE284\SP\RHF\Aug-CC-pVDZ\C2H4F1N1O1S1\OHZDE\09-Apr-2025\0\\#t
  hf aug-cc-pvdz iop(5/13=1,5/36=2,99/5=2) pseudo=read geom=check guess
 =(read,tcheck) scf=(maxcycle=1)\\title\\0,1\F,0,-1.701955,-1.259989,-0
 .000111\S,0,-1.466588,0.412449,0.000042\C,0,0.326071,0.535014,0.000037
 \O,0,0.747902,1.672225,-0.000029\N,0,1.009311,-0.621961,0.00004\C,0,2.
 465948,-0.668282,0.000002\H,0,0.473948,-1.477708,0.000073\H,0,2.836825
 ,-1.180835,0.891024\H,0,2.834948,0.355681,-0.000037\H,0,2.836776,-1.18
 0886,-0.89101\\Version=ES64L-G16RevC.01\State=1-A\HF=-704.4919572\RMSD

 Normal termination of Gaussian 16 at Wed Apr  9 00:20:44 2025.
