 Gaussian 16, Revision C.01,

 ----------------------------------------------------------------------
 #t hf aug-cc-pvdz symm=none int=(grid=ultrafine) guess=(read,tcheck) s
 table=(opt,rrhf)
 ----------------------------------------------------------------------
 -----
 title
 -----
 Symbolic Z-matrix:
 Charge =  0 Multiplicity = 1

 SCF Done:  E(RHF) =  -314.572103181     A.U. after   12 cycles
 Normal termination of Gaussian 16 at Wed Apr  9 00:38:15 2025.
 Gaussian 16:  ES64L-G16RevC.01  3-Jul-2019

 ----------------------------------------------------------------------
 #t hf aug-cc-pvdz iop(5/13=1,5/36=2,99/5=2) pseudo=read geom=check gue
 ss=(read,tcheck) scf=(maxcycle=1)
 ----------------------------------------------------------------------
 -----
 title
 -----
 Structure from the checkpoint file:  "BDE49_nonexpt_577_mol1.chk"
 Charge =  0 Multiplicity = 1

                         Standard orientation:
 ---------------------------------------------------------------------
 Center     Atomic      Atomic             Coordinates (Angstroms)
 Number     Number       Type             X           Y           Z
 ---------------------------------------------------------------------
      1          6           0        0.684424   -0.000000    0.173482
      2          6           0       -0.079095    1.266250   -0.251585
      3          6           0       -1.524212    1.266625    0.267945
      4          6           0       -2.279165   -0.000000   -0.157879
      5          6           0       -1.524212   -1.266625    0.267945
      6          6           0       -0.079095   -1.266250   -0.251585
      7          5           0        3.236613   -0.000001    0.369216
      8          1           0       -0.086197    1.320840   -1.349218
      9          1           0        0.461445    2.148821    0.103175
     10          1           0       -2.047125    2.160243   -0.086748
     11          1           0       -1.513215    1.329188    1.363676
     12          1           0       -2.399069   -0.000000   -1.249082
     13          1           0       -3.288250   -0.000000    0.266126
     14          1           0       -2.047125   -2.160242   -0.086747
     15          1           0       -1.513215   -1.329187    1.363676
     16          1           0        0.461445   -2.148821    0.103175
     17          1           0       -0.086197   -1.320840   -1.349218
     18          7           0        2.050413    0.000000   -0.350781
     19          1           0        0.776968   -0.000000    1.264689
     20          1           0        4.272222    0.000002   -0.223635
     21          1           0        3.193535    0.000002    1.562590
     22          1           0        2.086949    0.000001   -1.363002
 ---------------------------------------------------------------------

 SCF Done:  E(RHF) =  -314.669119679     A.U. after    2 cycles

 The electronic state is 1-A.
 Alpha  occ. eigenvalues --  -15.61506 -11.26827 -11.23043 -11.23039 -11.22933
 Alpha  occ. eigenvalues --  -11.22930 -11.22906  -7.58930  -1.16880  -1.08707
 Alpha  occ. eigenvalues --   -1.00037  -0.97499  -0.83766  -0.82706  -0.76829
 Alpha  occ. eigenvalues --   -0.71182  -0.66334  -0.62261  -0.60698  -0.59508
 Alpha  occ. eigenvalues --   -0.57499  -0.54749  -0.53397  -0.53257  -0.49018
 Alpha  occ. eigenvalues --   -0.48808  -0.46633  -0.46143  -0.45124  -0.43975
 Alpha  occ. eigenvalues --   -0.38638
 Alpha virt. eigenvalues --    0.03271   0.03630   0.03975   0.04212   0.05605
 Alpha virt. eigenvalues --    0.05928   0.06004   0.06433   0.06768   0.08020
 Alpha virt. eigenvalues --    0.08443   0.08515   0.09048   0.09125   0.10311

 Mulliken charges:
               1
     1  C    0.027192
     2  C    0.464534
     3  C    0.275758
     4  C    0.282583
     5  C    0.275762
     6  C    0.464534
     7  B   -0.715596
     8  H   -0.102453
     9  H   -0.094755
    10  H   -0.114116
    11  H   -0.071740
    12  H   -0.082297
    13  H   -0.123259
    14  H   -0.114119
    15  H   -0.071739
    16  H   -0.094756
    17  H   -0.102453
    18  N   -0.405397
    19  H   -0.306362
    20  H    0.391343
    21  H    0.247806
    22  H   -0.030469
 Sum of Mulliken charges =  -0.00000

 Dipole moment (field-independent basis, Debye):
    X=             -1.8112    Y=             -0.0000    Z=             -0.7783  Tot=              1.9713

 Test job not archived.
 1\1\GINC-SE143\SP\RHF\Aug-CC-pVDZ\C6H14B1N1\OHZDE\09-Apr-2025\0\\#t hf
  aug-cc-pvdz iop(5/13=1,5/36=2,99/5=2) pseudo=read geom=check guess=(r
 ead,tcheck) scf=(maxcycle=1)\\title\\0,1\C,0,-0.684424,0.,0.173482\C,0
 ,0.079095,-1.26625,-0.251585\C,0,1.524212,-1.266625,0.267945\C,0,2.279
 165,0.,-0.157879\C,0,1.524212,1.266625,0.267945\C,0,0.079095,1.26625,-
 0.251585\B,0,-3.236613,0.000001,0.369216\H,0,0.086197,-1.32084,-1.3492
 18\H,0,-0.461445,-2.148821,0.103175\H,0,2.047125,-2.160243,-0.086748\H
 ,0,1.513215,-1.329188,1.363676\H,0,2.399069,0.,-1.249082\H,0,3.28825,0

 Normal termination of Gaussian 16 at Wed Apr  9 00:38:27 2025.
