 Gaussian 16, Revision C.01,

 ----------------------------------------------------------------------
 #t hf aug-cc-pvdz symm=none int=(grid=ultrafine) guess=(read,tcheck) s
 table=opt
 ----------------------------------------------------------------------
 -----
 title
 -----
 Symbolic Z-matrix:
 Charge =  0 Multiplicity = 2

 SCF Done:  E(UHF) =  -213.406217684     A.U. after   21 cycles
 Normal termination of Gaussian 16 at Wed Apr  9 00:34:17 2025.
 Gaussian 16:  ES64L-G16RevC.01  3-Jul-2019

 ----------------------------------------------------------------------
 #t hf aug-cc-pvdz iop(5/13=1,5/36=2,99/5=2) pseudo=read geom=check gue
 ss=(read,tcheck) scf=(maxcycle=1)
 ----------------------------------------------------------------------
 -----
 title
 -----
 Structure from the checkpoint file:  "BDE49_nonexpt_476_mol2.chk"
 Charge =  0 Multiplicity = 2

                         Standard orientation:
 ---------------------------------------------------------------------
 Center     Atomic      Atomic             Coordinates (Angstroms)
 Number     Number       Type             X           Y           Z
 ---------------------------------------------------------------------
      1          1           0       -2.294701   -1.036434    0.517369
      2          5           0       -1.365243   -0.743208   -0.142271
      3          6           0       -0.047767   -0.011969   -0.007278
      4          8           0       -0.204724    1.204144    0.008312
      5          8           0        1.152837   -0.612481    0.015750
      6          1           0        1.822610    0.090985    0.045159
 ---------------------------------------------------------------------

 SCF Done:  E(UHF) =  -213.473896765     A.U. after    2 cycles

 The electronic state is 2-A.
 Alpha  occ. eigenvalues --  -20.63982 -20.58780 -11.39370  -7.68004  -1.43493
 Alpha  occ. eigenvalues --   -1.34354  -0.90893  -0.76987  -0.73237  -0.66401
 Alpha  occ. eigenvalues --   -0.64765  -0.58982  -0.54319  -0.48542  -0.36273
 Alpha virt. eigenvalues --    0.02946   0.03938   0.05176   0.05343   0.07059
 Alpha virt. eigenvalues --    0.08395   0.09597   0.12976   0.14642   0.15264
 Alpha virt. eigenvalues --    0.16101   0.19596   0.20723   0.21129   0.21745

  Beta  occ. eigenvalues --  -20.64042 -20.57816 -11.39710  -7.66236  -1.43209
  Beta  occ. eigenvalues --   -1.32823  -0.89736  -0.75193  -0.72604  -0.65348
  Beta  occ. eigenvalues --   -0.62633  -0.58209  -0.49027  -0.47345
  Beta virt. eigenvalues --    0.03410   0.03820   0.04297   0.05262   0.07075
  Beta virt. eigenvalues --    0.07513   0.09550   0.10329   0.13234   0.15066
  Beta virt. eigenvalues --    0.15415   0.19443   0.20536   0.20877   0.22062

 Mulliken charges and spin densities:
               1          2
     1  H    0.354122  -0.037820
     2  B   -0.318203   0.979628
     3  C    0.762458  -0.149274
     4  O   -0.521775   0.209016
     5  O   -0.430111   0.001554
     6  H    0.153509  -0.003104
 Sum of Mulliken charges =  -0.00000   1.00000

 Dipole moment (field-independent basis, Debye):
    X=              0.4271    Y=             -1.6971    Z=              0.3940  Tot=              1.7938
                          Isotropic Fermi Contact Couplings
        Atom                 a.u.       MegaHertz       Gauss      10(-4) cm-1
     1  H(1)              -0.00901     -40.25649     -14.36452     -13.42812
     2  B(11)              0.22896     328.40568     117.18331     109.54434
     3  C(13)             -0.03835     -43.11223     -15.38351     -14.38069
     4  O(17)              0.08206     -49.74406     -17.74992     -16.59283
     5  O(17)             -0.01333       8.07839       2.88257       2.69466
     6  H(1)              -0.00035      -1.55397      -0.55450      -0.51835
 --------------------------------------------------------
       Center         ----  Spin Dipole Couplings  ----

 Normal termination of Gaussian 16 at Wed Apr  9 00:34:19 2025.
