 Gaussian 16, Revision C.01,

 ----------------------------------------------------------------------
 #t hf aug-cc-pvdz symm=none int=(grid=ultrafine) guess=(read,tcheck) s
 table=(opt,rrhf)
 ----------------------------------------------------------------------
 -----
 title
 -----
 Symbolic Z-matrix:
 Charge =  0 Multiplicity = 1

 SCF Done:  E(RHF) =  -1223.44516443     A.U. after   15 cycles
 Normal termination of Gaussian 16 at Tue Apr  8 23:09:24 2025.
 Gaussian 16:  ES64L-G16RevC.01  3-Jul-2019

 ----------------------------------------------------------------------
 #t hf aug-cc-pvdz iop(5/13=1,5/36=2,99/5=2) pseudo=read geom=check gue
 ss=(read,tcheck) scf=(maxcycle=1)
 ----------------------------------------------------------------------
 -----
 title
 -----
 Structure from the checkpoint file:  "BDE49_expt_763_mol1.chk"
 Charge =  0 Multiplicity = 1

                         Standard orientation:
 ---------------------------------------------------------------------
 Center     Atomic      Atomic             Coordinates (Angstroms)
 Number     Number       Type             X           Y           Z
 ---------------------------------------------------------------------
      1          6           0        0.012692   -1.687812    0.000000
      2          6           0        1.200450   -0.960233    0.000000
      3          6           0        1.210457    0.426724    0.000000
      4          6           0       -1.192545   -0.994661    0.000000
      5          6           0       -1.195734    0.393767    0.000000
      6          6           0        0.000000    1.124039    0.000000
      7          8           0        0.043609    2.474845    0.000000
      8          1           0       -0.861076    2.816728    0.000000
      9          1           0        2.135896    0.986133    0.000000
     10          1           0        0.029443   -2.768756    0.000000
     11         17           0        2.729930   -1.818114    0.000000
     12         17           0       -2.714166    1.282023    0.000000
     13          1           0       -2.133044   -1.530257    0.000000
 ---------------------------------------------------------------------

 SCF Done:  E(RHF) =  -1223.57296976     A.U. after    2 cycles

 The electronic state is 1-A'.
 Alpha  occ. eigenvalues -- -103.69095-103.67649 -20.62690 -11.34940 -11.33248
 Alpha  occ. eigenvalues --  -11.32519 -11.28482 -11.26946 -11.26887 -10.72354
 Alpha  occ. eigenvalues --  -10.70919  -8.38086  -8.37805  -8.37761  -8.36655
 Alpha  occ. eigenvalues --   -8.36345  -8.36329  -1.39665  -1.21985  -1.19972
 Alpha  occ. eigenvalues --   -1.13248  -1.04289  -1.00033  -0.87251  -0.86044
 Alpha  occ. eigenvalues --   -0.75642  -0.71916  -0.69073  -0.64527  -0.63839
 Alpha  occ. eigenvalues --   -0.61721  -0.60735  -0.56658  -0.55685  -0.53459
 Alpha  occ. eigenvalues --   -0.53142  -0.49618  -0.47881  -0.46942  -0.36359
 Alpha  occ. eigenvalues --   -0.34329
 Alpha virt. eigenvalues --    0.03481   0.04187   0.04841   0.05866   0.07634
 Alpha virt. eigenvalues --    0.08443   0.09656   0.09727   0.10696   0.11870
 Alpha virt. eigenvalues --    0.12595   0.12909   0.13011   0.13637   0.13709

 Mulliken charges:
               1
     1  C    0.760187
     2  C   -0.386575
     3  C    1.108910
     4  C    0.993781
     5  C   -0.333950
     6  C    0.340057
     7  O   -0.539916
     8  H    0.173053
     9  H   -0.438823
    10  H   -0.430451
    11  Cl  -0.348304
    12  Cl  -0.461865
    13  H   -0.436105
 Sum of Mulliken charges =  -0.00000

 Dipole moment (field-independent basis, Debye):
    X=             -1.5139    Y=             -0.3471    Z=              0.0000  Tot=              1.5532

 Test job not archived.
 1\1\GINC-SE460\SP\RHF\Aug-CC-pVDZ\C6H4Cl2O1\OHZDE\08-Apr-2025\0\\#t hf
  aug-cc-pvdz iop(5/13=1,5/36=2,99/5=2) pseudo=read geom=check guess=(r
 ead,tcheck) scf=(maxcycle=1)\\title\\0,1\C,0,0.968461,-1.382372,0.\C,0
 ,1.533365,-0.109178,0.\C,0,0.754359,1.038384,0.\C,0,-0.417248,-1.4958,
 0.\C,0,-1.207953,-0.354517,0.\C,0,-0.638011,0.925422,0.\O,0,-1.368833,
 2.062294,0.\H,0,-2.307715,1.830262,0.\H,0,1.19875,2.02423,0.\H,0,1.595
 802,-2.262806,0.\Cl,0,3.279525,0.052669,0.\Cl,0,-2.962258,-0.485086,0.
 \H,0,-0.887554,-2.47059,0.\\Version=ES64L-G16RevC.01\State=1-A'\HF=-12

 Normal termination of Gaussian 16 at Tue Apr  8 23:09:31 2025.
