 Gaussian 16, Revision C.01,

 ----------------------------------------------------------------------
 #t hf aug-cc-pvdz symm=none int=(grid=ultrafine) guess=(read,tcheck) s
 table=(opt,rrhf)
 ----------------------------------------------------------------------
 -----
 title
 -----
 Symbolic Z-matrix:
 Charge =  0 Multiplicity = 1

 SCF Done:  E(RHF) =  -950.245732489     A.U. after   15 cycles
 Normal termination of Gaussian 16 at Tue Apr  8 23:41:34 2025.
 Gaussian 16:  ES64L-G16RevC.01  3-Jul-2019

 ----------------------------------------------------------------------
 #t hf aug-cc-pvdz iop(5/13=1,5/36=2,99/5=2) pseudo=read geom=check gue
 ss=(read,tcheck) scf=(maxcycle=1)
 ----------------------------------------------------------------------
 -----
 title
 -----
 Structure from the checkpoint file:  "BDE49_nonexpt_1686_mol1.chk"
 Charge =  0 Multiplicity = 1

                         Standard orientation:
 ---------------------------------------------------------------------
 Center     Atomic      Atomic             Coordinates (Angstroms)
 Number     Number       Type             X           Y           Z
 ---------------------------------------------------------------------
      1          6           0       -2.208510    0.089422    0.260245
      2         15           0       -0.863585    1.294045   -0.158864
      3         14           0        0.908092   -0.147065   -0.003672
      4          7           0        2.268714    0.680389   -0.608957
      5          8           0       -2.293816   -1.035593   -0.187572
      6          1           0       -3.014571    0.493266    0.907186
      7          8           0        1.246409   -0.640217    1.527486
      8          1           0        2.222310    1.118614   -1.518464
      9          1           0        3.190766    0.301807   -0.437161
     10          1           0       -0.836566    1.948132    1.095859
     11          1           0        1.581159    0.016874    2.142575
     12          8           0        0.421133   -1.433725   -0.873400
     13          1           0       -0.522355   -1.653421   -0.786515
 ---------------------------------------------------------------------

 SCF Done:  E(RHF) =  -950.412944183     A.U. after    2 cycles

 The electronic state is 1-A.
 Alpha  occ. eigenvalues --  -81.26199 -69.14170 -20.59554 -20.58074 -20.56078
 Alpha  occ. eigenvalues --  -15.61546 -11.36986  -7.76927  -6.88326  -4.90935
 Alpha  occ. eigenvalues --   -4.90831  -4.90577  -3.99302  -3.99289  -3.99189
 Alpha  occ. eigenvalues --   -1.37890  -1.31881  -1.29176  -1.11705  -0.90146
 Alpha  occ. eigenvalues --   -0.78206  -0.76912  -0.71236  -0.68976  -0.67147
 Alpha  occ. eigenvalues --   -0.65338  -0.61709  -0.59576  -0.57276  -0.56800
 Alpha  occ. eigenvalues --   -0.54646  -0.53343  -0.48032  -0.43717  -0.41265
 Alpha  occ. eigenvalues --   -0.36202
 Alpha virt. eigenvalues --    0.02745   0.03927   0.04834   0.05283   0.06470
 Alpha virt. eigenvalues --    0.07357   0.07740   0.08359   0.08762   0.09018
 Alpha virt. eigenvalues --    0.09440   0.11735   0.12026   0.13263   0.13608

 Mulliken charges:
               1
     1  C    0.305719
     2  P   -0.220168
     3  Si   2.330289
     4  N   -0.434134
     5  O   -0.460505
     6  H   -0.243877
     7  O   -0.798724
     8  H   -0.064832
     9  H   -0.048573
    10  H    0.142809
    11  H    0.103627
    12  O   -0.815311
    13  H    0.203679
 Sum of Mulliken charges =  -0.00000

 Dipole moment (field-independent basis, Debye):
    X=              1.2622    Y=              3.8360    Z=              1.4797  Tot=              4.3009

 Test job not archived.
 1\1\GINC-SE340\SP\RHF\Aug-CC-pVDZ\C1H6N1O3P1Si1\OHZDE\08-Apr-2025\0\\#
 t hf aug-cc-pvdz iop(5/13=1,5/36=2,99/5=2) pseudo=read geom=check gues
 s=(read,tcheck) scf=(maxcycle=1)\\title\\0,1\C,0,-2.20851,0.089422,0.2
 60245\P,0,-0.863585,1.294045,-0.158864\Si,0,0.908092,-0.147065,-0.0036
 72\N,0,2.268714,0.680389,-0.608957\O,0,-2.293816,-1.035593,-0.187572\H
 ,0,-3.014571,0.493267,0.907186\O,0,1.246409,-0.640217,1.527486\H,0,2.2
 2231,1.118614,-1.518464\H,0,3.190766,0.301807,-0.437161\H,0,-0.836566,
 1.948132,1.095859\H,0,1.581159,0.016874,2.142575\O,0,0.421133,-1.43372

 Normal termination of Gaussian 16 at Tue Apr  8 23:41:39 2025.
