 Gaussian 16, Revision C.01,

 ----------------------------------------------------------------------
 #t hf aug-cc-pvdz symm=none int=(grid=ultrafine) guess=(read,tcheck) s
 table=(opt,rrhf)
 ----------------------------------------------------------------------
 -----
 title
 -----
 Symbolic Z-matrix:
 Charge =  0 Multiplicity = 1

 SCF Done:  E(RHF) =  -593.884164169     A.U. after   13 cycles

 1\1\GINC-SE361\Stability\RHF\Aug-CC-pVDZ\C5H12S1\OHZDE\08-Apr-2025\0\\
 #t hf aug-cc-pvdz symm=none int=(grid=ultrafine) guess=(read,tcheck) s
 table=(opt,rrhf)\\title\\0,1\C,0,0.261079,-0.399544,-0.000498\C,0,-1.1
 26682,-0.440625,-0.682376\C,0,-2.260725,0.336481,-0.005799\H,0,-1.4090
 65,-1.498388,-0.752295\H,0,-1.010296,-0.08811,-1.712661\H,0,-2.028984,
 1.400388,0.082677\H,0,-2.47576,-0.042524,0.995998\S,0,0.81714,1.390675
 ,-0.032891\H,0,2.038299,1.174683,0.48475\C,0,1.245266,-1.247163,-0.817
 949\H,0,2.248561,-1.220116,-0.384893\H,0,1.310754,-0.891516,-1.84791\H

 Normal termination of Gaussian 16 at Tue Apr  8 22:45:02 2025.
 Gaussian 16:  ES64L-G16RevC.01  3-Jul-2019

 ----------------------------------------------------------------------
 #t hf aug-cc-pvdz iop(5/13=1,5/36=2,99/5=2) pseudo=read geom=check gue
 ss=(read,tcheck) scf=(maxcycle=1)
 ----------------------------------------------------------------------
 -----
 title
 -----
 Structure from the checkpoint file:  "BDE49_expt_1554_mol1.chk"
 Charge =  0 Multiplicity = 1

                         Standard orientation:
 ---------------------------------------------------------------------
 Center     Atomic      Atomic             Coordinates (Angstroms)
 Number     Number       Type             X           Y           Z
 ---------------------------------------------------------------------
      1          6           0        0.261079   -0.399544   -0.000498
      2          6           0       -1.126682   -0.440625   -0.682376
      3          6           0       -2.260725    0.336481   -0.005799
      4          1           0       -1.409065   -1.498388   -0.752295
      5          1           0       -1.010296   -0.088110   -1.712661
      6          1           0       -2.028984    1.400388    0.082677
      7          1           0       -2.475760   -0.042524    0.995998
      8         16           0        0.817140    1.390675   -0.032891
      9          1           0        2.038299    1.174683    0.484750
     10          6           0        1.245266   -1.247163   -0.817949
     11          1           0        2.248561   -1.220116   -0.384893
     12          1           0        1.310754   -0.891516   -1.847910
     13          1           0        0.915986   -2.292524   -0.832773
     14          6           0        0.203280   -0.902680    1.447777
     15          1           0       -0.184511   -1.927800    1.473529
     16          1           0       -0.434999   -0.275897    2.070706
     17          1           0        1.200032   -0.912771    1.896213
     18          1           0       -3.177559    0.244959   -0.594022
 ---------------------------------------------------------------------

 SCF Done:  E(RHF) =  -593.965302005     A.U. after    2 cycles

 The electronic state is 1-A.
 Alpha  occ. eigenvalues --  -93.52278 -11.28515 -11.23963 -11.23267 -11.23201
 Alpha  occ. eigenvalues --  -11.22565  -8.82026  -6.16219  -6.15988  -6.15675
 Alpha  occ. eigenvalues --   -1.10739  -0.99933  -0.93898  -0.92665  -0.86105
 Alpha  occ. eigenvalues --   -0.73363  -0.63933  -0.62721  -0.59762  -0.58300
 Alpha  occ. eigenvalues --   -0.55352  -0.54253  -0.52172  -0.51563  -0.49531
 Alpha  occ. eigenvalues --   -0.47524  -0.46306  -0.42059  -0.34865
 Alpha virt. eigenvalues --    0.03420   0.04290   0.04803   0.05161   0.06429
 Alpha virt. eigenvalues --    0.06569   0.06766   0.07144   0.07564   0.09048
 Alpha virt. eigenvalues --    0.09258   0.09709   0.11467   0.13090   0.13578

 Mulliken charges:
               1
     1  C   -2.475767
     2  C    0.674570
     3  C    0.437018
     4  H   -0.100351
     5  H   -0.143864
     6  H   -0.067789
     7  H   -0.092956
     8  S    0.234925
     9  H    0.006621
    10  C    1.028652
    11  H   -0.117620
    12  H   -0.026137
    13  H   -0.003576
    14  C    0.874442
    15  H    0.001160
    16  H   -0.078589
    17  H   -0.095002
    18  H   -0.055736
 Sum of Mulliken charges =  -0.00000

 Dipole moment (field-independent basis, Debye):
    X=             -0.0665    Y=             -1.8096    Z=              0.2689  Tot=              1.8306

 Test job not archived.
 1\1\GINC-SE361\SP\RHF\Aug-CC-pVDZ\C5H12S1\OHZDE\08-Apr-2025\0\\#t hf a
 ug-cc-pvdz iop(5/13=1,5/36=2,99/5=2) pseudo=read geom=check guess=(rea
 d,tcheck) scf=(maxcycle=1)\\title\\0,1\C,0,0.261079,-0.399544,-0.00049
 8\C,0,-1.126682,-0.440625,-0.682376\C,0,-2.260725,0.336481,-0.005799\H
 ,0,-1.409065,-1.498388,-0.752295\H,0,-1.010296,-0.08811,-1.712661\H,0,
 -2.028984,1.400388,0.082677\H,0,-2.47576,-0.042524,0.995998\S,0,0.8171
 4,1.390675,-0.032891\H,0,2.038299,1.174683,0.48475\C,0,1.245266,-1.247
 163,-0.817949\H,0,2.248561,-1.220116,-0.384893\H,0,1.310754,-0.891516,

 Normal termination of Gaussian 16 at Tue Apr  8 22:45:08 2025.
