 Gaussian 16, Revision C.01,

 ----------------------------------------------------------------------
 #t hf aug-cc-pvdz symm=none int=(grid=ultrafine) guess=(read,tcheck) s
 table=opt
 ----------------------------------------------------------------------
 -----
 title
 -----
 Symbolic Z-matrix:
 Charge =  0 Multiplicity = 2

 SCF Done:  E(UHF) =  -872.104179145     A.U. after   23 cycles
 Normal termination of Gaussian 16 at Tue Apr  8 23:25:48 2025.
 Gaussian 16:  ES64L-G16RevC.01  3-Jul-2019

 ----------------------------------------------------------------------
 #t hf aug-cc-pvdz iop(5/13=1,5/36=2,99/5=2) pseudo=read geom=check gue
 ss=(read,tcheck) scf=(maxcycle=1)
 ----------------------------------------------------------------------
 -----
 title
 -----
 Structure from the checkpoint file:  "BDE49_nonexpt_1247_mol2.chk"
 Charge =  0 Multiplicity = 2

                         Standard orientation:
 ---------------------------------------------------------------------
 Center     Atomic      Atomic             Coordinates (Angstroms)
 Number     Number       Type             X           Y           Z
 ---------------------------------------------------------------------
      1         15           0        0.311138    1.957567   -0.902777
      2          6           0        0.411869    1.722642    0.917850
      3          6           0        0.022949    0.453671    0.203987
      4          6           0       -1.429337    0.056839    0.320729
      5          8           0       -2.201674    0.552558    1.105080
      6          8           0       -1.762631   -0.871051   -0.583320
      7          6           0       -3.119466   -1.346560   -0.520188
      8          6           0        1.019557   -0.669829    0.161920
      9          8           0        0.771006   -1.832261    0.346156
     10          8           0        2.267113   -0.198922   -0.067443
     11          6           0        3.314580   -1.186605   -0.076447
     12          1           0        1.402153    1.753342    1.358316
     13          1           0       -0.376150    2.165743    1.519411
     14          1           0       -3.819244   -0.527123   -0.691032
     15          1           0       -3.319437   -1.793014    0.454698
     16          1           0       -3.199498   -2.093165   -1.306499
     17          1           0        3.130320   -1.928325   -0.854468
     18          1           0        4.229671   -0.635250   -0.279634
     19          1           0        3.373693   -1.689248    0.889982
 ---------------------------------------------------------------------

 SCF Done:  E(UHF) =  -872.290435734     A.U. after    2 cycles

 The electronic state is 2-A.
 Alpha  occ. eigenvalues --  -81.29116 -20.62794 -20.61898 -20.57014 -20.56765
 Alpha  occ. eigenvalues --  -11.41202 -11.40642 -11.30641 -11.29780 -11.29597
 Alpha  occ. eigenvalues --  -11.27311  -7.79444  -4.94217  -4.93066  -4.92881
 Alpha  occ. eigenvalues --   -1.43350  -1.42472  -1.33682  -1.33117  -1.12721
 Alpha  occ. eigenvalues --   -0.99266  -0.98943  -0.89614  -0.82183  -0.77831
 Alpha  occ. eigenvalues --   -0.76984  -0.75422  -0.70268  -0.69428  -0.69016
 Alpha  occ. eigenvalues --   -0.68113  -0.64866  -0.62383  -0.59748  -0.57759
 Alpha  occ. eigenvalues --   -0.57098  -0.56125  -0.55029  -0.54201  -0.49738
 Alpha  occ. eigenvalues --   -0.49354  -0.48383  -0.47501  -0.41758  -0.40504
 Alpha  occ. eigenvalues --   -0.35754
 Alpha virt. eigenvalues --    0.03263   0.04149   0.04430   0.05300   0.05910
 Alpha virt. eigenvalues --    0.06101   0.06521   0.06802   0.07362   0.07816
 Alpha virt. eigenvalues --    0.10007   0.10470   0.11598   0.12024   0.12507

  Beta  occ. eigenvalues --  -81.28359 -20.62737 -20.61901 -20.57050 -20.56718
  Beta  occ. eigenvalues --  -11.41140 -11.40613 -11.30643 -11.29779 -11.29766
  Beta  occ. eigenvalues --  -11.27495  -7.78544  -4.92648  -4.92243  -4.90886
  Beta  occ. eigenvalues --   -1.43296  -1.42428  -1.33674  -1.33055  -1.12311
  Beta  occ. eigenvalues --   -0.99211  -0.98775  -0.89560  -0.81963  -0.77671
  Beta  occ. eigenvalues --   -0.75254  -0.73912  -0.70153  -0.69250  -0.68906
  Beta  occ. eigenvalues --   -0.67860  -0.63636  -0.61883  -0.58890  -0.57265
  Beta  occ. eigenvalues --   -0.56162  -0.55996  -0.54604  -0.54163  -0.49635
  Beta  occ. eigenvalues --   -0.49216  -0.48184  -0.47300  -0.40456  -0.39664
  Beta virt. eigenvalues --    0.03235   0.03494   0.04265   0.04575   0.05444
  Beta virt. eigenvalues --    0.05968   0.06264   0.06638   0.06962   0.07456
  Beta virt. eigenvalues --    0.07887   0.10148   0.11217   0.11737   0.12336

 Mulliken charges and spin densities:
               1          2
     1  P    0.382827   1.238581
     2  C    0.737701  -0.169201
     3  C    0.066526  -0.174534
     4  C    0.365186   0.020308
     5  O   -0.468366   0.017366
     6  O   -0.554732   0.003916
     7  C    0.782962  -0.000741
     8  C    0.211679   0.079591
     9  O   -0.427085  -0.009092
    10  O   -0.539443  -0.030500
    11  C    0.830399  -0.016961
    12  H   -0.285704   0.026537
    13  H   -0.294407   0.018251
    14  H   -0.079642  -0.001869
    15  H   -0.064761  -0.000037
    16  H   -0.244818  -0.000034
    17  H   -0.076941  -0.000687
    18  H   -0.265832  -0.001377
    19  H   -0.075548   0.000484
 Sum of Mulliken charges =  -0.00000   1.00000

 Dipole moment (field-independent basis, Debye):
    X=              2.0512    Y=              0.6939    Z=             -1.1891  Tot=              2.4704
                          Isotropic Fermi Contact Couplings
        Atom                 a.u.       MegaHertz       Gauss      10(-4) cm-1
     1  P(31)              0.23104     418.43386     149.30761     139.57451
     2  C(13)             -0.02992     -33.64013     -12.00363     -11.22114
     3  C(13)             -0.02630     -29.56576     -10.54980      -9.86208
     4  C(13)              0.01044      11.74042       4.18927       3.91618
     5  O(17)              0.00432      -2.61998      -0.93487      -0.87393
     6  O(17)              0.00036      -0.21709      -0.07746      -0.07241
     7  C(13)              0.00024       0.27389       0.09773       0.09136
     8  C(13)              0.01357      15.25733       5.44419       5.08930

 Normal termination of Gaussian 16 at Tue Apr  8 23:26:01 2025.
