 Gaussian 16, Revision C.01,

 ----------------------------------------------------------------------
 #t hf aug-cc-pvdz symm=none int=(grid=ultrafine) guess=(read,tcheck) s
 table=opt
 ----------------------------------------------------------------------
 -----
 title
 -----
 Symbolic Z-matrix:
 Charge =  0 Multiplicity = 2

 SCF Done:  E(UHF) =  -604.927571370     A.U. after   19 cycles
 Normal termination of Gaussian 16 at Wed Apr  9 00:16:43 2025.
 Gaussian 16:  ES64L-G16RevC.01  3-Jul-2019

 ----------------------------------------------------------------------
 #t hf aug-cc-pvdz iop(5/13=1,5/36=2,99/5=2) pseudo=read geom=check gue
 ss=(read,tcheck) scf=(maxcycle=1)
 ----------------------------------------------------------------------
 -----
 title
 -----
 Structure from the checkpoint file:  "BDE49_nonexpt_2565_mol2.chk"
 Charge =  0 Multiplicity = 2

                         Standard orientation:
 ---------------------------------------------------------------------
 Center     Atomic      Atomic             Coordinates (Angstroms)
 Number     Number       Type             X           Y           Z
 ---------------------------------------------------------------------
      1         16           0       -1.773124   -0.340858   -0.000028
      2          6           0       -0.104609    0.233176    0.000045
      3          8           0       -0.013680    1.455366   -0.000016
      4          7           0        0.924424   -0.634830    0.000026
      5          6           0        2.319561   -0.209351    0.000011
      6          1           0        0.705990   -1.618823    0.000027
      7          1           0        2.340344    0.878517   -0.000006
      8          1           0        2.836204   -0.574036   -0.891308
      9          1           0        2.836213   -0.574006    0.891338
 ---------------------------------------------------------------------

 SCF Done:  E(UHF) =  -605.011699818     A.U. after    2 cycles

 The electronic state is 2-A.
 Alpha  occ. eigenvalues --  -93.57981 -20.55419 -15.67587 -11.40497 -11.28904
 Alpha  occ. eigenvalues --   -8.87821  -6.23168  -6.21496  -6.20993  -1.36893
 Alpha  occ. eigenvalues --   -1.22298  -1.03070  -0.94812  -0.80904  -0.69613
 Alpha  occ. eigenvalues --   -0.67330  -0.64739  -0.59024  -0.57555  -0.56816
 Alpha  occ. eigenvalues --   -0.48041  -0.43984  -0.42106  -0.40051
 Alpha virt. eigenvalues --    0.02725   0.04448   0.05033   0.06422   0.08166
 Alpha virt. eigenvalues --    0.10385   0.12058   0.12194   0.13146   0.13380
 Alpha virt. eigenvalues --    0.14224   0.15220   0.16797   0.17306   0.18419

  Beta  occ. eigenvalues --  -93.57066 -20.55082 -15.67602 -11.40612 -11.28897
  Beta  occ. eigenvalues --   -8.86800  -6.20998  -6.20422  -6.19133  -1.36163
  Beta  occ. eigenvalues --   -1.22103  -0.99627  -0.90834  -0.80493  -0.67321
  Beta  occ. eigenvalues --   -0.66745  -0.64725  -0.57335  -0.57288  -0.56750
  Beta  occ. eigenvalues --   -0.43516  -0.41850  -0.37913
  Beta virt. eigenvalues --   -0.00342   0.02850   0.04852   0.05038   0.06531
  Beta virt. eigenvalues --    0.08305   0.10620   0.12229   0.12431   0.13392
  Beta virt. eigenvalues --    0.13525   0.14650   0.15695   0.17208   0.17330

 Mulliken charges and spin densities:
               1          2
     1  S    0.272183   1.064378
     2  C    0.182215  -0.085377
     3  O   -0.493142   0.041464
     4  N   -0.287278  -0.019216
     5  C    0.722803  -0.006094
     6  H   -0.066362   0.006415
     7  H   -0.145829  -0.001173
     8  H   -0.092302  -0.000199
     9  H   -0.092289  -0.000199
 Sum of Mulliken charges =  -0.00000   1.00000

 Dipole moment (field-independent basis, Debye):
    X=              2.0211    Y=             -3.9539    Z=              0.0001  Tot=              4.4405
                          Isotropic Fermi Contact Couplings
        Atom                 a.u.       MegaHertz       Gauss      10(-4) cm-1
     1  S(33)              0.21514      73.89325      26.36695      24.64814
     2  C(13)             -0.02196     -24.68656      -8.80878      -8.23455
     3  O(17)              0.04362     -26.44313      -9.43557      -8.82048
     4  N(14)             -0.00311      -1.00391      -0.35822      -0.33487
     5  C(13)              0.00192       2.16177       0.77137       0.72109
     6  H(1)               0.00033       1.45411       0.51886       0.48504
     7  H(1)              -0.00001      -0.05454      -0.01946      -0.01819
     8  H(1)              -0.00006      -0.24993      -0.08918      -0.08337

 Normal termination of Gaussian 16 at Wed Apr  9 00:16:47 2025.
