 Gaussian 16, Revision C.01,

 ----------------------------------------------------------------------
 #t hf aug-cc-pvdz symm=none int=(grid=ultrafine) guess=(read,tcheck) s
 table=(opt,rrhf)
 ----------------------------------------------------------------------
 -----
 title
 -----
 Symbolic Z-matrix:
 Charge =  0 Multiplicity = 1

 SCF Done:  E(RHF) =  -1012.67151914     A.U. after   15 cycles
 Normal termination of Gaussian 16 at Tue Apr  8 23:13:58 2025.
 Gaussian 16:  ES64L-G16RevC.01  3-Jul-2019

 ----------------------------------------------------------------------
 #t hf aug-cc-pvdz iop(5/13=1,5/36=2,99/5=2) pseudo=read geom=check gue
 ss=(read,tcheck) scf=(maxcycle=1)
 ----------------------------------------------------------------------
 -----
 title
 -----
 Structure from the checkpoint file:  "BDE49_nonexpt_1014_mol1.chk"
 Charge =  0 Multiplicity = 1

                         Standard orientation:
 ---------------------------------------------------------------------
 Center     Atomic      Atomic             Coordinates (Angstroms)
 Number     Number       Type             X           Y           Z
 ---------------------------------------------------------------------
      1         16           0       -0.789123   -1.104789   -0.194029
      2          7           0       -1.968614    0.315098   -0.004518
      3          8           0       -1.609619    1.419188   -0.299399
      4          8           0       -3.035914   -0.074132    0.412277
      5          8           0        0.532832   -0.311997   -0.832497
      6          6           0        1.522301    0.106208    0.046535
      7          9           0        2.410953    0.767114   -0.678569
      8          9           0        2.118833   -0.938382    0.632096
      9          9           0        1.045110    0.901181    1.003566
 ---------------------------------------------------------------------

 SCF Done:  E(RHF) =  -1012.90912122     A.U. after    2 cycles

 The electronic state is 1-A.
 Alpha  occ. eigenvalues --  -93.70629 -26.20517 -26.20497 -26.20482 -20.70661
 Alpha  occ. eigenvalues --  -20.66938 -20.66211 -15.96932 -11.62024  -8.99314
 Alpha  occ. eigenvalues --   -6.33441  -6.33147  -6.32621  -1.81090  -1.73668
 Alpha  occ. eigenvalues --   -1.73373  -1.60108  -1.45730  -1.42778  -1.10509
 Alpha  occ. eigenvalues --   -1.03563  -0.94261  -0.93303  -0.92439  -0.86957
 Alpha  occ. eigenvalues --   -0.82061  -0.81482  -0.79576  -0.78170  -0.77491
 Alpha  occ. eigenvalues --   -0.76680  -0.76564  -0.75536  -0.71880  -0.66643
 Alpha  occ. eigenvalues --   -0.63409  -0.56311  -0.52063  -0.50145  -0.45666
 Alpha virt. eigenvalues --    0.03991   0.05273   0.05386   0.07843   0.08630
 Alpha virt. eigenvalues --    0.09115   0.09727   0.11200   0.11764   0.13510
 Alpha virt. eigenvalues --    0.15217   0.15741   0.18078   0.19192   0.22736

 Mulliken charges:
               1
     1  S    1.056507
     2  N    0.351589
     3  O   -0.444048
     4  O   -0.503544
     5  O   -0.778363
     6  C    1.073849
     7  F   -0.221786
     8  F   -0.270773
     9  F   -0.263430
 Sum of Mulliken charges =   0.00000

 Dipole moment (field-independent basis, Debye):
    X=              0.9926    Y=             -2.4119    Z=             -0.2298  Tot=              2.6183

 Test job not archived.
 1\1\GINC-SE435\SP\RHF\Aug-CC-pVDZ\C1F3N1O3S1\OHZDE\08-Apr-2025\0\\#t h
 f aug-cc-pvdz iop(5/13=1,5/36=2,99/5=2) pseudo=read geom=check guess=(
 read,tcheck) scf=(maxcycle=1)\\title\\0,1\S,0,-0.789123,-1.104789,-0.1
 94029\N,0,-1.968614,0.315098,-0.004518\O,0,-1.609619,1.419188,-0.29939
 9\O,0,-3.035914,-0.074132,0.412277\O,0,0.532832,-0.311997,-0.832497\C,
 0,1.522301,0.106208,0.046535\F,0,2.410953,0.767114,-0.678569\F,0,2.118
 833,-0.938382,0.632096\F,0,1.04511,0.901181,1.003566\\Version=ES64L-G1
 6RevC.01\State=1-A\HF=-1012.9091212\RMSD=4.695e-03\Dipole=0.3905385,-0

 Normal termination of Gaussian 16 at Tue Apr  8 23:14:03 2025.
