 Gaussian 16, Revision C.01,

 ----------------------------------------------------------------------
 #t hf aug-cc-pvdz symm=none int=(grid=ultrafine) guess=(read,tcheck) s
 table=(opt,rrhf)
 ----------------------------------------------------------------------
 -----
 title
 -----
 Symbolic Z-matrix:
 Charge =  0 Multiplicity = 1

 SCF Done:  E(RHF) =  -1092.53877686     A.U. after   16 cycles
 Normal termination of Gaussian 16 at Tue Apr  8 23:45:22 2025.
 Gaussian 16:  ES64L-G16RevC.01  3-Jul-2019

 ----------------------------------------------------------------------
 #t hf aug-cc-pvdz iop(5/13=1,5/36=2,99/5=2) pseudo=read geom=check gue
 ss=(read,tcheck) scf=(maxcycle=1)
 ----------------------------------------------------------------------
 -----
 title
 -----
 Structure from the checkpoint file:  "BDE49_nonexpt_1747_mol1.chk"
 Charge =  0 Multiplicity = 1

                         Standard orientation:
 ---------------------------------------------------------------------
 Center     Atomic      Atomic             Coordinates (Angstroms)
 Number     Number       Type             X           Y           Z
 ---------------------------------------------------------------------
      1          6           0        3.301726   -1.022059    0.000000
      2          6           0        2.092525   -1.713350    0.000001
      3          6           0        0.890016   -1.011756    0.000000
      4          6           0        3.314128    0.375671   -0.000002
      5          6           0        2.118989    1.078299   -0.000003
      6          6           0        0.895528    0.388548   -0.000002
      7          1           0        4.237293   -1.570142    0.000001
      8          1           0        2.085400   -2.796998    0.000003
      9          1           0       -0.048339   -1.551203    0.000001
     10          1           0        4.257649    0.909246   -0.000003
     11          1           0        2.101278    2.161369   -0.000005
     12          6           0       -0.360273    1.173835   -0.000003
     13         14           0       -2.213299    0.648992    0.000000
     14         17           0       -2.743338   -1.382667    0.000004
     15          8           0       -0.367744    2.398124   -0.000002
     16          1           0       -2.792118    1.233525   -1.220252
     17          1           0       -2.792115    1.233529    1.220253
 ---------------------------------------------------------------------

 SCF Done:  E(RHF) =  -1092.68029676     A.U. after    2 cycles

 The electronic state is 1-A.
 Alpha  occ. eigenvalues -- -103.66041 -69.12815 -20.58707 -11.35281 -11.27237
 Alpha  occ. eigenvalues --  -11.27222 -11.26796 -11.26688 -11.26243 -11.26195
 Alpha  occ. eigenvalues --  -10.69460  -8.35147  -8.34945  -8.34922  -6.87624
 Alpha  occ. eigenvalues --   -3.98469  -3.98306  -3.98274  -1.36935  -1.16613
 Alpha  occ. eigenvalues --   -1.14227  -1.04677  -1.03219  -0.89205  -0.85224
 Alpha  occ. eigenvalues --   -0.79996  -0.74833  -0.70812  -0.66858  -0.65608
 Alpha  occ. eigenvalues --   -0.63303  -0.61486  -0.59743  -0.58636  -0.53897
 Alpha  occ. eigenvalues --   -0.53334  -0.53258  -0.51878  -0.51423  -0.48947
 Alpha  occ. eigenvalues --   -0.46244  -0.41314  -0.36364  -0.35922
 Alpha virt. eigenvalues --    0.02889   0.03853   0.03957   0.04154   0.05280
 Alpha virt. eigenvalues --    0.05790   0.05887   0.06541   0.07587   0.08766
 Alpha virt. eigenvalues --    0.08901   0.09487   0.11121   0.11673   0.12743

 Mulliken charges:
               1
     1  C    0.598608
     2  C    0.241467
     3  C    0.835737
     4  C    0.458316
     5  C    0.392350
     6  C    0.713086
     7  H   -0.430249
     8  H   -0.470610
     9  H   -0.521273
    10  H   -0.431662
    11  H   -0.589364
    12  C   -0.264411
    13  Si   0.335802
    14  Cl  -0.538184
    15  O   -0.549415
    16  H    0.109902
    17  H    0.109900
 Sum of Mulliken charges =   0.00000

 Dipole moment (field-independent basis, Debye):
    X=              2.1659    Y=             -1.8140    Z=             -0.0000  Tot=              2.8252

 Test job not archived.
 1\1\GINC-SE150\SP\RHF\Aug-CC-pVDZ\C7H7Cl1O1Si1\OHZDE\08-Apr-2025\0\\#t
  hf aug-cc-pvdz iop(5/13=1,5/36=2,99/5=2) pseudo=read geom=check guess
 =(read,tcheck) scf=(maxcycle=1)\\title\\0,1\C,0,3.301726,-1.022059,0.\
 C,0,2.092525,-1.71335,0.000001\C,0,0.890016,-1.011756,0.\C,0,3.314128,
 0.375671,-0.000002\C,0,2.118989,1.078299,-0.000003\C,0,0.895528,0.3885
 48,-0.000002\H,0,4.237293,-1.570142,0.000001\H,0,2.0854,-2.796998,0.00
 0003\H,0,-0.048339,-1.551203,0.000001\H,0,4.257649,0.909246,-0.000003\
 H,0,2.101278,2.161369,-0.000005\C,0,-0.360273,1.173835,-0.000003\Si,0,

 Normal termination of Gaussian 16 at Tue Apr  8 23:45:32 2025.
