 Gaussian 16, Revision C.01,

 ----------------------------------------------------------------------
 #t hf aug-cc-pvdz symm=none int=(grid=ultrafine) guess=(read,tcheck) s
 table=(opt,rrhf)
 ----------------------------------------------------------------------
 -----
 title
 -----
 Symbolic Z-matrix:
 Charge =  0 Multiplicity = 1

 SCF Done:  E(RHF) =  -164.295025276     A.U. after   12 cycles
 Normal termination of Gaussian 16 at Wed Apr  9 00:33:44 2025.
 Gaussian 16:  ES64L-G16RevC.01  3-Jul-2019

 ----------------------------------------------------------------------
 #t hf aug-cc-pvdz iop(5/13=1,5/36=2,99/5=2) pseudo=read geom=check gue
 ss=(read,tcheck) scf=(maxcycle=1)
 ----------------------------------------------------------------------
 -----
 title
 -----
 Structure from the checkpoint file:  "BDE49_nonexpt_455_mol1.chk"
 Charge =  0 Multiplicity = 1

                         Standard orientation:
 ---------------------------------------------------------------------
 Center     Atomic      Atomic             Coordinates (Angstroms)
 Number     Number       Type             X           Y           Z
 ---------------------------------------------------------------------
      1          1           0       -1.715450   -0.550813    1.031147
      2          1           0       -1.715454   -0.550791   -1.031140
      3          5           0       -1.249125   -0.184049    0.000006
      4          6           0        0.087800    0.660078    0.000010
      5          9           0        0.945537   -0.491399   -0.000015
      6          1           0        0.319956    1.241973    0.893226
      7          1           0        0.319942    1.242003   -0.893189
 ---------------------------------------------------------------------

 SCF Done:  E(RHF) =  -164.352263049     A.U. after    2 cycles

 The electronic state is 1-A.
 Alpha  occ. eigenvalues --  -26.10810 -11.30462  -7.63340  -1.62877  -0.96609
 Alpha  occ. eigenvalues --   -0.75734  -0.73819  -0.70204  -0.64714  -0.57277
 Alpha  occ. eigenvalues --   -0.49168  -0.48693
 Alpha virt. eigenvalues --    0.03104   0.04270   0.04514   0.05312   0.07894
 Alpha virt. eigenvalues --    0.08123   0.09383   0.11757   0.12821   0.13286
 Alpha virt. eigenvalues --    0.16493   0.16943   0.18591   0.24272   0.24298

 Mulliken charges:
               1
     1  H    0.207377
     2  H    0.207379
     3  B   -0.102913
     4  C    0.651280
     5  F   -0.507479
     6  H   -0.227821
     7  H   -0.227823
 Sum of Mulliken charges =  -0.00000

 Dipole moment (field-independent basis, Debye):
    X=             -1.2822    Y=              2.0361    Z=              0.0000  Tot=              2.4062

 Test job not archived.
 1\1\GINC-SE184\SP\RHF\Aug-CC-pVDZ\C1H4B1F1\OHZDE\09-Apr-2025\0\\#t hf
 aug-cc-pvdz iop(5/13=1,5/36=2,99/5=2) pseudo=read geom=check guess=(re
 ad,tcheck) scf=(maxcycle=1)\\title\\0,1\H,0,-1.71545,-0.550814,1.03114
 7\H,0,-1.715454,-0.550792,-1.03114\B,0,-1.249125,-0.184049,0.000006\C,
 0,0.0878,0.660078,0.00001\F,0,0.945537,-0.491399,-0.000015\H,0,0.31995
 6,1.241973,0.893226\H,0,0.319942,1.242003,-0.893189\\Version=ES64L-G16
 RevC.01\State=1-A\HF=-164.352263\RMSD=3.970e-03\Dipole=-0.5044449,0.80
 1072,0.0000161\Quadrupole=-1.0875648,1.0009181,0.0866467,0.0582371,0.0

 Normal termination of Gaussian 16 at Wed Apr  9 00:33:46 2025.
