 Gaussian 16, Revision C.01,

 ----------------------------------------------------------------------
 #t hf aug-cc-pvdz symm=none int=(grid=ultrafine) guess=(read,tcheck) s
 table=(opt,rrhf)
 ----------------------------------------------------------------------
 -----
 title
 -----
 Symbolic Z-matrix:
 Charge =  0 Multiplicity = 1

 SCF Done:  E(RHF) =  -1232.80279736     A.U. after   13 cycles
 Normal termination of Gaussian 16 at Tue Apr  8 22:57:37 2025.
 Gaussian 16:  ES64L-G16RevC.01  3-Jul-2019

 ----------------------------------------------------------------------
 #t hf aug-cc-pvdz iop(5/13=1,5/36=2,99/5=2) pseudo=read geom=check gue
 ss=(read,tcheck) scf=(maxcycle=1)
 ----------------------------------------------------------------------
 -----
 title
 -----
 Structure from the checkpoint file:  "BDE49_expt_1964_mol1.chk"
 Charge =  0 Multiplicity = 1

                         Standard orientation:
 ---------------------------------------------------------------------
 Center     Atomic      Atomic             Coordinates (Angstroms)
 Number     Number       Type             X           Y           Z
 ---------------------------------------------------------------------
      1         16           0       -1.311048   -0.384382   -0.550352
      2         16           0        0.437485   -0.794687    0.493212
      3         16           0        1.912911    0.578819   -0.123861
      4          1           0        2.349261   -0.092786   -1.207372
      5          6           0       -2.053996    0.988638    0.399954
      6          1           0       -3.027509    1.177482   -0.058552
      7          1           0       -1.437780    1.883594    0.320104
      8          1           0       -2.189559    0.703881    1.442110
 ---------------------------------------------------------------------

 SCF Done:  E(RHF) =  -1232.87830945     A.U. after    2 cycles

 The electronic state is 1-A.
 Alpha  occ. eigenvalues --  -93.59040 -93.57185 -93.56689 -11.27833  -8.88410
 Alpha  occ. eigenvalues --   -8.86793  -8.86286  -6.22468  -6.22189  -6.21851
 Alpha  occ. eigenvalues --   -6.20885  -6.20666  -6.20380  -6.20307  -6.20114
 Alpha  occ. eigenvalues --   -6.19794  -1.07417  -1.00629  -0.90819  -0.78985
 Alpha  occ. eigenvalues --   -0.60908  -0.60587  -0.57953  -0.51975  -0.49340
 Alpha  occ. eigenvalues --   -0.47339  -0.37786  -0.37678  -0.36079
 Alpha virt. eigenvalues --    0.03717   0.04563   0.05539   0.06117   0.06790
 Alpha virt. eigenvalues --    0.08241   0.10369   0.11898   0.12092   0.12541
 Alpha virt. eigenvalues --    0.14149   0.14299   0.15438   0.16194   0.16415

 Mulliken charges:
               1
     1  S    0.133153
     2  S   -0.097573
     3  S   -0.100702
     4  H    0.144227
     5  C    0.059330
     6  H   -0.065387
     7  H   -0.034683
     8  H   -0.038365
 Sum of Mulliken charges =  -0.00000

 Dipole moment (field-independent basis, Debye):
    X=             -0.7935    Y=              1.0925    Z=             -0.1521  Tot=              1.3588

 Test job not archived.
 1\1\GINC-SE460\SP\RHF\Aug-CC-pVDZ\C1H4S3\OHZDE\08-Apr-2025\0\\#t hf au
 g-cc-pvdz iop(5/13=1,5/36=2,99/5=2) pseudo=read geom=check guess=(read
 ,tcheck) scf=(maxcycle=1)\\title\\0,1\S,0,-1.311048,-0.384382,-0.55035
 2\S,0,0.437485,-0.794687,0.493212\S,0,1.912911,0.578819,-0.123861\H,0,
 2.349261,-0.092786,-1.207372\C,0,-2.053996,0.988638,0.399954\H,0,-3.02
 7509,1.177482,-0.058552\H,0,-1.43778,1.883594,0.320104\H,0,-2.189559,0
 .703881,1.44211\\Version=ES64L-G16RevC.01\State=1-A\HF=-1232.8783095\R
 MSD=5.421e-03\Dipole=-0.3121914,0.4298342,-0.0598257\Quadrupole=2.4267

 Normal termination of Gaussian 16 at Tue Apr  8 22:57:39 2025.
