 Gaussian 16, Revision C.01,

 ----------------------------------------------------------------------
 #t hf aug-cc-pvdz symm=none int=(grid=ultrafine) guess=(read,tcheck) s
 table=(opt,rrhf)
 ----------------------------------------------------------------------
 -----
 title
 -----
 Symbolic Z-matrix:
 Charge =  0 Multiplicity = 1

 SCF Done:  E(RHF) =  -783.633776148     A.U. after   14 cycles
 Normal termination of Gaussian 16 at Tue Apr  8 23:50:55 2025.
 Gaussian 16:  ES64L-G16RevC.01  3-Jul-2019

 ----------------------------------------------------------------------
 #t hf aug-cc-pvdz iop(5/13=1,5/36=2,99/5=2) pseudo=read geom=check gue
 ss=(read,tcheck) scf=(maxcycle=1)
 ----------------------------------------------------------------------
 -----
 title
 -----
 Structure from the checkpoint file:  "BDE49_nonexpt_1882_mol1.chk"
 Charge =  0 Multiplicity = 1

                         Standard orientation:
 ---------------------------------------------------------------------
 Center     Atomic      Atomic             Coordinates (Angstroms)
 Number     Number       Type             X           Y           Z
 ---------------------------------------------------------------------
      1         14           0       -0.695260    1.631580    0.005911
      2          6           0        1.115336    1.448943   -0.497018
      3          6           0       -1.513371   -0.093153   -0.220050
      4          8           0       -0.981972   -1.020104   -0.786060
      5          1           0       -1.368843    2.573927   -0.918058
      6          1           0       -0.858100    2.107327    1.392242
      7          8           0       -2.757798   -0.151505    0.300061
      8          6           0       -3.452232   -1.410447    0.155847
      9          1           0       -4.420156   -1.263728    0.628711
     10          1           0       -2.896881   -2.207554    0.651743
     11          1           0       -3.571036   -1.660240   -0.899392
     12          6           0        1.761220    0.288218    0.218440
     13          8           0        1.569668    0.012374    1.379915
     14          8           0        2.583014   -0.406784   -0.586605
     15          6           0        3.195498   -1.568729    0.004618
     16          1           0        2.428499   -2.276122    0.322215
     17          1           0        3.802838   -1.286033    0.865533
     18          1           0        3.814607   -1.999673   -0.778831
     19          1           0        1.638214    2.365073   -0.199206
     20          1           0        1.222495    1.344054   -1.577222
 ---------------------------------------------------------------------

 SCF Done:  E(RHF) =  -783.816791690     A.U. after    2 cycles

 The electronic state is 1-A.
 Alpha  occ. eigenvalues --  -69.08588 -20.61969 -20.61617 -20.56955 -20.55884
 Alpha  occ. eigenvalues --  -11.39854 -11.38022 -11.29908 -11.29414 -11.24841
 Alpha  occ. eigenvalues --   -6.83868  -3.94670  -3.94629  -3.94606  -1.41942
 Alpha  occ. eigenvalues --   -1.41648  -1.32567  -1.32344  -1.03037  -0.98208
 Alpha  occ. eigenvalues --   -0.94671  -0.80867  -0.78491  -0.74669  -0.70901
 Alpha  occ. eigenvalues --   -0.69233  -0.69091  -0.68225  -0.67926  -0.64502
 Alpha  occ. eigenvalues --   -0.60519  -0.59565  -0.57143  -0.56205  -0.54221
 Alpha  occ. eigenvalues --   -0.53668  -0.53358  -0.48815  -0.48361  -0.48013
 Alpha  occ. eigenvalues --   -0.47381  -0.46517  -0.43761
 Alpha virt. eigenvalues --    0.03214   0.04094   0.04270   0.05027   0.05559
 Alpha virt. eigenvalues --    0.06006   0.06342   0.06709   0.07314   0.08284
 Alpha virt. eigenvalues --    0.08675   0.09011   0.10529   0.10876   0.12067

 Mulliken charges:
               1
     1  Si   0.356908
     2  C   -0.065769
     3  C    0.365467
     4  O   -0.474585
     5  H    0.050617
     6  H    0.116417
     7  O   -0.505930
     8  C    0.826524
     9  H   -0.245142
    10  H   -0.083646
    11  H   -0.088419
    12  C    0.526545
    13  O   -0.505946
    14  O   -0.553660
    15  C    0.767278
    16  H   -0.063013
    17  H   -0.069084
    18  H   -0.231178
    19  H   -0.025098
    20  H   -0.098285
 Sum of Mulliken charges =  -0.00000

 Dipole moment (field-independent basis, Debye):
    X=             -0.3938    Y=              0.7055    Z=             -0.9945  Tot=              1.2813

 Test job not archived.
 1\1\GINC-SE363\SP\RHF\Aug-CC-pVDZ\C5H10O4Si1\OHZDE\08-Apr-2025\0\\#t h
 f aug-cc-pvdz iop(5/13=1,5/36=2,99/5=2) pseudo=read geom=check guess=(
 read,tcheck) scf=(maxcycle=1)\\title\\0,1\Si,0,-0.69526,1.63158,0.0059
 11\C,0,1.115336,1.448943,-0.497018\C,0,-1.513371,-0.093153,-0.22005\O,
 0,-0.981972,-1.020104,-0.78606\H,0,-1.368843,2.573927,-0.918058\H,0,-0
 .8581,2.107327,1.392242\O,0,-2.757798,-0.151505,0.300061\C,0,-3.452232
 ,-1.410447,0.155847\H,0,-4.420156,-1.263728,0.628711\H,0,-2.896881,-2.
 207554,0.651743\H,0,-3.571036,-1.66024,-0.899392\C,0,1.76122,0.288218,

 Normal termination of Gaussian 16 at Tue Apr  8 23:51:07 2025.
