 Gaussian 16, Revision C.01,

 ----------------------------------------------------------------------
 #t hf aug-cc-pvdz symm=none int=(grid=ultrafine) guess=(read,tcheck) s
 table=(opt,rrhf)
 ----------------------------------------------------------------------
 -----
 title
 -----
 Symbolic Z-matrix:
 Charge =  0 Multiplicity = 1

 SCF Done:  E(RHF) =  -1216.92364749     A.U. after   15 cycles
 Normal termination of Gaussian 16 at Wed Apr  9 00:26:10 2025.
 Gaussian 16:  ES64L-G16RevC.01  3-Jul-2019

 ----------------------------------------------------------------------
 #t hf aug-cc-pvdz iop(5/13=1,5/36=2,99/5=2) pseudo=read geom=check gue
 ss=(read,tcheck) scf=(maxcycle=1)
 ----------------------------------------------------------------------
 -----
 title
 -----
 Structure from the checkpoint file:  "BDE49_nonexpt_2716_mol1.chk"
 Charge =  0 Multiplicity = 1

                         Standard orientation:
 ---------------------------------------------------------------------
 Center     Atomic      Atomic             Coordinates (Angstroms)
 Number     Number       Type             X           Y           Z
 ---------------------------------------------------------------------
      1          6           0        2.226024    1.099100   -0.127861
      2          8           0        1.268144    1.630585   -0.603880
      3         16           0        2.420052   -0.727260   -0.007154
      4         16           0        0.649658   -1.394760   -0.837942
      5          6           0       -0.553426   -1.060355    0.510301
      6          8           0       -0.251678   -0.542064    1.544163
      7          6           0        3.401395    1.817456    0.495846
      8          1           0        3.149144    2.039018    1.536926
      9          1           0        3.559620    2.759248   -0.030860
     10          1           0        4.312971    1.218117    0.481854
     11          6           0       -1.957064   -1.499742    0.130566
     12          6           0       -2.996710   -0.404656    0.422578
     13          1           0       -2.167227   -2.390825    0.733266
     14          1           0       -1.991287   -1.805505   -0.919707
     15          6           0       -2.868565    0.820081   -0.491217
     16          1           0       -2.890434   -0.100470    1.468195
     17          1           0       -3.996006   -0.841108    0.317911
     18          6           0       -3.899369    1.905553   -0.171020
     19          1           0       -2.981366    0.503981   -1.535403
     20          1           0       -1.859761    1.237972   -0.406363
     21          1           0       -4.921473    1.528731   -0.279529
     22          1           0       -3.789090    2.764305   -0.838020
     23          1           0       -3.785895    2.266070    0.855828
 ---------------------------------------------------------------------

 SCF Done:  E(RHF) =  -1217.09496521     A.U. after    2 cycles

 The electronic state is 1-A.
 Alpha  occ. eigenvalues --  -93.57777 -93.57772 -20.58761 -20.58513 -11.38984
 Alpha  occ. eigenvalues --  -11.38466 -11.26659 -11.26414 -11.24235 -11.23018
 Alpha  occ. eigenvalues --  -11.22303  -8.87451  -8.87425  -6.21632  -6.21518
 Alpha  occ. eigenvalues --   -6.21297  -6.21254  -6.20977  -6.20964  -1.38767
 Alpha  occ. eigenvalues --   -1.38406  -1.08886  -1.06701  -1.02882  -1.00538
 Alpha  occ. eigenvalues --   -0.92617  -0.87713  -0.80713  -0.76168  -0.73763
 Alpha  occ. eigenvalues --   -0.68219  -0.67100  -0.66112  -0.63326  -0.63038
 Alpha  occ. eigenvalues --   -0.62138  -0.61861  -0.58681  -0.57560  -0.55515
 Alpha  occ. eigenvalues --   -0.54631  -0.54045  -0.52264  -0.49039  -0.47438
 Alpha  occ. eigenvalues --   -0.47349  -0.46800  -0.43921  -0.43406  -0.39059
 Alpha  occ. eigenvalues --   -0.37233
 Alpha virt. eigenvalues --    0.03462   0.03661   0.04454   0.05029   0.05621
 Alpha virt. eigenvalues --    0.06046   0.06161   0.06831   0.07374   0.07828
 Alpha virt. eigenvalues --    0.08484   0.09274   0.09711   0.09992   0.10674

 Mulliken charges:
               1
     1  C   -0.084194
     2  O   -0.406655
     3  S    0.092204
     4  S    0.044000
     5  C    0.193790
     6  O   -0.508614
     7  C    0.332084
     8  H    0.096669
     9  H   -0.009976
    10  H   -0.023649
    11  C    0.294057
    12  C    0.255731
    13  H    0.073442
    14  H   -0.111218
    15  C    0.158266
    16  H   -0.143113
    17  H   -0.121774
    18  C    0.426632
    19  H   -0.145874
    20  H   -0.203064
    21  H   -0.087612
    22  H   -0.053995
    23  H   -0.067137
 Sum of Mulliken charges =  -0.00000

 Dipole moment (field-independent basis, Debye):
    X=              0.3866    Y=             -0.5975    Z=             -0.2958  Tot=              0.7707

 Test job not archived.
 1\1\GINC-SE419\SP\RHF\Aug-CC-pVDZ\C7H12O2S2\OHZDE\09-Apr-2025\0\\#t hf
  aug-cc-pvdz iop(5/13=1,5/36=2,99/5=2) pseudo=read geom=check guess=(r
 ead,tcheck) scf=(maxcycle=1)\\title\\0,1\C,0,2.226024,1.0991,-0.127861
 \O,0,1.268144,1.630585,-0.60388\S,0,2.420052,-0.72726,-0.007154\S,0,0.
 649658,-1.39476,-0.837942\C,0,-0.553426,-1.060355,0.510301\O,0,-0.2516
 78,-0.542064,1.544163\C,0,3.401395,1.817456,0.495846\H,0,3.149144,2.03
 9018,1.536926\H,0,3.55962,2.759248,-0.03086\H,0,4.312971,1.218117,0.48
 1854\C,0,-1.957064,-1.499742,0.130566\C,0,-2.99671,-0.404656,0.422578\

 Normal termination of Gaussian 16 at Wed Apr  9 00:26:26 2025.
