 Gaussian 16, Revision C.01,

 ----------------------------------------------------------------------
 #t hf aug-cc-pvdz symm=none int=(grid=ultrafine) guess=(read,tcheck) s
 table=(opt,rrhf)
 ----------------------------------------------------------------------
 -----
 title
 -----
 Symbolic Z-matrix:
 Charge =  0 Multiplicity = 1

 SCF Done:  E(RHF) =  -2117.16626577     A.U. after   13 cycles
 Normal termination of Gaussian 16 at Wed Apr  9 00:15:13 2025.
 Gaussian 16:  ES64L-G16RevC.01  3-Jul-2019

 ----------------------------------------------------------------------
 #t hf aug-cc-pvdz iop(5/13=1,5/36=2,99/5=2) pseudo=read geom=check gue
 ss=(read,tcheck) scf=(maxcycle=1)
 ----------------------------------------------------------------------
 -----
 title
 -----
 Structure from the checkpoint file:  "BDE49_nonexpt_249_mol1.chk"
 Charge =  0 Multiplicity = 1

                         Standard orientation:
 ---------------------------------------------------------------------
 Center     Atomic      Atomic             Coordinates (Angstroms)
 Number     Number       Type             X           Y           Z
 ---------------------------------------------------------------------
      1         17           0        3.899109    1.505304   -0.000003
      2         17           0        3.899109   -1.505304   -0.000003
      3          5           0        2.972511    0.000000    0.000003
      4          6           0        1.421856    0.000000    0.000005
      5          6           0        0.693536   -1.205024    0.000006
      6          1           0        1.223460   -2.149598    0.000005
      7          6           0        0.693536    1.205024    0.000006
      8          1           0        1.223460    2.149598    0.000005
      9         17           0       -3.899109   -1.505304   -0.000007
     10         17           0       -3.899109    1.505304   -0.000008
     11          5           0       -2.972511    0.000000    0.000011
     12          6           0       -1.421856    0.000000    0.000009
     13          6           0       -0.693536    1.205024    0.000008
     14          1           0       -1.223460    2.149598    0.000008
     15          6           0       -0.693536   -1.205024    0.000008
     16          1           0       -1.223460   -2.149598    0.000009
 ---------------------------------------------------------------------

 SCF Done:  E(RHF) =  -2117.31269203     A.U. after    2 cycles

 The electronic state is 1-A.
 Alpha  occ. eigenvalues -- -103.67552-103.67552-103.67552-103.67552 -11.27638
 Alpha  occ. eigenvalues --  -11.27637 -11.27528 -11.27515 -11.26730 -11.26722
 Alpha  occ. eigenvalues --  -10.71047 -10.71047 -10.71015 -10.71015  -8.36727
 Alpha  occ. eigenvalues --   -8.36725  -8.36721  -8.36721  -8.36506  -8.36505
 Alpha  occ. eigenvalues --   -8.36503  -8.36503  -8.36482  -8.36479  -8.36477
 Alpha  occ. eigenvalues --   -8.36477  -7.74041  -7.74040  -1.19413  -1.19003
 Alpha  occ. eigenvalues --   -1.16275  -1.15140  -1.15126  -1.03898  -1.03829
 Alpha  occ. eigenvalues --   -0.86587  -0.85460  -0.75454  -0.71895  -0.66955
 Alpha  occ. eigenvalues --   -0.66623  -0.65163  -0.61884  -0.60889  -0.58685
 Alpha  occ. eigenvalues --   -0.57329  -0.55390  -0.53782  -0.53716  -0.51941
 Alpha  occ. eigenvalues --   -0.51296  -0.48686  -0.48677  -0.48621  -0.48197
 Alpha  occ. eigenvalues --   -0.47283  -0.47257  -0.37726  -0.36598
 Alpha virt. eigenvalues --    0.00158   0.03164   0.04079   0.04303   0.04789
 Alpha virt. eigenvalues --    0.05787   0.06296   0.06334   0.06848   0.07644
 Alpha virt. eigenvalues --    0.08013   0.08879   0.08919   0.09050   0.10183

 Mulliken charges:
               1
     1  Cl  -0.337540
     2  Cl  -0.337540
     3  B    0.574800
     4  C    0.306209
     5  C    0.583447
     6  H   -0.686412
     7  C    0.583447
     8  H   -0.686412
     9  Cl  -0.337540
    10  Cl  -0.337540
    11  B    0.574800
    12  C    0.306209
    13  C    0.583447
    14  H   -0.686412
    15  C    0.583447
    16  H   -0.686412
 Sum of Mulliken charges =  -0.00000

 Dipole moment (field-independent basis, Debye):
    X=              0.0000    Y=             -0.0000    Z=              0.0000  Tot=              0.0000

 Test job not archived.
 1\1\GINC-SE435\SP\RHF\Aug-CC-pVDZ\C6H4B2Cl4\OHZDE\09-Apr-2025\0\\#t hf
  aug-cc-pvdz iop(5/13=1,5/36=2,99/5=2) pseudo=read geom=check guess=(r
 ead,tcheck) scf=(maxcycle=1)\\title\\0,1\Cl,0,-3.899109,1.505304,0.000
 003\Cl,0,-3.899109,-1.505304,0.000003\B,0,-2.972511,0.,-0.000003\C,0,-
 1.421856,0.,-0.000005\C,0,-0.693536,-1.205024,-0.000006\H,0,-1.22346,-
 2.149598,-0.000005\C,0,-0.693536,1.205024,-0.000006\H,0,-1.22346,2.149
 598,-0.000005\Cl,0,3.899109,-1.505304,0.000007\Cl,0,3.899109,1.505304,
 0.000008\B,0,2.972511,0.,-0.000011\C,0,1.421856,0.,-0.000009\C,0,0.693

 Normal termination of Gaussian 16 at Wed Apr  9 00:15:24 2025.
