 Gaussian 16, Revision C.01,

 ----------------------------------------------------------------------
 #t hf aug-cc-pvdz symm=none int=(grid=ultrafine) guess=(read,tcheck) s
 table=(opt,rrhf)
 ----------------------------------------------------------------------
 -----
 title
 -----
 Symbolic Z-matrix:
 Charge =  0 Multiplicity = 1

 SCF Done:  E(RHF) =  -273.487015539     A.U. after   13 cycles
 Normal termination of Gaussian 16 at Tue Apr  8 22:54:33 2025.
 Gaussian 16:  ES64L-G16RevC.01  3-Jul-2019

 ----------------------------------------------------------------------
 #t hf aug-cc-pvdz iop(5/13=1,5/36=2,99/5=2) pseudo=read geom=check gue
 ss=(read,tcheck) scf=(maxcycle=1)
 ----------------------------------------------------------------------
 -----
 title
 -----
 Structure from the checkpoint file:  "BDE49_expt_1902_mol1.chk"
 Charge =  0 Multiplicity = 1

                         Standard orientation:
 ---------------------------------------------------------------------
 Center     Atomic      Atomic             Coordinates (Angstroms)
 Number     Number       Type             X           Y           Z
 ---------------------------------------------------------------------
      1          8           0        0.000000   -0.000000    0.598733
      2          9           0        0.000000    1.110049   -0.266104
      3          9           0       -0.000000   -1.110049   -0.266104
 ---------------------------------------------------------------------

 SCF Done:  E(RHF) =  -273.586402823     A.U. after    2 cycles

 The electronic state is 1-A1.
 Alpha  occ. eigenvalues --  -26.23120 -26.23109 -20.84159  -1.77277  -1.70186
 Alpha  occ. eigenvalues --   -1.30935  -0.87082  -0.85924  -0.85748  -0.79159
 Alpha  occ. eigenvalues --   -0.74876  -0.70624  -0.62677
 Alpha virt. eigenvalues --    0.05744   0.09489   0.15357   0.17850   0.18882
 Alpha virt. eigenvalues --    0.19137   0.25744   0.27396   0.28002   0.28077
 Alpha virt. eigenvalues --    0.31974   0.34691   0.48890   0.52542   0.97256

 Mulliken charges:
               1
     1  O    0.382749
     2  F   -0.191375
     3  F   -0.191375
 Sum of Mulliken charges =  -0.00000

 Dipole moment (field-independent basis, Debye):
    X=              0.0000    Y=              0.0000    Z=              0.6637  Tot=              0.6637

 Test job not archived.
 1\1\GINC-SE460\SP\RHF\Aug-CC-pVDZ\F2O1\OHZDE\08-Apr-2025\0\\#t hf aug-
 cc-pvdz iop(5/13=1,5/36=2,99/5=2) pseudo=read geom=check guess=(read,t
 check) scf=(maxcycle=1)\\title\\0,1\O,0,0.,0.,0.598733\F,0,0.,1.110049
 ,-0.266104\F,0,0.,-1.110049,-0.266104\\Version=ES64L-G16RevC.01\State=
 1-A1\HF=-273.5864028\RMSD=7.150e-03\Dipole=0.,0.,0.261122\Quadrupole=-
 0.130802,-0.2821263,0.4129283,0.,0.,0.\PG=C02V [C2(O1),SGV(F2)]\\@

 Normal termination of Gaussian 16 at Tue Apr  8 22:54:34 2025.
