 Gaussian 16, Revision C.01,

 ----------------------------------------------------------------------
 #t hf aug-cc-pvdz symm=none int=(grid=ultrafine) guess=(read,tcheck) s
 table=(opt,rrhf)
 ----------------------------------------------------------------------
 -----
 title
 -----
 Symbolic Z-matrix:
 Charge =  0 Multiplicity = 1

 SCF Done:  E(RHF) =  -627.120019533     A.U. after   11 cycles
 Normal termination of Gaussian 16 at Tue Apr  8 22:44:29 2025.
 Gaussian 16:  ES64L-G16RevC.01  3-Jul-2019

 ----------------------------------------------------------------------
 #t hf aug-cc-pvdz iop(5/13=1,5/36=2,99/5=2) pseudo=read geom=check gue
 ss=(read,tcheck) scf=(maxcycle=1)
 ----------------------------------------------------------------------
 -----
 title
 -----
 Structure from the checkpoint file:  "BDE49_expt_1540_mol1.chk"
 Charge =  0 Multiplicity = 1

                         Standard orientation:
 ---------------------------------------------------------------------
 Center     Atomic      Atomic             Coordinates (Angstroms)
 Number     Number       Type             X           Y           Z
 ---------------------------------------------------------------------
      1         14           0        0.034965    0.000006   -0.000009
      2          6           0       -1.799515    0.000015   -0.000046
      3          1           0       -2.183554   -0.988065    0.264952
      4          1           0       -2.183498    0.264563   -0.988266
      5          1           0       -2.183538    0.723564    0.723151
      6          9           0        0.624403   -1.042313   -1.041847
      7          9           0        0.624315   -0.381156    1.423601
      8          9           0        0.624412    1.423444   -0.381691
 ---------------------------------------------------------------------

 SCF Done:  E(RHF) =  -627.295037172     A.U. after    2 cycles

 The electronic state is 1-A.
 Alpha  occ. eigenvalues --  -69.20569 -26.13400 -26.13399 -26.13398 -11.25239
 Alpha  occ. eigenvalues --   -6.94302  -4.05332  -4.05332  -4.05101  -1.67740
 Alpha  occ. eigenvalues --   -1.65906  -1.65906  -0.98450  -0.86205  -0.80140
 Alpha  occ. eigenvalues --   -0.80140  -0.76714  -0.75036  -0.75036  -0.72680
 Alpha  occ. eigenvalues --   -0.72679  -0.71231  -0.59172  -0.59172  -0.53262
 Alpha virt. eigenvalues --    0.02980   0.05247   0.05247   0.06152   0.08214
 Alpha virt. eigenvalues --    0.08214   0.10231   0.14402   0.14778   0.14778
 Alpha virt. eigenvalues --    0.17957   0.21038   0.21038   0.22187   0.22187

 Mulliken charges:
               1
     1  Si   2.749108
     2  C    0.282069
     3  H   -0.193121
     4  H   -0.193123
     5  H   -0.193119
     6  F   -0.817273
     7  F   -0.817270
     8  F   -0.817272
 Sum of Mulliken charges =   0.00000

 Dipole moment (field-independent basis, Debye):
    X=             -2.8430    Y=              0.0001    Z=             -0.0002  Tot=              2.8430

 Test job not archived.
 1\1\GINC-SE118\SP\RHF\Aug-CC-pVDZ\C1H3F3Si1\OHZDE\08-Apr-2025\0\\#t hf
  aug-cc-pvdz iop(5/13=1,5/36=2,99/5=2) pseudo=read geom=check guess=(r
 ead,tcheck) scf=(maxcycle=1)\\title\\0,1\Si,0,0.034965,0.000006,-0.000
 009\C,0,-1.799515,0.000013,-0.000047\H,0,-2.183553,-0.987294,0.267816\
 H,0,-2.183498,0.261693,-0.98903\H,0,-2.183539,0.725657,0.721048\F,0,0.
 624405,-1.045331,-1.038818\F,0,0.624315,-0.377024,1.424701\F,0,0.62441
 1,1.422331,-0.385819\\Version=ES64L-G16RevC.01\State=1-A\HF=-627.29503
 72\RMSD=4.776e-03\Dipole=-1.118533,0.0000366,-0.0000698\Quadrupole=2.1

 Normal termination of Gaussian 16 at Tue Apr  8 22:44:31 2025.
