 Gaussian 16, Revision C.01,

 ----------------------------------------------------------------------
 #t hf aug-cc-pvdz symm=none int=(grid=ultrafine) guess=(read,tcheck) s
 table=(opt,rrhf)
 ----------------------------------------------------------------------
 -----
 title
 -----
 Symbolic Z-matrix:
 Charge =  0 Multiplicity = 1

 SCF Done:  E(RHF) =  -624.190645429     A.U. after   15 cycles
 Normal termination of Gaussian 16 at Tue Apr  8 23:37:14 2025.
 Gaussian 16:  ES64L-G16RevC.01  3-Jul-2019

 ----------------------------------------------------------------------
 #t hf aug-cc-pvdz iop(5/13=1,5/36=2,99/5=2) pseudo=read geom=check gue
 ss=(read,tcheck) scf=(maxcycle=1)
 ----------------------------------------------------------------------
 -----
 title
 -----
 Structure from the checkpoint file:  "BDE49_nonexpt_1575_mol1.chk"
 Charge =  0 Multiplicity = 1

                         Standard orientation:
 ---------------------------------------------------------------------
 Center     Atomic      Atomic             Coordinates (Angstroms)
 Number     Number       Type             X           Y           Z
 ---------------------------------------------------------------------
      1          6           0        1.104838    0.248824   -0.096834
      2         15           0       -0.199056   -1.106990   -0.181289
      3          8           0        0.999166    1.340245   -0.596209
      4          8           0        2.236178   -0.180125    0.513974
      5          7           0       -1.660933   -0.272541   -0.284884
      6          6           0       -2.028800    0.881947    0.537843
      7          1           0       -3.088574    1.106162    0.394539
      8          1           0       -1.438661    1.774048    0.306154
      9          1           0       -1.881986    0.631340    1.591636
     10          1           0        2.887808    0.536757    0.442268
     11          1           0       -0.168567   -1.355803    1.212422
     12          1           0       -2.036617   -0.245457   -1.221678
 ---------------------------------------------------------------------

 SCF Done:  E(RHF) =  -624.308876715     A.U. after    2 cycles

 The electronic state is 1-A.
 Alpha  occ. eigenvalues --  -81.29749 -20.63138 -20.57369 -15.63113 -11.39796
 Alpha  occ. eigenvalues --  -11.26972  -7.79762  -4.93898  -4.93661  -4.93419
 Alpha  occ. eigenvalues --   -1.42759  -1.33286  -1.16326  -0.92727  -0.89126
 Alpha  occ. eigenvalues --   -0.78185  -0.72301  -0.69027  -0.65025  -0.63862
 Alpha  occ. eigenvalues --   -0.61159  -0.59783  -0.56319  -0.52794  -0.51125
 Alpha  occ. eigenvalues --   -0.47181  -0.39366  -0.36661
 Alpha virt. eigenvalues --    0.03381   0.04078   0.04949   0.05530   0.07028
 Alpha virt. eigenvalues --    0.07833   0.09160   0.10027   0.11127   0.11845
 Alpha virt. eigenvalues --    0.12720   0.13458   0.14240   0.14785   0.16294

 Mulliken charges:
               1
     1  C    0.411693
     2  P    0.633289
     3  O   -0.487018
     4  O   -0.478101
     5  N   -0.631455
     6  C    0.774735
     7  H   -0.198232
     8  H   -0.058095
     9  H   -0.183281
    10  H    0.159083
    11  H    0.094552
    12  H   -0.037169
 Sum of Mulliken charges =  -0.00000

 Dipole moment (field-independent basis, Debye):
    X=             -0.7268    Y=             -0.1132    Z=              0.8156  Tot=              1.0983

 Test job not archived.
 1\1\GINC-SE328\SP\RHF\Aug-CC-pVDZ\C2H6N1O2P1\OHZDE\08-Apr-2025\0\\#t h
 f aug-cc-pvdz iop(5/13=1,5/36=2,99/5=2) pseudo=read geom=check guess=(
 read,tcheck) scf=(maxcycle=1)\\title\\0,1\C,0,1.104838,0.248824,-0.096
 834\P,0,-0.199056,-1.10699,-0.181289\O,0,0.999166,1.340245,-0.596209\O
 ,0,2.236178,-0.180125,0.513974\N,0,-1.660933,-0.272541,-0.284884\C,0,-
 2.0288,0.881947,0.537843\H,0,-3.088574,1.106162,0.394539\H,0,-1.438661
 ,1.774048,0.306154\H,0,-1.881986,0.63134,1.591636\H,0,2.887808,0.53675
 7,0.442268\H,0,-0.168567,-1.355803,1.212422\H,0,-2.036617,-0.245457,-1

 Normal termination of Gaussian 16 at Tue Apr  8 23:37:19 2025.
