 Gaussian 16, Revision C.01,

 ----------------------------------------------------------------------
 #t hf aug-cc-pvdz symm=none int=(grid=ultrafine) guess=(read,tcheck) s
 table=(opt,rrhf)
 ----------------------------------------------------------------------
 -----
 title
 -----
 Symbolic Z-matrix:
 Charge =  0 Multiplicity = 1

 SCF Done:  E(RHF) =  -1024.09737369     A.U. after   16 cycles
 Normal termination of Gaussian 16 at Tue Apr  8 23:15:48 2025.
 Gaussian 16:  ES64L-G16RevC.01  3-Jul-2019

 ----------------------------------------------------------------------
 #t hf aug-cc-pvdz iop(5/13=1,5/36=2,99/5=2) pseudo=read geom=check gue
 ss=(read,tcheck) scf=(maxcycle=1)
 ----------------------------------------------------------------------
 -----
 title
 -----
 Structure from the checkpoint file:  "BDE49_nonexpt_1052_mol1.chk"
 Charge =  0 Multiplicity = 1

                         Standard orientation:
 ---------------------------------------------------------------------
 Center     Atomic      Atomic             Coordinates (Angstroms)
 Number     Number       Type             X           Y           Z
 ---------------------------------------------------------------------
      1         17           0       -1.897851   -0.538030   -0.140033
      2          8           0       -0.656482    0.521732    0.682195
      3          6           0        1.698930   -0.343558   -0.014865
      4          7           0        2.472110   -1.201041    0.084111
      5         16           0        0.626061    0.965080   -0.223537
 ---------------------------------------------------------------------

 SCF Done:  E(RHF) =  -1024.19332510     A.U. after    2 cycles

 The electronic state is 1-A.
 Alpha  occ. eigenvalues -- -103.75144 -93.68245 -20.72391 -15.68336 -11.33216
 Alpha  occ. eigenvalues --  -10.77752  -8.97214  -8.43484  -8.43053  -8.43037
 Alpha  occ. eigenvalues --   -6.31452  -6.31106  -6.30658  -1.41531  -1.22599
 Alpha  occ. eigenvalues --   -1.15996  -1.01896  -0.76623  -0.68981  -0.66983
 Alpha  occ. eigenvalues --   -0.60655  -0.56199  -0.54145  -0.52046  -0.50416
 Alpha  occ. eigenvalues --   -0.49981  -0.41192
 Alpha virt. eigenvalues --   -0.02338   0.05373   0.05657   0.08273   0.09649
 Alpha virt. eigenvalues --    0.10534   0.11930   0.12454   0.12849   0.13929
 Alpha virt. eigenvalues --    0.14278   0.16414   0.17051   0.18392   0.21506

 Mulliken charges:
               1
     1  Cl   0.284525
     2  O   -0.796578
     3  C   -0.368287
     4  N   -0.142235
     5  S    1.022575
 Sum of Mulliken charges =  -0.00000

 Dipole moment (field-independent basis, Debye):
    X=             -1.6089    Y=              1.7435    Z=             -1.0737  Tot=              2.6041

 Test job not archived.
 1\1\GINC-SE364\SP\RHF\Aug-CC-pVDZ\C1Cl1N1O1S1\OHZDE\08-Apr-2025\0\\#t
 hf aug-cc-pvdz iop(5/13=1,5/36=2,99/5=2) pseudo=read geom=check guess=
 (read,tcheck) scf=(maxcycle=1)\\title\\0,1\Cl,0,-1.897851,-0.538029,-0
 .140033\O,0,-0.656482,0.521732,0.682195\C,0,1.69893,-0.343558,-0.01486
 5\N,0,2.47211,-1.201041,0.084111\S,0,0.626061,0.96508,-0.223537\\Versi
 on=ES64L-G16RevC.01\State=1-A\HF=-1024.1933251\RMSD=3.848e-03\Dipole=-
 0.6329995,0.6859578,-0.4224271\Quadrupole=-1.425236,0.7006339,0.724602
 1,4.7002246,0.103717,-0.2429591\PG=C01 [X(C1Cl1N1O1S1)]\\@

 Normal termination of Gaussian 16 at Tue Apr  8 23:15:50 2025.
