 Gaussian 16, Revision C.01,

 ----------------------------------------------------------------------
 #t hf aug-cc-pvdz symm=none int=(grid=ultrafine) guess=(read,tcheck) s
 table=(opt,rrhf)
 ----------------------------------------------------------------------
 -----
 title
 -----
 Symbolic Z-matrix:
 Charge =  0 Multiplicity = 1

 SCF Done:  E(RHF) =  -1007.43106337     A.U. after   15 cycles
 Normal termination of Gaussian 16 at Tue Apr  8 23:25:21 2025.
 Gaussian 16:  ES64L-G16RevC.01  3-Jul-2019

 ----------------------------------------------------------------------
 #t hf aug-cc-pvdz iop(5/13=1,5/36=2,99/5=2) pseudo=read geom=check gue
 ss=(read,tcheck) scf=(maxcycle=1)
 ----------------------------------------------------------------------
 -----
 title
 -----
 Structure from the checkpoint file:  "BDE49_nonexpt_1304_mol1.chk"
 Charge =  0 Multiplicity = 1

                         Standard orientation:
 ---------------------------------------------------------------------
 Center     Atomic      Atomic             Coordinates (Angstroms)
 Number     Number       Type             X           Y           Z
 ---------------------------------------------------------------------
      1          6           0       -0.479218    0.586733   -0.208164
      2         15           0        1.165652   -0.209122    0.231231
      3          7           0       -1.648803   -0.403126    0.099004
      4          8           0        1.182554   -0.571471    1.644766
      5          8           0        1.352521   -1.294568   -0.899671
      6          8           0       -1.449548   -1.549266   -0.287024
      7          8           0       -2.629946    0.025595    0.645581
      8          9           0       -0.692345    1.693507    0.501856
      9          9           0       -0.595719    0.871545   -1.517811
     10          1           0        0.608073   -1.917539   -0.917170
     11          8           0        2.207375    0.878171   -0.267885
     12          1           0        2.613002    1.362704    0.462117
 ---------------------------------------------------------------------

 SCF Done:  E(RHF) =  -1007.71874447     A.U. after    2 cycles

 The electronic state is 1-A.
 Alpha  occ. eigenvalues --  -81.47477 -26.21578 -26.21516 -20.68093 -20.66656
 Alpha  occ. eigenvalues --  -20.66294 -20.65524 -20.57229 -15.96482 -11.53813
 Alpha  occ. eigenvalues --   -7.95771  -5.10459  -5.10367  -5.10094  -1.78839
 Alpha  occ. eigenvalues --   -1.73808  -1.60371  -1.43130  -1.42437  -1.39334
 Alpha  occ. eigenvalues --   -1.30849  -1.12440  -0.97339  -0.92474  -0.90057
 Alpha  occ. eigenvalues --   -0.88065  -0.87048  -0.81047  -0.79734  -0.78731
 Alpha  occ. eigenvalues --   -0.77561  -0.77228  -0.75746  -0.73887  -0.70591
 Alpha  occ. eigenvalues --   -0.67666  -0.63762  -0.62503  -0.59401  -0.57275
 Alpha  occ. eigenvalues --   -0.54936  -0.53455  -0.52213  -0.51876
 Alpha virt. eigenvalues --    0.02679   0.03365   0.04584   0.06795   0.08373
 Alpha virt. eigenvalues --    0.09370   0.10278   0.11175   0.11479   0.12251
 Alpha virt. eigenvalues --    0.14606   0.15649   0.16531   0.17029   0.19014

 Mulliken charges:
               1
     1  C    0.863152
     2  P    2.292870
     3  N    0.349233
     4  O   -0.850774
     5  O   -0.684795
     6  O   -0.591220
     7  O   -0.467231
     8  F   -0.267234
     9  F   -0.348734
    10  H    0.197004
    11  O   -0.661208
    12  H    0.168938
 Sum of Mulliken charges =  -0.00000

 Dipole moment (field-independent basis, Debye):
    X=              2.0204    Y=              1.2591    Z=             -1.4213  Tot=              2.7727

 Test job not archived.
 1\1\GINC-SE461\SP\RHF\Aug-CC-pVDZ\C1H2F2N1O5P1\OHZDE\08-Apr-2025\0\\#t
  hf aug-cc-pvdz iop(5/13=1,5/36=2,99/5=2) pseudo=read geom=check guess
 =(read,tcheck) scf=(maxcycle=1)\\title\\0,1\C,0,0.479218,0.586733,0.20
 8164\P,0,-1.165652,-0.209122,-0.231231\N,0,1.648803,-0.403126,-0.09900
 4\O,0,-1.182554,-0.571471,-1.644766\O,0,-1.352521,-1.294568,0.899671\O
 ,0,1.449548,-1.549266,0.287024\O,0,2.629946,0.025595,-0.645581\F,0,0.6
 92345,1.693507,-0.501856\F,0,0.595719,0.871545,1.517811\H,0,-0.608073,
 -1.917539,0.91717\O,0,-2.207375,0.878171,0.267885\H,0,-2.613002,1.3627

 Normal termination of Gaussian 16 at Tue Apr  8 23:25:29 2025.
