 Gaussian 16, Revision C.01,

 ----------------------------------------------------------------------
 #t hf aug-cc-pvdz symm=none int=(grid=ultrafine) guess=(read,tcheck) s
 table=(opt,rrhf)
 ----------------------------------------------------------------------
 -----
 title
 -----
 Symbolic Z-matrix:
 Charge =  0 Multiplicity = 1

 SCF Done:  E(RHF) =  -650.120008260     A.U. after   15 cycles

 1\1\GINC-SE329\Stability\RHF\Aug-CC-pVDZ\C8H11P1\OHZDE\08-Apr-2025\0\\
 #t hf aug-cc-pvdz symm=none int=(grid=ultrafine) guess=(read,tcheck) s
 table=(opt,rrhf)\\title\\0,1\C,0,-0.644635,-1.616123,0.000014\C,0,0.72
 7623,-1.395548,0.00002\C,0,1.228472,-0.089955,0.000025\C,0,-1.558998,-
 0.557691,0.000009\C,0,-1.068298,0.760826,0.00001\C,0,0.314473,0.968299
 ,0.000023\H,0,-1.019252,-2.635011,0.00002\H,0,1.40601,-2.241364,0.0000
 25\P,0,3.029503,0.327817,-0.000003\C,0,-3.041899,-0.835644,-0.000031\H
 ,0,-3.240223,-1.908694,0.000399\H,0,-3.532257,-0.404552,-0.879192\H,0,

 Normal termination of Gaussian 16 at Tue Apr  8 23:32:24 2025.
 Gaussian 16:  ES64L-G16RevC.01  3-Jul-2019

 ----------------------------------------------------------------------
 #t hf aug-cc-pvdz iop(5/13=1,5/36=2,99/5=2) pseudo=read geom=check gue
 ss=(read,tcheck) scf=(maxcycle=1)
 ----------------------------------------------------------------------
 -----
 title
 -----
 Structure from the checkpoint file:  "BDE49_nonexpt_1433_mol1.chk"
 Charge =  0 Multiplicity = 1

                         Standard orientation:
 ---------------------------------------------------------------------
 Center     Atomic      Atomic             Coordinates (Angstroms)
 Number     Number       Type             X           Y           Z
 ---------------------------------------------------------------------
      1          6           0        0.644635   -1.616123   -0.000014
      2          6           0       -0.727623   -1.395548   -0.000020
      3          6           0       -1.228472   -0.089955   -0.000025
      4          6           0        1.558998   -0.557691   -0.000009
      5          6           0        1.068298    0.760826   -0.000010
      6          6           0       -0.314473    0.968299   -0.000023
      7          1           0        1.019252   -2.635011   -0.000020
      8          1           0       -1.406010   -2.241364   -0.000025
      9         15           0       -3.029503    0.327817    0.000003
     10          6           0        3.041899   -0.835644    0.000031
     11          1           0        3.240223   -1.908694   -0.000399
     12          1           0        3.532257   -0.404552    0.879192
     13          1           0        3.532469   -0.403794   -0.878632
     14          6           0        2.009384    1.940963   -0.000003
     15          1           0        2.662426    1.935870    0.879054
     16          1           0        1.457345    2.882193    0.000251
     17          1           0        2.662077    1.936150   -0.879326
     18          1           0       -0.688296    1.987694   -0.000028
     19          1           0       -3.442475   -0.558102    1.030267
     20          1           0       -3.442599   -0.558411   -1.029945
 ---------------------------------------------------------------------

 SCF Done:  E(RHF) =  -650.232544821     A.U. after    2 cycles

 The electronic state is 1-A.
 Alpha  occ. eigenvalues --  -81.25421 -11.25309 -11.24980 -11.24778 -11.24540
 Alpha  occ. eigenvalues --  -11.24389 -11.24203 -11.23849 -11.23706  -7.75759
 Alpha  occ. eigenvalues --   -4.89822  -4.89668  -4.89494  -1.15024  -1.04937
 Alpha  occ. eigenvalues --   -1.03117  -0.95155  -0.92104  -0.82456  -0.81033
 Alpha  occ. eigenvalues --   -0.75510  -0.66483  -0.65773  -0.61710  -0.59878
 Alpha  occ. eigenvalues --   -0.57523  -0.55749  -0.54878  -0.54636  -0.53817
 Alpha  occ. eigenvalues --   -0.52732  -0.48795  -0.47616  -0.46397  -0.35470
 Alpha  occ. eigenvalues --   -0.33742  -0.32451
 Alpha virt. eigenvalues --    0.03274   0.03936   0.04124   0.05492   0.05499
 Alpha virt. eigenvalues --    0.05963   0.07250   0.07304   0.07543   0.07981
 Alpha virt. eigenvalues --    0.08914   0.09563   0.10022   0.10739   0.10906

 Mulliken charges:
               1
     1  C    0.794453
     2  C    0.742255
     3  C   -0.510760
     4  C   -0.600626
     5  C   -0.248306
     6  C    0.175993
     7  H   -0.628806
     8  H   -0.524213
     9  P   -0.173136
    10  C    0.637074
    11  H   -0.264701
    12  H    0.157230
    13  H    0.157216
    14  C    0.539806
    15  H    0.171346
    16  H   -0.249921
    17  H    0.171369
    18  H   -0.587891
    19  H    0.120824
    20  H    0.120794
 Sum of Mulliken charges =   0.00000

 Dipole moment (field-independent basis, Debye):
    X=              1.7558    Y=             -0.5619    Z=              0.0001  Tot=              1.8435

 Test job not archived.
 1\1\GINC-SE329\SP\RHF\Aug-CC-pVDZ\C8H11P1\OHZDE\08-Apr-2025\0\\#t hf a
 ug-cc-pvdz iop(5/13=1,5/36=2,99/5=2) pseudo=read geom=check guess=(rea
 d,tcheck) scf=(maxcycle=1)\\title\\0,1\C,0,-0.644635,-1.616123,0.00001
 4\C,0,0.727623,-1.395548,0.00002\C,0,1.228472,-0.089955,0.000025\C,0,-
 1.558998,-0.557691,0.000009\C,0,-1.068298,0.760826,0.00001\C,0,0.31447
 3,0.968299,0.000023\H,0,-1.019252,-2.635011,0.00002\H,0,1.40601,-2.241
 364,0.000025\P,0,3.029503,0.327817,-0.000003\C,0,-3.041899,-0.835644,-
 0.000031\H,0,-3.240223,-1.908694,0.000399\H,0,-3.532257,-0.404552,-0.8

 Normal termination of Gaussian 16 at Tue Apr  8 23:32:35 2025.
