 Gaussian 16, Revision C.01,

 ----------------------------------------------------------------------
 #t hf aug-cc-pvdz symm=none int=(grid=ultrafine) guess=(read,tcheck) s
 table=(opt,rrhf)
 ----------------------------------------------------------------------
 -----
 title
 -----
 Symbolic Z-matrix:
 Charge =  0 Multiplicity = 1

 SCF Done:  E(RHF) =  -745.616859288     A.U. after   15 cycles
 Normal termination of Gaussian 16 at Tue Apr  8 22:45:50 2025.
 Gaussian 16:  ES64L-G16RevC.01  3-Jul-2019

 ----------------------------------------------------------------------
 #t hf aug-cc-pvdz iop(5/13=1,5/36=2,99/5=2) pseudo=read geom=check gue
 ss=(read,tcheck) scf=(maxcycle=1)
 ----------------------------------------------------------------------
 -----
 title
 -----
 Structure from the checkpoint file:  "BDE49_expt_1544_mol1.chk"
 Charge =  0 Multiplicity = 1

                         Standard orientation:
 ---------------------------------------------------------------------
 Center     Atomic      Atomic             Coordinates (Angstroms)
 Number     Number       Type             X           Y           Z
 ---------------------------------------------------------------------
      1         14           0       -1.469096    0.014619   -0.010245
      2          8           0       -2.176072   -0.115027    1.465660
      3          8           0       -1.900848    1.470734   -0.625201
      4          8           0       -2.043786   -1.285375   -0.847620
      5          6           0        0.388910    0.008985   -0.010442
      6          6           0        1.119686    1.207956    0.001675
      7          6           0        2.512034    1.197943    0.028129
      8          1           0        0.587965    2.152257   -0.020372
      9          1           0       -2.791524    1.779329   -0.441351
     10          1           0       -2.438004   -0.991457    1.755907
     11          1           0       -1.687137   -1.438653   -1.725927
     12          6           0        1.102891   -1.200695   -0.001441
     13          6           0        2.495278   -1.214305    0.026416
     14          6           0        3.201634   -0.013137    0.042728
     15          1           0        3.059656    2.134046    0.035354
     16          1           0        3.028535   -2.158686    0.033671
     17          1           0        4.285959   -0.021079    0.063486
     18          1           0        0.564954   -2.143565   -0.022442
 ---------------------------------------------------------------------

 SCF Done:  E(RHF) =  -745.806787649     A.U. after    2 cycles

 The electronic state is 1-A.
 Alpha  occ. eigenvalues --  -69.13086 -20.57396 -20.57028 -20.56784 -11.25254
 Alpha  occ. eigenvalues --  -11.25199 -11.24915 -11.24683 -11.24551 -11.23074
 Alpha  occ. eigenvalues --   -6.87302  -3.98310  -3.98277  -3.98116  -1.32583
 Alpha  occ. eigenvalues --   -1.29712  -1.29094  -1.14192  -1.01168  -1.00933
 Alpha  occ. eigenvalues --   -0.83034  -0.82824  -0.77735  -0.73162  -0.72145
 Alpha  occ. eigenvalues --   -0.70567  -0.64023  -0.62956  -0.60507  -0.60018
 Alpha  occ. eigenvalues --   -0.59208  -0.57283  -0.56335  -0.54478  -0.53779
 Alpha  occ. eigenvalues --   -0.52293  -0.50493  -0.49694  -0.45809  -0.34539
 Alpha  occ. eigenvalues --   -0.34199
 Alpha virt. eigenvalues --    0.02869   0.03950   0.04195   0.05429   0.05570
 Alpha virt. eigenvalues --    0.05864   0.07160   0.07686   0.07929   0.08332
 Alpha virt. eigenvalues --    0.09214   0.10136   0.10677   0.11763   0.13276

 Mulliken charges:
               1
     1  Si   2.234577
     2  O   -0.822797
     3  O   -0.806403
     4  O   -0.768620
     5  C   -0.183058
     6  C    0.358472
     7  C    0.602253
     8  H   -0.603898
     9  H    0.127914
    10  H    0.116329
    11  H    0.097373
    12  C    0.320971
    13  C    0.608464
    14  C    0.718085
    15  H   -0.450641
    16  H   -0.449626
    17  H   -0.442931
    18  H   -0.656463
 Sum of Mulliken charges =  -0.00000

 Dipole moment (field-independent basis, Debye):
    X=              0.4384    Y=             -1.0166    Z=             -0.6748  Tot=              1.2966

 Test job not archived.
 1\1\GINC-SE227\SP\RHF\Aug-CC-pVDZ\C6H8O3Si1\OHZDE\08-Apr-2025\0\\#t hf
  aug-cc-pvdz iop(5/13=1,5/36=2,99/5=2) pseudo=read geom=check guess=(r
 ead,tcheck) scf=(maxcycle=1)\\title\\0,1\Si,0,-1.469096,0.014619,-0.01
 0245\O,0,-2.176072,-0.115027,1.46566\O,0,-1.900848,1.470734,-0.625201\
 O,0,-2.043786,-1.285375,-0.84762\C,0,0.38891,0.008985,-0.010442\C,0,1.
 119686,1.207956,0.001675\C,0,2.512034,1.197943,0.028129\H,0,0.587965,2
 .152257,-0.020372\H,0,-2.791524,1.779329,-0.441351\H,0,-2.438004,-0.99
 1457,1.755907\H,0,-1.687137,-1.438653,-1.725927\C,0,1.102891,-1.200695

 Normal termination of Gaussian 16 at Tue Apr  8 22:46:00 2025.
