 Gaussian 16, Revision C.01,

 ----------------------------------------------------------------------
 #t hf aug-cc-pvdz symm=none int=(grid=ultrafine) guess=(read,tcheck) s
 table=(opt,rrhf)
 ----------------------------------------------------------------------
 -----
 title
 -----
 Symbolic Z-matrix:
 Charge =  0 Multiplicity = 1

 SCF Done:  E(RHF) =  -267.701253387     A.U. after   14 cycles
 Normal termination of Gaussian 16 at Tue Apr  8 22:58:49 2025.
 Gaussian 16:  ES64L-G16RevC.01  3-Jul-2019

 ----------------------------------------------------------------------
 #t hf aug-cc-pvdz iop(5/13=1,5/36=2,99/5=2) pseudo=read geom=check gue
 ss=(read,tcheck) scf=(maxcycle=1)
 ----------------------------------------------------------------------
 -----
 title
 -----
 Structure from the checkpoint file:  "BDE49_expt_199_mol1.chk"
 Charge =  0 Multiplicity = 1

                         Standard orientation:
 ---------------------------------------------------------------------
 Center     Atomic      Atomic             Coordinates (Angstroms)
 Number     Number       Type             X           Y           Z
 ---------------------------------------------------------------------
      1          8           0        0.073497   -1.062308    0.000004
      2          6           0        1.397950   -0.731623   -0.000012
      3          6           0        1.546652    0.616363    0.000018
      4          6           0        0.219154    1.162394   -0.000016
      5          6           0       -0.638503    0.105368   -0.000000
      6          1           0       -0.057509    2.204915   -0.000027
      7          1           0        2.088639   -1.557584   -0.000019
      8          1           0        2.478535    1.159044    0.000033
      9          6           0       -2.120549   -0.014826    0.000005
     10          1           0       -2.574342    0.977092   -0.000018
     11          1           0       -2.475763   -0.555504    0.882917
     12          1           0       -2.475764   -0.555545   -0.882881
 ---------------------------------------------------------------------

 SCF Done:  E(RHF) =  -267.785676581     A.U. after    2 cycles

 The electronic state is 1-A.
 Alpha  occ. eigenvalues --  -20.62943 -11.30145 -11.29250 -11.24542 -11.23646
 Alpha  occ. eigenvalues --  -11.23103  -1.41203  -1.07273  -1.04299  -0.93101
 Alpha  occ. eigenvalues --   -0.81183  -0.76435  -0.71406  -0.65233  -0.61084
 Alpha  occ. eigenvalues --   -0.56944  -0.56861  -0.56623  -0.56210  -0.52676
 Alpha  occ. eigenvalues --   -0.40040  -0.31017
 Alpha virt. eigenvalues --    0.03517   0.04064   0.04495   0.05746   0.06168
 Alpha virt. eigenvalues --    0.06931   0.10426   0.11051   0.11919   0.12535
 Alpha virt. eigenvalues --    0.13315   0.13995   0.14859   0.15364   0.16132

 Mulliken charges:
               1
     1  O   -0.577285
     2  C    0.646795
     3  C    0.320288
     4  C    0.665493
     5  C   -0.458854
     6  H   -0.359358
     7  H   -0.337021
     8  H   -0.306437
     9  C    0.301439
    10  H   -0.009304
    11  H    0.057118
    12  H    0.057127
 Sum of Mulliken charges =  -0.00000

 Dipole moment (field-independent basis, Debye):
    X=             -0.2518    Y=              0.8082    Z=             -0.0000  Tot=              0.8465

 Test job not archived.
 1\1\GINC-SE086\SP\RHF\Aug-CC-pVDZ\C5H6O1\OHZDE\08-Apr-2025\0\\#t hf au
 g-cc-pvdz iop(5/13=1,5/36=2,99/5=2) pseudo=read geom=check guess=(read
 ,tcheck) scf=(maxcycle=1)\\title\\0,1\O,0,0.073497,-1.062308,0.000004\
 C,0,1.39795,-0.731623,-0.000012\C,0,1.546652,0.616363,0.000018\C,0,0.2
 19154,1.162394,-0.000016\C,0,-0.638503,0.105368,0.\H,0,-0.057509,2.204
 915,-0.000027\H,0,2.088639,-1.557584,-0.000019\H,0,2.478535,1.159044,0
 .000033\C,0,-2.120549,-0.014826,0.000005\H,0,-2.574342,0.977092,-0.000
 018\H,0,-2.475763,-0.555504,0.882917\H,0,-2.475764,-0.555545,-0.882881

 Normal termination of Gaussian 16 at Tue Apr  8 22:58:53 2025.
