 Gaussian 16, Revision C.01,

 ----------------------------------------------------------------------
 #t hf aug-cc-pvdz symm=none int=(grid=ultrafine) guess=(read,tcheck) s
 table=(opt,rrhf)
 ----------------------------------------------------------------------
 -----
 title
 -----
 Symbolic Z-matrix:
 Charge =  0 Multiplicity = 1

 SCF Done:  E(RHF) =  -1076.33570858     A.U. after   13 cycles
 Normal termination of Gaussian 16 at Wed Apr  9 00:16:40 2025.
 Gaussian 16:  ES64L-G16RevC.01  3-Jul-2019

 ----------------------------------------------------------------------
 #t hf aug-cc-pvdz iop(5/13=1,5/36=2,99/5=2) pseudo=read geom=check gue
 ss=(read,tcheck) scf=(maxcycle=1)
 ----------------------------------------------------------------------
 -----
 title
 -----
 Structure from the checkpoint file:  "BDE49_nonexpt_257_mol1.chk"
 Charge =  0 Multiplicity = 1

                         Standard orientation:
 ---------------------------------------------------------------------
 Center     Atomic      Atomic             Coordinates (Angstroms)
 Number     Number       Type             X           Y           Z
 ---------------------------------------------------------------------
      1          5           0       -0.505422   -0.000004    0.056389
      2         17           0       -1.404080   -1.537663   -0.058952
      3         17           0       -1.404048    1.537678   -0.058950
      4          7           0        0.846174   -0.000011    0.196792
      5          6           0        2.048468   -0.000013    0.535003
      6          6           0        3.203272   -0.000008   -0.421675
      7          1           0        2.859727   -0.000017   -1.455268
      8          1           0        3.831114   -0.879010   -0.241235
      9          1           0        3.831094    0.879011   -0.241245
     10          1           0        2.309698   -0.000017    1.602621
 ---------------------------------------------------------------------

 SCF Done:  E(RHF) =  -1076.42100213     A.U. after    2 cycles

 The electronic state is 1-A.
 Alpha  occ. eigenvalues -- -103.65042-103.65041 -15.64524 -11.35177 -11.26668
 Alpha  occ. eigenvalues --  -10.68515 -10.68481  -8.34200  -8.34192  -8.33965
 Alpha  occ. eigenvalues --   -8.33964  -8.33950  -8.33950  -7.73032  -1.22383
 Alpha  occ. eigenvalues --   -1.15559  -1.12514  -1.01829  -0.87088  -0.74316
 Alpha  occ. eigenvalues --   -0.64553  -0.62490  -0.61785  -0.58003  -0.57483
 Alpha  occ. eigenvalues --   -0.51708  -0.48172  -0.46802  -0.46563  -0.44339
 Alpha  occ. eigenvalues --   -0.40167
 Alpha virt. eigenvalues --    0.02639   0.03974   0.04573   0.05438   0.06996
 Alpha virt. eigenvalues --    0.07423   0.07484   0.08468   0.08717   0.12564
 Alpha virt. eigenvalues --    0.12912   0.13432   0.13837   0.14055   0.14093

 Mulliken charges:
               1
     1  B    0.412578
     2  Cl  -0.354892
     3  Cl  -0.354895
     4  N   -0.059910
     5  C    0.476267
     6  C    0.158027
     7  H   -0.129830
     8  H    0.032508
     9  H    0.032511
    10  H   -0.212364
 Sum of Mulliken charges =  -0.00000

 Dipole moment (field-independent basis, Debye):
    X=              4.8011    Y=             -0.0000    Z=              0.6545  Tot=              4.8455

 Test job not archived.
 1\1\GINC-SE071\SP\RHF\Aug-CC-pVDZ\C2H4B1Cl2N1\OHZDE\09-Apr-2025\0\\#t
 hf aug-cc-pvdz iop(5/13=1,5/36=2,99/5=2) pseudo=read geom=check guess=
 (read,tcheck) scf=(maxcycle=1)\\title\\0,1\B,0,-0.505422,-0.000004,0.0
 56389\Cl,0,-1.40408,-1.537663,-0.058952\Cl,0,-1.404048,1.537678,-0.058
 95\N,0,0.846174,-0.000011,0.196792\C,0,2.048468,-0.000013,0.535003\C,0
 ,3.203272,-0.000008,-0.421675\H,0,2.859727,-0.000017,-1.455268\H,0,3.8
 31114,-0.87901,-0.241235\H,0,3.831094,0.879011,-0.241245\H,0,2.309698,
 -0.000017,1.602621\\Version=ES64L-G16RevC.01\State=1-A\HF=-1076.421002

 Normal termination of Gaussian 16 at Wed Apr  9 00:16:44 2025.
