 Gaussian 16, Revision C.01,

 ----------------------------------------------------------------------
 #t hf aug-cc-pvdz symm=none int=(grid=ultrafine) guess=(read,tcheck) s
 table=(opt,rrhf)
 ----------------------------------------------------------------------
 -----
 title
 -----
 Symbolic Z-matrix:
 Charge =  0 Multiplicity = 1

 SCF Done:  E(RHF) =  -215.949515754     A.U. after   13 cycles
 Normal termination of Gaussian 16 at Tue Apr  8 22:43:27 2025.
 Gaussian 16:  ES64L-G16RevC.01  3-Jul-2019

 ----------------------------------------------------------------------
 #t hf aug-cc-pvdz iop(5/13=1,5/36=2,99/5=2) pseudo=read geom=check gue
 ss=(read,tcheck) scf=(maxcycle=1)
 ----------------------------------------------------------------------
 -----
 title
 -----
 Structure from the checkpoint file:  "BDE49_expt_1519_mol1.chk"
 Charge =  0 Multiplicity = 1

                         Standard orientation:
 ---------------------------------------------------------------------
 Center     Atomic      Atomic             Coordinates (Angstroms)
 Number     Number       Type             X           Y           Z
 ---------------------------------------------------------------------
      1          6           0       -0.602656    0.379017    0.000000
      2          6           0        0.456431   -0.413419    0.000000
      3          9           0       -1.864567   -0.107167    0.000000
      4          1           0       -0.584177    1.463495   -0.000001
      5          6           0        1.869153    0.090480    0.000000
      6          1           0        0.289086   -1.486747    0.000001
      7          1           0        1.908815    1.182554   -0.000001
      8          1           0        2.414905   -0.265634   -0.879934
      9          1           0        2.414905   -0.265633    0.879934
 ---------------------------------------------------------------------

 SCF Done:  E(RHF) =  -216.024692717     A.U. after    2 cycles

 The electronic state is 1-A.
 Alpha  occ. eigenvalues --  -26.12529 -11.32767 -11.25095 -11.24684  -1.66277
 Alpha  occ. eigenvalues --   -1.07798  -0.95148  -0.83299  -0.76060  -0.73874
 Alpha  occ. eigenvalues --   -0.70734  -0.59237  -0.58054  -0.56584  -0.52753
 Alpha  occ. eigenvalues --   -0.37425
 Alpha virt. eigenvalues --    0.03476   0.04614   0.05162   0.05699   0.07345
 Alpha virt. eigenvalues --    0.10377   0.10684   0.12158   0.13585   0.15513
 Alpha virt. eigenvalues --    0.15934   0.16706   0.17073   0.17201   0.18172

 Mulliken charges:
               1
     1  C    0.550138
     2  C    0.190355
     3  F   -0.346266
     4  H   -0.223856
     5  C    0.234037
     6  H   -0.329175
     7  H   -0.125335
     8  H    0.025051
     9  H    0.025050
 Sum of Mulliken charges =  -0.00000

 Dipole moment (field-independent basis, Debye):
    X=              2.2298    Y=              0.5786    Z=             -0.0000  Tot=              2.3036

 Test job not archived.
 1\1\GINC-SE329\SP\RHF\Aug-CC-pVDZ\C3H5F1\OHZDE\08-Apr-2025\0\\#t hf au
 g-cc-pvdz iop(5/13=1,5/36=2,99/5=2) pseudo=read geom=check guess=(read
 ,tcheck) scf=(maxcycle=1)\\title\\0,1\C,0,-0.602656,0.379017,0.\C,0,0.
 456431,-0.413419,0.\F,0,-1.864567,-0.107167,0.\H,0,-0.584177,1.463495,
 -0.000001\C,0,1.869153,0.09048,0.\H,0,0.289086,-1.486747,0.000001\H,0,
 1.908815,1.182554,-0.000001\H,0,2.414905,-0.265634,-0.879934\H,0,2.414
 905,-0.265633,0.879934\\Version=ES64L-G16RevC.01\State=1-A\HF=-216.024
 6927\RMSD=7.036e-03\Dipole=0.8772673,0.2276434,0.\Quadrupole=-1.66079,

 Normal termination of Gaussian 16 at Tue Apr  8 22:43:30 2025.
