 Gaussian 16, Revision C.01,

 ----------------------------------------------------------------------
 #t hf aug-cc-pvdz symm=none int=(grid=ultrafine) guess=(read,tcheck) s
 table=(opt,rrhf)
 ----------------------------------------------------------------------
 -----
 title
 -----
 Symbolic Z-matrix:
 Charge =  0 Multiplicity = 1

 SCF Done:  E(RHF) =  -710.272266946     A.U. after   13 cycles
 Normal termination of Gaussian 16 at Tue Apr  8 22:28:27 2025.
 Gaussian 16:  ES64L-G16RevC.01  3-Jul-2019

 ----------------------------------------------------------------------
 #t hf aug-cc-pvdz iop(5/13=1,5/36=2,99/5=2) pseudo=read geom=check gue
 ss=(read,tcheck) scf=(maxcycle=1)
 ----------------------------------------------------------------------
 -----
 title
 -----
 Structure from the checkpoint file:  "BDE49_expt_1023_mol1.chk"
 Charge =  0 Multiplicity = 1

                         Standard orientation:
 ---------------------------------------------------------------------
 Center     Atomic      Atomic             Coordinates (Angstroms)
 Number     Number       Type             X           Y           Z
 ---------------------------------------------------------------------
      1          6           0       -1.124437    0.134411    0.000001
      2          9           0       -1.819694   -0.261481    1.082730
      3          9           0       -1.819705   -0.261523   -1.082706
      4          9           0       -1.074725    1.474015   -0.000026
      5          6           0        0.244237   -0.475363    0.000005
      6          6           0        1.411279    0.160452   -0.000007
      7          9           0        0.230425   -1.819092    0.000025
      8          9           0        1.568266    1.462965   -0.000025
      9          9           0        2.561380   -0.474551    0.000001
 ---------------------------------------------------------------------

 SCF Done:  E(RHF) =  -710.528660864     A.U. after    2 cycles

 The electronic state is 1-A.
 Alpha  occ. eigenvalues --  -26.21698 -26.21503 -26.19432 -26.18724 -26.18714
 Alpha  occ. eigenvalues --  -26.18632 -11.56762 -11.49739 -11.39756  -1.78988
 Alpha  occ. eigenvalues --   -1.78566  -1.74187  -1.72468  -1.71680  -1.71163
 Alpha  occ. eigenvalues --   -1.16257  -1.06443  -0.98298  -0.92733  -0.91567
 Alpha  occ. eigenvalues --   -0.90492  -0.89253  -0.86182  -0.86018  -0.80741
 Alpha  occ. eigenvalues --   -0.79562  -0.79463  -0.79101  -0.78371  -0.77359
 Alpha  occ. eigenvalues --   -0.76583  -0.74915  -0.74862  -0.73884  -0.65452
 Alpha  occ. eigenvalues --   -0.45099
 Alpha virt. eigenvalues --    0.05944   0.07546   0.07778   0.08626   0.10284
 Alpha virt. eigenvalues --    0.10476   0.11262   0.13029   0.13539   0.13630
 Alpha virt. eigenvalues --    0.14964   0.18945   0.20024   0.22015   0.24253

 Mulliken charges:
               1
     1  C    0.940435
     2  F   -0.288759
     3  F   -0.288759
     4  F   -0.269012
     5  C    0.034506
     6  C    0.648338
     7  F   -0.314917
     8  F   -0.217306
     9  F   -0.244525
 Sum of Mulliken charges =  -0.00000

 Dipole moment (field-independent basis, Debye):
    X=              1.0529    Y=              0.4081    Z=             -0.0000  Tot=              1.1293

 Test job not archived.
 1\1\GINC-SE072\SP\RHF\Aug-CC-pVDZ\C3F6\OHZDE\08-Apr-2025\0\\#t hf aug-
 cc-pvdz iop(5/13=1,5/36=2,99/5=2) pseudo=read geom=check guess=(read,t
 check) scf=(maxcycle=1)\\title\\0,1\C,0,-1.124437,0.134411,0.000001\F,
 0,-1.819694,-0.261481,1.08273\F,0,-1.819705,-0.261523,-1.082706\F,0,-1
 .074725,1.474015,-0.000026\C,0,0.244237,-0.475363,0.000005\C,0,1.41127
 9,0.160452,-0.000007\F,0,0.230425,-1.819092,0.000025\F,0,1.568266,1.46
 2965,-0.000025\F,0,2.56138,-0.474551,0.000001\\Version=ES64L-G16RevC.0
 1\State=1-A\HF=-710.5286609\RMSD=9.344e-03\Dipole=0.4142598,0.1605566,

 Normal termination of Gaussian 16 at Tue Apr  8 22:28:31 2025.
