 Gaussian 16, Revision C.01,

 ----------------------------------------------------------------------
 #t hf aug-cc-pvdz symm=none int=(grid=ultrafine) guess=(read,tcheck) s
 table=(opt,rrhf)
 ----------------------------------------------------------------------
 -----
 title
 -----
 Symbolic Z-matrix:
 Charge =  0 Multiplicity = 1

 SCF Done:  E(RHF) =  -561.364994224     A.U. after   12 cycles
 Normal termination of Gaussian 16 at Wed Apr  9 00:07:34 2025.
 Gaussian 16:  ES64L-G16RevC.01  3-Jul-2019

 ----------------------------------------------------------------------
 #t hf aug-cc-pvdz iop(5/13=1,5/36=2,99/5=2) pseudo=read geom=check gue
 ss=(read,tcheck) scf=(maxcycle=1)
 ----------------------------------------------------------------------
 -----
 title
 -----
 Structure from the checkpoint file:  "BDE49_nonexpt_2289_mol1.chk"
 Charge =  0 Multiplicity = 1

                         Standard orientation:
 ---------------------------------------------------------------------
 Center     Atomic      Atomic             Coordinates (Angstroms)
 Number     Number       Type             X           Y           Z
 ---------------------------------------------------------------------
      1          6           0        1.223616    0.074048   -0.000721
      2          8           0       -0.178248    0.391296   -0.136269
      3         14           0       -1.548248   -0.515510   -0.000030
      4          6           0       -2.987222    0.672628   -0.019609
      5          6           0        1.557176   -0.061246    1.490268
      6          1           0        2.625604   -0.244912    1.633925
      7          1           0        1.006296   -0.890687    1.940671
      8          1           0        1.289478    0.856032    2.019715
      9          6           0        1.553649   -1.219478   -0.756141
     10          1           0        1.027541   -2.076369   -0.325114
     11          1           0        2.625640   -1.428732   -0.707741
     12          1           0        1.267584   -1.133579   -1.807091
     13          1           0       -2.935363    1.365488    0.824132
     14          1           0       -3.933363    0.126142    0.043899
     15          1           0       -2.994338    1.259103   -0.942061
     16          6           0        1.968678    1.261548   -0.616075
     17          1           0        3.051064    1.128657   -0.536747
     18          1           0        1.690425    2.184153   -0.102176
     19          1           0        1.705076    1.366289   -1.670933
     20          1           0       -1.550018   -1.309702    1.257945
     21          1           0       -1.669557   -1.480111   -1.124183
 ---------------------------------------------------------------------

 SCF Done:  E(RHF) =  -561.486827612     A.U. after    2 cycles

 The electronic state is 1-A.
 Alpha  occ. eigenvalues --  -69.07805 -20.54801 -11.30354 -11.22758 -11.22410
 Alpha  occ. eigenvalues --  -11.22107 -11.21068  -6.82595  -3.93502  -3.93362
 Alpha  occ. eigenvalues --   -3.93342  -1.29668  -1.05772  -0.93888  -0.93635
 Alpha  occ. eigenvalues --   -0.93362  -0.78829  -0.67973  -0.63968  -0.63028
 Alpha  occ. eigenvalues --   -0.61152  -0.57218  -0.56447  -0.55563  -0.55384
 Alpha  occ. eigenvalues --   -0.52754  -0.51964  -0.51737  -0.51506  -0.47156
 Alpha  occ. eigenvalues --   -0.46406  -0.43389  -0.42632
 Alpha virt. eigenvalues --    0.03313   0.04388   0.04701   0.04843   0.05965
 Alpha virt. eigenvalues --    0.06202   0.06305   0.06920   0.07117   0.08357
 Alpha virt. eigenvalues --    0.08775   0.09087   0.09519   0.10010   0.10843

 Mulliken charges:
               1
     1  C   -2.485721
     2  O   -0.812440
     3  Si   0.763787
     4  C    0.256199
     5  C    0.987777
     6  H    0.020331
     7  H   -0.081062
     8  H   -0.001901
     9  C    1.060420
    10  H   -0.062754
    11  H   -0.002603
    12  H   -0.001924
    13  H   -0.204449
    14  H   -0.306980
    15  H   -0.196958
    16  C    0.937536
    17  H    0.029606
    18  H   -0.029296
    19  H   -0.018758
    20  H    0.042788
    21  H    0.106402
 Sum of Mulliken charges =  -0.00000

 Dipole moment (field-independent basis, Debye):
    X=              0.7966    Y=             -0.2924    Z=              0.1729  Tot=              0.8660

 Test job not archived.
 1\1\GINC-SE458\SP\RHF\Aug-CC-pVDZ\C5H14O1Si1\OHZDE\09-Apr-2025\0\\#t h
 f aug-cc-pvdz iop(5/13=1,5/36=2,99/5=2) pseudo=read geom=check guess=(
 read,tcheck) scf=(maxcycle=1)\\title\\0,1\C,0,-1.223616,-0.074048,-0.0
 00721\O,0,0.178248,-0.391296,-0.136269\Si,0,1.548248,0.51551,-0.00003\
 C,0,2.987222,-0.672628,-0.019609\C,0,-1.557176,0.061246,1.490268\H,0,-
 2.625604,0.244912,1.633925\H,0,-1.006296,0.890687,1.940671\H,0,-1.2894
 78,-0.856032,2.019715\C,0,-1.553649,1.219478,-0.756141\H,0,-1.027541,2
 .076369,-0.325114\H,0,-2.62564,1.428732,-0.707741\H,0,-1.267584,1.1335

 Normal termination of Gaussian 16 at Wed Apr  9 00:07:43 2025.
