 Gaussian 16, Revision C.01,

 ----------------------------------------------------------------------
 #t hf aug-cc-pvdz symm=none int=(grid=ultrafine) guess=(read,tcheck) s
 table=(opt,rrhf)
 ----------------------------------------------------------------------
 -----
 title
 -----
 Symbolic Z-matrix:
 Charge =  0 Multiplicity = 1

 SCF Done:  E(RHF) =  -2363.87454890     A.U. after   12 cycles
 Normal termination of Gaussian 16 at Tue Apr  8 23:48:26 2025.
 Gaussian 16:  ES64L-G16RevC.01  3-Jul-2019

 ----------------------------------------------------------------------
 #t hf aug-cc-pvdz iop(5/13=1,5/36=2,99/5=2) pseudo=read geom=check gue
 ss=(read,tcheck) scf=(maxcycle=1)
 ----------------------------------------------------------------------
 -----
 title
 -----
 Structure from the checkpoint file:  "BDE49_nonexpt_1857_mol1.chk"
 Charge =  0 Multiplicity = 1

                         Standard orientation:
 ---------------------------------------------------------------------
 Center     Atomic      Atomic             Coordinates (Angstroms)
 Number     Number       Type             X           Y           Z
 ---------------------------------------------------------------------
      1          6           0       -1.154426    0.622659   -0.000000
      2         14           0        0.632428   -0.094955   -0.000000
      3         17           0        0.891327   -1.220738    1.679590
      4         17           0        1.922380    1.487773   -0.000000
      5          9           0       -1.341856    1.401279   -1.090790
      6         17           0       -2.397625   -0.671567   -0.000000
      7         17           0        0.891328   -1.220739   -1.679588
      8          9           0       -1.341856    1.401280    1.090789
 ---------------------------------------------------------------------

 SCF Done:  E(RHF) =  -2364.06120236     A.U. after    2 cycles

 The electronic state is 1-A.
 Alpha  occ. eigenvalues -- -103.70007-103.69835-103.69835-103.69681 -69.24004
 Alpha  occ. eigenvalues --  -26.18464 -26.18455 -11.50964 -10.73353 -10.73294
 Alpha  occ. eigenvalues --  -10.73284 -10.73135  -8.39067  -8.38989  -8.38983
 Alpha  occ. eigenvalues --   -8.38830  -8.38745  -8.38738  -8.38737  -8.38735
 Alpha  occ. eigenvalues --   -8.38731  -8.38728  -8.38583  -8.38576  -6.97869
 Alpha  occ. eigenvalues --   -4.08731  -4.08728  -4.08602  -1.75266  -1.70528
 Alpha  occ. eigenvalues --   -1.21455  -1.20131  -1.17411  -1.17263  -1.00442
 Alpha  occ. eigenvalues --   -0.86646  -0.86417  -0.83310  -0.77608  -0.74156
 Alpha  occ. eigenvalues --   -0.73445  -0.66464  -0.60946  -0.60853  -0.57957
 Alpha  occ. eigenvalues --   -0.53790  -0.53523  -0.52539  -0.51639  -0.50934
 Alpha  occ. eigenvalues --   -0.50552  -0.49555  -0.48509
 Alpha virt. eigenvalues --    0.04772   0.05729   0.05844   0.06043   0.08522
 Alpha virt. eigenvalues --    0.10127   0.11025   0.11186   0.12016   0.12397
 Alpha virt. eigenvalues --    0.12430   0.13366   0.14790   0.15801   0.16404

 Mulliken charges:
               1
     1  C    0.548809
     2  Si   1.629205
     3  Cl  -0.431506
     4  Cl  -0.426461
     5  F   -0.350682
     6  Cl  -0.187178
     7  Cl  -0.431505
     8  F   -0.350682
 Sum of Mulliken charges =  -0.00000

 Dipole moment (field-independent basis, Debye):
    X=              0.8102    Y=             -0.9869    Z=             -0.0000  Tot=              1.2768

 Test job not archived.
 1\1\GINC-SE334\SP\RHF\Aug-CC-pVDZ\C1Cl4F2Si1\OHZDE\08-Apr-2025\0\\#t h
 f aug-cc-pvdz iop(5/13=1,5/36=2,99/5=2) pseudo=read geom=check guess=(
 read,tcheck) scf=(maxcycle=1)\\title\\0,1\C,0,-1.154426,0.622659,0.\Si
 ,0,0.632428,-0.094955,0.\Cl,0,0.891327,-1.220738,1.67959\Cl,0,1.92238,
 1.487773,0.\F,0,-1.341856,1.401279,-1.09079\Cl,0,-2.397625,-0.671567,0
 .\Cl,0,0.891328,-1.220739,-1.679588\F,0,-1.341856,1.40128,1.090789\\Ve
 rsion=ES64L-G16RevC.01\State=1-A\HF=-2364.0612024\RMSD=4.098e-03\Dipol
 e=0.3187397,-0.3882703,-0.0000016\Quadrupole=0.24304,-0.1048687,-0.138

 Normal termination of Gaussian 16 at Tue Apr  8 23:48:31 2025.
