 Gaussian 16, Revision C.01,

 ----------------------------------------------------------------------
 #t hf aug-cc-pvdz symm=none int=(grid=ultrafine) guess=(read,tcheck) s
 table=(opt,rrhf)
 ----------------------------------------------------------------------
 -----
 title
 -----
 Symbolic Z-matrix:
 Charge =  0 Multiplicity = 1

 SCF Done:  E(RHF) =  -630.669460855     A.U. after   15 cycles
 Normal termination of Gaussian 16 at Tue Apr  8 23:57:42 2025.
 Gaussian 16:  ES64L-G16RevC.01  3-Jul-2019

 ----------------------------------------------------------------------
 #t hf aug-cc-pvdz iop(5/13=1,5/36=2,99/5=2) pseudo=read geom=check gue
 ss=(read,tcheck) scf=(maxcycle=1)
 ----------------------------------------------------------------------
 -----
 title
 -----
 Structure from the checkpoint file:  "BDE49_nonexpt_2066_mol1.chk"
 Charge =  0 Multiplicity = 1

                         Standard orientation:
 ---------------------------------------------------------------------
 Center     Atomic      Atomic             Coordinates (Angstroms)
 Number     Number       Type             X           Y           Z
 ---------------------------------------------------------------------
      1         14           0        2.403040   -0.506472    0.171682
      2          6           0        0.757149    0.410907   -0.221046
      3          8           0        0.644165    1.539075   -0.591536
      4          8           0       -0.325957   -0.463191   -0.057627
      5          6           0       -1.636483   -0.001895    0.164432
      6          8           0       -1.879074    1.032482    0.699153
      7          6           0       -2.618994   -1.030316   -0.320878
      8          1           0       -2.385474   -2.006027    0.109841
      9          1           0       -2.538236   -1.124609   -1.406817
     10          1           0       -3.627325   -0.726043   -0.048057
     11          1           0        3.511548    0.431600   -0.082089
     12          1           0        2.503116   -1.696280   -0.699605
     13          1           0        2.370699   -0.927154    1.588209
 ---------------------------------------------------------------------

 SCF Done:  E(RHF) =  -630.801909237     A.U. after    2 cycles

 The electronic state is 1-A.
 Alpha  occ. eigenvalues --  -69.09603 -20.63914 -20.59190 -20.58442 -11.41699
 Alpha  occ. eigenvalues --  -11.40155 -11.26691  -6.84923  -3.95733  -3.95676
 Alpha  occ. eigenvalues --   -3.95674  -1.44799  -1.38786  -1.33872  -1.04007
 Alpha  occ. eigenvalues --   -0.91446  -0.77630  -0.74974  -0.71550  -0.69957
 Alpha  occ. eigenvalues --   -0.68195  -0.62983  -0.61379  -0.59359  -0.57927
 Alpha  occ. eigenvalues --   -0.54933  -0.51551  -0.50758  -0.50484  -0.49497
 Alpha  occ. eigenvalues --   -0.44084
 Alpha virt. eigenvalues --    0.02822   0.03961   0.04863   0.05418   0.05770
 Alpha virt. eigenvalues --    0.06254   0.07183   0.07868   0.09280   0.09724
 Alpha virt. eigenvalues --    0.10263   0.11964   0.12639   0.13438   0.13642

 Mulliken charges:
               1
     1  Si   0.248756
     2  C    0.287195
     3  O   -0.374980
     4  O   -0.499013
     5  C    0.417069
     6  O   -0.381275
     7  C    0.254183
     8  H    0.028060
     9  H    0.041027
    10  H   -0.011262
    11  H    0.011502
    12  H   -0.002615
    13  H   -0.018646
 Sum of Mulliken charges =   0.00000

 Dipole moment (field-independent basis, Debye):
    X=              0.5614    Y=             -4.4954    Z=             -0.5094  Tot=              4.5589

 Test job not archived.
 1\1\GINC-SE423\SP\RHF\Aug-CC-pVDZ\C3H6O3Si1\OHZDE\08-Apr-2025\0\\#t hf
  aug-cc-pvdz iop(5/13=1,5/36=2,99/5=2) pseudo=read geom=check guess=(r
 ead,tcheck) scf=(maxcycle=1)\\title\\0,1\Si,0,2.40304,-0.506472,0.1716
 82\C,0,0.757149,0.410907,-0.221046\O,0,0.644165,1.539075,-0.591536\O,0
 ,-0.325957,-0.463191,-0.057627\C,0,-1.636483,-0.001895,0.164432\O,0,-1
 .879074,1.032482,0.699153\C,0,-2.618994,-1.030316,-0.320878\H,0,-2.385
 474,-2.006027,0.109841\H,0,-2.538236,-1.124609,-1.406817\H,0,-3.627325
 ,-0.726043,-0.048057\H,0,3.511548,0.4316,-0.082089\H,0,2.503116,-1.696

 Normal termination of Gaussian 16 at Tue Apr  8 23:57:47 2025.
