 Gaussian 16, Revision C.01,

 ----------------------------------------------------------------------
 #t hf aug-cc-pvdz symm=none int=(grid=ultrafine) guess=(read,tcheck) s
 table=(opt,rrhf)
 ----------------------------------------------------------------------
 -----
 title
 -----
 Symbolic Z-matrix:
 Charge =  0 Multiplicity = 1

 SCF Done:  E(RHF) =  -718.166947405     A.U. after   15 cycles
 Normal termination of Gaussian 16 at Tue Apr  8 23:14:02 2025.
 Gaussian 16:  ES64L-G16RevC.01  3-Jul-2019

 ----------------------------------------------------------------------
 #t hf aug-cc-pvdz iop(5/13=1,5/36=2,99/5=2) pseudo=read geom=check gue
 ss=(read,tcheck) scf=(maxcycle=1)
 ----------------------------------------------------------------------
 -----
 title
 -----
 Structure from the checkpoint file:  "BDE49_nonexpt_1005_mol1.chk"
 Charge =  0 Multiplicity = 1

                         Standard orientation:
 ---------------------------------------------------------------------
 Center     Atomic      Atomic             Coordinates (Angstroms)
 Number     Number       Type             X           Y           Z
 ---------------------------------------------------------------------
      1          6           0        1.214228   -0.891867    0.000099
      2          6           0        0.785622    0.560347   -0.000050
      3         16           0       -1.009205    0.939176   -0.000125
      4          8           0        1.527702    1.500926   -0.000193
      5          7           0       -1.733912   -0.824458   -0.000062
      6          8           0       -2.901724   -0.865038    0.000280
      7          6           0        2.733975   -1.052141    0.000125
      8          1           0        0.758967   -1.377688   -0.868485
      9          1           0        0.758957   -1.377526    0.868768
     10          1           0        3.179871   -0.586692   -0.880375
     11          1           0        2.996233   -2.112317    0.000227
     12          1           0        3.179856   -0.586528    0.880546
 ---------------------------------------------------------------------

 SCF Done:  E(RHF) =  -718.285589779     A.U. after    2 cycles

 The electronic state is 1-A.
 Alpha  occ. eigenvalues --  -93.58822 -20.70425 -20.59736 -15.84628 -11.39851
 Alpha  occ. eigenvalues --  -11.27468 -11.24571  -8.88476  -6.22493  -6.22317
 Alpha  occ. eigenvalues --   -6.21960  -1.55079  -1.39705  -1.08286  -1.03789
 Alpha  occ. eigenvalues --   -0.92664  -0.88692  -0.77700  -0.73772  -0.71365
 Alpha  occ. eigenvalues --   -0.67398  -0.67106  -0.65640  -0.62159  -0.57342
 Alpha  occ. eigenvalues --   -0.55870  -0.53483  -0.51747  -0.43576  -0.40557
 Alpha  occ. eigenvalues --   -0.40190
 Alpha virt. eigenvalues --    0.03182   0.04458   0.04961   0.05300   0.05777
 Alpha virt. eigenvalues --    0.07644   0.07904   0.07992   0.11053   0.11091
 Alpha virt. eigenvalues --    0.11755   0.12352   0.12978   0.13937   0.15756

 Mulliken charges:
               1
     1  C   -0.034718
     2  C   -0.103605
     3  S    0.638591
     4  O   -0.455283
     5  N   -0.071104
     6  O   -0.344214
     7  C    0.340982
     8  H    0.047251
     9  H    0.047244
    10  H   -0.028173
    11  H   -0.008792
    12  H   -0.028177
 Sum of Mulliken charges =  -0.00000

 Dipole moment (field-independent basis, Debye):
    X=              0.5316    Y=             -2.6759    Z=              0.0002  Tot=              2.7282

 Test job not archived.
 1\1\GINC-SE116\SP\RHF\Aug-CC-pVDZ\C3H5N1O2S1\OHZDE\08-Apr-2025\0\\#t h
 f aug-cc-pvdz iop(5/13=1,5/36=2,99/5=2) pseudo=read geom=check guess=(
 read,tcheck) scf=(maxcycle=1)\\title\\0,1\C,0,1.214228,-0.891867,0.000
 099\C,0,0.785622,0.560347,-0.00005\S,0,-1.009205,0.939176,-0.000125\O,
 0,1.527702,1.500926,-0.000193\N,0,-1.733912,-0.824458,-0.000062\O,0,-2
 .901724,-0.865039,0.00028\C,0,2.733975,-1.05214,0.000125\H,0,0.758967,
 -1.377688,-0.868485\H,0,0.758957,-1.377526,0.868768\H,0,3.179871,-0.58
 6691,-0.880375\H,0,2.996233,-2.112316,0.000227\H,0,3.179856,-0.586527,

 Normal termination of Gaussian 16 at Tue Apr  8 23:14:08 2025.
