 Gaussian 16, Revision C.01,

 ----------------------------------------------------------------------
 #t hf aug-cc-pvdz symm=none int=(grid=ultrafine) guess=(read,tcheck) s
 table=(opt,rrhf)
 ----------------------------------------------------------------------
 -----
 title
 -----
 Symbolic Z-matrix:
 Charge =  0 Multiplicity = 1

 SCF Done:  E(RHF) =  -457.894645350     A.U. after   15 cycles
 Normal termination of Gaussian 16 at Wed Apr  9 00:25:13 2025.
 Gaussian 16:  ES64L-G16RevC.01  3-Jul-2019

 ----------------------------------------------------------------------
 #t hf aug-cc-pvdz iop(5/13=1,5/36=2,99/5=2) pseudo=read geom=check gue
 ss=(read,tcheck) scf=(maxcycle=1)
 ----------------------------------------------------------------------
 -----
 title
 -----
 Structure from the checkpoint file:  "BDE49_nonexpt_286_mol1.chk"
 Charge =  0 Multiplicity = 1

                         Standard orientation:
 ---------------------------------------------------------------------
 Center     Atomic      Atomic             Coordinates (Angstroms)
 Number     Number       Type             X           Y           Z
 ---------------------------------------------------------------------
      1          6           0        0.080964    0.510912    0.484041
      2          5           0       -1.262075   -0.241833    0.005102
      3          7           0        1.305183   -0.262058    0.018883
      4          8           0       -1.340675   -1.581053   -0.163425
      5          8           0       -2.352354    0.548728   -0.179938
      6          8           0        1.350009   -1.458460    0.321342
      7          8           0        2.165147    0.314450   -0.613614
      8          1           0        0.121357    0.377745    1.571933
      9          6           0        0.176064    1.986198    0.123044
     10          1           0        0.191805    2.130757   -0.957688
     11          1           0        1.071575    2.445803    0.542859
     12          1           0       -0.705078    2.493819    0.517902
     13          1           0       -0.491546   -2.011731    0.025569
     14          1           0       -3.133204    0.035199   -0.415695
 ---------------------------------------------------------------------

 SCF Done:  E(RHF) =  -458.042159944     A.U. after    2 cycles

 The electronic state is 1-A.
 Alpha  occ. eigenvalues --  -20.63739 -20.62217 -20.60282 -20.59401 -15.92289
 Alpha  occ. eigenvalues --  -11.30968 -11.25377  -7.68834  -1.55952  -1.37727
 Alpha  occ. eigenvalues --   -1.36324  -1.32762  -1.10788  -0.95857  -0.84891
 Alpha  occ. eigenvalues --   -0.81124  -0.77500  -0.75845  -0.74904  -0.72982
 Alpha  occ. eigenvalues --   -0.65032  -0.62694  -0.60834  -0.59952  -0.58219
 Alpha  occ. eigenvalues --   -0.55344  -0.53918  -0.52300  -0.51109  -0.49559
 Alpha  occ. eigenvalues --   -0.48679
 Alpha virt. eigenvalues --    0.02718   0.03946   0.04500   0.05478   0.06621
 Alpha virt. eigenvalues --    0.06685   0.07134   0.07718   0.08275   0.09920
 Alpha virt. eigenvalues --    0.10381   0.12930   0.13200   0.14221   0.15483

 Mulliken charges:
               1
     1  C    0.393572
     2  B    0.722169
     3  N    0.416604
     4  O   -0.462064
     5  O   -0.488838
     6  O   -0.660173
     7  O   -0.552409
     8  H   -0.182349
     9  C    0.416803
    10  H   -0.017493
    11  H   -0.023308
    12  H   -0.059680
    13  H    0.290639
    14  H    0.206527
 Sum of Mulliken charges =  -0.00000

 Dipole moment (field-independent basis, Debye):
    X=             -2.5749    Y=              1.5861    Z=              1.2742  Tot=              3.2817

 Test job not archived.
 1\1\GINC-SE273\SP\RHF\Aug-CC-pVDZ\C2H6B1N1O4\OHZDE\09-Apr-2025\0\\#t h
 f aug-cc-pvdz iop(5/13=1,5/36=2,99/5=2) pseudo=read geom=check guess=(
 read,tcheck) scf=(maxcycle=1)\\title\\0,1\C,0,0.080964,0.510912,0.4840
 41\B,0,-1.262075,-0.241833,0.005102\N,0,1.305183,-0.262058,0.018883\O,
 0,-1.340675,-1.581053,-0.163425\O,0,-2.352354,0.548728,-0.179938\O,0,1
 .350009,-1.45846,0.321342\O,0,2.165147,0.31445,-0.613614\H,0,0.121357,
 0.377745,1.571933\C,0,0.176064,1.986198,0.123044\H,0,0.191805,2.130757
 ,-0.957688\H,0,1.071575,2.445803,0.542859\H,0,-0.705078,2.493819,0.517

 Normal termination of Gaussian 16 at Wed Apr  9 00:25:18 2025.
