 Gaussian 16, Revision C.01,

 ----------------------------------------------------------------------
 #t hf aug-cc-pvdz symm=none int=(grid=ultrafine) guess=(read,tcheck) s
 table=(opt,rrhf)
 ----------------------------------------------------------------------
 -----
 title
 -----
 Symbolic Z-matrix:
 Charge =  0 Multiplicity = 1

 SCF Done:  E(RHF) =  -1507.06446985     A.U. after   16 cycles
 Normal termination of Gaussian 16 at Wed Apr  9 00:16:26 2025.
 Gaussian 16:  ES64L-G16RevC.01  3-Jul-2019

 ----------------------------------------------------------------------
 #t hf aug-cc-pvdz iop(5/13=1,5/36=2,99/5=2) pseudo=read geom=check gue
 ss=(read,tcheck) scf=(maxcycle=1)
 ----------------------------------------------------------------------
 -----
 title
 -----
 Structure from the checkpoint file:  "BDE49_nonexpt_2541_mol1.chk"
 Charge =  0 Multiplicity = 1

                         Standard orientation:
 ---------------------------------------------------------------------
 Center     Atomic      Atomic             Coordinates (Angstroms)
 Number     Number       Type             X           Y           Z
 ---------------------------------------------------------------------
      1         17           0        2.688156   -0.114336   -0.066593
      2         16           0        1.003598   -1.263511   -0.379747
      3          6           0       -0.300690   -0.069448   -0.027507
      4          7           0       -1.587627   -0.907057    0.112039
      5          8           0       -2.490983   -0.430594    0.748392
      6          8           0       -1.548182   -1.981503   -0.459479
      7          7           0       -0.160223    0.728064    1.316479
      8          8           0        0.228976    0.073504    2.253456
      9          8           0       -0.500440    1.885362    1.285241
     10          7           0       -0.530126    0.960035   -1.170354
     11          8           0       -1.596329    0.901622   -1.740777
     12          8           0        0.406176    1.690272   -1.391092
 ---------------------------------------------------------------------

 SCF Done:  E(RHF) =  -1507.30026561     A.U. after    2 cycles

 The electronic state is 1-A.
 Alpha  occ. eigenvalues -- -103.73529 -93.68465 -20.70069 -20.69438 -20.69098
 Alpha  occ. eigenvalues --  -20.68798 -20.68764 -20.68463 -16.00174 -15.99555
 Alpha  occ. eigenvalues --  -15.99286 -11.52641 -10.76643  -8.97659  -8.42383
 Alpha  occ. eigenvalues --   -8.42012  -8.41963  -6.31754  -6.31511  -6.31010
 Alpha  occ. eigenvalues --   -1.64519  -1.62365  -1.61869  -1.45596  -1.45020
 Alpha  occ. eigenvalues --   -1.44498  -1.25405  -1.20602  -1.01717  -1.01069
 Alpha  occ. eigenvalues --   -1.00460  -0.88505  -0.87044  -0.86699  -0.81467
 Alpha  occ. eigenvalues --   -0.80442  -0.80154  -0.79282  -0.78735  -0.78078
 Alpha  occ. eigenvalues --   -0.69927  -0.62726  -0.60799  -0.60549  -0.58325
 Alpha  occ. eigenvalues --   -0.57236  -0.56807  -0.56271  -0.55618  -0.54749
 Alpha  occ. eigenvalues --   -0.53233  -0.52456  -0.51724  -0.44080
 Alpha virt. eigenvalues --   -0.00133   0.00370   0.01360   0.01895   0.05093
 Alpha virt. eigenvalues --    0.08114   0.08586   0.09314   0.10316   0.11537
 Alpha virt. eigenvalues --    0.11841   0.12432   0.13139   0.13436   0.15692

 Mulliken charges:
               1
     1  Cl  -0.298658
     2  S    0.627560
     3  C    1.943476
     4  N    0.309615
     5  O   -0.501684
     6  O   -0.539750
     7  N    0.287433
     8  O   -0.564134
     9  O   -0.503926
    10  N    0.292654
    11  O   -0.509481
    12  O   -0.543105
 Sum of Mulliken charges =  -0.00000

 Dipole moment (field-independent basis, Debye):
    X=              2.2155    Y=             -1.8790    Z=             -0.4874  Tot=              2.9456

 Test job not archived.
 1\1\GINC-SE247\SP\RHF\Aug-CC-pVDZ\C1Cl1N3O6S1\OHZDE\09-Apr-2025\0\\#t
 hf aug-cc-pvdz iop(5/13=1,5/36=2,99/5=2) pseudo=read geom=check guess=
 (read,tcheck) scf=(maxcycle=1)\\title\\0,1\Cl,0,2.688156,-0.114336,-0.
 066593\S,0,1.003598,-1.263511,-0.379747\C,0,-0.30069,-0.069448,-0.0275
 07\N,0,-1.587627,-0.907057,0.112039\O,0,-2.490983,-0.430594,0.748392\O
 ,0,-1.548182,-1.981503,-0.459479\N,0,-0.160223,0.728064,1.316479\O,0,0
 .228976,0.073504,2.253456\O,0,-0.50044,1.885362,1.285241\N,0,-0.530126
 ,0.960035,-1.170354\O,0,-1.596329,0.901622,-1.740777\O,0,0.406176,1.69

 Normal termination of Gaussian 16 at Wed Apr  9 00:16:37 2025.
