 Gaussian 16, Revision C.01,

 ----------------------------------------------------------------------
 #t hf aug-cc-pvdz symm=none int=(grid=ultrafine) guess=(read,tcheck) s
 table=(opt,rrhf)
 ----------------------------------------------------------------------
 -----
 title
 -----
 Symbolic Z-matrix:
 Charge =  0 Multiplicity = 1

 SCF Done:  E(RHF) =  -515.723872107     A.U. after   14 cycles
 Normal termination of Gaussian 16 at Wed Apr  9 00:34:46 2025.
 Gaussian 16:  ES64L-G16RevC.01  3-Jul-2019

 ----------------------------------------------------------------------
 #t hf aug-cc-pvdz iop(5/13=1,5/36=2,99/5=2) pseudo=read geom=check gue
 ss=(read,tcheck) scf=(maxcycle=1)
 ----------------------------------------------------------------------
 -----
 title
 -----
 Structure from the checkpoint file:  "BDE49_nonexpt_495_mol1.chk"
 Charge =  0 Multiplicity = 1

                         Standard orientation:
 ---------------------------------------------------------------------
 Center     Atomic      Atomic             Coordinates (Angstroms)
 Number     Number       Type             X           Y           Z
 ---------------------------------------------------------------------
      1          1           0        3.103380    1.042205    0.000014
      2          1           0        3.103440   -1.042127    0.000014
      3          5           0        2.529077    0.000023   -0.000014
      4          7           0        1.123406   -0.000019   -0.000007
      5          6           0       -0.069927   -0.000045   -0.000001
      6         16           0       -1.643530    0.000013    0.000006
 ---------------------------------------------------------------------

 SCF Done:  E(RHF) =  -515.782216484     A.U. after    2 cycles

 The electronic state is 1-A.
 Alpha  occ. eigenvalues --  -93.54829 -15.67706 -11.40813  -8.84759  -7.67435
 Alpha  occ. eigenvalues --   -6.19071  -6.18394  -6.18336  -1.25745  -1.04104
 Alpha  occ. eigenvalues --   -0.86855  -0.62857  -0.61128  -0.60040  -0.58293
 Alpha  occ. eigenvalues --   -0.50402  -0.38412  -0.36561
 Alpha virt. eigenvalues --    0.02259   0.04514   0.04548   0.04842   0.06784
 Alpha virt. eigenvalues --    0.07867   0.09808   0.10010   0.12459   0.12840
 Alpha virt. eigenvalues --    0.14121   0.15020   0.15570   0.16041   0.17528

 Mulliken charges:
               1
     1  H    0.154904
     2  H    0.154905
     3  B   -0.128417
     4  N   -0.104501
     5  C   -0.336557
     6  S    0.259667
 Sum of Mulliken charges =  -0.00000

 Dipole moment (field-independent basis, Debye):
    X=              1.6516    Y=              0.0000    Z=             -0.0001  Tot=              1.6516

 Test job not archived.
 1\1\GINC-SE058\SP\RHF\Aug-CC-pVDZ\C1H2B1N1S1\OHZDE\09-Apr-2025\0\\#t h
 f aug-cc-pvdz iop(5/13=1,5/36=2,99/5=2) pseudo=read geom=check guess=(
 read,tcheck) scf=(maxcycle=1)\\title\\0,1\H,0,3.10338,1.042205,0.00001
 4\H,0,3.10344,-1.042127,0.000014\B,0,2.529077,0.000023,-0.000014\N,0,1
 .123406,-0.000019,-0.000007\C,0,-0.069927,-0.000045,-0.000001\S,0,-1.6
 4353,0.000013,0.000006\\Version=ES64L-G16RevC.01\State=1-A\HF=-515.782
 2165\RMSD=8.882e-03\Dipole=0.649807,0.,-0.0000204\Quadrupole=0.7901741
 ,-1.1355143,0.3453402,-0.000055,-0.0001022,0.\PG=C01 [X(C1H2B1N1S1)]\\

 Normal termination of Gaussian 16 at Wed Apr  9 00:34:49 2025.
