 Gaussian 16, Revision C.01,

 ----------------------------------------------------------------------
 #t hf aug-cc-pvdz symm=none int=(grid=ultrafine) guess=(read,tcheck) s
 table=(opt,rrhf)
 ----------------------------------------------------------------------
 -----
 title
 -----
 Symbolic Z-matrix:
 Charge =  0 Multiplicity = 1

 SCF Done:  E(RHF) =  -505.438305811     A.U. after   11 cycles
 Normal termination of Gaussian 16 at Tue Apr  8 23:53:24 2025.
 Gaussian 16:  ES64L-G16RevC.01  3-Jul-2019

 ----------------------------------------------------------------------
 #t hf aug-cc-pvdz iop(5/13=1,5/36=2,99/5=2) pseudo=read geom=check gue
 ss=(read,tcheck) scf=(maxcycle=1)
 ----------------------------------------------------------------------
 -----
 title
 -----
 Structure from the checkpoint file:  "BDE49_nonexpt_1960_mol1.chk"
 Charge =  0 Multiplicity = 1

                         Standard orientation:
 ---------------------------------------------------------------------
 Center     Atomic      Atomic             Coordinates (Angstroms)
 Number     Number       Type             X           Y           Z
 ---------------------------------------------------------------------
      1         14           0       -1.829808    0.000001   -0.270104
      2          6           0       -0.356400   -0.000010    0.906466
      3          5           0        1.022453   -0.000001    0.163496
      4          1           0       -1.811326    1.201100   -1.139571
      5          1           0       -3.104822   -0.000020    0.488796
      6          8           0        1.589274   -1.208472   -0.155909
      7          8           0        1.589263    1.208479   -0.155899
      8          1           0       -1.811311   -1.201068   -1.139613
      9          1           0        2.421415   -1.162050   -0.635281
     10          1           0        2.421406    1.162067   -0.635271
     11          1           0       -0.450103   -0.887328    1.540280
     12          1           0       -0.450105    0.887297    1.540298
 ---------------------------------------------------------------------

 SCF Done:  E(RHF) =  -505.536411338     A.U. after    2 cycles

 The electronic state is 1-A.
 Alpha  occ. eigenvalues --  -69.05589 -20.58784 -20.58783 -11.19939  -7.66275
 Alpha  occ. eigenvalues --   -6.80850  -3.91624  -3.91618  -3.91617  -1.34986
 Alpha  occ. eigenvalues --   -1.31172  -0.94369  -0.77665  -0.76153  -0.68053
 Alpha  occ. eigenvalues --   -0.65622  -0.59689  -0.56034  -0.55216  -0.53087
 Alpha  occ. eigenvalues --   -0.52198  -0.46217  -0.45693  -0.44152
 Alpha virt. eigenvalues --    0.02198   0.04399   0.05110   0.05385   0.06586
 Alpha virt. eigenvalues --    0.06608   0.07635   0.08647   0.08875   0.09627
 Alpha virt. eigenvalues --    0.09832   0.10663   0.12080   0.12220   0.15555

 Mulliken charges:
               1
     1  Si   0.257383
     2  C    0.281775
     3  B    0.994477
     4  H   -0.007611
     5  H   -0.055162
     6  O   -0.515713
     7  O   -0.515716
     8  H   -0.007614
     9  H    0.169800
    10  H    0.169801
    11  H   -0.385715
    12  H   -0.385705
 Sum of Mulliken charges =  -0.00000

 Dipole moment (field-independent basis, Debye):
    X=              2.5748    Y=              0.0000    Z=             -0.6306  Tot=              2.6509

 Test job not archived.
 1\1\GINC-SE252\SP\RHF\Aug-CC-pVDZ\C1H7B1O2Si1\OHZDE\08-Apr-2025\0\\#t
 hf aug-cc-pvdz iop(5/13=1,5/36=2,99/5=2) pseudo=read geom=check guess=
 (read,tcheck) scf=(maxcycle=1)\\title\\0,1\Si,0,-1.829808,0.000001,-0.
 270104\C,0,-0.3564,-0.00001,0.906466\B,0,1.022453,-0.000001,0.163496\H
 ,0,-1.811326,1.2011,-1.139571\H,0,-3.104822,-0.00002,0.488796\O,0,1.58
 9274,-1.208472,-0.155909\O,0,1.589263,1.208479,-0.155899\H,0,-1.811311
 ,-1.201068,-1.139613\H,0,2.421415,-1.16205,-0.635281\H,0,2.421406,1.16
 2067,-0.635271\H,0,-0.450103,-0.887328,1.54028\H,0,-0.450105,0.887297,

 Normal termination of Gaussian 16 at Tue Apr  8 23:53:28 2025.
