 Gaussian 16, Revision C.01,

 ----------------------------------------------------------------------
 #t hf aug-cc-pvdz symm=none int=(grid=ultrafine) guess=(read,tcheck) s
 table=(opt,rrhf)
 ----------------------------------------------------------------------
 -----
 title
 -----
 Symbolic Z-matrix:
 Charge =  0 Multiplicity = 1

 SCF Done:  E(RHF) =  -324.810354389     A.U. after   15 cycles
 Normal termination of Gaussian 16 at Tue Apr  8 23:06:27 2025.
 Gaussian 16:  ES64L-G16RevC.01  3-Jul-2019

 ----------------------------------------------------------------------
 #t hf aug-cc-pvdz iop(5/13=1,5/36=2,99/5=2) pseudo=read geom=check gue
 ss=(read,tcheck) scf=(maxcycle=1)
 ----------------------------------------------------------------------
 -----
 title
 -----
 Structure from the checkpoint file:  "BDE49_expt_465_mol1.chk"
 Charge =  0 Multiplicity = 1

                         Standard orientation:
 ---------------------------------------------------------------------
 Center     Atomic      Atomic             Coordinates (Angstroms)
 Number     Number       Type             X           Y           Z
 ---------------------------------------------------------------------
      1          6           0       -1.978725    0.570924   -0.002564
      2          6           0       -0.823483    1.344182   -0.005368
      3          6           0        0.442935    0.744087   -0.001968
      4          6           0       -1.890671   -0.818265    0.008641
      5          6           0       -0.631955   -1.415955    0.011304
      6          6           0        0.542537   -0.664103    0.002652
      7          1           0       -2.947597    1.058166   -0.005646
      8          1           0       -0.895759    2.427760   -0.013204
      9          7           0        1.598451    1.530598   -0.071517
     10          1           0        1.464330    2.496602    0.190109
     11          1           0        2.418402    1.138134    0.367464
     12          1           0       -0.553702   -2.498862    0.016097
     13          1           0       -2.786009   -1.428519    0.013228
     14          6           0        1.896295   -1.327344   -0.014853
     15          1           0        1.799427   -2.412764   -0.068236
     16          1           0        2.478594   -1.097946    0.887442
     17          1           0        2.491555   -0.997913   -0.873696
 ---------------------------------------------------------------------

 SCF Done:  E(RHF) =  -324.907372103     A.U. after    2 cycles

 The electronic state is 1-A.
 Alpha  occ. eigenvalues --  -15.62968 -11.28328 -11.23952 -11.23917 -11.23789
 Alpha  occ. eigenvalues --  -11.23566 -11.23129 -11.22661  -1.19624  -1.11300
 Alpha  occ. eigenvalues --   -1.03395  -0.98071  -0.92644  -0.82406  -0.79709
 Alpha  occ. eigenvalues --   -0.69816  -0.69060  -0.64448  -0.60532  -0.59334
 Alpha  occ. eigenvalues --   -0.58219  -0.56976  -0.54584  -0.51556  -0.49762
 Alpha  occ. eigenvalues --   -0.48482  -0.44503  -0.33058  -0.29099
 Alpha virt. eigenvalues --    0.03238   0.03760   0.04008   0.05551   0.05642
 Alpha virt. eigenvalues --    0.06097   0.07558   0.08039   0.09734   0.11144
 Alpha virt. eigenvalues --    0.11581   0.12490   0.13433   0.13790   0.13828

 Mulliken charges:
               1
     1  C    0.337194
     2  C    0.838667
     3  C   -0.115741
     4  C    0.271220
     5  C    0.878839
     6  C   -0.070694
     7  H   -0.435783
     8  H   -0.598685
     9  N   -0.360868
    10  H   -0.030159
    11  H   -0.035606
    12  H   -0.553891
    13  H   -0.466509
    14  C    0.409929
    15  H   -0.239116
    16  H    0.075803
    17  H    0.095402
 Sum of Mulliken charges =   0.00000

 Dipole moment (field-independent basis, Debye):
    X=              1.1092    Y=              0.5151    Z=              0.9408  Tot=              1.5429

 Test job not archived.
 1\1\GINC-SE250\SP\RHF\Aug-CC-pVDZ\C7H9N1\OHZDE\08-Apr-2025\0\\#t hf au
 g-cc-pvdz iop(5/13=1,5/36=2,99/5=2) pseudo=read geom=check guess=(read
 ,tcheck) scf=(maxcycle=1)\\title\\0,1\C,0,-1.978725,0.570924,-0.002564
 \C,0,-0.823483,1.344182,-0.005368\C,0,0.442935,0.744087,-0.001968\C,0,
 -1.890671,-0.818265,0.008641\C,0,-0.631955,-1.415955,0.011304\C,0,0.54
 2537,-0.664103,0.002652\H,0,-2.947597,1.058166,-0.005646\H,0,-0.895759
 ,2.42776,-0.013204\N,0,1.598451,1.530598,-0.071517\H,0,1.46433,2.49660
 2,0.190109\H,0,2.418402,1.138134,0.367464\H,0,-0.553702,-2.498862,0.01

 Normal termination of Gaussian 16 at Tue Apr  8 23:06:33 2025.
