 Gaussian 16, Revision C.01,

 ----------------------------------------------------------------------
 #t hf aug-cc-pvdz symm=none int=(grid=ultrafine) guess=(read,tcheck) s
 table=(opt,rrhf)
 ----------------------------------------------------------------------
 -----
 title
 -----
 Symbolic Z-matrix:
 Charge =  0 Multiplicity = 1

 SCF Done:  E(RHF) =  -799.230557385     A.U. after   16 cycles
 Normal termination of Gaussian 16 at Wed Apr  9 00:04:05 2025.
 Gaussian 16:  ES64L-G16RevC.01  3-Jul-2019

 ----------------------------------------------------------------------
 #t hf aug-cc-pvdz iop(5/13=1,5/36=2,99/5=2) pseudo=read geom=check gue
 ss=(read,tcheck) scf=(maxcycle=1)
 ----------------------------------------------------------------------
 -----
 title
 -----
 Structure from the checkpoint file:  "BDE49_nonexpt_2208_mol1.chk"
 Charge =  0 Multiplicity = 1

                         Standard orientation:
 ---------------------------------------------------------------------
 Center     Atomic      Atomic             Coordinates (Angstroms)
 Number     Number       Type             X           Y           Z
 ---------------------------------------------------------------------
      1          6           0       -1.560524    0.006809    0.000030
      2          6           0       -1.054461    1.305125    0.000020
      3          6           0        0.317051    1.494511    0.000009
      4          6           0       -0.720549   -1.100837    0.000027
      5          6           0        0.654235   -0.908632    0.000017
      6          6           0        1.178708    0.389988    0.000007
      7          1           0       -1.150617   -2.092545    0.000035
      8          1           0        1.314895   -1.767687    0.000015
      9          8           0        2.511180    0.644297   -0.000004
     10         14           0        3.832665   -0.377792   -0.000001
     11          7           0       -3.018411   -0.197724    0.000042
     12          8           0       -3.731953    0.797819   -0.000066
     13          8           0       -3.431460   -1.351104   -0.000059
     14          1           0       -1.740140    2.140761    0.000021
     15          1           0        0.746935    2.487828    0.000002
     16          1           0        4.996934    0.521678   -0.000010
     17          1           0        3.817335   -1.233392   -1.206477
     18          1           0        3.817341   -1.233376    1.206487
 ---------------------------------------------------------------------

 SCF Done:  E(RHF) =  -799.414766532     A.U. after    2 cycles

 The electronic state is 1-A.
 Alpha  occ. eigenvalues --  -69.12391 -20.61546 -20.61480 -20.61445 -15.91870
 Alpha  occ. eigenvalues --  -11.35787 -11.31373 -11.29245 -11.29003 -11.27480
 Alpha  occ. eigenvalues --  -11.26940  -6.87195  -3.98110  -3.97950  -3.97924
 Alpha  occ. eigenvalues --   -1.54672  -1.37707  -1.36211  -1.18772  -1.07773
 Alpha  occ. eigenvalues --   -1.05370  -0.95178  -0.88542  -0.84349  -0.78831
 Alpha  occ. eigenvalues --   -0.78500  -0.74041  -0.72466  -0.70350  -0.67620
 Alpha  occ. eigenvalues --   -0.65964  -0.64706  -0.63310  -0.60756  -0.58939
 Alpha  occ. eigenvalues --   -0.53391  -0.53259  -0.51241  -0.51108  -0.49660
 Alpha  occ. eigenvalues --   -0.49545  -0.47343  -0.37973  -0.36127
 Alpha virt. eigenvalues --    0.02449   0.03568   0.03702   0.04160   0.05093
 Alpha virt. eigenvalues --    0.05301   0.06131   0.06820   0.07786   0.08425
 Alpha virt. eigenvalues --    0.08849   0.10488   0.11132   0.11626   0.12712

 Mulliken charges:
               1
     1  C    1.148009
     2  C    0.530159
     3  C    0.605113
     4  C    0.190480
     5  C    0.808386
     6  C    0.100174
     7  H   -0.455278
     8  H   -0.627204
     9  O   -0.817422
    10  Si   0.258564
    11  N    0.126491
    12  O   -0.571414
    13  O   -0.573050
    14  H   -0.458260
    15  H   -0.525294
    16  H    0.061749
    17  H    0.099399
    18  H    0.099400
 Sum of Mulliken charges =  -0.00000

 Dipole moment (field-independent basis, Debye):
    X=              5.8705    Y=             -0.0771    Z=              0.0003  Tot=              5.8710

 Test job not archived.
 1\1\GINC-SE455\SP\RHF\Aug-CC-pVDZ\C6H7N1O3Si1\OHZDE\09-Apr-2025\0\\#t
 hf aug-cc-pvdz iop(5/13=1,5/36=2,99/5=2) pseudo=read geom=check guess=
 (read,tcheck) scf=(maxcycle=1)\\title\\0,1\C,0,-1.560524,0.006809,0.00
 003\C,0,-1.054461,1.305125,0.00002\C,0,0.317051,1.494511,0.000009\C,0,
 -0.720549,-1.100837,0.000027\C,0,0.654235,-0.908632,0.000017\C,0,1.178
 708,0.389988,0.000007\H,0,-1.150617,-2.092545,0.000035\H,0,1.314895,-1
 .767687,0.000015\O,0,2.51118,0.644297,-0.000004\Si,0,3.832665,-0.37779
 2,-0.000001\N,0,-3.018411,-0.197724,0.000042\O,0,-3.731953,0.797819,-0

 Normal termination of Gaussian 16 at Wed Apr  9 00:04:16 2025.
