 Gaussian 16, Revision C.01,

 ----------------------------------------------------------------------
 #t hf aug-cc-pvdz symm=none int=(grid=ultrafine) guess=(read,tcheck) s
 table=(opt,rrhf)
 ----------------------------------------------------------------------
 -----
 title
 -----
 Symbolic Z-matrix:
 Charge =  0 Multiplicity = 1

 SCF Done:  E(RHF) =  -341.226832464     A.U. after   15 cycles
 Normal termination of Gaussian 16 at Tue Apr  8 23:19:49 2025.
 Gaussian 16:  ES64L-G16RevC.01  3-Jul-2019

 ----------------------------------------------------------------------
 #t hf aug-cc-pvdz iop(5/13=1,5/36=2,99/5=2) pseudo=read geom=check gue
 ss=(read,tcheck) scf=(maxcycle=1)
 ----------------------------------------------------------------------
 -----
 title
 -----
 Structure from the checkpoint file:  "BDE49_nonexpt_1156_mol1.chk"
 Charge =  0 Multiplicity = 1

                         Standard orientation:
 ---------------------------------------------------------------------
 Center     Atomic      Atomic             Coordinates (Angstroms)
 Number     Number       Type             X           Y           Z
 ---------------------------------------------------------------------
      1          9           0        1.612274   -0.693869   -0.185727
      2          8           0        1.007510    0.404505    0.487055
      3          6           0       -1.149542    0.066582   -0.063157
      4          7           0       -2.115186   -0.537457    0.132860
      5          8           0       -0.108374    0.796436   -0.346997
 ---------------------------------------------------------------------

 SCF Done:  E(RHF) =  -341.340853279     A.U. after    2 cycles

 The electronic state is 1-A.
 Alpha  occ. eigenvalues --  -26.24171 -20.84481 -20.78806 -15.68682 -11.38901
 Alpha  occ. eigenvalues --   -1.75162  -1.54768  -1.31039  -1.22347  -0.91530
 Alpha  occ. eigenvalues --   -0.85891  -0.84346  -0.80192  -0.73274  -0.70150
 Alpha  occ. eigenvalues --   -0.64486  -0.59193  -0.50904  -0.49398
 Alpha virt. eigenvalues --    0.03184   0.06012   0.07936   0.08690   0.09255
 Alpha virt. eigenvalues --    0.10440   0.16551   0.17127   0.17707   0.19535
 Alpha virt. eigenvalues --    0.19778   0.22254   0.22448   0.23717   0.25641

 Mulliken charges:
               1
     1  F   -0.226844
     2  O    0.158500
     3  C    0.220589
     4  N   -0.042616
     5  O   -0.109630
 Sum of Mulliken charges =   0.00000

 Dipole moment (field-independent basis, Debye):
    X=              1.3967    Y=              1.3835    Z=              0.0457  Tot=              1.9665

 Test job not archived.
 1\1\GINC-SE284\SP\RHF\Aug-CC-pVDZ\C1F1N1O2\OHZDE\08-Apr-2025\0\\#t hf
 aug-cc-pvdz iop(5/13=1,5/36=2,99/5=2) pseudo=read geom=check guess=(re
 ad,tcheck) scf=(maxcycle=1)\\title\\0,1\F,0,1.612274,-0.693869,-0.1857
 27\O,0,1.00751,0.404505,0.487055\C,0,-1.149542,0.066582,-0.063157\N,0,
 -2.115186,-0.537457,0.13286\O,0,-0.108374,0.796436,-0.346997\\Version=
 ES64L-G16RevC.01\State=1-A\HF=-341.3408533\RMSD=3.807e-03\Dipole=0.549
 5226,0.544298,0.0179701\Quadrupole=-2.9292889,1.1054521,1.8238368,-1.5
 563556,0.9355393,0.3742714\PG=C01 [X(C1F1N1O2)]\\@

 Normal termination of Gaussian 16 at Tue Apr  8 23:19:51 2025.
