 Gaussian 16, Revision C.01,

 ----------------------------------------------------------------------
 #t hf aug-cc-pvdz symm=none int=(grid=ultrafine) guess=(read,tcheck) s
 table=(opt,rrhf)
 ----------------------------------------------------------------------
 -----
 title
 -----
 Symbolic Z-matrix:
 Charge =  0 Multiplicity = 1

 SCF Done:  E(RHF) =  -521.171185181     A.U. after   12 cycles
 Normal termination of Gaussian 16 at Wed Apr  9 00:03:53 2025.
 Gaussian 16:  ES64L-G16RevC.01  3-Jul-2019

 ----------------------------------------------------------------------
 #t hf aug-cc-pvdz iop(5/13=1,5/36=2,99/5=2) pseudo=read geom=check gue
 ss=(read,tcheck) scf=(maxcycle=1)
 ----------------------------------------------------------------------
 -----
 title
 -----
 Structure from the checkpoint file:  "BDE49_nonexpt_2223_mol1.chk"
 Charge =  0 Multiplicity = 1

                         Standard orientation:
 ---------------------------------------------------------------------
 Center     Atomic      Atomic             Coordinates (Angstroms)
 Number     Number       Type             X           Y           Z
 ---------------------------------------------------------------------
      1          6           0        1.539616    0.767121   -0.483934
      2          6           0        1.730394   -0.684597    0.006065
      3          6           0        0.348692    1.393785    0.285868
      4          1           0        1.311605    0.754499   -1.556274
      5          1           0        2.458485    1.349478   -0.364250
      6         14           0       -0.871897   -0.042281    0.439064
      7          1           0       -0.050155    2.282295   -0.210398
      8          1           0        0.669540    1.703084    1.288227
      9          6           0        0.355230   -1.401448    0.000856
     10          1           0        0.332051   -2.268151    0.665070
     11          1           0        0.112778   -1.761443   -1.005509
     12          1           0        2.126786   -0.663884    1.028432
     13          1           0        2.467849   -1.214624   -0.604253
     14          8           0       -2.093634   -0.052496   -0.687306
     15          1           0       -2.853430    0.515561   -0.543593
     16          1           0       -1.463462   -0.134074    1.800977
 ---------------------------------------------------------------------

 SCF Done:  E(RHF) =  -521.275709098     A.U. after    2 cycles

 The electronic state is 1-A.
 Alpha  occ. eigenvalues --  -69.07323 -20.56356 -11.23117 -11.23062 -11.20978
 Alpha  occ. eigenvalues --  -11.20809  -6.82216  -3.93135  -3.92999  -3.92950
 Alpha  occ. eigenvalues --   -1.29230  -1.06682  -0.95057  -0.87113  -0.77283
 Alpha  occ. eigenvalues --   -0.73159  -0.64318  -0.62862  -0.60935  -0.57571
 Alpha  occ. eigenvalues --   -0.54673  -0.53007  -0.50770  -0.48776  -0.47172
 Alpha  occ. eigenvalues --   -0.46337  -0.42827  -0.39964
 Alpha virt. eigenvalues --    0.03114   0.04276   0.04776   0.04870   0.06379
 Alpha virt. eigenvalues --    0.06562   0.06705   0.07082   0.07324   0.09141
 Alpha virt. eigenvalues --    0.09350   0.10188   0.10772   0.13541   0.14434

 Mulliken charges:
               1
     1  C    0.111479
     2  C    0.190812
     3  C    0.164008
     4  H   -0.139393
     5  H   -0.108939
     6  Si   1.077209
     7  H   -0.128765
     8  H   -0.188699
     9  C    0.188096
    10  H   -0.154432
    11  H   -0.133265
    12  H   -0.133855
    13  H   -0.103560
    14  O   -0.825502
    15  H    0.114453
    16  H    0.070354
 Sum of Mulliken charges =   0.00000

 Dipole moment (field-independent basis, Debye):
    X=             -0.0928    Y=              0.9517    Z=              0.6410  Tot=              1.1512

 Test job not archived.
 1\1\GINC-SE364\SP\RHF\Aug-CC-pVDZ\C4H10O1Si1\OHZDE\09-Apr-2025\0\\#t h
 f aug-cc-pvdz iop(5/13=1,5/36=2,99/5=2) pseudo=read geom=check guess=(
 read,tcheck) scf=(maxcycle=1)\\title\\0,1\C,0,1.539616,0.767121,-0.483
 934\C,0,1.730394,-0.684597,0.006065\C,0,0.348692,1.393785,0.285868\H,0
 ,1.311605,0.754499,-1.556274\H,0,2.458485,1.349478,-0.36425\Si,0,-0.87
 1897,-0.042281,0.439064\H,0,-0.050155,2.282295,-0.210398\H,0,0.66954,1
 .703084,1.288227\C,0,0.35523,-1.401448,0.000856\H,0,0.332051,-2.268151
 ,0.66507\H,0,0.112778,-1.761443,-1.005509\H,0,2.126786,-0.663884,1.028

 Normal termination of Gaussian 16 at Wed Apr  9 00:03:59 2025.
