 Gaussian 16, Revision C.01,

 ----------------------------------------------------------------------
 #t hf aug-cc-pvdz symm=none int=(grid=ultrafine) guess=(read,tcheck) s
 table=(opt,rrhf)
 ----------------------------------------------------------------------
 -----
 title
 -----
 Symbolic Z-matrix:
 Charge =  0 Multiplicity = 1

 SCF Done:  E(RHF) =  -740.024323984     A.U. after   11 cycles
 Normal termination of Gaussian 16 at Tue Apr  8 23:42:12 2025.
 Gaussian 16:  ES64L-G16RevC.01  3-Jul-2019

 ----------------------------------------------------------------------
 #t hf aug-cc-pvdz iop(5/13=1,5/36=2,99/5=2) pseudo=read geom=check gue
 ss=(read,tcheck) scf=(maxcycle=1)
 ----------------------------------------------------------------------
 -----
 title
 -----
 Structure from the checkpoint file:  "BDE49_nonexpt_1707_mol1.chk"
 Charge =  0 Multiplicity = 1

                         Standard orientation:
 ---------------------------------------------------------------------
 Center     Atomic      Atomic             Coordinates (Angstroms)
 Number     Number       Type             X           Y           Z
 ---------------------------------------------------------------------
      1         15           0        1.064901    0.130353   -0.000071
      2         16           0       -1.082853   -0.097994    0.000021
      3          1           0        1.339776   -0.805630   -1.029278
      4          1           0        1.339692   -0.804448    1.030238
      5          1           0       -1.327335    1.222690   -0.000223
 ---------------------------------------------------------------------

 SCF Done:  E(RHF) =  -740.065347521     A.U. after    2 cycles

 The electronic state is 1-A.
 Alpha  occ. eigenvalues --  -93.54689 -81.29347  -8.84479  -7.79509  -6.18579
 Alpha  occ. eigenvalues --   -6.18390  -6.18043  -4.93342  -4.93304  -4.93057
 Alpha  occ. eigenvalues --   -0.96927  -0.77997  -0.54478  -0.54191  -0.48723
 Alpha  occ. eigenvalues --   -0.37639  -0.36885
 Alpha virt. eigenvalues --    0.03598   0.04817   0.07155   0.07330   0.10184
 Alpha virt. eigenvalues --    0.10591   0.12358   0.12930   0.14250   0.16869
 Alpha virt. eigenvalues --    0.17287   0.19573   0.19728   0.23750   0.26509

 Mulliken charges:
               1
     1  P   -0.166050
     2  S   -0.304549
     3  H    0.193749
     4  H    0.193790
     5  H    0.083059
 Sum of Mulliken charges =  -0.00000

 Dipole moment (field-independent basis, Debye):
    X=              0.7861    Y=              0.2188    Z=              0.0002  Tot=              0.8160

 Test job not archived.
 1\1\GINC-SE454\SP\RHF\Aug-CC-pVDZ\H3P1S1\OHZDE\08-Apr-2025\0\\#t hf au
 g-cc-pvdz iop(5/13=1,5/36=2,99/5=2) pseudo=read geom=check guess=(read
 ,tcheck) scf=(maxcycle=1)\\title\\0,1\P,0,-1.064901,0.130353,0.000071\
 S,0,1.082853,-0.097994,-0.000021\H,0,-1.339776,-0.805629,1.029278\H,0,
 -1.339692,-0.804447,-1.030238\H,0,1.327335,1.22269,0.000223\\Version=E
 S64L-G16RevC.01\State=1-A\HF=-740.0653475\RMSD=1.333e-02\Dipole=-0.309
 2591,0.086102,-0.0000608\Quadrupole=0.177097,0.4721483,-0.6492454,2.29
 44497,0.0006903,-0.0003701\PG=C01 [X(H3P1S1)]\\@

 Normal termination of Gaussian 16 at Tue Apr  8 23:42:13 2025.
