 Gaussian 16, Revision C.01,

 ----------------------------------------------------------------------
 #t hf aug-cc-pvdz symm=none int=(grid=ultrafine) guess=(read,tcheck) s
 table=opt
 ----------------------------------------------------------------------
 -----
 title
 -----
 Symbolic Z-matrix:
 Charge =  0 Multiplicity = 2

 SCF Done:  E(UHF) =  -1145.83484833     A.U. after   17 cycles
 Normal termination of Gaussian 16 at Tue Apr  8 23:59:40 2025.
 Gaussian 16:  ES64L-G16RevC.01  3-Jul-2019

 ----------------------------------------------------------------------
 #t hf aug-cc-pvdz iop(5/13=1,5/36=2,99/5=2) pseudo=read geom=check gue
 ss=(read,tcheck) scf=(maxcycle=1)
 ----------------------------------------------------------------------
 -----
 title
 -----
 Structure from the checkpoint file:  "BDE49_nonexpt_212_mol2.chk"
 Charge =  0 Multiplicity = 2

                         Standard orientation:
 ---------------------------------------------------------------------
 Center     Atomic      Atomic             Coordinates (Angstroms)
 Number     Number       Type             X           Y           Z
 ---------------------------------------------------------------------
      1         17           0       -2.599347   -0.448309   -0.049688
      2          5           0       -0.934149   -0.783998   -0.213873
      3         16           0        0.420478    0.482306    0.064700
      4          8           0        0.662261    0.430978    1.491010
      5          8           0        1.690393   -0.151273   -0.706642
      6          6           0        2.388734   -1.257576   -0.084603
      7          1           0        3.257466   -1.429626   -0.716343
      8          1           0        1.756868   -2.149082   -0.071279
      9          1           0        2.694856   -0.991419    0.925975
     10          8           0        0.158647    1.712786   -0.628354
 ---------------------------------------------------------------------

 SCF Done:  E(UHF) =  -1146.02519811     A.U. after    2 cycles

 The electronic state is 2-A.
 Alpha  occ. eigenvalues -- -103.71914 -93.82851 -20.64479 -20.58734 -20.58335
 Alpha  occ. eigenvalues --  -11.32584 -10.75376  -9.09124  -8.41115  -8.40852
 Alpha  occ. eigenvalues --   -8.40767  -7.77077  -6.43756  -6.43676  -6.43481
 Alpha  occ. eigenvalues --   -1.47785  -1.36222  -1.33798  -1.21735  -1.00293
 Alpha  occ. eigenvalues --   -0.90445  -0.78754  -0.73852  -0.70909  -0.69266
 Alpha  occ. eigenvalues --   -0.66004  -0.64999  -0.58935  -0.56882  -0.55684
 Alpha  occ. eigenvalues --   -0.55084  -0.53683  -0.52737  -0.52014  -0.51284
 Alpha  occ. eigenvalues --   -0.39980
 Alpha virt. eigenvalues --    0.00755   0.03021   0.04327   0.05365   0.05503
 Alpha virt. eigenvalues --    0.06750   0.07233   0.08027   0.11690   0.12481
 Alpha virt. eigenvalues --    0.13196   0.14341   0.15194   0.15375   0.16056

  Beta  occ. eigenvalues -- -103.71848 -93.82789 -20.64532 -20.58681 -20.58137
  Beta  occ. eigenvalues --  -11.32569 -10.75302  -9.09035  -8.41015  -8.40823
  Beta  occ. eigenvalues --   -8.40577  -7.74947  -6.43737  -6.43643  -6.43263
  Beta  occ. eigenvalues --   -1.47568  -1.36178  -1.33424  -1.21001  -1.00146
  Beta  occ. eigenvalues --   -0.89093  -0.77903  -0.73402  -0.70757  -0.68104
  Beta  occ. eigenvalues --   -0.64816  -0.64688  -0.58613  -0.55892  -0.54949
  Beta  occ. eigenvalues --   -0.54018  -0.53240  -0.52447  -0.51655  -0.48670
  Beta virt. eigenvalues --    0.01253   0.03346   0.03874   0.05029   0.05656
  Beta virt. eigenvalues --    0.05853   0.06876   0.07247   0.08707   0.12137
  Beta virt. eigenvalues --    0.12613   0.13446   0.14851   0.15348   0.15696

 Mulliken charges and spin densities:
               1          2
     1  Cl  -0.154681   0.006217
     2  B    0.273771   0.983318
     3  S    2.386241  -0.005781
     4  O   -1.009796   0.011120
     5  O   -0.929911  -0.017426
     6  C    0.714154  -0.000600
     7  H   -0.194620  -0.000853
     8  H   -0.089146  -0.011966
     9  H   -0.034449   0.000963
    10  O   -0.961564   0.035009
 Sum of Mulliken charges =  -0.00000   1.00000

 Dipole moment (field-independent basis, Debye):
    X=              0.1445    Y=             -4.6546    Z=             -0.6976  Tot=              4.7088
                          Isotropic Fermi Contact Couplings
        Atom                 a.u.       MegaHertz       Gauss      10(-4) cm-1
     1  Cl(35)             0.05290      23.19380       8.27612       7.73662
     2  B(11)              0.38960     558.82568     199.40290     186.40418
     3  S(33)              0.12208      41.92956      14.96151      13.98620
     4  O(17)              0.00319      -1.93241      -0.68953      -0.64458
     5  O(17)             -0.00935       5.66944       2.02300       1.89112
     6  C(13)              0.00274       3.08256       1.09993       1.02823
     7  H(1)               0.00006       0.27681       0.09877       0.09234
     8  H(1)              -0.00003      -0.11855      -0.04230      -0.03954

 Normal termination of Gaussian 16 at Tue Apr  8 23:59:44 2025.
