 Gaussian 16, Revision C.01,

 ----------------------------------------------------------------------
 #t hf aug-cc-pvdz symm=none int=(grid=ultrafine) guess=(read,tcheck) s
 table=(opt,rrhf)
 ----------------------------------------------------------------------
 -----
 title
 -----
 Symbolic Z-matrix:
 Charge =  0 Multiplicity = 1

 SCF Done:  E(RHF) =  -1198.93272869     A.U. after   13 cycles
 Normal termination of Gaussian 16 at Wed Apr  9 00:15:04 2025.
 Gaussian 16:  ES64L-G16RevC.01  3-Jul-2019

 ----------------------------------------------------------------------
 #t hf aug-cc-pvdz iop(5/13=1,5/36=2,99/5=2) pseudo=read geom=check gue
 ss=(read,tcheck) scf=(maxcycle=1)
 ----------------------------------------------------------------------
 -----
 title
 -----
 Structure from the checkpoint file:  "BDE49_nonexpt_2535_mol1.chk"
 Charge =  0 Multiplicity = 1

                         Standard orientation:
 ---------------------------------------------------------------------
 Center     Atomic      Atomic             Coordinates (Angstroms)
 Number     Number       Type             X           Y           Z
 ---------------------------------------------------------------------
      1         17           0        1.656768   -0.419673   -0.000013
      2         16           0        0.031635    0.897211    0.000023
      3         15           0       -1.599743   -0.498170   -0.000103
      4          1           0       -2.338094    0.126470   -1.037290
      5          1           0       -2.336970    0.125149    1.038689
 ---------------------------------------------------------------------

 SCF Done:  E(RHF) =  -1198.99307552     A.U. after    2 cycles

 The electronic state is 1-A.
 Alpha  occ. eigenvalues -- -103.68070 -93.60178 -81.30895 -10.71208  -8.89587
 Alpha  occ. eigenvalues --   -8.36938  -8.36583  -8.36558  -7.81107  -6.23606
 Alpha  occ. eigenvalues --   -6.23358  -6.22970  -4.94924  -4.94884  -4.94652
 Alpha  occ. eigenvalues --   -1.16455  -0.94694  -0.78322  -0.56457  -0.55299
 Alpha  occ. eigenvalues --   -0.54153  -0.51159  -0.45196  -0.38722  -0.37861
 Alpha virt. eigenvalues --    0.03368   0.03722   0.05679   0.06476   0.09435
 Alpha virt. eigenvalues --    0.09810   0.11691   0.12603   0.13769   0.14390
 Alpha virt. eigenvalues --    0.15100   0.16807   0.17985   0.18638   0.18684

 Mulliken charges:
               1
     1  Cl  -0.283518
     2  S   -0.060360
     3  P   -0.078757
     4  H    0.211250
     5  H    0.211386
 Sum of Mulliken charges =  -0.00000

 Dipole moment (field-independent basis, Debye):
    X=             -2.4979    Y=              0.2474    Z=              0.0004  Tot=              2.5101

 Test job not archived.
 1\1\GINC-SE273\SP\RHF\Aug-CC-pVDZ\Cl1H2P1S1\OHZDE\09-Apr-2025\0\\#t hf
  aug-cc-pvdz iop(5/13=1,5/36=2,99/5=2) pseudo=read geom=check guess=(r
 ead,tcheck) scf=(maxcycle=1)\\title\\0,1\Cl,0,1.656768,-0.419673,-0.00
 0013\S,0,0.031635,0.897211,0.000023\P,0,-1.599743,-0.49817,-0.000103\H
 ,0,-2.338094,0.12647,-1.03729\H,0,-2.33697,0.125149,1.038689\\Version=
 ES64L-G16RevC.01\State=1-A\HF=-1198.9930755\RMSD=1.048e-02\Dipole=-0.9
 827589,0.0973482,0.000146\Quadrupole=2.0547217,-1.2375024,-0.8172194,-
 0.3754003,-0.0000408,-0.0011528\PG=C01 [X(Cl1H2P1S1)]\\@

 Normal termination of Gaussian 16 at Wed Apr  9 00:15:06 2025.
