 Gaussian 16, Revision C.01,

 ----------------------------------------------------------------------
 #t hf aug-cc-pvdz symm=none int=(grid=ultrafine) guess=(read,tcheck) s
 table=(opt,rrhf)
 ----------------------------------------------------------------------
 -----
 title
 -----
 Symbolic Z-matrix:
 Charge =  0 Multiplicity = 1

 SCF Done:  E(RHF) =  -412.530494631     A.U. after   15 cycles
 Normal termination of Gaussian 16 at Tue Apr  8 23:02:59 2025.
 Gaussian 16:  ES64L-G16RevC.01  3-Jul-2019

 ----------------------------------------------------------------------
 #t hf aug-cc-pvdz iop(5/13=1,5/36=2,99/5=2) pseudo=read geom=check gue
 ss=(read,tcheck) scf=(maxcycle=1)
 ----------------------------------------------------------------------
 -----
 title
 -----
 Structure from the checkpoint file:  "BDE49_expt_375_mol1.chk"
 Charge =  0 Multiplicity = 1

                         Standard orientation:
 ---------------------------------------------------------------------
 Center     Atomic      Atomic             Coordinates (Angstroms)
 Number     Number       Type             X           Y           Z
 ---------------------------------------------------------------------
      1          7           0       -1.173060    0.986967    0.000001
      2          6           0       -1.224213   -0.406741   -0.000021
      3          7           0        0.032154   -0.987541    0.000002
      4          6           0        1.293003   -0.349684    0.000030
      5          6           0        1.203139    1.106674    0.000000
      6          6           0       -0.002325    1.706405    0.000002
      7          1           0        2.122733    1.671159   -0.000010
      8          1           0       -0.119900    2.782687    0.000001
      9          8           0        2.313410   -1.005132   -0.000012
     10          8           0       -2.264421   -1.024539    0.000001
     11          1           0       -2.070329    1.447124    0.000005
     12          1           0        0.044303   -1.999511    0.000002
 ---------------------------------------------------------------------

 SCF Done:  E(RHF) =  -412.657108485     A.U. after    2 cycles

 The electronic state is 1-A.
 Alpha  occ. eigenvalues --  -20.56511 -20.56029 -15.70744 -15.69119 -11.43496
 Alpha  occ. eigenvalues --  -11.39597 -11.35201 -11.26640  -1.40172  -1.37007
 Alpha  occ. eigenvalues --   -1.27984  -1.20886  -1.07843  -0.92925  -0.89694
 Alpha  occ. eigenvalues --   -0.80480  -0.76855  -0.71549  -0.68777  -0.67065
 Alpha  occ. eigenvalues --   -0.66569  -0.62756  -0.60773  -0.58305  -0.52937
 Alpha  occ. eigenvalues --   -0.50001  -0.46669  -0.44422  -0.37236
 Alpha virt. eigenvalues --    0.01758   0.03879   0.04791   0.06218   0.06498
 Alpha virt. eigenvalues --    0.07948   0.09691   0.10331   0.11561   0.12385
 Alpha virt. eigenvalues --    0.12660   0.13219   0.13900   0.14870   0.15127

 Mulliken charges:
               1
     1  N   -0.455040
     2  C    0.767303
     3  N   -0.437574
     4  C    0.375670
     5  C    0.726940
     6  C    0.742662
     7  H   -0.381311
     8  H   -0.323022
     9  O   -0.485690
    10  O   -0.451046
    11  H   -0.045005
    12  H   -0.033887
 Sum of Mulliken charges =  -0.00000

 Dipole moment (field-independent basis, Debye):
    X=             -1.3565    Y=              4.9596    Z=              0.0000  Tot=              5.1418

 Test job not archived.
 1\1\GINC-SE195\SP\RHF\Aug-CC-pVDZ\C4H4N2O2\OHZDE\08-Apr-2025\0\\#t hf
 aug-cc-pvdz iop(5/13=1,5/36=2,99/5=2) pseudo=read geom=check guess=(re
 ad,tcheck) scf=(maxcycle=1)\\title\\0,1\N,0,1.17306,0.986967,-0.000001
 \C,0,1.224213,-0.406741,0.000021\N,0,-0.032154,-0.987541,-0.000002\C,0
 ,-1.293003,-0.349684,-0.00003\C,0,-1.203139,1.106674,0.\C,0,0.002325,1
 .706405,-0.000002\H,0,-2.122733,1.671159,0.00001\H,0,0.1199,2.782687,-
 0.000001\O,0,-2.31341,-1.005132,0.000012\O,0,2.264421,-1.024539,-0.000
 001\H,0,2.070329,1.447124,-0.000005\H,0,-0.044303,-1.999511,-0.000002\

 Normal termination of Gaussian 16 at Tue Apr  8 23:03:04 2025.
