 Gaussian 16, Revision C.01,

 ----------------------------------------------------------------------
 #t hf aug-cc-pvdz symm=none int=(grid=ultrafine) guess=(read,tcheck) s
 table=opt
 ----------------------------------------------------------------------
 -----
 title
 -----
 Symbolic Z-matrix:
 Charge =  0 Multiplicity = 2

 SCF Done:  E(UHF) =  -1706.41822610     A.U. after   17 cycles
 Normal termination of Gaussian 16 at Tue Apr  8 23:44:59 2025.
 Gaussian 16:  ES64L-G16RevC.01  3-Jul-2019

 ----------------------------------------------------------------------
 #t hf aug-cc-pvdz iop(5/13=1,5/36=2,99/5=2) pseudo=read geom=check gue
 ss=(read,tcheck) scf=(maxcycle=1)
 ----------------------------------------------------------------------
 -----
 title
 -----
 Structure from the checkpoint file:  "BDE49_nonexpt_1767_mol2.chk"
 Charge =  0 Multiplicity = 2

                         Standard orientation:
 ---------------------------------------------------------------------
 Center     Atomic      Atomic             Coordinates (Angstroms)
 Number     Number       Type             X           Y           Z
 ---------------------------------------------------------------------
      1         14           0       -0.627083   -1.807782    0.000000
      2          6           0       -0.018143    0.014823   -0.000000
      3         17           0       -0.627083    0.857070    1.470890
      4         17           0       -0.627083    0.857070   -1.470890
      5         17           0        1.790426    0.057528   -0.000000
      6          1           0       -0.114194   -2.449173    1.232909
      7          1           0       -0.114194   -2.449173   -1.232909
 ---------------------------------------------------------------------

 SCF Done:  E(UHF) =  -1706.50387060     A.U. after    2 cycles

 The electronic state is 2-A'.
 Alpha  occ. eigenvalues -- -103.69146-103.69145-103.69072 -69.11378 -11.43423
 Alpha  occ. eigenvalues --  -10.72432 -10.72419 -10.72339  -8.38135  -8.38130
 Alpha  occ. eigenvalues --   -8.38098  -8.37811  -8.37810  -8.37807  -8.37805
 Alpha  occ. eigenvalues --   -8.37739  -8.37707  -6.86636  -3.97946  -3.97084
 Alpha  occ. eigenvalues --   -3.97016  -1.25345  -1.15719  -1.15696  -0.87799
 Alpha  occ. eigenvalues --   -0.72904  -0.63481  -0.63393  -0.59836  -0.52828
 Alpha  occ. eigenvalues --   -0.51965  -0.50914  -0.48028  -0.47559  -0.46570
 Alpha  occ. eigenvalues --   -0.44702  -0.36103
 Alpha virt. eigenvalues --    0.03497   0.05787   0.05801   0.06307   0.07231
 Alpha virt. eigenvalues --    0.08134   0.08986   0.10197   0.11026   0.13457
 Alpha virt. eigenvalues --    0.14150   0.14392   0.14617   0.16847   0.17452

  Beta  occ. eigenvalues -- -103.69147-103.69147-103.69016 -69.10781 -11.43404
  Beta  occ. eigenvalues --  -10.72433 -10.72419 -10.72279  -8.38147  -8.38142
  Beta  occ. eigenvalues --   -8.37955  -8.37811  -8.37809  -8.37802  -8.37801
  Beta  occ. eigenvalues --   -8.37673  -8.37634  -6.85721  -3.96670  -3.96613
  Beta  occ. eigenvalues --   -3.95718  -1.25211  -1.15721  -1.15394  -0.87003
  Beta  occ. eigenvalues --   -0.70069  -0.63401  -0.63001  -0.58535  -0.52320
  Beta  occ. eigenvalues --   -0.51529  -0.50333  -0.47788  -0.47432  -0.46505
  Beta  occ. eigenvalues --   -0.44073
  Beta virt. eigenvalues --    0.01482   0.03882   0.05867   0.06010   0.07643
  Beta virt. eigenvalues --    0.07701   0.08301   0.09239   0.10466   0.11167
  Beta virt. eigenvalues --    0.13849   0.14210   0.15042   0.15741   0.18002

 Mulliken charges and spin densities:
               1          2
     1  Si   0.507999   0.953560
     2  C   -0.595355  -0.047311
     3  Cl   0.027396   0.002479
     4  Cl   0.027396   0.002479
     5  Cl   0.020415   0.021815
     6  H    0.006074   0.033489
     7  H    0.006074   0.033489
 Sum of Mulliken charges =  -0.00000   1.00000

 Dipole moment (field-independent basis, Debye):
    X=             -0.6385    Y=             -1.7320    Z=             -0.0000  Tot=              1.8459
                          Isotropic Fermi Contact Couplings
        Atom                 a.u.       MegaHertz       Gauss      10(-4) cm-1
     1  Si(29)             0.62126    -552.12926    -197.01345    -184.17050
     2  C(13)              0.01297      14.58435       5.20406       4.86482
     3  Cl(35)             0.00066       0.28896       0.10311       0.09639
     4  Cl(35)             0.00066       0.28896       0.10311       0.09639
     5  Cl(35)             0.03113      13.64887       4.87025       4.55277
     6  H(1)               0.00755      33.73930      12.03902      11.25422
     7  H(1)               0.00755      33.73930      12.03902      11.25422
 --------------------------------------------------------

 Normal termination of Gaussian 16 at Tue Apr  8 23:45:02 2025.
