 Gaussian 16, Revision C.01,

 ----------------------------------------------------------------------
 #t hf aug-cc-pvdz symm=none int=(grid=ultrafine) guess=(read,tcheck) s
 table=(opt,rrhf)
 ----------------------------------------------------------------------
 -----
 title
 -----
 Symbolic Z-matrix:
 Charge =  0 Multiplicity = 1

 SCF Done:  E(RHF) =  -571.525875440     A.U. after   14 cycles

 1\1\GINC-SE103\Stability\RHF\Aug-CC-pVDZ\C7H12O4\OHZDE\08-Apr-2025\0\\
 #t hf aug-cc-pvdz symm=none int=(grid=ultrafine) guess=(read,tcheck) s
 table=(opt,rrhf)\\title\\0,1\C,0,-1.626367,0.037821,-0.186731\O,0,-1.0
 97543,1.106421,-0.138198\O,0,-1.002456,-1.128006,-0.58882\O,0,0.381456
 ,-0.90826,-0.927888\C,0,1.188421,-0.916175,0.196644\O,0,0.783347,-1.04
 2092,1.311741\C,0,-3.052183,-0.308804,0.185006\C,0,2.621906,-0.719222,
 -0.244238\C,0,3.21588,0.56788,0.35979\H,0,2.681297,-0.703701,-1.334422
 \H,0,3.174473,-1.592921,0.114067\C,0,2.590911,1.846695,-0.204714\H,0,4

 Normal termination of Gaussian 16 at Tue Apr  8 22:58:08 2025.
 Gaussian 16:  ES64L-G16RevC.01  3-Jul-2019

 ----------------------------------------------------------------------
 #t hf aug-cc-pvdz iop(5/13=1,5/36=2,99/5=2) pseudo=read geom=check gue
 ss=(read,tcheck) scf=(maxcycle=1)
 ----------------------------------------------------------------------
 -----
 title
 -----
 Structure from the checkpoint file:  "BDE49_expt_1892_mol1.chk"
 Charge =  0 Multiplicity = 1

                         Standard orientation:
 ---------------------------------------------------------------------
 Center     Atomic      Atomic             Coordinates (Angstroms)
 Number     Number       Type             X           Y           Z
 ---------------------------------------------------------------------
      1          6           0       -1.626367    0.037821   -0.186731
      2          8           0       -1.097543    1.106421   -0.138198
      3          8           0       -1.002456   -1.128006   -0.588820
      4          8           0        0.381456   -0.908260   -0.927888
      5          6           0        1.188421   -0.916175    0.196644
      6          8           0        0.783347   -1.042092    1.311741
      7          6           0       -3.052183   -0.308804    0.185006
      8          6           0        2.621906   -0.719222   -0.244238
      9          6           0        3.215880    0.567880    0.359790
     10          1           0        2.681297   -0.703701   -1.334422
     11          1           0        3.174473   -1.592921    0.114067
     12          6           0        2.590911    1.846695   -0.204714
     13          1           0        4.293386    0.561579    0.168619
     14          1           0        3.086747    0.530441    1.445155
     15          1           0        1.513287    1.883160   -0.026271
     16          1           0        2.749891    1.917783   -1.285178
     17          1           0        3.038245    2.730824    0.256407
     18          6           0       -3.952744    0.925068    0.231321
     19          1           0       -3.000967   -0.795070    1.165492
     20          1           0       -3.426399   -1.064081   -0.510424
     21          1           0       -3.548868    1.673949    0.913631
     22          1           0       -4.952925    0.647598    0.570250
     23          1           0       -4.041538    1.386353   -0.754464
 ---------------------------------------------------------------------

 SCF Done:  E(RHF) =  -571.707473009     A.U. after    2 cycles

 The electronic state is 1-A.
 Alpha  occ. eigenvalues --  -20.69251 -20.69012 -20.58062 -20.57910 -11.41097
 Alpha  occ. eigenvalues --  -11.40991 -11.26800 -11.26342 -11.24643 -11.24125
 Alpha  occ. eigenvalues --  -11.22396  -1.50141  -1.39815  -1.36814  -1.26981
 Alpha  occ. eigenvalues --   -1.07916  -1.06044  -0.97085  -0.91532  -0.85469
 Alpha  occ. eigenvalues --   -0.81688  -0.78653  -0.73247  -0.72873  -0.72068
 Alpha  occ. eigenvalues --   -0.66937  -0.65957  -0.65042  -0.63249  -0.60284
 Alpha  occ. eigenvalues --   -0.59096  -0.58817  -0.56808  -0.54755  -0.53706
 Alpha  occ. eigenvalues --   -0.52464  -0.52283  -0.51138  -0.50344  -0.49291
 Alpha  occ. eigenvalues --   -0.49003  -0.47695  -0.46993
 Alpha virt. eigenvalues --    0.03325   0.03758   0.04693   0.05012   0.05316
 Alpha virt. eigenvalues --    0.05519   0.05801   0.07096   0.07184   0.07586
 Alpha virt. eigenvalues --    0.08278   0.09746   0.10781   0.11260   0.12185

 Mulliken charges:
               1
     1  C    0.367977
     2  O   -0.393234
     3  O   -0.414836
     4  O   -0.376913
     5  C    0.602423
     6  O   -0.488837
     7  C    0.109606
     8  C    0.129040
     9  C    0.226219
    10  H   -0.119427
    11  H    0.065221
    12  C    0.500243
    13  H   -0.086161
    14  H   -0.094693
    15  H   -0.208645
    16  H   -0.077751
    17  H   -0.059596
    18  C    0.452994
    19  H    0.053092
    20  H   -0.033324
    21  H   -0.047094
    22  H   -0.047013
    23  H   -0.059289
 Sum of Mulliken charges =  -0.00000

 Dipole moment (field-independent basis, Debye):
    X=             -0.1725    Y=             -0.6541    Z=             -1.0332  Tot=              1.2350

 Test job not archived.
 1\1\GINC-SE103\SP\RHF\Aug-CC-pVDZ\C7H12O4\OHZDE\08-Apr-2025\0\\#t hf a
 ug-cc-pvdz iop(5/13=1,5/36=2,99/5=2) pseudo=read geom=check guess=(rea
 d,tcheck) scf=(maxcycle=1)\\title\\0,1\C,0,-1.626367,0.037821,-0.18673
 1\O,0,-1.097543,1.106421,-0.138198\O,0,-1.002456,-1.128006,-0.58882\O,
 0,0.381456,-0.90826,-0.927888\C,0,1.188421,-0.916175,0.196644\O,0,0.78
 3347,-1.042092,1.311741\C,0,-3.052183,-0.308804,0.185006\C,0,2.621906,
 -0.719222,-0.244238\C,0,3.21588,0.56788,0.35979\H,0,2.681297,-0.703701
 ,-1.334422\H,0,3.174473,-1.592921,0.114067\C,0,2.590911,1.846695,-0.20

 Normal termination of Gaussian 16 at Tue Apr  8 22:58:27 2025.
