 Gaussian 16, Revision C.01,

 ----------------------------------------------------------------------
 #t hf aug-cc-pvdz symm=none int=(grid=ultrafine) guess=(read,tcheck) s
 table=(opt,rrhf)
 ----------------------------------------------------------------------
 -----
 title
 -----
 Symbolic Z-matrix:
 Charge =  0 Multiplicity = 1

 SCF Done:  E(RHF) =  -576.153863662     A.U. after   13 cycles
 Normal termination of Gaussian 16 at Tue Apr  8 23:51:01 2025.
 Gaussian 16:  ES64L-G16RevC.01  3-Jul-2019

 ----------------------------------------------------------------------
 #t hf aug-cc-pvdz iop(5/13=1,5/36=2,99/5=2) pseudo=read geom=check gue
 ss=(read,tcheck) scf=(maxcycle=1)
 ----------------------------------------------------------------------
 -----
 title
 -----
 Structure from the checkpoint file:  "BDE49_nonexpt_1907_mol1.chk"
 Charge =  0 Multiplicity = 1

                         Standard orientation:
 ---------------------------------------------------------------------
 Center     Atomic      Atomic             Coordinates (Angstroms)
 Number     Number       Type             X           Y           Z
 ---------------------------------------------------------------------
      1         14           0       -2.339853   -0.225320   -0.403768
      2          6           0       -0.933968   -0.010662    0.858099
      3          1           0       -2.604454    1.055866   -1.104959
      4          1           0       -3.577703   -0.634007    0.303802
      5          1           0       -1.976416   -1.247704   -1.408019
      6          7           0        0.327767    0.429741    0.248915
      7          6           0        1.306971   -0.512532    0.035928
      8          8           0        1.116379   -1.695427    0.276447
      9          6           0        2.639872   -0.033711   -0.522806
     10          1           0        3.122531    0.693718    0.135119
     11          1           0        2.525380    0.426254   -1.508098
     12          1           0        3.279363   -0.908621   -0.614988
     13          6           0        0.504771    1.865041    0.092002
     14          1           0       -0.378757    2.300413   -0.382744
     15          1           0        1.361965    2.086905   -0.538388
     16          1           0        0.647494    2.360572    1.061590
     17          1           0       -0.750249   -0.974129    1.336720
     18          1           0       -1.222486    0.701626    1.639391
 ---------------------------------------------------------------------

 SCF Done:  E(RHF) =  -576.268266522     A.U. after    2 cycles

 The electronic state is 1-A.
 Alpha  occ. eigenvalues --  -69.06075 -20.52921 -15.65447 -11.36173 -11.28494
 Alpha  occ. eigenvalues --  -11.26005 -11.24769  -6.81410  -3.92188  -3.92176
 Alpha  occ. eigenvalues --   -3.92164  -1.34273  -1.20969  -1.01063  -0.96930
 Alpha  occ. eigenvalues --   -0.91125  -0.74333  -0.70123  -0.69054  -0.66164
 Alpha  occ. eigenvalues --   -0.63739  -0.59118  -0.58628  -0.57557  -0.55680
 Alpha  occ. eigenvalues --   -0.53975  -0.52972  -0.48085  -0.47699  -0.47066
 Alpha  occ. eigenvalues --   -0.43414  -0.35963
 Alpha virt. eigenvalues --    0.02808   0.03801   0.04083   0.04723   0.05978
 Alpha virt. eigenvalues --    0.06565   0.06901   0.07205   0.08087   0.08924
 Alpha virt. eigenvalues --    0.09492   0.09737   0.10093   0.10991   0.11714

 Mulliken charges:
               1
     1  Si   0.184349
     2  C    0.297301
     3  H   -0.007247
     4  H    0.000028
     5  H    0.095346
     6  N   -0.392669
     7  C    0.237890
     8  O   -0.579210
     9  C    0.284166
    10  H    0.071172
    11  H    0.064570
    12  H   -0.143770
    13  C    0.813936
    14  H   -0.144496
    15  H   -0.296162
    16  H   -0.062743
    17  H   -0.215928
    18  H   -0.206532
 Sum of Mulliken charges =  -0.00000

 Dipole moment (field-independent basis, Debye):
    X=              0.5000    Y=              4.2324    Z=             -0.1202  Tot=              4.2636

 Test job not archived.
 1\1\GINC-SE345\SP\RHF\Aug-CC-pVDZ\C4H11N1O1Si1\OHZDE\08-Apr-2025\0\\#t
  hf aug-cc-pvdz iop(5/13=1,5/36=2,99/5=2) pseudo=read geom=check guess
 =(read,tcheck) scf=(maxcycle=1)\\title\\0,1\Si,0,-2.339853,-0.22532,-0
 .403768\C,0,-0.933968,-0.010662,0.858099\H,0,-2.604454,1.055866,-1.104
 959\H,0,-3.577703,-0.634007,0.303802\H,0,-1.976416,-1.247704,-1.408019
 \N,0,0.327767,0.429741,0.248915\C,0,1.306971,-0.512532,0.035928\O,0,1.
 116379,-1.695427,0.276447\C,0,2.639872,-0.033711,-0.522806\H,0,3.12253
 1,0.693718,0.135119\H,0,2.52538,0.426254,-1.508098\H,0,3.279363,-0.908

 Normal termination of Gaussian 16 at Tue Apr  8 23:51:07 2025.
