 Gaussian 16, Revision C.01,

 ----------------------------------------------------------------------
 #t hf aug-cc-pvdz symm=none int=(grid=ultrafine) guess=(read,tcheck) s
 table=opt
 ----------------------------------------------------------------------
 -----
 title
 -----
 Symbolic Z-matrix:
 Charge =  0 Multiplicity = 2

 SCF Done:  E(UHF) =  -834.678018752     A.U. after   19 cycles
 Normal termination of Gaussian 16 at Tue Apr  8 22:45:28 2025.
 Gaussian 16:  ES64L-G16RevC.01  3-Jul-2019

 ----------------------------------------------------------------------
 #t hf aug-cc-pvdz iop(5/13=1,5/36=2,99/5=2) pseudo=read geom=check gue
 ss=(read,tcheck) scf=(maxcycle=1)
 ----------------------------------------------------------------------
 -----
 title
 -----
 Structure from the checkpoint file:  "BDE49_expt_1591_mol2.chk"
 Charge =  0 Multiplicity = 2

                         Standard orientation:
 ---------------------------------------------------------------------
 Center     Atomic      Atomic             Coordinates (Angstroms)
 Number     Number       Type             X           Y           Z
 ---------------------------------------------------------------------
      1         16           0        1.053600   -0.910058    0.000000
      2         16           0        0.000000    0.774043    0.000000
      3          6           0       -1.760380    0.269836    0.000000
      4          1           0       -2.352653    1.187333    0.000000
      5          1           0       -1.971333   -0.315051    0.894210
      6          1           0       -1.971333   -0.315051   -0.894210
 ---------------------------------------------------------------------

 SCF Done:  E(UHF) =  -834.733202863     A.U. after    2 cycles

 The electronic state is 2-A".
 Alpha  occ. eigenvalues --  -93.58597 -93.56618 -11.28272  -8.88171  -8.86316
 Alpha  occ. eigenvalues --   -6.22184  -6.22149  -6.21869  -6.21308  -6.20040
 Alpha  occ. eigenvalues --   -6.19527  -1.08473  -0.96475  -0.80756  -0.61542
 Alpha  occ. eigenvalues --   -0.61262  -0.54075  -0.49375  -0.47383  -0.37512
 Alpha  occ. eigenvalues --   -0.35758
 Alpha virt. eigenvalues --    0.03468   0.05497   0.05916   0.07664   0.07796
 Alpha virt. eigenvalues --    0.12532   0.13280   0.13736   0.14277   0.14416
 Alpha virt. eigenvalues --    0.16172   0.16880   0.16959   0.18036   0.22948

  Beta  occ. eigenvalues --  -93.58334 -93.55830 -11.28336  -8.87874  -8.85439
  Beta  occ. eigenvalues --   -6.22033  -6.21757  -6.21004  -6.19599  -6.19033
  Beta  occ. eigenvalues --   -6.17866  -1.06496  -0.93934  -0.75360  -0.61003
  Beta  occ. eigenvalues --   -0.60806  -0.53222  -0.46007  -0.38923  -0.35731
  Beta virt. eigenvalues --    0.01046   0.03477   0.05540   0.06064   0.07813
  Beta virt. eigenvalues --    0.08086   0.12604   0.13835   0.14009   0.14498
  Beta virt. eigenvalues --    0.15086   0.16591   0.17071   0.17618   0.18690

 Mulliken charges and spin densities:
               1          2
     1  S   -0.058198   0.860774
     2  S    0.119152   0.180314
     3  C    0.048605  -0.050318
     4  H   -0.054860  -0.003613
     5  H   -0.027349   0.006421
     6  H   -0.027349   0.006421
 Sum of Mulliken charges =  -0.00000   1.00000

 Dipole moment (field-independent basis, Debye):
    X=             -2.2669    Y=              0.2288    Z=              0.0000  Tot=              2.2784
                          Isotropic Fermi Contact Couplings
        Atom                 a.u.       MegaHertz       Gauss      10(-4) cm-1
     1  S(33)              0.19063      65.47711      23.36386      21.84081
     2  S(33)              0.11510      39.53209      14.10603      13.18649
     3  C(13)             -0.01115     -12.53769      -4.47376      -4.18212
     4  H(1)              -0.00025      -1.12340      -0.40086      -0.37473
     5  H(1)               0.00305      13.62652       4.86228       4.54532
     6  H(1)               0.00305      13.62652       4.86228       4.54532
 --------------------------------------------------------
       Center         ----  Spin Dipole Couplings  ----

 Normal termination of Gaussian 16 at Tue Apr  8 22:45:30 2025.
