 Gaussian 16, Revision C.01,

 ----------------------------------------------------------------------
 #t hf aug-cc-pvdz symm=none int=(grid=ultrafine) guess=(read,tcheck) s
 table=(opt,rrhf)
 ----------------------------------------------------------------------
 -----
 title
 -----
 Symbolic Z-matrix:
 Charge =  0 Multiplicity = 1

 SCF Done:  E(RHF) =  -641.214361432     A.U. after   15 cycles
 Normal termination of Gaussian 16 at Wed Apr  9 00:51:59 2025.
 Gaussian 16:  ES64L-G16RevC.01  3-Jul-2019

 ----------------------------------------------------------------------
 #t hf aug-cc-pvdz iop(5/13=1,5/36=2,99/5=2) pseudo=read geom=check gue
 ss=(read,tcheck) scf=(maxcycle=1)
 ----------------------------------------------------------------------
 -----
 title
 -----
 Structure from the checkpoint file:  "BDE49_nonexpt_996_mol1.chk"
 Charge =  0 Multiplicity = 1

                         Standard orientation:
 ---------------------------------------------------------------------
 Center     Atomic      Atomic             Coordinates (Angstroms)
 Number     Number       Type             X           Y           Z
 ---------------------------------------------------------------------
      1          6           0       -1.851696    0.544723    0.000038
      2         16           0       -0.663019   -0.817395   -0.000080
      3          1           0       -1.742850    1.153091   -0.895635
      4          1           0       -1.742852    1.152936    0.895817
      5          1           0       -2.830758    0.058695   -0.000005
      6          7           0        0.896184    0.141549    0.000008
      7          8           0        0.826113    1.351527   -0.000091
      8          8           0        1.894093   -0.544725    0.000194
 ---------------------------------------------------------------------

 SCF Done:  E(RHF) =  -641.313185521     A.U. after    2 cycles

 The electronic state is 1-A.
 Alpha  occ. eigenvalues --  -93.61930 -20.63669 -20.63456 -15.93944 -11.30300
 Alpha  occ. eigenvalues --   -8.91350  -6.25499  -6.25152  -6.24777  -1.56807
 Alpha  occ. eigenvalues --   -1.39193  -1.09654  -0.96835  -0.84445  -0.75586
 Alpha  occ. eigenvalues --   -0.75324  -0.74213  -0.62777  -0.62005  -0.55301
 Alpha  occ. eigenvalues --   -0.51363  -0.49359  -0.48112  -0.41014
 Alpha virt. eigenvalues --    0.02688   0.05040   0.05219   0.06713   0.07558
 Alpha virt. eigenvalues --    0.08072   0.11428   0.12466   0.13308   0.14157
 Alpha virt. eigenvalues --    0.14388   0.15764   0.17248   0.17979   0.20263

 Mulliken charges:
               1
     1  C    0.028335
     2  S    0.750463
     3  H   -0.015307
     4  H   -0.015322
     5  H   -0.043050
     6  N    0.314998
     7  O   -0.504605
     8  O   -0.515512
 Sum of Mulliken charges =  -0.00000

 Dipole moment (field-independent basis, Debye):
    X=             -4.5623    Y=             -0.2156    Z=             -0.0001  Tot=              4.5674

 Test job not archived.
 1\1\GINC-SE345\SP\RHF\Aug-CC-pVDZ\C1H3N1O2S1\OHZDE\09-Apr-2025\0\\#t h
 f aug-cc-pvdz iop(5/13=1,5/36=2,99/5=2) pseudo=read geom=check guess=(
 read,tcheck) scf=(maxcycle=1)\\title\\0,1\C,0,-1.851696,0.544724,0.000
 038\S,0,-0.663019,-0.817395,-0.00008\H,0,-1.74285,1.153092,-0.895635\H
 ,0,-1.742852,1.152937,0.895817\H,0,-2.830758,0.058696,-0.000005\N,0,0.
 896184,0.141549,0.000008\O,0,0.826114,1.351527,-0.000091\O,0,1.894093,
 -0.544726,0.000194\\Version=ES64L-G16RevC.01\State=1-A\HF=-641.3131855
 \RMSD=4.326e-03\Dipole=-1.7949308,-0.0848392,-0.0000385\Quadrupole=0.7

 Normal termination of Gaussian 16 at Wed Apr  9 00:52:01 2025.
