 Gaussian 16, Revision C.01,

 ----------------------------------------------------------------------
 #t hf aug-cc-pvdz symm=none int=(grid=ultrafine) guess=(read,tcheck) s
 table=(opt,rrhf)
 ----------------------------------------------------------------------
 -----
 title
 -----
 Symbolic Z-matrix:
 Charge =  0 Multiplicity = 1

 SCF Done:  E(RHF) =  -391.075991473     A.U. after   14 cycles
 Normal termination of Gaussian 16 at Tue Apr  8 23:36:31 2025.
 Gaussian 16:  ES64L-G16RevC.01  3-Jul-2019

 ----------------------------------------------------------------------
 #t hf aug-cc-pvdz iop(5/13=1,5/36=2,99/5=2) pseudo=read geom=check gue
 ss=(read,tcheck) scf=(maxcycle=1)
 ----------------------------------------------------------------------
 -----
 title
 -----
 Structure from the checkpoint file:  "BDE49_nonexpt_154_mol1.chk"
 Charge =  0 Multiplicity = 1

                         Standard orientation:
 ---------------------------------------------------------------------
 Center     Atomic      Atomic             Coordinates (Angstroms)
 Number     Number       Type             X           Y           Z
 ---------------------------------------------------------------------
      1          5           0        3.163483   -0.715049    0.815049
      2          5           0        2.196986   -0.483099   -0.483767
      3          6           0        0.845428    0.325878   -0.434897
      4          8           0        0.787080    1.511879   -0.582674
      5          8           0       -0.265989   -0.500261   -0.272945
      6          6           0       -1.483371   -0.026321    0.248867
      7          8           0       -1.550936    0.878663    1.017724
      8          6           0       -2.613879   -0.866928   -0.273268
      9          1           0       -2.711594   -0.711059   -1.350762
     10          1           0       -3.537639   -0.585182    0.227725
     11          1           0       -2.400086   -1.925657   -0.114423
     12          1           0        3.983169    0.089903    1.138617
     13          1           0        3.097901   -1.714244    1.466512
     14          1           0        2.515591   -0.881048   -1.565128
 ---------------------------------------------------------------------

 SCF Done:  E(RHF) =  -391.201052564     A.U. after    2 cycles

 The electronic state is 1-A.
 Alpha  occ. eigenvalues --  -20.64085 -20.58575 -20.58315 -11.41878 -11.39806
 Alpha  occ. eigenvalues --  -11.26777  -7.63630  -7.62560  -1.44869  -1.38526
 Alpha  occ. eigenvalues --   -1.33831  -1.04202  -0.92306  -0.79559  -0.74955
 Alpha  occ. eigenvalues --   -0.71767  -0.70989  -0.69564  -0.65641  -0.62123
 Alpha  occ. eigenvalues --   -0.60972  -0.59278  -0.56812  -0.54913  -0.51384
 Alpha  occ. eigenvalues --   -0.50866  -0.50057  -0.47244  -0.44330
 Alpha virt. eigenvalues --    0.02836   0.03403   0.03992   0.04425   0.04603
 Alpha virt. eigenvalues --    0.05445   0.05836   0.06265   0.07635   0.08058
 Alpha virt. eigenvalues --    0.08875   0.09360   0.09519   0.11425   0.12027

 Mulliken charges:
               1
     1  B   -0.476113
     2  B   -0.091201
     3  C    0.507304
     4  O   -0.420851
     5  O   -0.543980
     6  C    0.369861
     7  O   -0.375862
     8  C    0.279634
     9  H    0.041477
    10  H   -0.009106
    11  H    0.024765
    12  H    0.252714
    13  H    0.255199
    14  H    0.186158
 Sum of Mulliken charges =  -0.00000

 Dipole moment (field-independent basis, Debye):
    X=              0.0074    Y=             -4.3965    Z=             -1.2808  Tot=              4.5793

 Test job not archived.
 1\1\GINC-SE398\SP\RHF\Aug-CC-pVDZ\C3H6B2O3\OHZDE\08-Apr-2025\0\\#t hf
 aug-cc-pvdz iop(5/13=1,5/36=2,99/5=2) pseudo=read geom=check guess=(re
 ad,tcheck) scf=(maxcycle=1)\\title\\0,1\B,0,3.163483,-0.715049,0.81504
 9\B,0,2.196986,-0.483099,-0.483767\C,0,0.845428,0.325878,-0.434897\O,0
 ,0.78708,1.511879,-0.582674\O,0,-0.265989,-0.500261,-0.272945\C,0,-1.4
 83371,-0.026321,0.248867\O,0,-1.550936,0.878663,1.017724\C,0,-2.613879
 ,-0.866928,-0.273268\H,0,-2.711594,-0.711059,-1.350762\H,0,-3.537639,-
 0.585182,0.227725\H,0,-2.400086,-1.925657,-0.114423\H,0,3.983169,0.089

 Normal termination of Gaussian 16 at Tue Apr  8 23:36:35 2025.
