 Gaussian 16, Revision C.01,

 ----------------------------------------------------------------------
 #t hf aug-cc-pvdz symm=none int=(grid=ultrafine) guess=(read,tcheck) s
 table=opt
 ----------------------------------------------------------------------
 -----
 title
 -----
 Symbolic Z-matrix:
 Charge =  0 Multiplicity = 2

 SCF Done:  E(UHF) =  -315.877665401     A.U. after   15 cycles

 1\1\GINC-SE284\Stability\UHF\Aug-CC-pVDZ\B1H4Si1\OHZDE\09-Apr-2025\0\\
 #t hf aug-cc-pvdz symm=none int=(grid=ultrafine) guess=(read,tcheck) s
 table=opt\\title\\0,2\Si,0,-0.564786,0.,-0.000004\B,0,1.363004,0.,0.00
 0016\H,0,-1.407905,-1.215421,-0.000016\H,0,-1.407904,1.215422,-0.00001
 6\H,0,1.9539,-1.032595,0.000004\H,0,1.953899,1.032595,0.000004\\Versio
 n=ES64L-G16RevC.01\HF=-315.8776654\S2=0.762528\S2-1=0.\S2A=0.750055\RM
 SD=2.979e-09\Dipole=-0.2788862,-0.0000002,0.0000042\Quadrupole=-0.6607
 209,-0.1710234,0.8317443,0.0000014,0.0000129,0.\PG=Unknown\\@

 Normal termination of Gaussian 16 at Wed Apr  9 00:12:31 2025.
 Gaussian 16:  ES64L-G16RevC.01  3-Jul-2019

 ----------------------------------------------------------------------
 #t hf aug-cc-pvdz iop(5/13=1,5/36=2,99/5=2) pseudo=read geom=check gue
 ss=(read,tcheck) scf=(maxcycle=1)
 ----------------------------------------------------------------------
 -----
 title
 -----
 Structure from the checkpoint file:  "BDE49_nonexpt_2451_mol2.chk"
 Charge =  0 Multiplicity = 2

                         Standard orientation:
 ---------------------------------------------------------------------
 Center     Atomic      Atomic             Coordinates (Angstroms)
 Number     Number       Type             X           Y           Z
 ---------------------------------------------------------------------
      1         14           0        0.564786   -0.000000    0.000004
      2          5           0       -1.363004    0.000000   -0.000016
      3          1           0        1.407905   -1.215421    0.000016
      4          1           0        1.407904    1.215422    0.000016
      5          1           0       -1.953900   -1.032595   -0.000004
      6          1           0       -1.953899    1.032595   -0.000004
 ---------------------------------------------------------------------

 SCF Done:  E(UHF) =  -315.904193116     A.U. after    2 cycles

 The electronic state is 2-A.
 Alpha  occ. eigenvalues --  -69.06985  -7.62035  -6.82661  -3.94041  -3.93162
 Alpha  occ. eigenvalues --   -3.93104  -0.74966  -0.64034  -0.51742  -0.47636
 Alpha  occ. eigenvalues --   -0.44087  -0.30485
 Alpha virt. eigenvalues --    0.04255   0.04521   0.04794   0.04881   0.07262
 Alpha virt. eigenvalues --    0.07510   0.08075   0.09907   0.10942   0.11168
 Alpha virt. eigenvalues --    0.11652   0.15209   0.15670   0.18325   0.18644

  Beta  occ. eigenvalues --  -69.06567  -7.61994  -6.82108  -3.92838  -3.92826
  Beta  occ. eigenvalues --   -3.92179  -0.71298  -0.62722  -0.51558  -0.47880
  Beta  occ. eigenvalues --   -0.43346
  Beta virt. eigenvalues --    0.00693   0.04369   0.04669   0.04896   0.06770
  Beta virt. eigenvalues --    0.07561   0.08105   0.09514   0.10839   0.11102
  Beta virt. eigenvalues --    0.12390   0.15249   0.15775   0.16077   0.19893

 Mulliken charges and spin densities:
               1          2
     1  Si   0.104440   0.978286
     2  B   -0.693765   0.205613
     3  H   -0.035184  -0.054517
     4  H   -0.035185  -0.054517
     5  H    0.329847  -0.037433
     6  H    0.329848  -0.037433
 Sum of Mulliken charges =  -0.00000   1.00000

 Dipole moment (field-independent basis, Debye):
    X=              0.7392    Y=             -0.0000    Z=             -0.0000  Tot=              0.7392
                          Isotropic Fermi Contact Couplings
        Atom                 a.u.       MegaHertz       Gauss      10(-4) cm-1
     1  Si(29)             0.16348    -145.28946     -51.84289     -48.46335
     2  B(11)             -0.01352     -19.39519      -6.92069      -6.46954
     3  H(1)              -0.01370     -61.24365     -21.85326     -20.42868
     4  H(1)              -0.01370     -61.24366     -21.85326     -20.42869
     5  H(1)              -0.00380     -17.00184      -6.06668      -5.67120
     6  H(1)              -0.00380     -17.00184      -6.06668      -5.67120
 --------------------------------------------------------
       Center         ----  Spin Dipole Couplings  ----

 Normal termination of Gaussian 16 at Wed Apr  9 00:12:33 2025.
