 Gaussian 16, Revision C.01,

 ----------------------------------------------------------------------
 #t hf aug-cc-pvdz symm=none int=(grid=ultrafine) guess=(read,tcheck) s
 table=(opt,rrhf)
 ----------------------------------------------------------------------
 -----
 title
 -----
 Symbolic Z-matrix:
 Charge =  0 Multiplicity = 1

 SCF Done:  E(RHF) =  -963.918113258     A.U. after   15 cycles
 Normal termination of Gaussian 16 at Tue Apr  8 23:14:08 2025.
 Gaussian 16:  ES64L-G16RevC.01  3-Jul-2019

 ----------------------------------------------------------------------
 #t hf aug-cc-pvdz iop(5/13=1,5/36=2,99/5=2) pseudo=read geom=check gue
 ss=(read,tcheck) scf=(maxcycle=1)
 ----------------------------------------------------------------------
 -----
 title
 -----
 Structure from the checkpoint file:  "BDE49_expt_857_mol1.chk"
 Charge =  0 Multiplicity = 1

                         Standard orientation:
 ---------------------------------------------------------------------
 Center     Atomic      Atomic             Coordinates (Angstroms)
 Number     Number       Type             X           Y           Z
 ---------------------------------------------------------------------
      1          6           0       -0.784105    0.002333   -0.036230
      2          6           0       -0.082749    1.207052   -0.027924
      3          6           0        1.306308    1.209426   -0.012547
      4          6           0       -0.083613   -1.204125   -0.027399
      5          6           0        1.304139   -1.206518   -0.011582
      6          6           0        2.011586    0.001630   -0.002536
      7          6           0       -2.284600    0.001175    0.001008
      8          1           0        1.837200    2.153836   -0.011168
      9          1           0       -0.623634   -2.142459   -0.042084
     10          1           0        1.838987   -2.149132   -0.008948
     11         16           0        3.787825   -0.082295    0.015228
     12          1           0        4.011522    1.241127    0.024112
     13          9           0       -2.808395    1.105819   -0.574859
     14          9           0       -2.758946   -0.034939    1.270104
     15          9           0       -2.807010   -1.070695   -0.635199
     16          1           0       -0.621909    2.145834   -0.042720
 ---------------------------------------------------------------------

 SCF Done:  E(RHF) =  -964.125082956     A.U. after    2 cycles

 The electronic state is 1-A.
 Alpha  occ. eigenvalues --  -93.56619 -26.16450 -26.16403 -26.15887 -11.52954
 Alpha  occ. eigenvalues --  -11.31217 -11.28132 -11.28048 -11.27961 -11.27277
 Alpha  occ. eigenvalues --  -11.27114  -8.86395  -6.20603  -6.20401  -6.19976
 Alpha  occ. eigenvalues --   -1.75657  -1.68852  -1.68328  -1.18675  -1.10055
 Alpha  occ. eigenvalues --   -1.04444  -1.02624  -0.96062  -0.88840  -0.87494
 Alpha  occ. eigenvalues --   -0.87319  -0.85379  -0.81061  -0.76964  -0.76916
 Alpha  occ. eigenvalues --   -0.72697  -0.72280  -0.71302  -0.70245  -0.67225
 Alpha  occ. eigenvalues --   -0.66334  -0.62307  -0.60215  -0.55315  -0.54922
 Alpha  occ. eigenvalues --   -0.53055  -0.48851  -0.43940  -0.37185  -0.33372
 Alpha virt. eigenvalues --    0.03024   0.03843   0.04570   0.05968   0.06685
 Alpha virt. eigenvalues --    0.06918   0.08329   0.08906   0.09733   0.09922
 Alpha virt. eigenvalues --    0.10254   0.11624   0.12132   0.13160   0.13317

 Mulliken charges:
               1
     1  C    1.054118
     2  C    0.231077
     3  C    0.703569
     4  C    0.038128
     5  C    0.011569
     6  C    0.097771
     7  C    0.743360
     8  H   -0.605457
     9  H   -0.564122
    10  H   -0.496779
    11  S    0.314967
    12  H    0.014418
    13  F   -0.326580
    14  F   -0.331910
    15  F   -0.329063
    16  H   -0.555065
 Sum of Mulliken charges =  -0.00000

 Dipole moment (field-independent basis, Debye):
    X=              2.7386    Y=              0.8001    Z=             -0.0931  Tot=              2.8546

 Test job not archived.
 1\1\GINC-SE058\SP\RHF\Aug-CC-pVDZ\C7H5F3S1\OHZDE\08-Apr-2025\0\\#t hf
 aug-cc-pvdz iop(5/13=1,5/36=2,99/5=2) pseudo=read geom=check guess=(re
 ad,tcheck) scf=(maxcycle=1)\\title\\0,1\C,0,-0.784105,0.002333,-0.0362
 3\C,0,-0.082749,1.207052,-0.027924\C,0,1.306308,1.209426,-0.012547\C,0
 ,-0.083613,-1.204125,-0.027399\C,0,1.304139,-1.206518,-0.011582\C,0,2.
 011586,0.00163,-0.002536\C,0,-2.2846,0.001175,0.001008\H,0,1.8372,2.15
 3836,-0.011168\H,0,-0.623634,-2.142459,-0.042084\H,0,1.838987,-2.14913
 2,-0.008948\S,0,3.787825,-0.082295,0.015228\H,0,4.011522,1.241127,0.02

 Normal termination of Gaussian 16 at Tue Apr  8 23:14:17 2025.
