 Gaussian 16, Revision C.01,

 ----------------------------------------------------------------------
 #t hf aug-cc-pvdz symm=none int=(grid=ultrafine) guess=(read,tcheck) s
 table=(opt,rrhf)
 ----------------------------------------------------------------------
 -----
 title
 -----
 Symbolic Z-matrix:
 Charge =  0 Multiplicity = 1

 SCF Done:  E(RHF) =  -227.821525282     A.U. after   13 cycles
 Normal termination of Gaussian 16 at Tue Apr  8 22:41:26 2025.
 Gaussian 16:  ES64L-G16RevC.01  3-Jul-2019

 ----------------------------------------------------------------------
 #t hf aug-cc-pvdz iop(5/13=1,5/36=2,99/5=2) pseudo=read geom=check gue
 ss=(read,tcheck) scf=(maxcycle=1)
 ----------------------------------------------------------------------
 -----
 title
 -----
 Structure from the checkpoint file:  "BDE49_expt_1440_mol1.chk"
 Charge =  0 Multiplicity = 1

                         Standard orientation:
 ---------------------------------------------------------------------
 Center     Atomic      Atomic             Coordinates (Angstroms)
 Number     Number       Type             X           Y           Z
 ---------------------------------------------------------------------
      1          6           0        0.832748    0.431310    0.000014
      2          8           0        1.301601   -0.672923   -0.000006
      3          8           0       -0.474822    0.729460    0.000000
      4          1           0        1.409236    1.367362   -0.000015
      5          6           0       -1.370897   -0.400666   -0.000002
      6          1           0       -1.211086   -1.013020   -0.888649
      7          1           0       -2.372375    0.022503   -0.000016
      8          1           0       -1.211104   -1.013008    0.888655
 ---------------------------------------------------------------------

 SCF Done:  E(RHF) =  -227.898143459     A.U. after    2 cycles

 The electronic state is 1-A.
 Alpha  occ. eigenvalues --  -20.62863 -20.57473 -11.40115 -11.30546  -1.42848
 Alpha  occ. eigenvalues --   -1.33739  -0.99377  -0.82431  -0.75154  -0.69763
 Alpha  occ. eigenvalues --   -0.68816  -0.60769  -0.56592  -0.54911  -0.48817
 Alpha  occ. eigenvalues --   -0.48435
 Alpha virt. eigenvalues --    0.03429   0.04602   0.05777   0.06065   0.09804
 Alpha virt. eigenvalues --    0.09825   0.10601   0.14211   0.15627   0.15774
 Alpha virt. eigenvalues --    0.17143   0.17189   0.18690   0.21102   0.25134

 Mulliken charges:
               1
     1  C    0.659111
     2  O   -0.378840
     3  O   -0.517396
     4  H   -0.159731
     5  C    0.754491
     6  H   -0.072638
     7  H   -0.212351
     8  H   -0.072646
 Sum of Mulliken charges =  -0.00000

 Dipole moment (field-independent basis, Debye):
    X=             -1.7322    Y=              1.1668    Z=              0.0000  Tot=              2.0885

 Test job not archived.
 1\1\GINC-SE227\SP\RHF\Aug-CC-pVDZ\C2H4O2\OHZDE\08-Apr-2025\0\\#t hf au
 g-cc-pvdz iop(5/13=1,5/36=2,99/5=2) pseudo=read geom=check guess=(read
 ,tcheck) scf=(maxcycle=1)\\title\\0,1\C,0,0.832748,0.43131,0.000014\O,
 0,1.301601,-0.672923,-0.000006\O,0,-0.474822,0.72946,0.\H,0,1.409236,1
 .367362,-0.000015\C,0,-1.370897,-0.400666,-0.000002\H,0,-1.211086,-1.0
 1302,-0.888649\H,0,-2.372375,0.022503,-0.000016\H,0,-1.211104,-1.01300
 8,0.888655\\Version=ES64L-G16RevC.01\State=1-A\HF=-227.8981435\RMSD=2.
 408e-03\Dipole=-0.6814926,0.4590478,0.0000135\Quadrupole=0.2745004,-0.

 Normal termination of Gaussian 16 at Tue Apr  8 22:41:28 2025.
