 Gaussian 16, Revision C.01,

 ----------------------------------------------------------------------
 #t hf aug-cc-pvdz symm=none int=(grid=ultrafine) guess=(read,tcheck) s
 table=(opt,rrhf)
 ----------------------------------------------------------------------
 -----
 title
 -----
 Symbolic Z-matrix:
 Charge =  0 Multiplicity = 1

 SCF Done:  E(RHF) =  -2814.45784769     A.U. after   12 cycles
 Normal termination of Gaussian 16 at Tue Apr  8 23:23:48 2025.
 Gaussian 16:  ES64L-G16RevC.01  3-Jul-2019

 ----------------------------------------------------------------------
 #t hf aug-cc-pvdz iop(5/13=1,5/36=2,99/5=2) pseudo=read geom=check gue
 ss=(read,tcheck) scf=(maxcycle=1)
 ----------------------------------------------------------------------
 -----
 title
 -----
 Structure from the checkpoint file:  "BDE49_nonexpt_1251_mol1.chk"
 Charge =  0 Multiplicity = 1

                         Standard orientation:
 ---------------------------------------------------------------------
 Center     Atomic      Atomic             Coordinates (Angstroms)
 Number     Number       Type             X           Y           Z
 ---------------------------------------------------------------------
      1          9           0        1.385078    0.858626    1.253126
      2         15           0       -0.054696    1.740701   -0.925419
      3          6           0        1.406690    0.872106   -0.122886
      4         17           0       -0.109199    3.478566    0.222605
      5         15           0        1.534787   -0.823064   -0.925343
      6          6           0       -1.458730    0.782140   -0.122880
      7          6           0        0.052037   -1.654198   -0.122467
      8         17           0        3.067228   -1.644682    0.222510
      9          9           0       -1.436555    0.770224    1.253146
     10         15           0       -1.480008   -0.917756   -0.925274
     11          9           0        0.051209   -1.628378    1.253570
     12         17           0       -2.957962   -1.834038    0.222406
     13          1           0        0.084938   -2.701378   -0.445056
     14          1           0       -2.381997    1.277139   -0.445797
     15          1           0        2.297102    1.424105   -0.445681
 ---------------------------------------------------------------------

 SCF Done:  E(RHF) =  -2814.71794529     A.U. after    2 cycles

 The electronic state is 1-A.
 Alpha  occ. eigenvalues -- -103.68393-103.68393-103.68393 -81.35590 -81.35589
 Alpha  occ. eigenvalues --  -81.35588 -26.14071 -26.14070 -26.14070 -11.37955
 Alpha  occ. eigenvalues --  -11.37954 -11.37952 -10.71702 -10.71702 -10.71701
 Alpha  occ. eigenvalues --   -8.37409  -8.37409  -8.37408  -8.37121  -8.37121
 Alpha  occ. eigenvalues --   -8.37119  -8.37097  -8.37096  -8.37096  -7.85504
 Alpha  occ. eigenvalues --   -7.85503  -7.85491  -4.99418  -4.99417  -4.99370
 Alpha  occ. eigenvalues --   -4.99330  -4.99301  -4.99300  -4.99015  -4.99014
 Alpha  occ. eigenvalues --   -4.98956  -1.67794  -1.67347  -1.67345  -1.16920
 Alpha  occ. eigenvalues --   -1.16627  -1.16626  -1.05474  -1.00433  -1.00433
 Alpha  occ. eigenvalues --   -0.82941  -0.82441  -0.82440  -0.79353  -0.77441
 Alpha  occ. eigenvalues --   -0.77441  -0.75950  -0.75049  -0.75048  -0.70622
 Alpha  occ. eigenvalues --   -0.70622  -0.65831  -0.62217  -0.56355  -0.56355
 Alpha  occ. eigenvalues --   -0.55619  -0.52434  -0.52389  -0.52388  -0.51593
 Alpha  occ. eigenvalues --   -0.51593  -0.48133  -0.48132  -0.45718  -0.43560
 Alpha  occ. eigenvalues --   -0.38906  -0.38905
 Alpha virt. eigenvalues --    0.01077   0.03483   0.04218   0.04219   0.06568
 Alpha virt. eigenvalues --    0.06918   0.06918   0.07612   0.07612   0.09077
 Alpha virt. eigenvalues --    0.09078   0.10570   0.11195   0.11457   0.13336

 Mulliken charges:
               1
     1  F   -0.482027
     2  P    0.731500
     3  C    0.398489
     4  Cl  -0.408759
     5  P    0.731339
     6  C    0.398447
     7  C    0.398487
     8  Cl  -0.408782
     9  F   -0.482068
    10  P    0.731415
    11  F   -0.482099
    12  Cl  -0.408802
    13  H   -0.238999
    14  H   -0.239065
    15  H   -0.239077
 Sum of Mulliken charges =   0.00000

 Dipole moment (field-independent basis, Debye):
    X=              0.0005    Y=             -0.0001    Z=             -4.9275  Tot=              4.9275

 Test job not archived.
 1\1\GINC-SE071\SP\RHF\Aug-CC-pVDZ\C3H3Cl3F3P3\OHZDE\08-Apr-2025\0\\#t
 hf aug-cc-pvdz iop(5/13=1,5/36=2,99/5=2) pseudo=read geom=check guess=
 (read,tcheck) scf=(maxcycle=1)\\title\\0,1\F,0,-1.385228,-0.858384,1.2
 53126\P,0,0.054391,-1.740711,-0.925419\C,0,-1.406843,-0.87186,-0.12288
 6\Cl,0,0.10859,-3.478585,0.222605\P,0,-1.534643,0.823333,-0.925343\C,0
 ,1.458593,-0.782395,-0.12288\C,0,-0.051748,1.654207,-0.122467\Cl,0,-3.
 06694,1.645219,0.22251\F,0,1.43642,-0.770475,1.253146\P,0,1.480168,0.9
 17497,-0.925274\F,0,-0.050924,1.628387,1.25357\Cl,0,2.958283,1.83352,0

 Normal termination of Gaussian 16 at Tue Apr  8 23:24:00 2025.
