 Gaussian 16, Revision C.01,

 ----------------------------------------------------------------------
 #t hf aug-cc-pvdz symm=none int=(grid=ultrafine) guess=(read,tcheck) s
 table=(opt,rrhf)
 ----------------------------------------------------------------------
 -----
 title
 -----
 Symbolic Z-matrix:
 Charge =  0 Multiplicity = 1

 SCF Done:  E(RHF) =  -369.885349884     A.U. after   15 cycles
 Normal termination of Gaussian 16 at Wed Apr  9 00:36:05 2025.
 Gaussian 16:  ES64L-G16RevC.01  3-Jul-2019

 ----------------------------------------------------------------------
 #t hf aug-cc-pvdz iop(5/13=1,5/36=2,99/5=2) pseudo=read geom=check gue
 ss=(read,tcheck) scf=(maxcycle=1)
 ----------------------------------------------------------------------
 -----
 title
 -----
 Structure from the checkpoint file:  "BDE49_nonexpt_529_mol1.chk"
 Charge =  0 Multiplicity = 1

                         Standard orientation:
 ---------------------------------------------------------------------
 Center     Atomic      Atomic             Coordinates (Angstroms)
 Number     Number       Type             X           Y           Z
 ---------------------------------------------------------------------
      1          1           0       -4.201128    0.582236   -0.000053
      2          1           0       -3.898114   -1.454974   -0.000054
      3          5           0       -3.450811   -0.347216    0.000012
      4          6           0       -1.940725   -0.124464    0.000005
      5          6           0       -1.375968    1.174890    0.000003
      6          6           0       -0.010968    1.379233    0.000000
      7          6           0        0.859887    0.276591   -0.000001
      8          6           0       -1.036529   -1.205972    0.000003
      9          1           0       -1.431061   -2.216712    0.000004
     10          6           0        0.340738   -1.025745    0.000000
     11          1           0        0.996792   -1.885766   -0.000001
     12          1           0       -2.039134    2.033464    0.000004
     13          8           0        2.180516    0.575281   -0.000004
     14          6           0        3.129249   -0.486183    0.000000
     15          1           0        3.030382   -1.109860    0.894479
     16          1           0        4.106688   -0.007500    0.000002
     17          1           0        3.030387   -1.109862   -0.894477
     18          1           0        0.421016    2.372708    0.000000
 ---------------------------------------------------------------------

 SCF Done:  E(RHF) =  -369.998433126     A.U. after    2 cycles

 The electronic state is 1-A.
 Alpha  occ. eigenvalues --  -20.61315 -11.33043 -11.30653 -11.26180 -11.25811
 Alpha  occ. eigenvalues --  -11.24449 -11.23924 -11.21389  -7.59620  -1.38430
 Alpha  occ. eigenvalues --   -1.14173  -1.02681  -1.01597  -0.94997  -0.84109
 Alpha  occ. eigenvalues --   -0.81987  -0.73968  -0.69871  -0.68226  -0.67643
 Alpha  occ. eigenvalues --   -0.63291  -0.60342  -0.59677  -0.59000  -0.54084
 Alpha  occ. eigenvalues --   -0.53811  -0.49353  -0.48135  -0.47590  -0.46541
 Alpha  occ. eigenvalues --   -0.35112  -0.32638
 Alpha virt. eigenvalues --    0.03000   0.03980   0.04098   0.04710   0.05585
 Alpha virt. eigenvalues --    0.05710   0.05723   0.07208   0.07615   0.07734
 Alpha virt. eigenvalues --    0.08282   0.09883   0.10342   0.10487   0.12539

 Mulliken charges:
               1
     1  H    0.409923
     2  H    0.401811
     3  B   -1.221807
     4  C   -0.127057
     5  C    0.952738
     6  C    0.493214
     7  C    0.507023
     8  C    0.648963
     9  H   -0.512680
    10  C    0.507384
    11  H   -0.714747
    12  H   -0.517811
    13  O   -0.690651
    14  C    0.890420
    15  H   -0.091326
    16  H   -0.296202
    17  H   -0.091329
    18  H   -0.547866
 Sum of Mulliken charges =  -0.00000

 Dipole moment (field-independent basis, Debye):
    X=              2.4315    Y=             -1.1300    Z=              0.0001  Tot=              2.6812

 Test job not archived.
 1\1\GINC-SE044\SP\RHF\Aug-CC-pVDZ\C7H9B1O1\OHZDE\09-Apr-2025\0\\#t hf
 aug-cc-pvdz iop(5/13=1,5/36=2,99/5=2) pseudo=read geom=check guess=(re
 ad,tcheck) scf=(maxcycle=1)\\title\\0,1\H,0,-4.201128,0.582236,-0.0000
 53\H,0,-3.898114,-1.454974,-0.000054\B,0,-3.450811,-0.347216,0.000012\
 C,0,-1.940725,-0.124464,0.000005\C,0,-1.375968,1.17489,0.000003\C,0,-0
 .010968,1.379233,0.\C,0,0.859887,0.276591,-0.000001\C,0,-1.036529,-1.2
 05972,0.000003\H,0,-1.431061,-2.216712,0.000004\C,0,0.340738,-1.025745
 ,0.\H,0,0.996792,-1.885766,-0.000001\H,0,-2.039134,2.033464,0.000004\O

 Normal termination of Gaussian 16 at Wed Apr  9 00:36:14 2025.
