 Gaussian 16, Revision C.01,

 ----------------------------------------------------------------------
 #t hf aug-cc-pvdz symm=none int=(grid=ultrafine) guess=(read,tcheck) s
 table=opt
 ----------------------------------------------------------------------
 -----
 title
 -----
 Symbolic Z-matrix:
 Charge =  0 Multiplicity = 2

 SCF Done:  E(UHF) =  -779.923656217     A.U. after   22 cycles
 Normal termination of Gaussian 16 at Tue Apr  8 23:56:21 2025.
 Gaussian 16:  ES64L-G16RevC.01  3-Jul-2019

 ----------------------------------------------------------------------
 #t hf aug-cc-pvdz iop(5/13=1,5/36=2,99/5=2) pseudo=read geom=check gue
 ss=(read,tcheck) scf=(maxcycle=1)
 ----------------------------------------------------------------------
 -----
 title
 -----
 Structure from the checkpoint file:  "BDE49_nonexpt_2047_mol2.chk"
 Charge =  0 Multiplicity = 2

                         Standard orientation:
 ---------------------------------------------------------------------
 Center     Atomic      Atomic             Coordinates (Angstroms)
 Number     Number       Type             X           Y           Z
 ---------------------------------------------------------------------
      1         14           0       -1.545618   -0.539268   -0.101280
      2          6           0        1.397026   -0.112224   -0.006364
      3          7           0        2.330535   -0.797614   -0.028921
      4         16           0        0.065220    0.942015    0.034572
      5          1           0       -2.747267    0.296052    0.148033
      6          1           0       -1.353505   -1.561901    0.957363
 ---------------------------------------------------------------------

 SCF Done:  E(UHF) =  -779.989486390     A.U. after    2 cycles

 The electronic state is 2-A.
 Alpha  occ. eigenvalues --  -93.59781 -69.13779 -15.65470 -11.31850  -8.89603
 Alpha  occ. eigenvalues --   -6.88896  -6.23789  -6.23519  -6.23220  -4.00091
 Alpha  occ. eigenvalues --   -3.99348  -3.99221  -1.20571  -1.03846  -0.75298
 Alpha  occ. eigenvalues --   -0.65021  -0.55629  -0.55127  -0.53980  -0.51995
 Alpha  occ. eigenvalues --   -0.44961  -0.41957  -0.35625
 Alpha virt. eigenvalues --    0.03066   0.04060   0.05792   0.05971   0.07874
 Alpha virt. eigenvalues --    0.09190   0.09632   0.10502   0.11121   0.12778
 Alpha virt. eigenvalues --    0.12946   0.13539   0.14350   0.15956   0.16304

  Beta  occ. eigenvalues --  -93.59700 -69.13191 -15.65437 -11.31876  -8.89510
  Beta  occ. eigenvalues --   -6.87976  -6.23734  -6.23371  -6.22987  -3.98949
  Beta  occ. eigenvalues --   -3.98840  -3.97962  -1.20515  -1.03236  -0.72313
  Beta  occ. eigenvalues --   -0.63580  -0.55396  -0.54431  -0.53119  -0.50968
  Beta  occ. eigenvalues --   -0.43897  -0.39827
  Beta virt. eigenvalues --    0.00213   0.03401   0.04402   0.05973   0.07103
  Beta virt. eigenvalues --    0.08472   0.09448   0.09995   0.11318   0.11663
  Beta virt. eigenvalues --    0.13084   0.13565   0.14346   0.15001   0.16339

 Mulliken charges and spin densities:
               1          2
     1  Si   0.565341   0.859817
     2  C   -0.413966  -0.016669
     3  N   -0.152982   0.012359
     4  S    0.072666   0.046219
     5  H   -0.047524   0.034749
     6  H   -0.023534   0.063526
 Sum of Mulliken charges =  -0.00000   1.00000

 Dipole moment (field-independent basis, Debye):
    X=             -4.1323    Y=              0.6279    Z=             -0.0934  Tot=              4.1808
                          Isotropic Fermi Contact Couplings
        Atom                 a.u.       MegaHertz       Gauss      10(-4) cm-1
     1  Si(29)             0.68297    -606.97150    -216.58252    -202.46390
     2  C(13)             -0.00247      -2.77914      -0.99167      -0.92702
     3  N(14)              0.00234       0.75485       0.26935       0.25179
     4  S(33)              0.03579      12.29299       4.38644       4.10050
     5  H(1)               0.00787      35.18078      12.55338      11.73504
     6  H(1)               0.01655      73.96116      26.39118      24.67079
 --------------------------------------------------------
       Center         ----  Spin Dipole Couplings  ----

 1\1\GINC-SE361\SP\UHF\Aug-CC-pVDZ\C1H2N1S1Si1(2)\OHZDE\08-Apr-2025\0\\
 #t hf aug-cc-pvdz iop(5/13=1,5/36=2,99/5=2) pseudo=read geom=check gue
 ss=(read,tcheck) scf=(maxcycle=1)\\title\\0,2\Si,0,-1.545618,-0.539268
 ,-0.10128\C,0,1.397026,-0.112224,-0.006364\N,0,2.330535,-0.797613,-0.0
 28921\S,0,0.06522,0.942015,0.034572\H,0,-2.747267,0.296051,0.148033\H,
 0,-1.353505,-1.561901,0.957363\\Version=ES64L-G16RevC.01\State=2-A\HF=
 -779.9894864\S2=0.755582\S2-1=0.\S2A=0.750017\RMSD=6.493e-03\Dipole=-1
 .6257674,0.2470407,-0.0367352\Quadrupole=-1.9862125,1.1015174,0.884695

 Normal termination of Gaussian 16 at Tue Apr  8 23:56:23 2025.
