 Gaussian 16, Revision C.01,

 ----------------------------------------------------------------------
 #t hf aug-cc-pvdz symm=none int=(grid=ultrafine) guess=(read,tcheck) s
 table=(opt,rrhf)
 ----------------------------------------------------------------------
 -----
 title
 -----
 Symbolic Z-matrix:
 Charge =  0 Multiplicity = 1

 SCF Done:  E(RHF) =  -643.087708369     A.U. after   15 cycles
 Normal termination of Gaussian 16 at Tue Apr  8 23:35:32 2025.
 Gaussian 16:  ES64L-G16RevC.01  3-Jul-2019

 ----------------------------------------------------------------------
 #t hf aug-cc-pvdz iop(5/13=1,5/36=2,99/5=2) pseudo=read geom=check gue
 ss=(read,tcheck) scf=(maxcycle=1)
 ----------------------------------------------------------------------
 -----
 title
 -----
 Structure from the checkpoint file:  "BDE49_nonexpt_1509_mol1.chk"
 Charge =  0 Multiplicity = 1

                         Standard orientation:
 ---------------------------------------------------------------------
 Center     Atomic      Atomic             Coordinates (Angstroms)
 Number     Number       Type             X           Y           Z
 ---------------------------------------------------------------------
      1          6           0       -1.784783    1.330000   -0.058705
      2          6           0       -2.628257    0.228356    0.050024
      3          6           0       -2.052173   -1.040271    0.096772
      4          7           0       -0.736510   -1.253244    0.045659
      5          6           0        0.071029   -0.186437   -0.050644
      6          6           0       -0.409641    1.123853   -0.113899
      7          1           0       -3.704634    0.342942    0.096001
      8          1           0       -2.676087   -1.926433    0.178144
      9          1           0        0.288652    1.947008   -0.199333
     10          1           0       -2.191500    2.334768   -0.100478
     11          7           0        2.622511    0.845741    0.212683
     12         15           0        1.857746   -0.624865   -0.216782
     13          1           0        1.902127   -1.371445    0.990837
     14          1           0        2.626717    1.155128    1.175372
     15          1           0        3.509472    1.010519   -0.238504
 ---------------------------------------------------------------------

 SCF Done:  E(RHF) =  -643.202504385     A.U. after    2 cycles

 The electronic state is 1-A.
 Alpha  occ. eigenvalues --  -81.27686 -15.62976 -15.62161 -11.28631 -11.28538
 Alpha  occ. eigenvalues --  -11.26865 -11.24989 -11.24739  -7.77680  -4.91815
 Alpha  occ. eigenvalues --   -4.91652  -4.91323  -1.23044  -1.12424  -1.07513
 Alpha  occ. eigenvalues --   -1.02707  -0.86333  -0.85570  -0.77043  -0.69910
 Alpha  occ. eigenvalues --   -0.67303  -0.66719  -0.63588  -0.58723  -0.57636
 Alpha  occ. eigenvalues --   -0.56104  -0.54436  -0.49869  -0.42116  -0.40654
 Alpha  occ. eigenvalues --   -0.38633  -0.36987  -0.31862
 Alpha virt. eigenvalues --    0.03076   0.03562   0.04370   0.05420   0.05742
 Alpha virt. eigenvalues --    0.06162   0.07633   0.08768   0.09616   0.09984
 Alpha virt. eigenvalues --    0.10333   0.11488   0.12604   0.13224   0.13882

 Mulliken charges:
               1
     1  C   -0.234876
     2  C    0.861830
     3  C    0.536257
     4  N   -0.427185
     5  C   -0.080754
     6  C    0.848685
     7  H   -0.406024
     8  H   -0.366800
     9  H   -0.521927
    10  H   -0.405952
    11  N   -0.438476
    12  P    0.616005
    13  H    0.054192
    14  H   -0.034876
    15  H   -0.000100
 Sum of Mulliken charges =   0.00000

 Dipole moment (field-independent basis, Debye):
    X=             -0.1052    Y=              2.4756    Z=              1.1719  Tot=              2.7410

 Test job not archived.
 1\1\GINC-SE009\SP\RHF\Aug-CC-pVDZ\C5H7N2P1\OHZDE\08-Apr-2025\0\\#t hf
 aug-cc-pvdz iop(5/13=1,5/36=2,99/5=2) pseudo=read geom=check guess=(re
 ad,tcheck) scf=(maxcycle=1)\\title\\0,1\C,0,-1.784783,1.33,-0.058705\C
 ,0,-2.628257,0.228356,0.050024\C,0,-2.052173,-1.040271,0.096772\N,0,-0
 .73651,-1.253244,0.045659\C,0,0.071029,-0.186437,-0.050644\C,0,-0.4096
 41,1.123853,-0.113899\H,0,-3.704634,0.342942,0.096001\H,0,-2.676087,-1
 .926433,0.178144\H,0,0.288652,1.947008,-0.199333\H,0,-2.1915,2.334768,
 -0.100478\N,0,2.622511,0.845741,0.212683\P,0,1.857746,-0.624865,-0.216

 Normal termination of Gaussian 16 at Tue Apr  8 23:35:38 2025.
