 Gaussian 16, Revision C.01,

 ----------------------------------------------------------------------
 #t hf aug-cc-pvdz symm=none int=(grid=ultrafine) guess=(read,tcheck) s
 table=(opt,rrhf)
 ----------------------------------------------------------------------
 -----
 title
 -----
 Symbolic Z-matrix:
 Charge =  0 Multiplicity = 1

 SCF Done:  E(RHF) =  -1297.32292693     A.U. after   15 cycles
 Normal termination of Gaussian 16 at Wed Apr  9 00:52:05 2025.
 Gaussian 16:  ES64L-G16RevC.01  3-Jul-2019

 ----------------------------------------------------------------------
 #t hf aug-cc-pvdz iop(5/13=1,5/36=2,99/5=2) pseudo=read geom=check gue
 ss=(read,tcheck) scf=(maxcycle=1)
 ----------------------------------------------------------------------
 -----
 title
 -----
 Structure from the checkpoint file:  "BDE49_nonexpt_999_mol1.chk"
 Charge =  0 Multiplicity = 1

                         Standard orientation:
 ---------------------------------------------------------------------
 Center     Atomic      Atomic             Coordinates (Angstroms)
 Number     Number       Type             X           Y           Z
 ---------------------------------------------------------------------
      1          7           0        1.557127    0.027818   -0.390769
      2         16           0        0.470552   -0.087237    1.018377
      3          9           0        2.433377   -1.055540   -0.279219
      4          9           0        2.403680    1.107095   -0.114883
      5         16           0       -1.318072   -0.135616   -0.103666
      6          8           0       -2.325399   -0.343904    0.882969
      7          8           0       -1.183338   -0.882057   -1.305884
      8          9           0       -1.422575    1.412734   -0.552195
 ---------------------------------------------------------------------

 SCF Done:  E(RHF) =  -1297.59637596     A.U. after    2 cycles

 The electronic state is 1-A.
 Alpha  occ. eigenvalues --  -93.91267 -93.67832 -26.21366 -26.21323 -26.20799
 Alpha  occ. eigenvalues --  -20.64493 -20.64437 -15.91254  -9.17052  -8.97324
 Alpha  occ. eigenvalues --   -6.51650  -6.51600  -6.51362  -6.31377  -6.31136
 Alpha  occ. eigenvalues --   -6.30680  -1.76457  -1.74238  -1.70364  -1.50080
 Alpha  occ. eigenvalues --   -1.40189  -1.20904  -1.04563  -0.95106  -0.86637
 Alpha  occ. eigenvalues --   -0.85614  -0.85260  -0.82074  -0.81494  -0.80020
 Alpha  occ. eigenvalues --   -0.78931  -0.74442  -0.72582  -0.71866  -0.68443
 Alpha  occ. eigenvalues --   -0.63804  -0.59591  -0.57713  -0.55820  -0.51365
 Alpha  occ. eigenvalues --   -0.48118
 Alpha virt. eigenvalues --    0.01626   0.04881   0.07692   0.08964   0.09461
 Alpha virt. eigenvalues --    0.10069   0.10857   0.11323   0.12039   0.12390
 Alpha virt. eigenvalues --    0.14251   0.15344   0.17878   0.20169   0.20277

 Mulliken charges:
               1
     1  N    0.136262
     2  S    0.653571
     3  F   -0.328053
     4  F   -0.327229
     5  S    1.969310
     6  O   -0.768570
     7  O   -0.818959
     8  F   -0.516332
 Sum of Mulliken charges =  -0.00000

 Dipole moment (field-independent basis, Debye):
    X=              0.9559    Y=              0.2415    Z=              1.9117  Tot=              2.1509

 Test job not archived.
 1\1\GINC-SE329\SP\RHF\Aug-CC-pVDZ\F3N1O2S2\OHZDE\09-Apr-2025\0\\#t hf
 aug-cc-pvdz iop(5/13=1,5/36=2,99/5=2) pseudo=read geom=check guess=(re
 ad,tcheck) scf=(maxcycle=1)\\title\\0,1\N,0,1.557127,0.027818,-0.39076
 9\S,0,0.470552,-0.087237,1.018377\F,0,2.433377,-1.05554,-0.279219\F,0,
 2.40368,1.107095,-0.114883\S,0,-1.318072,-0.135616,-0.103666\O,0,-2.32
 5399,-0.343904,0.882969\O,0,-1.183338,-0.882057,-1.305884\F,0,-1.42257
 5,1.412734,-0.552195\\Version=ES64L-G16RevC.01\State=1-A\HF=-1297.5963
 76\RMSD=4.807e-03\Dipole=0.376065,0.0949953,0.7521111\Quadrupole=-2.78

 Normal termination of Gaussian 16 at Wed Apr  9 00:52:09 2025.
