 Gaussian 16, Revision C.01,

 ----------------------------------------------------------------------
 #t hf aug-cc-pvdz symm=none int=(grid=ultrafine) guess=(read,tcheck) s
 table=(opt,rrhf)
 ----------------------------------------------------------------------
 -----
 title
 -----
 Symbolic Z-matrix:
 Charge =  0 Multiplicity = 1

 SCF Done:  E(RHF) =  -723.348324249     A.U. after   13 cycles
 Normal termination of Gaussian 16 at Tue Apr  8 23:23:54 2025.
 Gaussian 16:  ES64L-G16RevC.01  3-Jul-2019

 ----------------------------------------------------------------------
 #t hf aug-cc-pvdz iop(5/13=1,5/36=2,99/5=2) pseudo=read geom=check gue
 ss=(read,tcheck) scf=(maxcycle=1)
 ----------------------------------------------------------------------
 -----
 title
 -----
 Structure from the checkpoint file:  "BDE49_nonexpt_1268_mol1.chk"
 Charge =  0 Multiplicity = 1

                         Standard orientation:
 ---------------------------------------------------------------------
 Center     Atomic      Atomic             Coordinates (Angstroms)
 Number     Number       Type             X           Y           Z
 ---------------------------------------------------------------------
      1          6           0       -0.180516    0.782048   -0.089937
      2         15           0        1.397921   -0.059617    0.101252
      3          8           0        1.666945   -0.815736    1.335612
      4          8           0        2.438932    1.141295   -0.167349
      5          6           0       -1.385861   -0.158844    0.053955
      6          1           0       -0.204686    1.571752    0.667345
      7          6           0       -2.726858    0.573816   -0.071726
      8          1           0       -1.332302   -0.664780    1.023523
      9          1           0       -1.324124   -0.940767   -0.710082
     10          6           0       -3.930511   -0.361608    0.069440
     11          1           0       -2.770421    1.084589   -1.041088
     12          1           0       -2.781985    1.359781    0.690882
     13          1           0       -3.919848   -1.138398   -0.701246
     14          1           0       -4.872248    0.185591   -0.023277
     15          1           0       -3.930220   -0.861363    1.042843
     16          1           0       -0.173018    1.272873   -1.068584
     17          1           0        3.245982    1.025914    0.348773
     18          8           0        1.465240   -0.973558   -1.228303
     19          1           0        1.867581   -1.829431   -1.037945
 ---------------------------------------------------------------------

 SCF Done:  E(RHF) =  -723.535323892     A.U. after    2 cycles

 The electronic state is 1-A.
 Alpha  occ. eigenvalues --  -81.40910 -20.61015 -20.60918 -20.52172 -11.25341
 Alpha  occ. eigenvalues --  -11.24407 -11.23818 -11.22853  -7.89336  -5.03980
 Alpha  occ. eigenvalues --   -5.03893  -5.03599  -1.37210  -1.34231  -1.25345
 Alpha  occ. eigenvalues --   -1.08029  -1.00196  -0.89623  -0.82332  -0.80200
 Alpha  occ. eigenvalues --   -0.75017  -0.68479  -0.65876  -0.65304  -0.64383
 Alpha  occ. eigenvalues --   -0.59968  -0.59458  -0.57163  -0.56295  -0.55353
 Alpha  occ. eigenvalues --   -0.53231  -0.51789  -0.49187  -0.48736  -0.48350
 Alpha  occ. eigenvalues --   -0.47728  -0.45356
 Alpha virt. eigenvalues --    0.03218   0.03951   0.04488   0.05012   0.05547
 Alpha virt. eigenvalues --    0.06136   0.06877   0.07897   0.08366   0.09310
 Alpha virt. eigenvalues --    0.09965   0.10686   0.11128   0.12618   0.13753

 Mulliken charges:
               1
     1  C   -0.063636
     2  P    2.387173
     3  O   -0.920601
     4  O   -0.740634
     5  C    0.069559
     6  H   -0.141968
     7  C    0.291028
     8  H   -0.188059
     9  H   -0.178537
    10  C    0.568655
    11  H   -0.142176
    12  H   -0.147611
    13  H   -0.080737
    14  H   -0.060307
    15  H   -0.076148
    16  H   -0.138646
    17  H    0.154121
    18  O   -0.761407
    19  H    0.169932
 Sum of Mulliken charges =  -0.00000

 Dipole moment (field-independent basis, Debye):
    X=             -0.5683    Y=              0.7107    Z=             -1.4422  Tot=              1.7053

 Test job not archived.
 1\1\GINC-SE458\SP\RHF\Aug-CC-pVDZ\C4H11O3P1\OHZDE\08-Apr-2025\0\\#t hf
  aug-cc-pvdz iop(5/13=1,5/36=2,99/5=2) pseudo=read geom=check guess=(r
 ead,tcheck) scf=(maxcycle=1)\\title\\0,1\C,0,-0.180516,0.782048,-0.089
 937\P,0,1.397921,-0.059617,0.101252\O,0,1.666945,-0.815736,1.335612\O,
 0,2.438932,1.141295,-0.167349\C,0,-1.385861,-0.158844,0.053955\H,0,-0.
 204686,1.571752,0.667345\C,0,-2.726858,0.573816,-0.071726\H,0,-1.33230
 2,-0.66478,1.023523\H,0,-1.324124,-0.940767,-0.710082\C,0,-3.930511,-0
 .361608,0.06944\H,0,-2.770421,1.084589,-1.041088\H,0,-2.781985,1.35978

 Normal termination of Gaussian 16 at Tue Apr  8 23:24:03 2025.
