 Gaussian 16, Revision C.01,

 ----------------------------------------------------------------------
 #t hf aug-cc-pvdz symm=none int=(grid=ultrafine) guess=(read,tcheck) s
 table=(opt,rrhf)
 ----------------------------------------------------------------------
 -----
 title
 -----
 Symbolic Z-matrix:
 Charge =  0 Multiplicity = 1

 SCF Done:  E(RHF) =  -820.009676761     A.U. after   17 cycles
 Normal termination of Gaussian 16 at Wed Apr  9 00:41:02 2025.
 Gaussian 16:  ES64L-G16RevC.01  3-Jul-2019

 ----------------------------------------------------------------------
 #t hf aug-cc-pvdz iop(5/13=1,5/36=2,99/5=2) pseudo=read geom=check gue
 ss=(read,tcheck) scf=(maxcycle=1)
 ----------------------------------------------------------------------
 -----
 title
 -----
 Structure from the checkpoint file:  "BDE49_nonexpt_708_mol1.chk"
 Charge =  0 Multiplicity = 1

                         Standard orientation:
 ---------------------------------------------------------------------
 Center     Atomic      Atomic             Coordinates (Angstroms)
 Number     Number       Type             X           Y           Z
 ---------------------------------------------------------------------
      1         15           0        0.106511   -0.680876    0.752073
      2          5           0       -1.403939    0.347400   -0.037724
      3          7           0        1.407311    0.353825   -0.071162
      4          9           0        0.146480   -1.965758   -0.223242
      5          8           0        1.374297    1.534712    0.305431
      6          8           0        2.228771   -0.127882   -0.813232
      7          8           0       -2.477826   -0.406811   -0.352920
      8          8           0       -1.377519    1.689008   -0.136403
      9          1           0       -0.508611    2.067121    0.078668
     10          1           0       -3.220646    0.111854   -0.686826
 ---------------------------------------------------------------------

 SCF Done:  E(RHF) =  -820.198064891     A.U. after    2 cycles

 The electronic state is 1-A.
 Alpha  occ. eigenvalues --  -81.39400 -26.16222 -20.65589 -20.63824 -20.62451
 Alpha  occ. eigenvalues --  -20.61873 -15.92534  -7.88769  -7.72124  -5.02875
 Alpha  occ. eigenvalues --   -5.02608  -5.02149  -1.68534  -1.56812  -1.39276
 Alpha  occ. eigenvalues --   -1.38395  -1.35244  -0.99557  -0.87273  -0.83077
 Alpha  occ. eigenvalues --   -0.81120  -0.79893  -0.77184  -0.76717  -0.75071
 Alpha  occ. eigenvalues --   -0.74193  -0.68314  -0.63420  -0.62801  -0.60084
 Alpha  occ. eigenvalues --   -0.56106  -0.54663  -0.50301  -0.49377  -0.41744
 Alpha virt. eigenvalues --    0.03018   0.03794   0.04598   0.05634   0.05937
 Alpha virt. eigenvalues --    0.06791   0.07431   0.08198   0.09327   0.10388
 Alpha virt. eigenvalues --    0.11946   0.13786   0.15243   0.16165   0.18540

 Mulliken charges:
               1
     1  P    0.893744
     2  B    0.711736
     3  N    0.443549
     4  F   -0.638494
     5  O   -0.614848
     6  O   -0.492670
     7  O   -0.387047
     8  O   -0.444172
     9  H    0.310383
    10  H    0.217818
 Sum of Mulliken charges =  -0.00000

 Dipole moment (field-independent basis, Debye):
    X=             -3.2495    Y=              0.3617    Z=              1.3781  Tot=              3.5481

 Test job not archived.
 1\1\GINC-SE187\SP\RHF\Aug-CC-pVDZ\B1F1H2N1O4P1\OHZDE\09-Apr-2025\0\\#t
  hf aug-cc-pvdz iop(5/13=1,5/36=2,99/5=2) pseudo=read geom=check guess
 =(read,tcheck) scf=(maxcycle=1)\\title\\0,1\P,0,0.106511,-0.680876,0.7
 52073\B,0,-1.403939,0.3474,-0.037724\N,0,1.407311,0.353825,-0.071162\F
 ,0,0.14648,-1.965758,-0.223242\O,0,1.374297,1.534712,0.305431\O,0,2.22
 8771,-0.127882,-0.813232\O,0,-2.477826,-0.40681,-0.35292\O,0,-1.377519
 ,1.689008,-0.136403\H,0,-0.508611,2.067121,0.078668\H,0,-3.220646,0.11
 1855,-0.686826\\Version=ES64L-G16RevC.01\State=1-A\HF=-820.1980649\RMS

 Normal termination of Gaussian 16 at Wed Apr  9 00:41:07 2025.
