 Gaussian 16, Revision C.01,

 ----------------------------------------------------------------------
 #t hf aug-cc-pvdz symm=none int=(grid=ultrafine) guess=(read,tcheck) s
 table=(opt,rrhf)
 ----------------------------------------------------------------------
 -----
 title
 -----
 Symbolic Z-matrix:
 Charge =  0 Multiplicity = 1

 SCF Done:  E(RHF) =  -866.169059389     A.U. after   12 cycles
 Normal termination of Gaussian 16 at Tue Apr  8 23:47:20 2025.
 Gaussian 16:  ES64L-G16RevC.01  3-Jul-2019

 ----------------------------------------------------------------------
 #t hf aug-cc-pvdz iop(5/13=1,5/36=2,99/5=2) pseudo=read geom=check gue
 ss=(read,tcheck) scf=(maxcycle=1)
 ----------------------------------------------------------------------
 -----
 title
 -----
 Structure from the checkpoint file:  "BDE49_nonexpt_1814_mol1.chk"
 Charge =  0 Multiplicity = 1

                         Standard orientation:
 ---------------------------------------------------------------------
 Center     Atomic      Atomic             Coordinates (Angstroms)
 Number     Number       Type             X           Y           Z
 ---------------------------------------------------------------------
      1         14           0        0.749765    0.814694    0.032983
      2          6           0       -0.875899    0.067239    0.490888
      3          6           0       -1.938248    0.097609   -0.324191
      4         17           0        2.237634   -0.655781   -0.081674
      5          6           0       -3.293133   -0.466636   -0.020074
      6          1           0       -0.981697   -0.409944    1.465180
      7          1           0       -1.839633    0.566537   -1.303462
      8          1           0       -3.329314   -0.923051    0.970992
      9          1           0       -3.570518   -1.223535   -0.762089
     10          1           0       -4.058968    0.315217   -0.071543
     11          1           0        1.231387    1.776977    1.043983
     12          1           0        0.655926    1.451078   -1.296100
 ---------------------------------------------------------------------

 SCF Done:  E(RHF) =  -866.249304056     A.U. after    2 cycles

 The electronic state is 1-A.
 Alpha  occ. eigenvalues -- -103.64052 -69.10807 -11.27451 -11.24781 -11.23491
 Alpha  occ. eigenvalues --  -10.67496  -8.33185  -8.32965  -8.32961  -6.85661
 Alpha  occ. eigenvalues --   -3.96508  -3.96395  -3.96361  -1.12374  -1.07494
 Alpha  occ. eigenvalues --   -0.94605  -0.77745  -0.70790  -0.61129  -0.60571
 Alpha  occ. eigenvalues --   -0.58440  -0.53331  -0.52486  -0.51827  -0.49102
 Alpha  occ. eigenvalues --   -0.44891  -0.44374  -0.38166
 Alpha virt. eigenvalues --    0.03189   0.04450   0.04567   0.05146   0.06383
 Alpha virt. eigenvalues --    0.06733   0.06887   0.08563   0.09143   0.09895
 Alpha virt. eigenvalues --    0.10142   0.12294   0.13502   0.13686   0.14818

 Mulliken charges:
               1
     1  Si   0.908275
     2  C    0.099467
     3  C    0.301274
     4  Cl  -0.561630
     5  C    0.171568
     6  H   -0.376574
     7  H   -0.445376
     8  H   -0.107622
     9  H    0.055818
    10  H    0.054109
    11  H   -0.030841
    12  H   -0.068468
 Sum of Mulliken charges =  -0.00000

 Dipole moment (field-independent basis, Debye):
    X=             -3.0001    Y=              0.8021    Z=             -0.0116  Tot=              3.1055

 Test job not archived.
 1\1\GINC-SE367\SP\RHF\Aug-CC-pVDZ\C3H7Cl1Si1\OHZDE\08-Apr-2025\0\\#t h
 f aug-cc-pvdz iop(5/13=1,5/36=2,99/5=2) pseudo=read geom=check guess=(
 read,tcheck) scf=(maxcycle=1)\\title\\0,1\Si,0,0.749765,0.814694,0.032
 983\C,0,-0.875899,0.067239,0.490888\C,0,-1.938248,0.097609,-0.324191\C
 l,0,2.237634,-0.655781,-0.081674\C,0,-3.293133,-0.466636,-0.020074\H,0
 ,-0.981697,-0.409944,1.46518\H,0,-1.839633,0.566537,-1.303462\H,0,-3.3
 29314,-0.923051,0.970992\H,0,-3.570518,-1.223535,-0.762089\H,0,-4.0589
 68,0.315217,-0.071543\H,0,1.231387,1.776977,1.043983\H,0,0.655926,1.45

 Normal termination of Gaussian 16 at Tue Apr  8 23:47:24 2025.
