 Gaussian 16, Revision C.01,

 ----------------------------------------------------------------------
 #t hf aug-cc-pvdz symm=none int=(grid=ultrafine) guess=(read,tcheck) s
 table=(opt,rrhf)
 ----------------------------------------------------------------------
 -----
 title
 -----
 Symbolic Z-matrix:
 Charge =  0 Multiplicity = 1

 SCF Done:  E(RHF) =  -629.685858688     A.U. after   14 cycles
 Normal termination of Gaussian 16 at Tue Apr  8 23:22:23 2025.
 Gaussian 16:  ES64L-G16RevC.01  3-Jul-2019

 ----------------------------------------------------------------------
 #t hf aug-cc-pvdz iop(5/13=1,5/36=2,99/5=2) pseudo=read geom=check gue
 ss=(read,tcheck) scf=(maxcycle=1)
 ----------------------------------------------------------------------
 -----
 title
 -----
 Structure from the checkpoint file:  "BDE49_nonexpt_1230_mol1.chk"
 Charge =  0 Multiplicity = 1

                         Standard orientation:
 ---------------------------------------------------------------------
 Center     Atomic      Atomic             Coordinates (Angstroms)
 Number     Number       Type             X           Y           Z
 ---------------------------------------------------------------------
      1         16           0       -1.956246   -0.090714   -0.060046
      2          8           0       -0.446872   -0.063999   -0.804789
      3          6           0        0.765382    0.003966    0.030611
      4          6           0        1.872179   -0.018268   -1.024708
      5          1           0        1.806879   -0.929994   -1.621666
      6          1           0        2.854421    0.018335   -0.546755
      7          1           0        1.775979    0.838337   -1.694834
      8          6           0        0.846390   -1.218932    0.944467
      9          1           0        0.817360   -2.137532    0.353778
     10          1           0        0.015166   -1.234004    1.652446
     11          1           0        1.778178   -1.204802    1.516045
     12          6           0        0.785914    1.309708    0.825132
     13          1           0        0.675306    2.166374    0.155502
     14          1           0        1.733542    1.412493    1.360071
     15          1           0       -0.018404    1.335382    1.563714
     16          1           0       -2.182700    1.239983    0.007736
 ---------------------------------------------------------------------

 SCF Done:  E(RHF) =  -629.783874556     A.U. after    2 cycles

 The electronic state is 1-A.
 Alpha  occ. eigenvalues --  -93.58238 -20.59654 -11.30732 -11.23103 -11.22784
 Alpha  occ. eigenvalues --  -11.22748  -8.87311  -6.21565  -6.21232  -6.20871
 Alpha  occ. eigenvalues --   -1.32630  -1.07339  -0.95055  -0.94290  -0.91613
 Alpha  occ. eigenvalues --   -0.75951  -0.66059  -0.64546  -0.63361  -0.58965
 Alpha  occ. eigenvalues --   -0.57377  -0.54394  -0.53246  -0.52683  -0.52374
 Alpha  occ. eigenvalues --   -0.49441  -0.46936  -0.43997  -0.36194
 Alpha virt. eigenvalues --    0.03450   0.04502   0.04848   0.05037   0.06608
 Alpha virt. eigenvalues --    0.06884   0.06935   0.07579   0.08072   0.09502
 Alpha virt. eigenvalues --    0.09760   0.11906   0.12978   0.13790   0.14376

 Mulliken charges:
               1
     1  S    0.393411
     2  O   -0.861029
     3  C   -2.342720
     4  C    0.760449
     5  H   -0.023870
     6  H    0.048632
     7  H   -0.020000
     8  C    1.015826
     9  H    0.031001
    10  H   -0.058347
    11  H    0.037807
    12  C    0.992441
    13  H    0.030584
    14  H    0.031351
    15  H   -0.071932
    16  H    0.036395
 Sum of Mulliken charges =  -0.00000

 Dipole moment (field-independent basis, Debye):
    X=              1.1908    Y=              0.8923    Z=              1.4177  Tot=              2.0553

 Test job not archived.
 1\1\GINC-SE219\SP\RHF\Aug-CC-pVDZ\C4H10O1S1\OHZDE\08-Apr-2025\0\\#t hf
  aug-cc-pvdz iop(5/13=1,5/36=2,99/5=2) pseudo=read geom=check guess=(r
 ead,tcheck) scf=(maxcycle=1)\\title\\0,1\S,0,-1.956246,-0.090714,-0.06
 0046\O,0,-0.446872,-0.063999,-0.804789\C,0,0.765382,0.003966,0.030611\
 C,0,1.872179,-0.018268,-1.024708\H,0,1.806879,-0.929994,-1.621666\H,0,
 2.854421,0.018336,-0.546755\H,0,1.775979,0.838337,-1.694834\C,0,0.8463
 9,-1.218932,0.944467\H,0,0.81736,-2.137532,0.353778\H,0,0.015166,-1.23
 4004,1.652446\H,0,1.778178,-1.204802,1.516045\C,0,0.785914,1.309708,0.

 Normal termination of Gaussian 16 at Tue Apr  8 23:22:29 2025.
