 Gaussian 16, Revision C.01,

 ----------------------------------------------------------------------
 #t hf aug-cc-pvdz symm=none int=(grid=ultrafine) guess=(read,tcheck) s
 table=(opt,rrhf)
 ----------------------------------------------------------------------
 -----
 title
 -----
 Symbolic Z-matrix:
 Charge =  0 Multiplicity = 1

 SCF Done:  E(RHF) =  -395.306359786     A.U. after   13 cycles
 Normal termination of Gaussian 16 at Wed Apr  9 00:33:36 2025.
 Gaussian 16:  ES64L-G16RevC.01  3-Jul-2019

 ----------------------------------------------------------------------
 #t hf aug-cc-pvdz iop(5/13=1,5/36=2,99/5=2) pseudo=read geom=check gue
 ss=(read,tcheck) scf=(maxcycle=1)
 ----------------------------------------------------------------------
 -----
 title
 -----
 Structure from the checkpoint file:  "BDE49_nonexpt_445_mol1.chk"
 Charge =  0 Multiplicity = 1

                         Standard orientation:
 ---------------------------------------------------------------------
 Center     Atomic      Atomic             Coordinates (Angstroms)
 Number     Number       Type             X           Y           Z
 ---------------------------------------------------------------------
      1          9           0        2.033101   -0.015202   -1.137394
      2          9           0        2.033097   -0.015226    1.137403
      3          7           0       -0.007327   -0.491263   -0.000004
      4          6           0       -1.514465    1.440197   -0.000006
      5          6           0       -1.182286   -0.037590   -0.000006
      6          6           0       -2.367116   -0.974927    0.000003
      7          5           0        1.341475   -0.137637    0.000000
      8          1           0       -0.612728    2.051977   -0.000009
      9          1           0       -2.116951    1.691859    0.878800
     10          1           0       -2.116957    1.691858   -0.878808
     11          1           0       -2.032229   -2.010608    0.000007
     12          1           0       -2.994899   -0.795147   -0.878980
     13          1           0       -2.994894   -0.795139    0.878988
 ---------------------------------------------------------------------

 SCF Done:  E(RHF) =  -395.452076975     A.U. after    2 cycles

 The electronic state is 1-A.
 Alpha  occ. eigenvalues --  -26.11692 -26.11685 -15.61424 -11.33854 -11.25874
 Alpha  occ. eigenvalues --  -11.25177  -7.73466  -1.66824  -1.64603  -1.20671
 Alpha  occ. eigenvalues --   -1.02542  -0.96958  -0.86550  -0.81598  -0.79921
 Alpha  occ. eigenvalues --   -0.75039  -0.71743  -0.70344  -0.69520  -0.66581
 Alpha  occ. eigenvalues --   -0.63101  -0.62580  -0.57327  -0.56701  -0.54133
 Alpha  occ. eigenvalues --   -0.44847  -0.40196
 Alpha virt. eigenvalues --    0.02769   0.04010   0.04402   0.05310   0.06729
 Alpha virt. eigenvalues --    0.07116   0.07158   0.07625   0.08548   0.09467
 Alpha virt. eigenvalues --    0.12516   0.13209   0.13831   0.14446   0.15424

 Mulliken charges:
               1
     1  F   -0.465181
     2  F   -0.465186
     3  N   -0.321672
     4  C    0.450014
     5  C   -0.284514
     6  C    0.435763
     7  B    0.839218
     8  H   -0.199022
     9  H    0.043243
    10  H    0.043243
    11  H   -0.154726
    12  H    0.039411
    13  H    0.039411
 Sum of Mulliken charges =   0.00000

 Dipole moment (field-independent basis, Debye):
    X=             -4.3563    Y=              1.0645    Z=             -0.0000  Tot=              4.4845

 Test job not archived.
 1\1\GINC-SE016\SP\RHF\Aug-CC-pVDZ\C3H6B1F2N1\OHZDE\09-Apr-2025\0\\#t h
 f aug-cc-pvdz iop(5/13=1,5/36=2,99/5=2) pseudo=read geom=check guess=(
 read,tcheck) scf=(maxcycle=1)\\title\\0,1\F,0,2.033101,-0.015202,-1.13
 7394\F,0,2.033097,-0.015226,1.137403\N,0,-0.007327,-0.491263,-0.000004
 \C,0,-1.514465,1.440197,-0.000006\C,0,-1.182286,-0.03759,-0.000006\C,0
 ,-2.367116,-0.974927,0.000003\B,0,1.341475,-0.137637,0.\H,0,-0.612728,
 2.051977,-0.000009\H,0,-2.116951,1.691859,0.8788\H,0,-2.116957,1.69185
 8,-0.878808\H,0,-2.032229,-2.010608,0.000007\H,0,-2.994899,-0.795147,-

 Normal termination of Gaussian 16 at Wed Apr  9 00:33:40 2025.
