 Gaussian 16, Revision C.01,

 ----------------------------------------------------------------------
 #t hf aug-cc-pvdz symm=none int=(grid=ultrafine) guess=(read,tcheck) s
 table=(opt,rrhf)
 ----------------------------------------------------------------------
 -----
 title
 -----
 Symbolic Z-matrix:
 Charge =  0 Multiplicity = 1

 SCF Done:  E(RHF) =  -699.323065093     A.U. after   18 cycles
 Normal termination of Gaussian 16 at Tue Apr  8 22:59:24 2025.
 Gaussian 16:  ES64L-G16RevC.01  3-Jul-2019

 ----------------------------------------------------------------------
 #t hf aug-cc-pvdz iop(5/13=1,5/36=2,99/5=2) pseudo=read geom=check gue
 ss=(read,tcheck) scf=(maxcycle=1)
 ----------------------------------------------------------------------
 -----
 title
 -----
 Structure from the checkpoint file:  "BDE49_expt_1761_mol1.chk"
 Charge =  0 Multiplicity = 1

                         Standard orientation:
 ---------------------------------------------------------------------
 Center     Atomic      Atomic             Coordinates (Angstroms)
 Number     Number       Type             X           Y           Z
 ---------------------------------------------------------------------
      1          7           0        0.675252    0.650198    0.034982
      2          7           0        1.028475    1.941158   -0.172706
      3          8           0        2.204611    2.189608    0.009618
      4          6           0        1.635124   -0.309679    0.623474
      5          8           0        1.491397   -0.653845    1.773225
      6          7           0        2.587176   -0.752262   -0.232317
      7          6           0       -0.714405    0.332340    0.006903
      8          6           0       -1.682886    1.309379    0.248537
      9          6           0       -3.028903    0.973324    0.176582
     10          6           0       -3.446818   -0.331728   -0.107187
     11          6           0       -2.460997   -1.295523   -0.333191
     12          6           0       -1.109016   -0.972967   -0.286776
     13          1           0       -3.771137    1.742981    0.361864
     14          1           0       -2.751280   -2.316530   -0.557368
     15          1           0       -0.363744   -1.735903   -0.478364
     16          6           0        2.771983   -0.270657   -1.595829
     17          1           0        1.837179    0.116231   -1.994099
     18          1           0        3.093451   -1.106768   -2.221210
     19          1           0        3.528294    0.518569   -1.636198
     20          6           0        3.663666   -1.577387    0.309135
     21          1           0        4.600433   -1.010579    0.338423
     22          1           0        3.805351   -2.460087   -0.320095
     23          1           0        3.398558   -1.884874    1.316926
     24          6           0       -4.912649   -0.689326   -0.134559
     25          1           0       -5.509826    0.110262   -0.579864
     26          1           0       -5.295420   -0.856580    0.878129
     27          1           0       -5.089347   -1.602464   -0.706877
     28          1           0       -1.377476    2.319333    0.483747
 ---------------------------------------------------------------------

 SCF Done:  E(RHF) =  -699.533973647     A.U. after    2 cycles

 The electronic state is 1-A.
 Alpha  occ. eigenvalues --  -20.62250 -20.55681 -15.81559 -15.71277 -15.67288
 Alpha  occ. eigenvalues --  -11.41816 -11.30481 -11.28542 -11.27837 -11.25852
 Alpha  occ. eigenvalues --  -11.25756 -11.25489 -11.25272 -11.25172 -11.24146
 Alpha  occ. eigenvalues --   -1.48421  -1.38210  -1.26054  -1.23186  -1.15111
 Alpha  occ. eigenvalues --   -1.05046  -1.02470  -0.98900  -0.97467  -0.95554
 Alpha  occ. eigenvalues --   -0.90114  -0.84622  -0.82511  -0.76791  -0.75379
 Alpha  occ. eigenvalues --   -0.73747  -0.69753  -0.66717  -0.66277  -0.66090
 Alpha  occ. eigenvalues --   -0.65180  -0.63709  -0.62082  -0.60345  -0.59533
 Alpha  occ. eigenvalues --   -0.58544  -0.57900  -0.57436  -0.56083  -0.55294
 Alpha  occ. eigenvalues --   -0.54808  -0.52674  -0.51944  -0.50595  -0.49124
 Alpha  occ. eigenvalues --   -0.44392  -0.43296  -0.39199  -0.35250  -0.32080
 Alpha virt. eigenvalues --    0.02762   0.03283   0.04098   0.04328   0.04733
 Alpha virt. eigenvalues --    0.05403   0.05691   0.06650   0.06834   0.07543
 Alpha virt. eigenvalues --    0.07843   0.08169   0.08646   0.09168   0.10115

 Mulliken charges:
               1
     1  N   -0.394723
     2  N    0.164354
     3  O   -0.538707
     4  C    0.529647
     5  O   -0.518460
     6  N   -0.339277
     7  C    0.268611
     8  C    0.548003
     9  C    0.848887
    10  C   -0.226361
    11  C    0.525884
    12  C    0.297781
    13  H   -0.590960
    14  H   -0.581700
    15  H   -0.735180
    16  C    0.870981
    17  H   -0.214268
    18  H   -0.177202
    19  H   -0.083466
    20  C    0.755715
    21  H   -0.057278
    22  H   -0.142780
    23  H   -0.228756
    24  C    0.707436
    25  H   -0.032479
    26  H    0.100132
    27  H   -0.140473
    28  H   -0.615363
 Sum of Mulliken charges =  -0.00000

 Dipole moment (field-independent basis, Debye):
    X=             -1.1129    Y=             -2.4341    Z=             -3.3833  Tot=              4.3139

 Test job not archived.
 1\1\GINC-SE074\SP\RHF\Aug-CC-pVDZ\C10H13N3O2\OHZDE\08-Apr-2025\0\\#t h
 f aug-cc-pvdz iop(5/13=1,5/36=2,99/5=2) pseudo=read geom=check guess=(
 read,tcheck) scf=(maxcycle=1)\\title\\0,1\N,0,-0.675252,0.650198,-0.03
 4982\N,0,-1.028475,1.941158,0.172706\O,0,-2.204611,2.189608,-0.009618\
 C,0,-1.635124,-0.309679,-0.623474\O,0,-1.491397,-0.653845,-1.773225\N,
 0,-2.587176,-0.752262,0.232317\C,0,0.714405,0.33234,-0.006903\C,0,1.68
 2886,1.309379,-0.248537\C,0,3.028903,0.973324,-0.176582\C,0,3.446818,-
 0.331728,0.107187\C,0,2.460997,-1.295523,0.333191\C,0,1.109016,-0.9729

 Normal termination of Gaussian 16 at Tue Apr  8 22:59:55 2025.
