 Gaussian 16, Revision C.01,

 ----------------------------------------------------------------------
 #t hf aug-cc-pvdz symm=none int=(grid=ultrafine) guess=(read,tcheck) s
 table=(opt,rrhf)
 ----------------------------------------------------------------------
 -----
 title
 -----
 Symbolic Z-matrix:
 Charge =  0 Multiplicity = 1

 SCF Done:  E(RHF) =  -496.413295634     A.U. after   12 cycles
 Normal termination of Gaussian 16 at Wed Apr  9 00:35:00 2025.
 Gaussian 16:  ES64L-G16RevC.01  3-Jul-2019

 ----------------------------------------------------------------------
 #t hf aug-cc-pvdz iop(5/13=1,5/36=2,99/5=2) pseudo=read geom=check gue
 ss=(read,tcheck) scf=(maxcycle=1)
 ----------------------------------------------------------------------
 -----
 title
 -----
 Structure from the checkpoint file:  "BDE49_nonexpt_443_mol1.chk"
 Charge =  0 Multiplicity = 1

                         Standard orientation:
 ---------------------------------------------------------------------
 Center     Atomic      Atomic             Coordinates (Angstroms)
 Number     Number       Type             X           Y           Z
 ---------------------------------------------------------------------
      1          6           0       -1.269665   -1.410775    0.055613
      2          6           0       -2.640883   -0.868813    0.483513
      3          6           0       -2.997945    0.419560   -0.270203
      4          6           0       -1.895116    1.476145   -0.120073
      5          6           0       -0.524935    0.928247   -0.544622
      6          6           0        1.208844   -0.915495   -0.249949
      7          6           0       -0.152828   -0.362757    0.208726
      8          5           0        2.455859   -0.030269    0.054104
      9          9           0        3.613870   -0.205804   -0.577013
     10          9           0        2.450968    0.922734    0.983688
     11          1           0       -1.316409   -1.727229   -0.995639
     12          1           0       -1.019634   -2.305506    0.636923
     13          1           0       -2.626899   -0.663775    1.561815
     14          1           0       -3.411611   -1.629555    0.322772
     15          1           0       -3.953762    0.815745    0.087477
     16          1           0       -3.134707    0.188796   -1.334776
     17          1           0       -1.844014    1.798859    0.927700
     18          1           0       -2.139670    2.367212   -0.707092
     19          1           0        0.244861    1.690091   -0.382574
     20          1           0       -0.537773    0.716534   -1.623015
     21          1           0        1.188393   -1.155416   -1.320616
     22          1           0        1.398248   -1.882368    0.243195
     23          1           0       -0.074688   -0.111093    1.275214
 ---------------------------------------------------------------------

 SCF Done:  E(RHF) =  -496.584749443     A.U. after    2 cycles

 The electronic state is 1-A.
 Alpha  occ. eigenvalues --  -26.13103 -26.13004 -11.24168 -11.22988 -11.22961
 Alpha  occ. eigenvalues --  -11.22856 -11.22840 -11.22747 -11.22666  -7.72867
 Alpha  occ. eigenvalues --   -1.68365  -1.65992  -1.11456  -1.03303  -0.99907
 Alpha  occ. eigenvalues --   -0.93503  -0.86671  -0.83660  -0.81867  -0.80543
 Alpha  occ. eigenvalues --   -0.76322  -0.76147  -0.75648  -0.71424  -0.70710
 Alpha  occ. eigenvalues --   -0.64871  -0.61751  -0.60883  -0.60472  -0.56834
 Alpha  occ. eigenvalues --   -0.54496  -0.53095  -0.52050  -0.49339  -0.48730
 Alpha  occ. eigenvalues --   -0.47786  -0.45672  -0.43563  -0.43004
 Alpha virt. eigenvalues --    0.03232   0.03930   0.04094   0.04230   0.05702
 Alpha virt. eigenvalues --    0.05836   0.06094   0.06321   0.06620   0.07959
 Alpha virt. eigenvalues --    0.08265   0.08580   0.09031   0.09079   0.10003

 Mulliken charges:
               1
     1  C    0.629405
     2  C    0.376154
     3  C    0.262033
     4  C    0.319855
     5  C    0.435070
     6  C    0.910278
     7  C   -1.190036
     8  B    1.016134
     9  F   -0.524865
    10  F   -0.487899
    11  H   -0.071018
    12  H   -0.175222
    13  H   -0.094770
    14  H   -0.102933
    15  H   -0.124733
    16  H   -0.096894
    17  H   -0.090857
    18  H   -0.103218
    19  H   -0.193112
    20  H   -0.106679
    21  H   -0.205275
    22  H   -0.054860
    23  H   -0.326558
 Sum of Mulliken charges =   0.00000

 Dipole moment (field-independent basis, Debye):
    X=             -1.9877    Y=             -1.0074    Z=             -0.2695  Tot=              2.2446

 Test job not archived.
 1\1\GINC-SE073\SP\RHF\Aug-CC-pVDZ\C7H13B1F2\OHZDE\09-Apr-2025\0\\#t hf
  aug-cc-pvdz iop(5/13=1,5/36=2,99/5=2) pseudo=read geom=check guess=(r
 ead,tcheck) scf=(maxcycle=1)\\title\\0,1\C,0,-1.269665,-1.410775,0.055
 613\C,0,-2.640883,-0.868813,0.483513\C,0,-2.997945,0.41956,-0.270203\C
 ,0,-1.895116,1.476145,-0.120073\C,0,-0.524935,0.928247,-0.544622\C,0,1
 .208844,-0.915495,-0.249949\C,0,-0.152828,-0.362757,0.208726\B,0,2.455
 859,-0.030269,0.054104\F,0,3.61387,-0.205804,-0.577013\F,0,2.450968,0.
 922734,0.983688\H,0,-1.316409,-1.727229,-0.995639\H,0,-1.019634,-2.305

 Normal termination of Gaussian 16 at Wed Apr  9 00:35:14 2025.
