 Gaussian 16, Revision C.01,

 ----------------------------------------------------------------------
 #t hf aug-cc-pvdz symm=none int=(grid=ultrafine) guess=(read,tcheck) s
 table=opt
 ----------------------------------------------------------------------
 -----
 title
 -----
 Symbolic Z-matrix:
 Charge =  0 Multiplicity = 2

 SCF Done:  E(UHF) =  -192.404337933     A.U. after   20 cycles
 Normal termination of Gaussian 16 at Wed Apr  9 00:45:59 2025.
 Gaussian 16:  ES64L-G16RevC.01  3-Jul-2019

 ----------------------------------------------------------------------
 #t hf aug-cc-pvdz iop(5/13=1,5/36=2,99/5=2) pseudo=read geom=check gue
 ss=(read,tcheck) scf=(maxcycle=1)
 ----------------------------------------------------------------------
 -----
 title
 -----
 Structure from the checkpoint file:  "BDE49_nonexpt_85_mol3.chk"
 Charge =  0 Multiplicity = 2

                         Standard orientation:
 ---------------------------------------------------------------------
 Center     Atomic      Atomic             Coordinates (Angstroms)
 Number     Number       Type             X           Y           Z
 ---------------------------------------------------------------------
      1          5           0       -1.681394    0.464064   -0.000000
      2          8           0       -0.619273   -0.400368    0.000001
      3          6           0        0.632828   -0.057044   -0.000000
      4          7           0        1.763337    0.174185   -0.000001
      5          1           0       -2.779172    0.005597    0.000001
 ---------------------------------------------------------------------

 SCF Done:  E(UHF) =  -192.469250415     A.U. after    2 cycles

 The electronic state is 2-A.
 Alpha  occ. eigenvalues --  -20.70384 -15.65569 -11.37404  -7.73323  -1.47453
 Alpha  occ. eigenvalues --   -1.20785  -0.93942  -0.76119  -0.70927  -0.64570
 Alpha  occ. eigenvalues --   -0.56738  -0.48194  -0.47102  -0.40115
 Alpha virt. eigenvalues --    0.02465   0.04403   0.04598   0.05333   0.09048
 Alpha virt. eigenvalues --    0.09768   0.10586   0.11291   0.13453   0.14093
 Alpha virt. eigenvalues --    0.18503   0.18929   0.21115   0.21887   0.23118

  Beta  occ. eigenvalues --  -20.70231 -15.65692 -11.37271  -7.71304  -1.46786
  Beta  occ. eigenvalues --   -1.20943  -0.92990  -0.73260  -0.71116  -0.60658
  Beta  occ. eigenvalues --   -0.56831  -0.47936  -0.47295
  Beta virt. eigenvalues --    0.02860   0.03524   0.04593   0.04732   0.07848
  Beta virt. eigenvalues --    0.10205   0.11131   0.11565   0.11614   0.14275
  Beta virt. eigenvalues --    0.15796   0.18763   0.18988   0.21688   0.22952

 Mulliken charges and spin densities:
               1          2
     1  B   -0.099907   1.024962
     2  O   -0.236355  -0.048270
     3  C    0.057395   0.035919
     4  N   -0.045903  -0.037164
     5  H    0.324770   0.024552
 Sum of Mulliken charges =  -0.00000   1.00000

 Dipole moment (field-independent basis, Debye):
    X=             -3.5445    Y=             -0.1955    Z=              0.0000  Tot=              3.5499
                          Isotropic Fermi Contact Couplings
        Atom                 a.u.       MegaHertz       Gauss      10(-4) cm-1
     1  B(11)              0.34841     499.74968     178.32311     166.69855
     2  O(17)             -0.00298       1.80531       0.64418       0.60219
     3  C(13)              0.02153      24.20560       8.63716       8.07412
     4  N(14)             -0.00938      -3.03075      -1.08145      -1.01095
     5  H(1)               0.02578     115.22197      41.11406      38.43391
 --------------------------------------------------------
       Center         ----  Spin Dipole Couplings  ----
                      3XX-RR        3YY-RR        3ZZ-RR

 Normal termination of Gaussian 16 at Wed Apr  9 00:46:01 2025.
