 Gaussian 16, Revision C.01,

 ----------------------------------------------------------------------
 #t hf aug-cc-pvdz symm=none int=(grid=ultrafine) guess=(read,tcheck) s
 table=(opt,rrhf)
 ----------------------------------------------------------------------
 -----
 title
 -----
 Symbolic Z-matrix:
 Charge =  0 Multiplicity = 1

 SCF Done:  E(RHF) =  -1005.78373759     A.U. after   17 cycles
 Normal termination of Gaussian 16 at Tue Apr  8 23:17:46 2025.
 Gaussian 16:  ES64L-G16RevC.01  3-Jul-2019

 ----------------------------------------------------------------------
 #t hf aug-cc-pvdz iop(5/13=1,5/36=2,99/5=2) pseudo=read geom=check gue
 ss=(read,tcheck) scf=(maxcycle=1)
 ----------------------------------------------------------------------
 -----
 title
 -----
 Structure from the checkpoint file:  "BDE49_expt_418_mol1.chk"
 Charge =  0 Multiplicity = 1

                         Standard orientation:
 ---------------------------------------------------------------------
 Center     Atomic      Atomic             Coordinates (Angstroms)
 Number     Number       Type             X           Y           Z
 ---------------------------------------------------------------------
      1          6           0       -2.471532   -0.534608    1.022673
      2          6           0       -3.086328   -1.732450    0.676249
      3          6           0       -2.840823   -2.314987   -0.565497
      4          6           0       -1.985045   -1.678155   -1.461019
      5          6           0       -1.376173   -0.471161   -1.130439
      6          6           0       -1.611876    0.103736    0.121548
      7          7           0       -1.062706    1.354319    0.513057
      8          6           0       -0.000023    2.051231    0.000001
      9          7           0        1.062674    1.354342   -0.513056
     10          6           0        1.611872    0.103772   -0.121547
     11          6           0        1.376187   -0.471129    1.130442
     12          6           0        1.985090   -1.678109    1.461021
     13          6           0        2.840878   -2.314923    0.565497
     14          6           0        3.086365   -1.732381   -0.676252
     15          6           0        2.471539   -0.534554   -1.022675
     16          1           0       -3.752709   -2.213973    1.382774
     17          1           0       -3.313624   -3.252416   -0.833192
     18          1           0       -2.651833   -0.088098    1.994803
     19          1           0       -1.794585   -2.116205   -2.434153
     20          1           0       -0.730982    0.025014   -1.842214
     21          1           0       -1.704908    1.970338    0.991803
     22          1           0        1.704861    1.970375   -0.991804
     23         16           0       -0.000043    3.725753   -0.000002
     24          1           0        2.651826   -0.088042   -1.994806
     25          1           0        3.313700   -3.252341    0.833191
     26          1           0        3.752753   -2.213891   -1.382779
     27          1           0        0.730989    0.025032    1.842219
     28          1           0        1.794643   -2.116161    2.434157
 ---------------------------------------------------------------------

 SCF Done:  E(RHF) =  -1005.97817663     A.U. after    2 cycles

 The electronic state is 1-A.
 Alpha  occ. eigenvalues --  -93.47844 -15.68030 -15.68027 -11.39963 -11.31068
 Alpha  occ. eigenvalues --  -11.31067 -11.26088 -11.26087 -11.25966 -11.25965
 Alpha  occ. eigenvalues --  -11.25819 -11.25819 -11.25554 -11.25554 -11.25237
 Alpha  occ. eigenvalues --  -11.25237  -8.77773  -6.12032  -6.11492  -6.11414
 Alpha  occ. eigenvalues --   -1.29573  -1.22123  -1.15738  -1.13878  -1.04708
 Alpha  occ. eigenvalues --   -1.02650  -1.02634  -1.01027  -0.95026  -0.87088
 Alpha  occ. eigenvalues --   -0.85364  -0.84795  -0.84008  -0.79957  -0.74820
 Alpha  occ. eigenvalues --   -0.73518  -0.69211  -0.68556  -0.68311  -0.64323
 Alpha  occ. eigenvalues --   -0.63671  -0.62888  -0.62001  -0.61049  -0.60582
 Alpha  occ. eigenvalues --   -0.57806  -0.55768  -0.53980  -0.53282  -0.51599
 Alpha  occ. eigenvalues --   -0.51278  -0.51067  -0.50501  -0.44964  -0.36470
 Alpha  occ. eigenvalues --   -0.35566  -0.35292  -0.33049  -0.32797  -0.30500
 Alpha virt. eigenvalues --    0.02621   0.02952   0.03663   0.04106   0.04925
 Alpha virt. eigenvalues --    0.05069   0.05579   0.05702   0.07214   0.07279
 Alpha virt. eigenvalues --    0.07395   0.07896   0.08692   0.09212   0.09662

 Mulliken charges:
               1
     1  C    0.693818
     2  C    0.327477
     3  C    0.912279
     4  C    0.284237
     5  C    0.920546
     6  C    0.201584
     7  N   -0.433115
     8  C   -0.024935
     9  N   -0.433110
    10  C    0.201584
    11  C    0.920546
    12  C    0.284236
    13  C    0.912278
    14  C    0.327478
    15  C    0.693818
    16  H   -0.463215
    17  H   -0.478058
    18  H   -0.625157
    19  H   -0.493263
    20  H   -0.758428
    21  H   -0.041945
    22  H   -0.041946
    23  S   -0.068585
    24  H   -0.625158
    25  H   -0.478057
    26  H   -0.463215
    27  H   -0.758430
    28  H   -0.493262
 Sum of Mulliken charges =  -0.00000

 Dipole moment (field-independent basis, Debye):
    X=              0.0001    Y=             -5.1304    Z=              0.0000  Tot=              5.1304

 Test job not archived.
 1\1\GINC-SE173\SP\RHF\Aug-CC-pVDZ\C13H12N2S1\OHZDE\08-Apr-2025\0\\#t h
 f aug-cc-pvdz iop(5/13=1,5/36=2,99/5=2) pseudo=read geom=check guess=(
 read,tcheck) scf=(maxcycle=1)\\title\\0,1\C,0,-2.471531,-0.534611,1.02
 2673\C,0,-3.086326,-1.732454,0.676249\C,0,-2.84082,-2.314991,-0.565497
 \C,0,-1.985043,-1.678158,-1.461019\C,0,-1.376172,-0.471163,-1.130439\C
 ,0,-1.611876,0.103734,0.121548\N,0,-1.062708,1.354318,0.513057\C,0,-0.
 000026,2.051231,0.000001\N,0,1.062672,1.354344,-0.513056\C,0,1.611872,
 0.103774,-0.121547\C,0,1.376188,-0.471127,1.130442\C,0,1.985092,-1.678

 Normal termination of Gaussian 16 at Tue Apr  8 23:18:25 2025.
