 Gaussian 16, Revision C.01,

 ----------------------------------------------------------------------
 #t hf aug-cc-pvdz symm=none int=(grid=ultrafine) guess=(read,tcheck) s
 table=opt
 ----------------------------------------------------------------------
 -----
 title
 -----
 Symbolic Z-matrix:
 Charge =  0 Multiplicity = 2

 SCF Done:  E(UHF) =  -640.908108680     A.U. after   18 cycles
 Normal termination of Gaussian 16 at Tue Apr  8 23:47:52 2025.
 Gaussian 16:  ES64L-G16RevC.01  3-Jul-2019

 ----------------------------------------------------------------------
 #t hf aug-cc-pvdz iop(5/13=1,5/36=2,99/5=2) pseudo=read geom=check gue
 ss=(read,tcheck) scf=(maxcycle=1)
 ----------------------------------------------------------------------
 -----
 title
 -----
 Structure from the checkpoint file:  "BDE49_nonexpt_181_mol2.chk"
 Charge =  0 Multiplicity = 2

                         Standard orientation:
 ---------------------------------------------------------------------
 Center     Atomic      Atomic             Coordinates (Angstroms)
 Number     Number       Type             X           Y           Z
 ---------------------------------------------------------------------
      1         17           0        2.282352   -0.526174    0.038816
      2          5           0        0.635449   -0.315827   -0.507442
      3          6           0       -0.484460    0.478737    0.236124
      4          6           0       -1.914673    0.097144   -0.197051
      5          6           0       -0.215607    1.993941    0.025360
      6          1           0       -0.272302    2.264284   -1.032906
      7          1           0        0.766920    2.290472    0.398966
      8          1           0       -0.970476    2.579285    0.557998
      9          1           0       -0.379051    0.273322    1.313258
     10          6           0       -2.278336   -1.357952    0.108834
     11          1           0       -2.024583    0.285671   -1.270900
     12          1           0       -2.623589    0.764236    0.308057
     13          1           0       -1.612300   -2.051099   -0.415400
     14          1           0       -3.301541   -1.584792   -0.201654
     15          1           0       -2.201855   -1.568513    1.180311
 ---------------------------------------------------------------------

 SCF Done:  E(UHF) =  -640.982218454     A.U. after    2 cycles

 The electronic state is 2-A.
 Alpha  occ. eigenvalues -- -103.66461 -11.24012 -11.23757 -11.23363 -11.22908
 Alpha  occ. eigenvalues --  -10.69927  -8.35674  -8.35408  -8.35359  -7.68444
 Alpha  occ. eigenvalues --   -1.16147  -1.07266  -0.98734  -0.87229  -0.80943
 Alpha  occ. eigenvalues --   -0.67841  -0.63033  -0.59937  -0.58985  -0.58013
 Alpha  occ. eigenvalues --   -0.53156  -0.51456  -0.51023  -0.49693  -0.47829
 Alpha  occ. eigenvalues --   -0.47560  -0.46311  -0.33313
 Alpha virt. eigenvalues --    0.03320   0.04254   0.04634   0.04738   0.06502
 Alpha virt. eigenvalues --    0.06548   0.06769   0.07066   0.07163   0.08255
 Alpha virt. eigenvalues --    0.09569   0.09676   0.10030   0.13010   0.13475

  Beta  occ. eigenvalues -- -103.66384 -11.24015 -11.23736 -11.23219 -11.22899
  Beta  occ. eigenvalues --  -10.69837  -8.35531  -8.35373  -8.35173  -7.66506
  Beta  occ. eigenvalues --   -1.15283  -1.06979  -0.98625  -0.87007  -0.80273
  Beta  occ. eigenvalues --   -0.65783  -0.62203  -0.59011  -0.58901  -0.57647
  Beta  occ. eigenvalues --   -0.52952  -0.50655  -0.49947  -0.49160  -0.47630
  Beta  occ. eigenvalues --   -0.47044  -0.45087
  Beta virt. eigenvalues --    0.02966   0.04342   0.04569   0.04716   0.06447
  Beta virt. eigenvalues --    0.06749   0.06785   0.06940   0.07301   0.08570
  Beta virt. eigenvalues --    0.09144   0.09835   0.09968   0.11475   0.13506

 Mulliken charges and spin densities:
               1          2
     1  Cl  -0.317494   0.013237
     2  B    0.147944   1.086220
     3  C   -0.129355  -0.087834
     4  C    0.248569   0.006361
     5  C    0.511787   0.000985
     6  H   -0.083728  -0.003496
     7  H   -0.105577  -0.000779
     8  H   -0.072864  -0.000197
     9  H   -0.148880  -0.007251
    10  C    0.402290   0.012546
    11  H   -0.129627  -0.006707
    12  H   -0.104632  -0.001911
    13  H   -0.077254  -0.013800
    14  H   -0.073040   0.001778
    15  H   -0.068140   0.000851
 Sum of Mulliken charges =  -0.00000   1.00000

 Dipole moment (field-independent basis, Debye):
    X=             -1.5400    Y=              0.7477    Z=              0.3887  Tot=              1.7555
                          Isotropic Fermi Contact Couplings
        Atom                 a.u.       MegaHertz       Gauss      10(-4) cm-1
     1  Cl(35)             0.08339      36.56215      13.04628      12.19582
     2  B(11)              0.32491     466.04161     166.29523     155.45475
     3  C(13)              0.03410      38.34041      13.68081      12.78898
     4  C(13)              0.00782       8.79060       3.13671       2.93223
     5  C(13)             -0.00162      -1.81597      -0.64798      -0.60574
     6  H(1)              -0.00035      -1.56409      -0.55811      -0.52172
     7  H(1)              -0.00004      -0.19233      -0.06863      -0.06415
     8  H(1)              -0.00014      -0.60782      -0.21688      -0.20275

 Normal termination of Gaussian 16 at Tue Apr  8 23:47:57 2025.
