 Gaussian 16, Revision C.01,

 ----------------------------------------------------------------------
 #t hf aug-cc-pvdz symm=none int=(grid=ultrafine) guess=(read,tcheck) s
 table=(opt,rrhf)
 ----------------------------------------------------------------------
 -----
 title
 -----
 Symbolic Z-matrix:
 Charge =  0 Multiplicity = 1

 SCF Done:  E(RHF) =  -628.562935598     A.U. after   14 cycles
 Normal termination of Gaussian 16 at Tue Apr  8 22:46:50 2025.
 Gaussian 16:  ES64L-G16RevC.01  3-Jul-2019

 ----------------------------------------------------------------------
 #t hf aug-cc-pvdz iop(5/13=1,5/36=2,99/5=2) pseudo=read geom=check gue
 ss=(read,tcheck) scf=(maxcycle=1)
 ----------------------------------------------------------------------
 -----
 title
 -----
 Structure from the checkpoint file:  "BDE49_expt_1607_mol1.chk"
 Charge =  0 Multiplicity = 1

                         Standard orientation:
 ---------------------------------------------------------------------
 Center     Atomic      Atomic             Coordinates (Angstroms)
 Number     Number       Type             X           Y           Z
 ---------------------------------------------------------------------
      1          6           0       -1.614199   -0.140712   -0.542642
      2         16           0       -0.096967   -1.040024   -0.047069
      3          6           0        1.086930    0.314671   -0.071035
      4          6           0        2.485028   -0.096693    0.340010
      5          6           0       -2.323457    0.549428    0.618520
      6          1           0       -2.247921   -0.893311   -1.015741
      7          1           0       -1.303960    0.579715   -1.300217
      8          1           0       -2.611063   -0.165343    1.392770
      9          1           0       -3.229808    1.047081    0.259274
     10          1           0       -1.678108    1.306286    1.066597
     11          8           0        0.788846    1.440309   -0.381510
     12          1           0        2.587384   -1.174331    0.470156
     13          1           0        2.729270    0.403670    1.280804
     14          1           0        3.189096    0.253970   -0.417581
 ---------------------------------------------------------------------

 SCF Done:  E(RHF) =  -628.657273889     A.U. after    2 cycles

 The electronic state is 1-A.
 Alpha  occ. eigenvalues --  -93.54627 -20.57269 -11.37735 -11.27385 -11.25689
 Alpha  occ. eigenvalues --  -11.23423  -8.84498  -6.18636  -6.18404  -6.18123
 Alpha  occ. eigenvalues --   -1.37038  -1.07064  -1.02389  -0.94632  -0.83811
 Alpha  occ. eigenvalues --   -0.73672  -0.66790  -0.64896  -0.62321  -0.61390
 Alpha  occ. eigenvalues --   -0.58101  -0.55834  -0.54300  -0.52919  -0.50685
 Alpha  occ. eigenvalues --   -0.45662  -0.41505  -0.36923
 Alpha virt. eigenvalues --    0.03548   0.04111   0.05029   0.05429   0.06284
 Alpha virt. eigenvalues --    0.06535   0.07430   0.08174   0.10466   0.11113
 Alpha virt. eigenvalues --    0.12022   0.12880   0.13050   0.13859   0.14994

 Mulliken charges:
               1
     1  C   -0.109668
     2  S    0.428554
     3  C   -0.233369
     4  C    0.457522
     5  C    0.265584
     6  H   -0.113123
     7  H    0.015172
     8  H   -0.057385
     9  H   -0.052064
    10  H   -0.075566
    11  O   -0.534136
    12  H   -0.067981
    13  H    0.050774
    14  H    0.025686
 Sum of Mulliken charges =   0.00000

 Dipole moment (field-independent basis, Debye):
    X=              0.0225    Y=             -1.5138    Z=              0.4883  Tot=              1.5907

 Test job not archived.
 1\1\GINC-SE016\SP\RHF\Aug-CC-pVDZ\C4H8O1S1\OHZDE\08-Apr-2025\0\\#t hf
 aug-cc-pvdz iop(5/13=1,5/36=2,99/5=2) pseudo=read geom=check guess=(re
 ad,tcheck) scf=(maxcycle=1)\\title\\0,1\C,0,-1.614199,-0.140712,-0.542
 642\S,0,-0.096967,-1.040024,-0.047069\C,0,1.08693,0.314671,-0.071035\C
 ,0,2.485028,-0.096693,0.34001\C,0,-2.323457,0.549428,0.61852\H,0,-2.24
 7921,-0.893311,-1.015741\H,0,-1.30396,0.579715,-1.300217\H,0,-2.611063
 ,-0.165343,1.39277\H,0,-3.229808,1.047081,0.259274\H,0,-1.678108,1.306
 286,1.066597\O,0,0.788846,1.440309,-0.38151\H,0,2.587384,-1.174331,0.4

 Normal termination of Gaussian 16 at Tue Apr  8 22:46:55 2025.
