 Gaussian 16, Revision C.01,

 ----------------------------------------------------------------------
 #t hf aug-cc-pvdz symm=none int=(grid=ultrafine) guess=(read,tcheck) s
 table=(opt,rrhf)
 ----------------------------------------------------------------------
 -----
 title
 -----
 Symbolic Z-matrix:
 Charge =  0 Multiplicity = 1

 SCF Done:  E(RHF) =  -664.262053127     A.U. after   13 cycles
 Normal termination of Gaussian 16 at Tue Apr  8 23:34:42 2025.
 Gaussian 16:  ES64L-G16RevC.01  3-Jul-2019

 ----------------------------------------------------------------------
 #t hf aug-cc-pvdz iop(5/13=1,5/36=2,99/5=2) pseudo=read geom=check gue
 ss=(read,tcheck) scf=(maxcycle=1)
 ----------------------------------------------------------------------
 -----
 title
 -----
 Structure from the checkpoint file:  "BDE49_nonexpt_1496_mol1.chk"
 Charge =  0 Multiplicity = 1

                         Standard orientation:
 ---------------------------------------------------------------------
 Center     Atomic      Atomic             Coordinates (Angstroms)
 Number     Number       Type             X           Y           Z
 ---------------------------------------------------------------------
      1         15           0       -0.585337    1.117281   -0.233173
      2          7           0       -1.260430   -0.480867    0.267462
      3          8           0       -2.528978   -0.157469    0.847515
      4          8           0       -1.513073   -1.212712   -0.923881
      5          6           0        1.150736    0.558982   -0.570723
      6          6           0        1.902404   -0.133167    0.573042
      7          1           0        1.686321    1.456512   -0.905012
      8          1           0        1.085104   -0.098036   -1.444772
      9          6           0        3.294499   -0.619722    0.156907
     10          1           0        1.304260   -0.974795    0.930621
     11          1           0        1.992715    0.562610    1.414813
     12          1           0        3.231048   -1.346579   -0.658496
     13          1           0        3.808641   -1.102563    0.992525
     14          1           0        3.921912    0.209408   -0.185402
     15          1           0       -2.659231   -0.868072    1.487891
     16          1           0       -2.132455   -0.673433   -1.448124
     17          1           0       -0.384666    1.566685    1.096889
 ---------------------------------------------------------------------

 SCF Done:  E(RHF) =  -664.387243325     A.U. after    2 cycles

 The electronic state is 1-A.
 Alpha  occ. eigenvalues --  -81.28358 -20.62018 -20.61654 -15.73864 -11.24450
 Alpha  occ. eigenvalues --  -11.23588 -11.22684  -7.78453  -4.92547  -4.92361
 Alpha  occ. eigenvalues --   -4.92062  -1.41652  -1.31168  -1.05940  -1.00796
 Alpha  occ. eigenvalues --   -0.93573  -0.81918  -0.78216  -0.74036  -0.66553
 Alpha  occ. eigenvalues --   -0.65531  -0.64423  -0.62277  -0.58636  -0.55018
 Alpha  occ. eigenvalues --   -0.54126  -0.51970  -0.49837  -0.49408  -0.48156
 Alpha  occ. eigenvalues --   -0.46442  -0.43447  -0.34475
 Alpha virt. eigenvalues --    0.03578   0.04215   0.04680   0.04807   0.06220
 Alpha virt. eigenvalues --    0.06679   0.07273   0.07418   0.08452   0.09400
 Alpha virt. eigenvalues --    0.10677   0.11073   0.12446   0.13276   0.15582

 Mulliken charges:
               1
     1  P    0.700104
     2  N   -0.128343
     3  O   -0.461162
     4  O   -0.482108
     5  C   -0.033068
     6  C    0.057691
     7  H   -0.140675
     8  H   -0.050621
     9  C    0.439054
    10  H   -0.103793
    11  H   -0.136679
    12  H   -0.078574
    13  H   -0.066973
    14  H   -0.077814
    15  H    0.204732
    16  H    0.236006
    17  H    0.122223
 Sum of Mulliken charges =   0.00000

 Dipole moment (field-independent basis, Debye):
    X=              0.8761    Y=              0.4326    Z=              0.5554  Tot=              1.1240

 Test job not archived.
 1\1\GINC-SE404\SP\RHF\Aug-CC-pVDZ\C3H10N1O2P1\OHZDE\08-Apr-2025\0\\#t
 hf aug-cc-pvdz iop(5/13=1,5/36=2,99/5=2) pseudo=read geom=check guess=
 (read,tcheck) scf=(maxcycle=1)\\title\\0,1\P,0,-0.585337,1.117281,-0.2
 33173\N,0,-1.26043,-0.480867,0.267462\O,0,-2.528978,-0.157469,0.847515
 \O,0,-1.513073,-1.212712,-0.923881\C,0,1.150736,0.558982,-0.570723\C,0
 ,1.902404,-0.133167,0.573042\H,0,1.686321,1.456512,-0.905012\H,0,1.085
 104,-0.098036,-1.444772\C,0,3.294499,-0.619722,0.156907\H,0,1.30426,-0
 .974795,0.930621\H,0,1.992715,0.56261,1.414813\H,0,3.231048,-1.346579,

 Normal termination of Gaussian 16 at Tue Apr  8 23:34:49 2025.
