 Gaussian 16, Revision C.01,

 ----------------------------------------------------------------------
 #t hf aug-cc-pvdz symm=none int=(grid=ultrafine) guess=(read,tcheck) s
 table=opt
 ----------------------------------------------------------------------
 -----
 title
 -----
 Symbolic Z-matrix:
 Charge =  0 Multiplicity = 2

 SCF Done:  E(UHF) =  -593.661181211     A.U. after   20 cycles
 Normal termination of Gaussian 16 at Wed Apr  9 00:08:28 2025.
 Gaussian 16:  ES64L-G16RevC.01  3-Jul-2019

 ----------------------------------------------------------------------
 #t hf aug-cc-pvdz iop(5/13=1,5/36=2,99/5=2) pseudo=read geom=check gue
 ss=(read,tcheck) scf=(maxcycle=1)
 ----------------------------------------------------------------------
 -----
 title
 -----
 Structure from the checkpoint file:  "BDE49_nonexpt_233_mol2.chk"
 Charge =  0 Multiplicity = 2

                         Standard orientation:
 ---------------------------------------------------------------------
 Center     Atomic      Atomic             Coordinates (Angstroms)
 Number     Number       Type             X           Y           Z
 ---------------------------------------------------------------------
      1         17           0        1.715478    0.001013   -0.000004
      2          5           0        0.015936   -0.002439    0.000013
      3          7           0       -1.238856    0.033851    0.000001
      4          7           0       -2.516534   -0.146873   -0.000002
      5          1           0       -2.955079    0.786124    0.000015
 ---------------------------------------------------------------------

 SCF Done:  E(UHF) =  -593.719432663     A.U. after    2 cycles

 The electronic state is 2-A.
 Alpha  occ. eigenvalues -- -103.70788 -15.69766 -15.66168 -10.74218  -8.39892
 Alpha  occ. eigenvalues --   -8.39714  -8.39657  -7.70355  -1.28593  -1.20039
 Alpha  occ. eigenvalues --   -1.00124  -0.73609  -0.65839  -0.61296  -0.59712
 Alpha  occ. eigenvalues --   -0.54203  -0.53915  -0.37578  -0.35763
 Alpha virt. eigenvalues --    0.03624   0.04396   0.04955   0.05591   0.07856
 Alpha virt. eigenvalues --    0.12855   0.13830   0.14106   0.16509   0.17877
 Alpha virt. eigenvalues --    0.18367   0.19118   0.19245   0.20069   0.22075

  Beta  occ. eigenvalues -- -103.70775 -15.67024 -15.66758 -10.74204  -8.39978
  Beta  occ. eigenvalues --   -8.39634  -8.39584  -7.69715  -1.24812  -1.19857
  Beta  occ. eigenvalues --   -0.95558  -0.71738  -0.65454  -0.58115  -0.54620
  Beta  occ. eigenvalues --   -0.53257  -0.49053  -0.36697
  Beta virt. eigenvalues --    0.03700   0.04461   0.04950   0.05623   0.07711
  Beta virt. eigenvalues --    0.07904   0.12846   0.14004   0.14170   0.16623
  Beta virt. eigenvalues --    0.18350   0.18438   0.19521   0.20015   0.22315

 Mulliken charges and spin densities:
               1          2
     1  Cl  -0.175031   0.003779
     2  B   -0.106049   0.341841
     3  N    0.013025  -0.271953
     4  N    0.169875   1.009174
     5  H    0.098180  -0.082840
 Sum of Mulliken charges =  -0.00000   1.00000

 Dipole moment (field-independent basis, Debye):
    X=              0.7654    Y=              1.3947    Z=              0.0001  Tot=              1.5909
                          Isotropic Fermi Contact Couplings
        Atom                 a.u.       MegaHertz       Gauss      10(-4) cm-1
     1  Cl(35)             0.00986       4.32477       1.54319       1.44259
     2  B(11)              0.04319      61.94870      22.10484      20.66386
     3  N(14)             -0.15491     -50.05111     -17.85948     -16.69525
     4  N(14)              0.25868      83.57972      29.82332      27.87919
     5  H(1)              -0.02443    -109.21628     -38.97108     -36.43063
 --------------------------------------------------------
       Center         ----  Spin Dipole Couplings  ----
                      3XX-RR        3YY-RR        3ZZ-RR

 Normal termination of Gaussian 16 at Wed Apr  9 00:08:30 2025.
