 Gaussian 16, Revision C.01,

 ----------------------------------------------------------------------
 #t hf aug-cc-pvdz symm=none int=(grid=ultrafine) guess=(read,tcheck) s
 table=opt
 ----------------------------------------------------------------------
 -----
 title
 -----
 Symbolic Z-matrix:
 Charge =  0 Multiplicity = 2

 SCF Done:  E(UHF) =  -474.072335989     A.U. after   15 cycles
 Normal termination of Gaussian 16 at Tue Apr  8 22:30:23 2025.
 Gaussian 16:  ES64L-G16RevC.01  3-Jul-2019

 ----------------------------------------------------------------------
 #t hf aug-cc-pvdz iop(5/13=1,5/36=2,99/5=2) pseudo=read geom=check gue
 ss=(read,tcheck) scf=(maxcycle=1)
 ----------------------------------------------------------------------
 -----
 title
 -----
 Structure from the checkpoint file:  "BDE49_expt_1054_mol3.chk"
 Charge =  0 Multiplicity = 2

                         Standard orientation:
 ---------------------------------------------------------------------
 Center     Atomic      Atomic             Coordinates (Angstroms)
 Number     Number       Type             X           Y           Z
 ---------------------------------------------------------------------
      1          6           0        0.713057    0.213507   -0.317986
      2          6           0       -0.696621   -0.310486   -0.334919
      3          9           0        0.998757    1.082946    0.640157
      4          9           0        1.648040   -0.729853   -0.419061
      5          9           0       -1.555417    0.723865   -0.525415
      6          9           0       -1.010489   -0.895514    0.864707
      7          1           0       -0.826627   -1.051125   -1.126065
 ---------------------------------------------------------------------

 SCF Done:  E(UHF) =  -474.243740612     A.U. after    2 cycles

 The electronic state is 2-A.
 Alpha  occ. eigenvalues --  -26.19128 -26.18794 -26.16871 -26.16471 -11.46757
 Alpha  occ. eigenvalues --  -11.46675  -1.76320  -1.73005  -1.71592  -1.68546
 Alpha  occ. eigenvalues --   -1.11372  -0.98666  -0.88595  -0.88285  -0.87113
 Alpha  occ. eigenvalues --   -0.83829  -0.83274  -0.79200  -0.78696  -0.75732
 Alpha  occ. eigenvalues --   -0.74670  -0.72377  -0.69954  -0.61417  -0.47835
 Alpha virt. eigenvalues --    0.03463   0.07134   0.08567   0.08707   0.11641
 Alpha virt. eigenvalues --    0.11806   0.11952   0.15595   0.20260   0.21422
 Alpha virt. eigenvalues --    0.22860   0.24892   0.25237   0.28130   0.29693

  Beta  occ. eigenvalues --  -26.18673 -26.18342 -26.16887 -26.16227 -11.46696
  Beta  occ. eigenvalues --  -11.43864  -1.74840  -1.72697  -1.70388  -1.68098
  Beta  occ. eigenvalues --   -1.08260  -0.96757  -0.87836  -0.87455  -0.84064
  Beta  occ. eigenvalues --   -0.83260  -0.79808  -0.78492  -0.75487  -0.74960
  Beta  occ. eigenvalues --   -0.74091  -0.72206  -0.68911  -0.60013
  Beta virt. eigenvalues --    0.03209   0.05361   0.07925   0.08783   0.10514
  Beta virt. eigenvalues --    0.11713   0.11882   0.12161   0.16316   0.21019
  Beta virt. eigenvalues --    0.21732   0.22944   0.25742   0.28140   0.28685

 Mulliken charges and spin densities:
               1          2
     1  C    0.492948   1.010290
     2  C    0.937997  -0.069405
     3  F   -0.302553   0.022028
     4  F   -0.310126   0.020876
     5  F   -0.328896  -0.005732
     6  F   -0.354790   0.023572
     7  H   -0.134581  -0.001629
 Sum of Mulliken charges =  -0.00000   1.00000

 Dipole moment (field-independent basis, Debye):
    X=             -0.0215    Y=             -0.9167    Z=             -2.1046  Tot=              2.2957
                          Isotropic Fermi Contact Couplings
        Atom                 a.u.       MegaHertz       Gauss      10(-4) cm-1
     1  C(13)              0.46438     522.05323     186.28158     174.13821
     2  C(13)              0.01907      21.43611       7.64894       7.15032
     3  F(19)              0.06789     285.63357     101.92116      95.27710
     4  F(19)              0.06793     285.80221     101.98134      95.33336
     5  F(19)             -0.00257     -10.80238      -3.85456      -3.60329
     6  F(19)              0.03649     153.51834      54.77916      51.20821
     7  H(1)              -0.00065      -2.90349      -1.03604      -0.96850
 --------------------------------------------------------

 Normal termination of Gaussian 16 at Tue Apr  8 22:30:26 2025.
