 Gaussian 16, Revision C.01,

 ----------------------------------------------------------------------
 #t hf aug-cc-pvdz symm=none int=(grid=ultrafine) guess=(read,tcheck) s
 table=(opt,rrhf)
 ----------------------------------------------------------------------
 -----
 title
 -----
 Symbolic Z-matrix:
 Charge =  0 Multiplicity = 1

 SCF Done:  E(RHF) =  -748.509357718     A.U. after   12 cycles
 Normal termination of Gaussian 16 at Tue Apr  8 23:40:26 2025.
 Gaussian 16:  ES64L-G16RevC.01  3-Jul-2019

 ----------------------------------------------------------------------
 #t hf aug-cc-pvdz iop(5/13=1,5/36=2,99/5=2) pseudo=read geom=check gue
 ss=(read,tcheck) scf=(maxcycle=1)
 ----------------------------------------------------------------------
 -----
 title
 -----
 Structure from the checkpoint file:  "BDE49_nonexpt_1656_mol1.chk"
 Charge =  0 Multiplicity = 1

                         Standard orientation:
 ---------------------------------------------------------------------
 Center     Atomic      Atomic             Coordinates (Angstroms)
 Number     Number       Type             X           Y           Z
 ---------------------------------------------------------------------
      1         15           0       -1.988844   -0.000000   -0.455462
      2         14           0       -0.042701   -0.000000    0.739758
      3          6           0        1.240948   -1.207166    0.036148
      4          6           0        1.240948    1.207166    0.036148
      5          6           0        1.821617    0.000000   -0.775965
      6          1           0        1.937661    1.539547    0.811239
      7          1           0        0.941118    2.075908   -0.550284
      8          1           0        1.411863    0.000000   -1.788979
      9          1           0        2.911462    0.000000   -0.864461
     10          1           0        0.941118   -2.075908   -0.550284
     11          1           0        1.937661   -1.539547    0.811239
     12          1           0       -2.587178    1.035596    0.311679
     13          1           0       -2.587178   -1.035595    0.311679
     14          1           0       -0.297129   -0.000000    2.205505
 ---------------------------------------------------------------------

 SCF Done:  E(RHF) =  -748.586842800     A.U. after    2 cycles

 The electronic state is 1-A.
 Alpha  occ. eigenvalues --  -81.24519 -69.06787 -11.24171 -11.21785 -11.21784
 Alpha  occ. eigenvalues --   -7.75050  -6.81982  -4.88988  -4.88936  -4.88689
 Alpha  occ. eigenvalues --   -3.92750  -3.92682  -3.92618  -1.05606  -0.89389
 Alpha  occ. eigenvalues --   -0.81334  -0.78400  -0.65684  -0.62974  -0.58019
 Alpha  occ. eigenvalues --   -0.54687  -0.51708  -0.48873  -0.47810  -0.44975
 Alpha  occ. eigenvalues --   -0.41519  -0.38789  -0.34901
 Alpha virt. eigenvalues --    0.03233   0.04681   0.04701   0.04954   0.06560
 Alpha virt. eigenvalues --    0.06757   0.06822   0.07418   0.07641   0.09648
 Alpha virt. eigenvalues --    0.10460   0.10815   0.11214   0.12408   0.12448

 Mulliken charges:
               1
     1  P   -0.535570
     2  Si   0.487000
     3  C    0.421718
     4  C    0.421718
     5  C    0.191372
     6  H   -0.255620
     7  H   -0.255313
     8  H   -0.205668
     9  H   -0.150054
    10  H   -0.255313
    11  H   -0.255620
    12  H    0.157299
    13  H    0.157299
    14  H    0.076751
 Sum of Mulliken charges =  -0.00000

 Dipole moment (field-independent basis, Debye):
    X=              0.5779    Y=             -0.0000    Z=              0.6070  Tot=              0.8381

 Test job not archived.
 1\1\GINC-SE253\SP\RHF\Aug-CC-pVDZ\C3H9P1Si1\OHZDE\08-Apr-2025\0\\#t hf
  aug-cc-pvdz iop(5/13=1,5/36=2,99/5=2) pseudo=read geom=check guess=(r
 ead,tcheck) scf=(maxcycle=1)\\title\\0,1\P,0,1.988844,0.,-0.455462\Si,
 0,0.042701,0.,0.739758\C,0,-1.240948,1.207166,0.036148\C,0,-1.240948,-
 1.207166,0.036148\C,0,-1.821617,0.,-0.775965\H,0,-1.937661,-1.539547,0
 .811239\H,0,-0.941118,-2.075908,-0.550284\H,0,-1.411863,0.,-1.788979\H
 ,0,-2.911462,0.,-0.864461\H,0,-0.941118,2.075908,-0.550284\H,0,-1.9376
 61,1.539547,0.811239\H,0,2.587178,-1.035596,0.311679\H,0,2.587178,1.03

 Normal termination of Gaussian 16 at Tue Apr  8 23:40:31 2025.
