 Gaussian 16, Revision C.01,

 ----------------------------------------------------------------------
 #t hf aug-cc-pvdz symm=none int=(grid=ultrafine) guess=(read,tcheck) s
 table=(opt,rrhf)
 ----------------------------------------------------------------------
 -----
 title
 -----
 Symbolic Z-matrix:
 Charge =  0 Multiplicity = 1

 SCF Done:  E(RHF) =  -809.195084098     A.U. after   13 cycles
 Normal termination of Gaussian 16 at Tue Apr  8 23:21:54 2025.
 Gaussian 16:  ES64L-G16RevC.01  3-Jul-2019

 ----------------------------------------------------------------------
 #t hf aug-cc-pvdz iop(5/13=1,5/36=2,99/5=2) pseudo=read geom=check gue
 ss=(read,tcheck) scf=(maxcycle=1)
 ----------------------------------------------------------------------
 -----
 title
 -----
 Structure from the checkpoint file:  "BDE49_nonexpt_1232_mol1.chk"
 Charge =  0 Multiplicity = 1

                         Standard orientation:
 ---------------------------------------------------------------------
 Center     Atomic      Atomic             Coordinates (Angstroms)
 Number     Number       Type             X           Y           Z
 ---------------------------------------------------------------------
      1         16           0        1.883925   -0.082150    0.019608
      2          8           0        0.371601   -0.220475   -0.775873
      3          6           0       -0.741373   -0.004500   -0.014655
      4          9           0       -1.791555   -0.176326   -0.814056
      5          9           0       -0.781902    1.241794    0.486500
      6          9           0       -0.838695   -0.858110    1.013851
      7          1           0        2.042002    1.238981   -0.195483
 ---------------------------------------------------------------------

 SCF Done:  E(RHF) =  -809.368090762     A.U. after    2 cycles

 The electronic state is 1-A.
 Alpha  occ. eigenvalues --  -93.63217 -26.18180 -26.18162 -26.18066 -20.66694
 Alpha  occ. eigenvalues --  -11.59281  -8.92288  -6.26507  -6.26137  -6.25746
 Alpha  occ. eigenvalues --   -1.78493  -1.71141  -1.70867  -1.41870  -1.05372
 Alpha  occ. eigenvalues --   -0.97970  -0.90847  -0.90495  -0.85712  -0.79293
 Alpha  occ. eigenvalues --   -0.79167  -0.74595  -0.74462  -0.73272  -0.70556
 Alpha  occ. eigenvalues --   -0.65636  -0.62099  -0.52006  -0.41522
 Alpha virt. eigenvalues --    0.03433   0.05334   0.08817   0.09128   0.10136
 Alpha virt. eigenvalues --    0.11405   0.12144   0.14826   0.15461   0.17100
 Alpha virt. eigenvalues --    0.19931   0.21728   0.25562   0.26201   0.26667

 Mulliken charges:
               1
     1  S    0.442317
     2  O   -0.797509
     3  C    1.057803
     4  F   -0.237487
     5  F   -0.289801
     6  F   -0.273813
     7  H    0.098489
 Sum of Mulliken charges =  -0.00000

 Dipole moment (field-independent basis, Debye):
    X=              2.2291    Y=              0.9369    Z=              0.1895  Tot=              2.4254

 Test job not archived.
 1\1\GINC-SE044\SP\RHF\Aug-CC-pVDZ\C1H1F3O1S1\OHZDE\08-Apr-2025\0\\#t h
 f aug-cc-pvdz iop(5/13=1,5/36=2,99/5=2) pseudo=read geom=check guess=(
 read,tcheck) scf=(maxcycle=1)\\title\\0,1\S,0,1.883925,-0.082151,0.019
 608\O,0,0.371601,-0.220475,-0.775873\C,0,-0.741373,-0.0045,-0.014655\F
 ,0,-1.791555,-0.176326,-0.814056\F,0,-0.781902,1.241794,0.4865\F,0,-0.
 838695,-0.85811,1.013851\H,0,2.042002,1.23898,-0.195483\\Version=ES64L
 -G16RevC.01\State=1-A\HF=-809.3680908\RMSD=6.115e-03\Dipole=0.8769904,
 0.3686188,0.0745737\Quadrupole=1.9485777,0.3222613,-2.270839,1.8462185

 Normal termination of Gaussian 16 at Tue Apr  8 23:21:56 2025.
