 Gaussian 16, Revision C.01,

 ----------------------------------------------------------------------
 #t hf aug-cc-pvdz symm=none int=(grid=ultrafine) guess=(read,tcheck) s
 table=opt
 ----------------------------------------------------------------------
 -----
 title
 -----
 Symbolic Z-matrix:
 Charge =  0 Multiplicity = 2

 SCF Done:  E(UHF) =  -706.000989570     A.U. after   18 cycles
 Normal termination of Gaussian 16 at Tue Apr  8 23:04:31 2025.
 Gaussian 16:  ES64L-G16RevC.01  3-Jul-2019

 ----------------------------------------------------------------------
 #t hf aug-cc-pvdz iop(5/13=1,5/36=2,99/5=2) pseudo=read geom=check gue
 ss=(read,tcheck) scf=(maxcycle=1)
 ----------------------------------------------------------------------
 -----
 title
 -----
 Structure from the checkpoint file:  "BDE49_expt_387_mol2.chk"
 Charge =  0 Multiplicity = 2

                         Standard orientation:
 ---------------------------------------------------------------------
 Center     Atomic      Atomic             Coordinates (Angstroms)
 Number     Number       Type             X           Y           Z
 ---------------------------------------------------------------------
      1          8           0       -0.626423    1.280720   -0.201772
      2          6           0       -2.032608    1.206341    0.031289
      3          6           0       -2.306057   -0.128118    0.727513
      4          1           0       -2.566237    1.256661   -0.924580
      5          1           0       -2.300119    2.064989    0.647916
      6         16           0       -1.159678   -1.290037   -0.111522
      7          1           0       -3.335410   -0.459395    0.594032
      8          1           0       -2.066695   -0.085642    1.791012
      9          6           0       -0.160899    0.083411   -0.699248
     10          6           0        1.326019   -0.018655   -0.808105
     11          6           0        2.082220    0.089398    0.535125
     12          1           0        1.669787    0.779269   -1.477826
     13          1           0        1.576017   -0.965991   -1.297489
     14          6           0        3.600956    0.016449    0.363145
     15          1           0        1.741578   -0.712912    1.197711
     16          1           0        1.804228    1.032325    1.015238
     17          1           0        3.904436   -0.930813   -0.093968
     18          1           0        4.113612    0.098432    1.325517
     19          1           0        3.967252    0.824963   -0.277365
 ---------------------------------------------------------------------

 SCF Done:  E(UHF) =  -706.117159170     A.U. after    2 cycles

 The electronic state is 2-A.
 Alpha  occ. eigenvalues --  -93.53450 -20.59996 -11.31391 -11.30746 -11.27857
 Alpha  occ. eigenvalues --  -11.23665 -11.22826 -11.22227  -8.83235  -6.17342
 Alpha  occ. eigenvalues --   -6.17179  -6.16926  -1.37689  -1.07510  -1.06009
 Alpha  occ. eigenvalues --   -1.00653  -0.92115  -0.83909  -0.82205  -0.76615
 Alpha  occ. eigenvalues --   -0.69823  -0.67778  -0.64071  -0.61908  -0.59589
 Alpha  occ. eigenvalues --   -0.57050  -0.56201  -0.53769  -0.52444  -0.50330
 Alpha  occ. eigenvalues --   -0.48400  -0.48153  -0.46816  -0.45191  -0.39798
 Alpha  occ. eigenvalues --   -0.29231
 Alpha virt. eigenvalues --    0.03467   0.04128   0.04685   0.05101   0.05819
 Alpha virt. eigenvalues --    0.05921   0.06185   0.07335   0.08220   0.08408
 Alpha virt. eigenvalues --    0.09026   0.10065   0.12015   0.12205   0.13128

  Beta  occ. eigenvalues --  -93.53400 -20.59572 -11.30757 -11.28747 -11.27858
  Beta  occ. eigenvalues --  -11.23848 -11.22625 -11.22222  -8.83172  -6.17366
  Beta  occ. eigenvalues --   -6.17200  -6.16632  -1.36184  -1.06192  -1.05642
  Beta  occ. eigenvalues --   -0.98873  -0.91930  -0.83363  -0.81234  -0.74570
  Beta  occ. eigenvalues --   -0.68028  -0.67356  -0.63339  -0.59631  -0.58352
  Beta  occ. eigenvalues --   -0.56475  -0.54715  -0.53135  -0.51080  -0.48968
  Beta  occ. eigenvalues --   -0.47915  -0.47173  -0.46531  -0.44346  -0.35510
  Beta virt. eigenvalues --    0.03464   0.04132   0.04699   0.05107   0.05820
  Beta virt. eigenvalues --    0.05908   0.06149   0.07341   0.08230   0.08419
  Beta virt. eigenvalues --    0.09032   0.10006   0.11707   0.12246   0.12753

 Mulliken charges and spin densities:
               1          2
     1  O   -0.698104   0.037576
     2  C    0.814215  -0.018636
     3  C   -0.159728   0.001924
     4  H   -0.130567  -0.006979
     5  H   -0.245274   0.000646
     6  S    0.357720  -0.006198
     7  H   -0.061122   0.002331
     8  H   -0.123916  -0.003137
     9  C   -0.032687   1.120627
    10  C    0.287392  -0.176245
    11  C    0.170039   0.052384
    12  H   -0.051039   0.003162
    13  H   -0.100557   0.002179
    14  C    0.428988  -0.000049
    15  H   -0.144853  -0.008128
    16  H   -0.114649  -0.003150
    17  H   -0.071093   0.000453
    18  H   -0.051407   0.000879
    19  H   -0.073358   0.000360
 Sum of Mulliken charges =  -0.00000   1.00000

 Dipole moment (field-independent basis, Debye):
    X=             -1.1790    Y=              0.6764    Z=              0.8143  Tot=              1.5845
                          Isotropic Fermi Contact Couplings
        Atom                 a.u.       MegaHertz       Gauss      10(-4) cm-1
     1  O(17)              0.04162     -25.22983      -9.00263      -8.41577
     2  C(13)             -0.00203      -2.27700      -0.81249      -0.75953
     3  C(13)             -0.00108      -1.21211      -0.43251      -0.40432
     4  H(1)               0.00005       0.22611       0.08068       0.07542
     5  H(1)              -0.00070      -3.11717      -1.11228      -1.03978
     6  S(33)              0.05912      20.30741       7.24619       6.77382
     7  H(1)              -0.00069      -3.07640      -1.09774      -1.02618
     8  H(1)               0.00114       5.10689       1.82226       1.70347

 Normal termination of Gaussian 16 at Tue Apr  8 23:04:41 2025.
