 Gaussian 16, Revision C.01,

 ----------------------------------------------------------------------
 #t hf aug-cc-pvdz symm=none int=(grid=ultrafine) guess=(read,tcheck) s
 table=(opt,rrhf)
 ----------------------------------------------------------------------
 -----
 title
 -----
 Symbolic Z-matrix:
 Charge =  0 Multiplicity = 1

 SCF Done:  E(RHF) =  -403.972547794     A.U. after   12 cycles
 Normal termination of Gaussian 16 at Tue Apr  8 23:56:18 2025.
 Gaussian 16:  ES64L-G16RevC.01  3-Jul-2019

 ----------------------------------------------------------------------
 #t hf aug-cc-pvdz iop(5/13=1,5/36=2,99/5=2) pseudo=read geom=check gue
 ss=(read,tcheck) scf=(maxcycle=1)
 ----------------------------------------------------------------------
 -----
 title
 -----
 Structure from the checkpoint file:  "BDE49_nonexpt_2039_mol1.chk"
 Charge =  0 Multiplicity = 1

                         Standard orientation:
 ---------------------------------------------------------------------
 Center     Atomic      Atomic             Coordinates (Angstroms)
 Number     Number       Type             X           Y           Z
 ---------------------------------------------------------------------
      1         14           0       -1.061441   -0.066382    0.000005
      2          6           0        0.798917    0.452849   -0.000006
      3          8           0        1.700897   -0.352410   -0.000011
      4          1           0        1.037099    1.546466    0.000032
      5          1           0       -1.159494   -1.538985   -0.000038
      6          1           0       -1.709072    0.512060   -1.201725
      7          1           0       -1.709038    0.511987    1.201788
 ---------------------------------------------------------------------

 SCF Done:  E(RHF) =  -404.031992700     A.U. after    2 cycles

 The electronic state is 1-A.
 Alpha  occ. eigenvalues --  -69.08564 -20.59222 -11.34255  -6.83942  -3.94720
 Alpha  occ. eigenvalues --   -3.94696  -3.94694  -1.36830  -0.85283  -0.72942
 Alpha  occ. eigenvalues --   -0.67387  -0.60643  -0.55706  -0.50190  -0.49690
 Alpha  occ. eigenvalues --   -0.40999
 Alpha virt. eigenvalues --    0.03156   0.04427   0.05618   0.05825   0.07215
 Alpha virt. eigenvalues --    0.07360   0.08789   0.08794   0.11705   0.13727
 Alpha virt. eigenvalues --    0.14983   0.15512   0.16905   0.17824   0.18885

 Mulliken charges:
               1
     1  Si   0.638216
     2  C    0.199374
     3  O   -0.432428
     4  H   -0.148976
     5  H   -0.049905
     6  H   -0.103140
     7  H   -0.103141
 Sum of Mulliken charges =  -0.00000

 Dipole moment (field-independent basis, Debye):
    X=             -2.3538    Y=              1.6625    Z=              0.0000  Tot=              2.8818

 Test job not archived.
 1\1\GINC-SE454\SP\RHF\Aug-CC-pVDZ\C1H4O1Si1\OHZDE\08-Apr-2025\0\\#t hf
  aug-cc-pvdz iop(5/13=1,5/36=2,99/5=2) pseudo=read geom=check guess=(r
 ead,tcheck) scf=(maxcycle=1)\\title\\0,1\Si,0,-1.061441,-0.066382,0.00
 0005\C,0,0.798917,0.452849,-0.000006\O,0,1.700897,-0.35241,-0.000011\H
 ,0,1.037099,1.546466,0.000032\H,0,-1.159494,-1.538985,-0.000038\H,0,-1
 .709072,0.51206,-1.201725\H,0,-1.709038,0.511987,1.201788\\Version=ES6
 4L-G16RevC.01\State=1-A\HF=-404.0319927\RMSD=4.871e-03\Dipole=-0.92606
 53,0.6540953,0.0000136\Quadrupole=-2.77435,1.4781564,1.2961936,2.04260

 Normal termination of Gaussian 16 at Tue Apr  8 23:56:20 2025.
