 Gaussian 16, Revision C.01,

 ----------------------------------------------------------------------
 #t hf aug-cc-pvdz symm=none int=(grid=ultrafine) guess=(read,tcheck) s
 table=opt
 ----------------------------------------------------------------------
 -----
 title
 -----
 Symbolic Z-matrix:
 Charge =  0 Multiplicity = 2

 SCF Done:  E(UHF) =  -572.949313139     A.U. after   15 cycles
 Normal termination of Gaussian 16 at Tue Apr  8 22:28:24 2025.
 Gaussian 16:  ES64L-G16RevC.01  3-Jul-2019

 ----------------------------------------------------------------------
 #t hf aug-cc-pvdz iop(5/13=1,5/36=2,99/5=2) pseudo=read geom=check gue
 ss=(read,tcheck) scf=(maxcycle=1)
 ----------------------------------------------------------------------
 -----
 title
 -----
 Structure from the checkpoint file:  "BDE49_expt_1020_mol2.chk"
 Charge =  0 Multiplicity = 2

                         Standard orientation:
 ---------------------------------------------------------------------
 Center     Atomic      Atomic             Coordinates (Angstroms)
 Number     Number       Type             X           Y           Z
 ---------------------------------------------------------------------
      1          6           0       -0.522366    0.782287    0.000000
      2          6           0        0.097565   -0.600772   -0.000000
      3          9           0       -0.290612    1.484686    1.098239
      4          9           0       -0.290612    1.484686   -1.098239
      5          9           0       -0.290612   -1.270879    1.090895
      6          9           0        1.445648   -0.548624   -0.000000
      7          9           0       -0.290612   -1.270879   -1.090895
 ---------------------------------------------------------------------

 SCF Done:  E(UHF) =  -573.158536758     A.U. after    2 cycles

 The electronic state is 2-A'.
 Alpha  occ. eigenvalues --  -26.20405 -26.20396 -26.19840 -26.19831 -26.19454
 Alpha  occ. eigenvalues --  -11.56986 -11.48804  -1.79697  -1.77531  -1.73336
 Alpha  occ. eigenvalues --   -1.72345  -1.72139  -1.13376  -1.01758  -0.93104
 Alpha  occ. eigenvalues --   -0.92155  -0.91914  -0.87973  -0.87027  -0.81740
 Alpha  occ. eigenvalues --   -0.80322  -0.80062  -0.79946  -0.76666  -0.75720
 Alpha  occ. eigenvalues --   -0.75408  -0.74670  -0.67841  -0.49724
 Alpha virt. eigenvalues --    0.06866   0.07888   0.08714   0.08731   0.11768
 Alpha virt. eigenvalues --    0.11859   0.12354   0.20119   0.21026   0.21849
 Alpha virt. eigenvalues --    0.23839   0.26262   0.27974   0.28746   0.29671

  Beta  occ. eigenvalues --  -26.19946 -26.19936 -26.19865 -26.19855 -26.19248
  Beta  occ. eigenvalues --  -11.56972 -11.45900  -1.79434  -1.76139  -1.72766
  Beta  occ. eigenvalues --   -1.71756  -1.71697  -1.10541  -0.99819  -0.92313
  Beta  occ. eigenvalues --   -0.91985  -0.90829  -0.87185  -0.81682  -0.81198
  Beta  occ. eigenvalues --   -0.80154  -0.79029  -0.76948  -0.75787  -0.75574
  Beta  occ. eigenvalues --   -0.75231  -0.74520  -0.65652
  Beta virt. eigenvalues --    0.04179   0.07671   0.08213   0.08818   0.10082
  Beta virt. eigenvalues --    0.11837   0.11895   0.13059   0.20956   0.21146
  Beta virt. eigenvalues --    0.21917   0.24778   0.28071   0.28910   0.29321

 Mulliken charges and spin densities:
               1          2
     1  C    0.437215   0.998211
     2  C    0.983819  -0.054076
     3  F   -0.294863   0.023272
     4  F   -0.294863   0.023272
     5  F   -0.271082  -0.004327
     6  F   -0.289144   0.017975
     7  F   -0.271082  -0.004327
 Sum of Mulliken charges =  -0.00000   1.00000

 Dipole moment (field-independent basis, Debye):
    X=             -0.7973    Y=              0.1484    Z=             -0.0000  Tot=              0.8110
                          Isotropic Fermi Contact Couplings
        Atom                 a.u.       MegaHertz       Gauss      10(-4) cm-1
     1  C(13)              0.48338     543.41364     193.90350     181.26328
     2  C(13)              0.00938      10.54440       3.76250       3.51723
     3  F(19)              0.06862     288.71197     103.01961      96.30395
     4  F(19)              0.06862     288.71197     103.01961      96.30395
     5  F(19)             -0.00530     -22.28846      -7.95308      -7.43463
     6  F(19)              0.03140     132.11716      47.14269      44.06954
     7  F(19)             -0.00530     -22.28846      -7.95308      -7.43463
 --------------------------------------------------------

 Normal termination of Gaussian 16 at Tue Apr  8 22:28:27 2025.
