 Gaussian 16, Revision C.01,

 ----------------------------------------------------------------------
 #t hf aug-cc-pvdz symm=none int=(grid=ultrafine) guess=(read,tcheck) s
 table=opt
 ----------------------------------------------------------------------
 -----
 title
 -----
 Symbolic Z-matrix:
 Charge =  0 Multiplicity = 2

 SCF Done:  E(UHF) =  -516.699544533     A.U. after   16 cycles
 Normal termination of Gaussian 16 at Tue Apr  8 23:59:01 2025.
 Gaussian 16:  ES64L-G16RevC.01  3-Jul-2019

 ----------------------------------------------------------------------
 #t hf aug-cc-pvdz iop(5/13=1,5/36=2,99/5=2) pseudo=read geom=check gue
 ss=(read,tcheck) scf=(maxcycle=1)
 ----------------------------------------------------------------------
 -----
 title
 -----
 Structure from the checkpoint file:  "BDE49_nonexpt_2087_mol2.chk"
 Charge =  0 Multiplicity = 2

                         Standard orientation:
 ---------------------------------------------------------------------
 Center     Atomic      Atomic             Coordinates (Angstroms)
 Number     Number       Type             X           Y           Z
 ---------------------------------------------------------------------
      1          7           0       -0.433017    1.352491    0.085396
      2          7           0       -0.433017   -1.352491    0.085396
      3          6           0        1.000682    1.278908   -0.211743
      4          6           0        1.617894    0.000000    0.362184
      5          6           0        1.000682   -1.278908   -0.211743
      6         14           0       -1.507624    0.000000   -0.091897
      7          1           0       -0.816699    2.279478   -0.033831
      8          1           0       -0.816699   -2.279478   -0.033831
      9          1           0        1.204661   -1.322371   -1.294145
     10          1           0        1.497369   -2.146101    0.236534
     11          1           0        1.488984    0.000000    1.448973
     12          1           0        2.692304    0.000000    0.150625
     13          1           0        1.497369    2.146101    0.236534
     14          1           0        1.204661    1.322371   -1.294146
     15          1           0       -2.498538    0.000000    1.042126
 ---------------------------------------------------------------------

 SCF Done:  E(UHF) =  -516.799464876     A.U. after    2 cycles

 The electronic state is 2-A.
 Alpha  occ. eigenvalues --  -69.07790 -15.59686 -15.59682 -11.26620 -11.26615
 Alpha  occ. eigenvalues --  -11.23097  -6.82658  -3.93794  -3.93292  -3.93096
 Alpha  occ. eigenvalues --   -1.16388  -1.11787  -1.00472  -0.87897  -0.79673
 Alpha  occ. eigenvalues --   -0.71150  -0.66397  -0.61286  -0.60985  -0.58947
 Alpha  occ. eigenvalues --   -0.56454  -0.52663  -0.50901  -0.48288  -0.45822
 Alpha  occ. eigenvalues --   -0.42685  -0.37751  -0.27510
 Alpha virt. eigenvalues --    0.03295   0.03935   0.04435   0.04753   0.06288
 Alpha virt. eigenvalues --    0.06560   0.07296   0.07377   0.08323   0.09082
 Alpha virt. eigenvalues --    0.09545   0.10464   0.13975   0.14051   0.14249

  Beta  occ. eigenvalues --  -69.07356 -15.59244 -15.59241 -11.26658 -11.26653
  Beta  occ. eigenvalues --  -11.23091  -6.81966  -3.93034  -3.92921  -3.92102
  Beta  occ. eigenvalues --   -1.15618  -1.10819  -1.00038  -0.87630  -0.79391
  Beta  occ. eigenvalues --   -0.70511  -0.65445  -0.61006  -0.59763  -0.58449
  Beta  occ. eigenvalues --   -0.55967  -0.51991  -0.50095  -0.46219  -0.45637
  Beta  occ. eigenvalues --   -0.38697  -0.35026
  Beta virt. eigenvalues --    0.03123   0.03977   0.04095   0.04662   0.06418
  Beta virt. eigenvalues --    0.06468   0.07339   0.07383   0.07505   0.09117
  Beta virt. eigenvalues --    0.09639   0.09928   0.11094   0.14104   0.14120

 Mulliken charges and spin densities:
               1          2
     1  N   -0.536696   0.048960
     2  N   -0.536697   0.048960
     3  C    0.790635  -0.030613
     4  C   -0.111212   0.001520
     5  C    0.790638  -0.030613
     6  Si   0.504300   0.824072
     7  H   -0.165030  -0.012446
     8  H   -0.165030  -0.012446
     9  H   -0.113981   0.000101
    10  H   -0.168559   0.005332
    11  H   -0.108658   0.000485
    12  H   -0.029368   0.000152
    13  H   -0.168559   0.005332
    14  H   -0.113979   0.000101
    15  H    0.132197   0.151102
 Sum of Mulliken charges =  -0.00000   1.00000

 Dipole moment (field-independent basis, Debye):
    X=              1.2981    Y=             -0.0000    Z=             -0.7086  Tot=              1.4789
                          Isotropic Fermi Contact Couplings
        Atom                 a.u.       MegaHertz       Gauss      10(-4) cm-1
     1  N(14)              0.04997      16.14393       5.76056       5.38504
     2  N(14)              0.04997      16.14394       5.76056       5.38504
     3  C(13)             -0.00664      -7.46603      -2.66407      -2.49040
     4  C(13)              0.00152       1.70864       0.60969       0.56994
     5  C(13)             -0.00664      -7.46603      -2.66406      -2.49040
     6  Si(29)             0.52574    -467.23605    -166.72144    -155.85317
     7  H(1)              -0.00229     -10.25505      -3.65926      -3.42072
     8  H(1)              -0.00229     -10.25505      -3.65926      -3.42072

 Normal termination of Gaussian 16 at Tue Apr  8 23:59:06 2025.
