 Gaussian 16, Revision C.01,

 ----------------------------------------------------------------------
 #t hf aug-cc-pvdz symm=none int=(grid=ultrafine) guess=(read,tcheck) s
 table=(opt,rrhf)
 ----------------------------------------------------------------------
 -----
 title
 -----
 Symbolic Z-matrix:
 Charge =  0 Multiplicity = 1

 SCF Done:  E(RHF) =  -499.989856269     A.U. after   15 cycles
 Normal termination of Gaussian 16 at Wed Apr  9 00:38:55 2025.
 Gaussian 16:  ES64L-G16RevC.01  3-Jul-2019

 ----------------------------------------------------------------------
 #t hf aug-cc-pvdz iop(5/13=1,5/36=2,99/5=2) pseudo=read geom=check gue
 ss=(read,tcheck) scf=(maxcycle=1)
 ----------------------------------------------------------------------
 -----
 title
 -----
 Structure from the checkpoint file:  "BDE49_nonexpt_599_mol1.chk"
 Charge =  0 Multiplicity = 1

                         Standard orientation:
 ---------------------------------------------------------------------
 Center     Atomic      Atomic             Coordinates (Angstroms)
 Number     Number       Type             X           Y           Z
 ---------------------------------------------------------------------
      1          6           0        1.823443   -1.780376   -0.205068
      2          6           0        0.522192   -1.311159   -0.362351
      3          6           0        2.856288   -0.891373    0.070441
      4          6           0        2.569891    0.467747    0.183174
      5          6           0        1.272524    0.962184    0.049391
      6          6           0        0.225134    0.052891   -0.220178
      7          1           0        2.026922   -2.839064   -0.321312
      8          1           0       -0.265038   -1.999260   -0.648359
      9          5           0       -2.319945   -0.115542    0.032113
     10          8           0       -2.402566   -1.309253    0.705860
     11          8           0       -3.479275    0.543816   -0.288697
     12          1           0        3.373124    1.167270    0.392170
     13          1           0        3.873483   -1.246145    0.187317
     14          6           0        0.988142    2.435894    0.198805
     15          1           0        1.887140    2.976566    0.498145
     16          1           0        0.214720    2.619958    0.951461
     17          1           0        0.638382    2.884600   -0.739320
     18          1           0       -4.250183    0.080164    0.049738
     19          1           0       -1.550007   -1.649433    0.992762
     20          7           0       -1.093786    0.517623   -0.352391
     21          1           0       -1.183272    1.468336   -0.679026
 ---------------------------------------------------------------------

 SCF Done:  E(RHF) =  -500.147540311     A.U. after    2 cycles

 The electronic state is 1-A.
 Alpha  occ. eigenvalues --  -20.57926 -20.57284 -15.62233 -11.29363 -11.25106
 Alpha  occ. eigenvalues --  -11.24863 -11.24702 -11.24277 -11.24178 -11.23904
 Alpha  occ. eigenvalues --   -7.67021  -1.34203  -1.30426  -1.19760  -1.12066
 Alpha  occ. eigenvalues --   -1.04285  -0.99252  -0.93564  -0.83727  -0.81219
 Alpha  occ. eigenvalues --   -0.77674  -0.74838  -0.70696  -0.69156  -0.65079
 Alpha  occ. eigenvalues --   -0.63639  -0.60621  -0.59594  -0.58622  -0.57998
 Alpha  occ. eigenvalues --   -0.57606  -0.56639  -0.55256  -0.52316  -0.51281
 Alpha  occ. eigenvalues --   -0.50648  -0.49434  -0.44083  -0.34029  -0.30659
 Alpha virt. eigenvalues --    0.03102   0.03640   0.03787   0.04952   0.05352
 Alpha virt. eigenvalues --    0.05763   0.06833   0.07329   0.07570   0.08128
 Alpha virt. eigenvalues --    0.08622   0.09380   0.10260   0.10408   0.11581

 Mulliken charges:
               1
     1  C    0.238953
     2  C    0.934374
     3  C    0.460023
     4  C    0.975235
     5  C   -0.255459
     6  C    0.042500
     7  H   -0.455168
     8  H   -0.704687
     9  B    0.717392
    10  O   -0.528015
    11  O   -0.511646
    12  H   -0.560824
    13  H   -0.463618
    14  C    0.403462
    15  H   -0.250410
    16  H    0.083467
    17  H    0.081498
    18  H    0.204855
    19  H    0.218977
    20  N   -0.526047
    21  H   -0.104863
 Sum of Mulliken charges =  -0.00000

 Dipole moment (field-independent basis, Debye):
    X=              1.1218    Y=              0.2703    Z=              0.5254  Tot=              1.2679

 Test job not archived.
 1\1\GINC-SE072\SP\RHF\Aug-CC-pVDZ\C7H10B1N1O2\OHZDE\09-Apr-2025\0\\#t
 hf aug-cc-pvdz iop(5/13=1,5/36=2,99/5=2) pseudo=read geom=check guess=
 (read,tcheck) scf=(maxcycle=1)\\title\\0,1\C,0,1.823443,-1.780376,-0.2
 05068\C,0,0.522192,-1.311159,-0.362351\C,0,2.856288,-0.891373,0.070441
 \C,0,2.569891,0.467747,0.183174\C,0,1.272524,0.962184,0.049391\C,0,0.2
 25134,0.052891,-0.220178\H,0,2.026922,-2.839064,-0.321312\H,0,-0.26503
 8,-1.99926,-0.648359\B,0,-2.319945,-0.115542,0.032113\O,0,-2.402566,-1
 .309253,0.70586\O,0,-3.479275,0.543816,-0.288697\H,0,3.373124,1.16727,

 Normal termination of Gaussian 16 at Wed Apr  9 00:39:09 2025.
