 Gaussian 16, Revision C.01,

 ----------------------------------------------------------------------
 #t hf aug-cc-pvdz symm=none int=(grid=ultrafine) guess=(read,tcheck) s
 table=opt
 ----------------------------------------------------------------------
 -----
 title
 -----
 Symbolic Z-matrix:
 Charge =  0 Multiplicity = 2

 SCF Done:  E(UHF) =  -142.882636413     A.U. after   17 cycles
 Normal termination of Gaussian 16 at Wed Apr  9 00:33:54 2025.
 Gaussian 16:  ES64L-G16RevC.01  3-Jul-2019

 ----------------------------------------------------------------------
 #t hf aug-cc-pvdz iop(5/13=1,5/36=2,99/5=2) pseudo=read geom=check gue
 ss=(read,tcheck) scf=(maxcycle=1)
 ----------------------------------------------------------------------
 -----
 title
 -----
 Structure from the checkpoint file:  "BDE49_nonexpt_468_mol2.chk"
 Charge =  0 Multiplicity = 2

                         Standard orientation:
 ---------------------------------------------------------------------
 Center     Atomic      Atomic             Coordinates (Angstroms)
 Number     Number       Type             X           Y           Z
 ---------------------------------------------------------------------
      1          1           0       -1.681171    1.961698    0.173307
      2          5           0       -0.551778    1.574572    0.165498
      3          6           0       -0.025096    0.187561   -0.263263
      4          6           0        1.440739   -0.133558    0.084622
      5          1           0        2.107021    0.683274   -0.200844
      6          1           0        1.778672   -1.044832   -0.419434
      7          1           0        1.554918   -0.290808    1.161389
      8          6           0       -0.967882   -0.993385    0.069429
      9          1           0       -0.080088    0.345817   -1.364453
     10          1           0       -0.988112   -1.179583    1.147314
     11          1           0       -0.626527   -1.914287   -0.414499
     12          1           0       -1.992388   -0.797847   -0.254997
 ---------------------------------------------------------------------

 SCF Done:  E(UHF) =  -142.928462122     A.U. after    2 cycles

 The electronic state is 2-A.
 Alpha  occ. eigenvalues --  -11.23124 -11.22702 -11.22634  -7.62993  -1.05126
 Alpha  occ. eigenvalues --   -0.92825  -0.82296  -0.65650  -0.61470  -0.58063
 Alpha  occ. eigenvalues --   -0.56215  -0.53941  -0.48875  -0.48639  -0.45321
 Alpha  occ. eigenvalues --   -0.31776
 Alpha virt. eigenvalues --    0.03217   0.04064   0.04918   0.05088   0.06403
 Alpha virt. eigenvalues --    0.06664   0.06811   0.07334   0.07680   0.09834
 Alpha virt. eigenvalues --    0.10544   0.11710   0.13811   0.14849   0.15339

  Beta  occ. eigenvalues --  -11.23028 -11.22705 -11.22577  -7.61234  -1.04726
  Beta  occ. eigenvalues --   -0.92563  -0.81455  -0.63313  -0.61277  -0.57062
  Beta  occ. eigenvalues --   -0.54738  -0.53748  -0.48511  -0.48100  -0.44396
  Beta virt. eigenvalues --    0.03168   0.04364   0.04548   0.05003   0.06536
  Beta virt. eigenvalues --    0.06811   0.06886   0.07339   0.07704   0.09590
  Beta virt. eigenvalues --    0.10717   0.11805   0.11977   0.14658   0.15072

 Mulliken charges and spin densities:
               1          2
     1  H    0.435965  -0.001606
     2  B   -0.427539   1.047801
     3  C   -0.363508  -0.072008
     4  C    0.477074   0.020927
     5  H   -0.121530  -0.009422
     6  H   -0.063675   0.002169
     7  H   -0.063304  -0.001965
     8  C    0.428967   0.027759
     9  H   -0.053690  -0.016596
    10  H   -0.068319  -0.002824
    11  H   -0.053717   0.006162
    12  H   -0.126722  -0.000396
 Sum of Mulliken charges =  -0.00000   1.00000

 Dipole moment (field-independent basis, Debye):
    X=             -0.1455    Y=             -0.8816    Z=             -0.3513  Tot=              0.9601
                          Isotropic Fermi Contact Couplings
        Atom                 a.u.       MegaHertz       Gauss      10(-4) cm-1
     1  H(1)               0.00647      28.92510      10.32119       9.64837
     2  B(11)              0.25121     360.32880     128.57427     120.19275
     3  C(13)              0.00459       5.15518       1.83950       1.71958
     4  C(13)              0.01876      21.09483       7.52716       7.03648
     5  H(1)              -0.00034      -1.52540      -0.54430      -0.50882
     6  H(1)              -0.00007      -0.30037      -0.10718      -0.10019
     7  H(1)              -0.00036      -1.62225      -0.57886      -0.54112
     8  C(13)              0.02281      25.64231       9.14981       8.55335

 Normal termination of Gaussian 16 at Wed Apr  9 00:33:57 2025.
