 Gaussian 16, Revision C.01,

 ----------------------------------------------------------------------
 #t hf aug-cc-pvdz symm=none int=(grid=ultrafine) guess=(read,tcheck) s
 table=opt
 ----------------------------------------------------------------------
 -----
 title
 -----
 Symbolic Z-matrix:
 Charge =  0 Multiplicity = 2

 SCF Done:  E(UHF) =  -687.202387809     A.U. after   23 cycles
 Normal termination of Gaussian 16 at Tue Apr  8 23:07:53 2025.
 Gaussian 16:  ES64L-G16RevC.01  3-Jul-2019

 ----------------------------------------------------------------------
 #t hf aug-cc-pvdz iop(5/13=1,5/36=2,99/5=2) pseudo=read geom=check gue
 ss=(read,tcheck) scf=(maxcycle=1)
 ----------------------------------------------------------------------
 -----
 title
 -----
 Structure from the checkpoint file:  "BDE49_expt_623_mol2.chk"
 Charge =  0 Multiplicity = 2

                         Standard orientation:
 ---------------------------------------------------------------------
 Center     Atomic      Atomic             Coordinates (Angstroms)
 Number     Number       Type             X           Y           Z
 ---------------------------------------------------------------------
      1          6           0       -0.014534    0.397018    0.344992
      2          8           0        1.190720    0.190395   -0.420400
      3          8           0        2.002971   -0.677034    0.154296
      4          6           0       -0.553615    1.757525   -0.019538
      5          1           0        0.181109    2.521188    0.246655
      6          1           0       -1.479537    1.948096    0.522975
      7          1           0       -0.752911    1.811994   -1.090489
      8         17           0       -1.195760   -0.916652   -0.052775
      9          1           0        0.238621    0.267663    1.394141
 ---------------------------------------------------------------------

 SCF Done:  E(UHF) =  -687.293841644     A.U. after    2 cycles

 The electronic state is 2-A.
 Alpha  occ. eigenvalues -- -103.66450 -20.70861 -20.69620 -11.38829 -11.26529
 Alpha  occ. eigenvalues --  -10.69780  -8.35511  -8.35194  -8.35191  -1.54129
 Alpha  occ. eigenvalues --   -1.24147  -1.15229  -1.02267  -0.87712  -0.79829
 Alpha  occ. eigenvalues --   -0.74829  -0.71820  -0.65183  -0.59949  -0.58627
 Alpha  occ. eigenvalues --   -0.56530  -0.53793  -0.50962  -0.47268  -0.46501
 Alpha virt. eigenvalues --    0.03341   0.04690   0.05459   0.06420   0.08794
 Alpha virt. eigenvalues --    0.11116   0.11687   0.13841   0.14118   0.14870
 Alpha virt. eigenvalues --    0.16083   0.16788   0.17888   0.18255   0.18612

  Beta  occ. eigenvalues -- -103.66441 -20.68847 -20.66725 -11.38895 -11.26532
  Beta  occ. eigenvalues --  -10.69771  -8.35468  -8.35195  -8.35182  -1.48134
  Beta  occ. eigenvalues --   -1.19550  -1.10870  -1.00846  -0.86877  -0.72993
  Beta  occ. eigenvalues --   -0.70249  -0.67347  -0.60788  -0.58369  -0.57228
  Beta  occ. eigenvalues --   -0.51685  -0.50768  -0.47036  -0.46448
  Beta virt. eigenvalues --    0.03319   0.04626   0.05420   0.06422   0.07517
  Beta virt. eigenvalues --    0.08835   0.11169   0.11780   0.14122   0.14315
  Beta virt. eigenvalues --    0.15376   0.16155   0.17032   0.18070   0.18283

 Mulliken charges and spin densities:
               1          2
     1  C    0.281770  -0.015286
     2  O   -0.398857   0.061258
     3  O   -0.125994   0.955557
     4  C    0.427218  -0.001490
     5  H    0.007533   0.001641
     6  H   -0.006041  -0.000759
     7  H   -0.005860  -0.000621
     8  Cl  -0.152184   0.004835
     9  H   -0.027585  -0.005135
 Sum of Mulliken charges =  -0.00000   1.00000

 Dipole moment (field-independent basis, Debye):
    X=             -0.7714    Y=              2.4401    Z=              1.2504  Tot=              2.8483
                          Isotropic Fermi Contact Couplings
        Atom                 a.u.       MegaHertz       Gauss      10(-4) cm-1
     1  C(13)             -0.01073     -12.06008      -4.30334      -4.02281
     2  O(17)              0.08260     -50.07237     -17.86707     -16.70235
     3  O(17)              0.29790    -180.58324     -64.43659     -60.23608
     4  C(13)             -0.00089      -1.00457      -0.35846      -0.33509
     5  H(1)               0.00002       0.06789       0.02423       0.02265
     6  H(1)              -0.00039      -1.72718      -0.61630      -0.57613
     7  H(1)              -0.00007      -0.33200      -0.11847      -0.11074
     8  Cl(35)            -0.00311      -1.36334      -0.48647      -0.45476

 Normal termination of Gaussian 16 at Tue Apr  8 23:07:58 2025.
