 Gaussian 16, Revision C.01,

 ----------------------------------------------------------------------
 #t hf aug-cc-pvdz symm=none int=(grid=ultrafine) guess=(read,tcheck) s
 table=(opt,rrhf)
 ----------------------------------------------------------------------
 -----
 title
 -----
 Symbolic Z-matrix:
 Charge =  0 Multiplicity = 1

 SCF Done:  E(RHF) =  -1152.59310101     A.U. after   15 cycles
 Normal termination of Gaussian 16 at Tue Apr  8 23:06:50 2025.
 Gaussian 16:  ES64L-G16RevC.01  3-Jul-2019

 ----------------------------------------------------------------------
 #t hf aug-cc-pvdz iop(5/13=1,5/36=2,99/5=2) pseudo=read geom=check gue
 ss=(read,tcheck) scf=(maxcycle=1)
 ----------------------------------------------------------------------
 -----
 title
 -----
 Structure from the checkpoint file:  "BDE49_expt_393_mol1.chk"
 Charge =  0 Multiplicity = 1

                         Standard orientation:
 ---------------------------------------------------------------------
 Center     Atomic      Atomic             Coordinates (Angstroms)
 Number     Number       Type             X           Y           Z
 ---------------------------------------------------------------------
      1          6           0        2.612762   -0.000000   -0.240838
      2         16           0        0.900408   -0.000000    0.543941
      3          9           0        2.764624   -1.087032   -1.007250
      4          9           0        3.533600   -0.000000    0.715448
      5          9           0        2.764624    1.087032   -1.007250
      6          8           0        0.777884    1.263855    1.228739
      7          8           0        0.777884   -1.263855    1.228739
      8          6           0       -1.605009    0.000000   -0.555032
      9          6           0       -2.282635    1.207151   -0.358840
     10          6           0       -2.282635   -1.207151   -0.358840
     11          6           0       -3.624137   -1.206083    0.010862
     12          6           0       -4.297164    0.000000    0.194888
     13          6           0       -3.624137    1.206083    0.010862
     14          1           0       -4.142620    2.146596    0.156687
     15          1           0       -1.758028    2.146273   -0.493507
     16          1           0       -1.758028   -2.146273   -0.493507
     17          1           0       -4.142620   -2.146596    0.156687
     18          1           0       -5.342503    0.000000    0.481668
     19          6           0       -0.153141    0.000000   -0.947877
     20          1           0        0.131030   -0.893229   -1.505280
     21          1           0        0.131030    0.893229   -1.505280
 ---------------------------------------------------------------------

 SCF Done:  E(RHF) =  -1152.91352024     A.U. after    2 cycles

 The electronic state is 1-A.
 Alpha  occ. eigenvalues --  -93.81287 -26.20427 -26.20416 -26.20165 -20.58847
 Alpha  occ. eigenvalues --  -20.58846 -11.57004 -11.31849 -11.28229 -11.26740
 Alpha  occ. eigenvalues --  -11.26732 -11.26469 -11.26216 -11.26193  -9.08035
 Alpha  occ. eigenvalues --   -6.42662  -6.42445  -6.42374  -1.79982  -1.72989
 Alpha  occ. eigenvalues --   -1.72959  -1.44957  -1.33706  -1.17294  -1.09859
 Alpha  occ. eigenvalues --   -1.07166  -1.03099  -1.00121  -0.93495  -0.91745
 Alpha  occ. eigenvalues --   -0.91718  -0.85314  -0.84344  -0.81407  -0.80677
 Alpha  occ. eigenvalues --   -0.80659  -0.76676  -0.76567  -0.75265  -0.72644
 Alpha  occ. eigenvalues --   -0.71292  -0.69642  -0.69495  -0.66594  -0.66021
 Alpha  occ. eigenvalues --   -0.61494  -0.60758  -0.60265  -0.55018  -0.54922
 Alpha  occ. eigenvalues --   -0.52824  -0.52537  -0.52009  -0.51376  -0.48217
 Alpha  occ. eigenvalues --   -0.35882  -0.35776
 Alpha virt. eigenvalues --    0.02956   0.03588   0.03818   0.05281   0.05517
 Alpha virt. eigenvalues --    0.07283   0.07632   0.07907   0.08117   0.09248
 Alpha virt. eigenvalues --    0.09784   0.10271   0.11002   0.11411   0.12491

 Mulliken charges:
               1
     1  C    0.736006
     2  S    2.678019
     3  F   -0.337733
     4  F   -0.272743
     5  F   -0.337733
     6  O   -1.171727
     7  O   -1.171727
     8  C    1.146501
     9  C    0.460239
    10  C    0.460239
    11  C    0.191753
    12  C    0.649574
    13  C    0.191753
    14  H   -0.439729
    15  H   -0.565548
    16  H   -0.565548
    17  H   -0.439729
    18  H   -0.430227
    19  C   -0.345501
    20  H   -0.218070
    21  H   -0.218070
 Sum of Mulliken charges =  -0.00000

 Dipole moment (field-independent basis, Debye):
    X=             -2.8835    Y=              0.0000    Z=             -3.6336  Tot=              4.6387

 Test job not archived.
 1\1\GINC-SE362\SP\RHF\Aug-CC-pVDZ\C8H7F3O2S1\OHZDE\08-Apr-2025\0\\#t h
 f aug-cc-pvdz iop(5/13=1,5/36=2,99/5=2) pseudo=read geom=check guess=(
 read,tcheck) scf=(maxcycle=1)\\title\\0,1\C,0,-0.240838,-2.612762,0.\S
 ,0,0.543941,-0.900408,0.\F,0,-1.00725,-2.764624,1.087032\F,0,0.715448,
 -3.5336,0.\F,0,-1.00725,-2.764624,-1.087032\O,0,1.228739,-0.777884,-1.
 263855\O,0,1.228739,-0.777884,1.263855\C,0,-0.555032,1.605009,0.\C,0,-
 0.35884,2.282635,-1.207151\C,0,-0.35884,2.282635,1.207151\C,0,0.010862
 ,3.624137,1.206083\C,0,0.194888,4.297164,0.\C,0,0.010862,3.624137,-1.2

 Normal termination of Gaussian 16 at Tue Apr  8 23:07:05 2025.
