 Gaussian 16, Revision C.01,

 ----------------------------------------------------------------------
 #t hf aug-cc-pvdz symm=none int=(grid=ultrafine) guess=(read,tcheck) s
 table=(opt,rrhf)
 ----------------------------------------------------------------------
 -----
 title
 -----
 Symbolic Z-matrix:
 Charge =  0 Multiplicity = 1

 SCF Done:  E(RHF) =  -475.599552075     A.U. after   12 cycles
 Normal termination of Gaussian 16 at Tue Apr  8 23:34:05 2025.
 Gaussian 16:  ES64L-G16RevC.01  3-Jul-2019

 ----------------------------------------------------------------------
 #t hf aug-cc-pvdz iop(5/13=1,5/36=2,99/5=2) pseudo=read geom=check gue
 ss=(read,tcheck) scf=(maxcycle=1)
 ----------------------------------------------------------------------
 -----
 title
 -----
 Structure from the checkpoint file:  "BDE49_nonexpt_1498_mol1.chk"
 Charge =  0 Multiplicity = 1

                         Standard orientation:
 ---------------------------------------------------------------------
 Center     Atomic      Atomic             Coordinates (Angstroms)
 Number     Number       Type             X           Y           Z
 ---------------------------------------------------------------------
      1          7           0        1.319414    0.967742   -0.209544
      2         15           0        0.808847   -0.638481    0.117068
      3          6           0       -1.810517    0.589032    0.174023
      4          6           0       -0.982993   -0.577194   -0.372214
      5          1           0       -1.405435   -1.536647   -0.049530
      6          1           0       -1.004952   -0.582155   -1.466788
      7          1           0       -1.401514    1.546659   -0.158827
      8          1           0       -2.846830    0.538328   -0.174218
      9          1           0       -1.826449    0.586950    1.268189
     10          1           0        0.564561   -0.598876    1.523920
     11          1           0        2.300896    1.053007   -0.429001
     12          1           0        1.012192    1.724726    0.386185
 ---------------------------------------------------------------------

 SCF Done:  E(RHF) =  -475.671092221     A.U. after    2 cycles

 The electronic state is 1-A.
 Alpha  occ. eigenvalues --  -81.26619 -15.61326 -11.23429 -11.23005  -7.76594
 Alpha  occ. eigenvalues --   -4.90699  -4.90474  -4.90233  -1.11594  -1.01901
 Alpha  occ. eigenvalues --   -0.85855  -0.73607  -0.66477  -0.62390  -0.57369
 Alpha  occ. eigenvalues --   -0.55509  -0.53045  -0.49495  -0.46840  -0.39376
 Alpha  occ. eigenvalues --   -0.33426
 Alpha virt. eigenvalues --    0.03490   0.04378   0.05080   0.05176   0.07016
 Alpha virt. eigenvalues --    0.07406   0.07861   0.08351   0.10887   0.11740
 Alpha virt. eigenvalues --    0.12747   0.13994   0.15115   0.16190   0.16803

 Mulliken charges:
               1
     1  N   -0.473388
     2  P    0.753677
     3  C    0.308052
     4  C   -0.130230
     5  H   -0.070086
     6  H   -0.104094
     7  H   -0.105680
     8  H   -0.078860
     9  H   -0.097473
    10  H    0.011929
    11  H   -0.014138
    12  H    0.000290
 Sum of Mulliken charges =  -0.00000

 Dipole moment (field-independent basis, Debye):
    X=             -0.3215    Y=              1.1970    Z=              0.6813  Tot=              1.4143

 Test job not archived.
 1\1\GINC-SE345\SP\RHF\Aug-CC-pVDZ\C2H8N1P1\OHZDE\08-Apr-2025\0\\#t hf
 aug-cc-pvdz iop(5/13=1,5/36=2,99/5=2) pseudo=read geom=check guess=(re
 ad,tcheck) scf=(maxcycle=1)\\title\\0,1\N,0,1.319414,0.967742,-0.20954
 4\P,0,0.808847,-0.638481,0.117068\C,0,-1.810517,0.589032,0.174023\C,0,
 -0.982993,-0.577194,-0.372214\H,0,-1.405435,-1.536647,-0.04953\H,0,-1.
 004952,-0.582155,-1.466788\H,0,-1.401514,1.546659,-0.158827\H,0,-2.846
 83,0.538328,-0.174218\H,0,-1.826449,0.58695,1.268189\H,0,0.564561,-0.5
 98876,1.52392\H,0,2.300896,1.053007,-0.429001\H,0,1.012192,1.724726,0.

 Normal termination of Gaussian 16 at Tue Apr  8 23:34:09 2025.
