 Gaussian 16, Revision C.01,

 ----------------------------------------------------------------------
 #t hf aug-cc-pvdz symm=none int=(grid=ultrafine) guess=(read,tcheck) s
 table=(opt,rrhf)
 ----------------------------------------------------------------------
 -----
 title
 -----
 Symbolic Z-matrix:
 Charge =  0 Multiplicity = 1

 SCF Done:  E(RHF) =  -701.001739144     A.U. after   15 cycles
 Normal termination of Gaussian 16 at Wed Apr  9 00:19:06 2025.
 Gaussian 16:  ES64L-G16RevC.01  3-Jul-2019

 ----------------------------------------------------------------------
 #t hf aug-cc-pvdz iop(5/13=1,5/36=2,99/5=2) pseudo=read geom=check gue
 ss=(read,tcheck) scf=(maxcycle=1)
 ----------------------------------------------------------------------
 -----
 title
 -----
 Structure from the checkpoint file:  "BDE49_nonexpt_2621_mol1.chk"
 Charge =  0 Multiplicity = 1

                         Standard orientation:
 ---------------------------------------------------------------------
 Center     Atomic      Atomic             Coordinates (Angstroms)
 Number     Number       Type             X           Y           Z
 ---------------------------------------------------------------------
      1          9           0       -1.733707    0.591362    0.000681
      2          7           0        0.867453    0.129966   -0.000128
      3         16           0       -0.743955   -0.708688   -0.000420
      4          8           0        1.763550   -0.689204    0.000622
      5          8           0        0.915758    1.327577   -0.000436
 ---------------------------------------------------------------------

 SCF Done:  E(RHF) =  -701.126428546     A.U. after    2 cycles

 The electronic state is 1-A.
 Alpha  occ. eigenvalues --  -93.71925 -26.19295 -20.67125 -20.66210 -15.97258
 Alpha  occ. eigenvalues --   -9.00417  -6.34533  -6.34222  -6.33627  -1.70888
 Alpha  occ. eigenvalues --   -1.60175  -1.42835  -1.09267  -0.91236  -0.83817
 Alpha  occ. eigenvalues --   -0.80145  -0.79046  -0.77269  -0.76960  -0.68630
 Alpha  occ. eigenvalues --   -0.56635  -0.52177  -0.51288  -0.45516
 Alpha virt. eigenvalues --    0.02961   0.04803   0.05483   0.09091   0.10390
 Alpha virt. eigenvalues --    0.10676   0.13046   0.14059   0.16470   0.17828
 Alpha virt. eigenvalues --    0.21596   0.22820   0.25675   0.27344   0.27799

 Mulliken charges:
               1
     1  F   -0.532772
     2  N    0.327612
     3  S    1.129183
     4  O   -0.496025
     5  O   -0.427997
 Sum of Mulliken charges =  -0.00000

 Dipole moment (field-independent basis, Debye):
    X=             -1.7526    Y=             -2.1211    Z=             -0.0019  Tot=              2.7515

 Test job not archived.
 1\1\GINC-SE116\SP\RHF\Aug-CC-pVDZ\F1N1O2S1\OHZDE\09-Apr-2025\0\\#t hf
 aug-cc-pvdz iop(5/13=1,5/36=2,99/5=2) pseudo=read geom=check guess=(re
 ad,tcheck) scf=(maxcycle=1)\\title\\0,1\F,0,1.733707,0.591363,-0.00068
 1\N,0,-0.867453,0.129966,0.000128\S,0,0.743955,-0.708688,0.00042\O,0,-
 1.76355,-0.689205,-0.000622\O,0,-0.915759,1.327577,0.000436\\Version=E
 S64L-G16RevC.01\State=1-A\HF=-701.1264285\RMSD=4.693e-03\Dipole=0.6895
 172,-0.8345108,0.0007483\Quadrupole=-1.8931058,0.150101,1.7430048,-1.8
 94059,-0.0002404,-0.0021887\PG=C01 [X(F1N1O2S1)]\\@

 Normal termination of Gaussian 16 at Wed Apr  9 00:19:08 2025.
