 Gaussian 16, Revision C.01,

 ----------------------------------------------------------------------
 #t hf aug-cc-pvdz symm=none int=(grid=ultrafine) guess=(read,tcheck) s
 table=(opt,rrhf)
 ----------------------------------------------------------------------
 -----
 title
 -----
 Symbolic Z-matrix:
 Charge =  0 Multiplicity = 1

 SCF Done:  E(RHF) =  -662.991509271     A.U. after   11 cycles
 Normal termination of Gaussian 16 at Wed Apr  9 00:06:54 2025.
 Gaussian 16:  ES64L-G16RevC.01  3-Jul-2019

 ----------------------------------------------------------------------
 #t hf aug-cc-pvdz iop(5/13=1,5/36=2,99/5=2) pseudo=read geom=check gue
 ss=(read,tcheck) scf=(maxcycle=1)
 ----------------------------------------------------------------------
 -----
 title
 -----
 Structure from the checkpoint file:  "BDE49_nonexpt_2295_mol1.chk"
 Charge =  0 Multiplicity = 1

                         Standard orientation:
 ---------------------------------------------------------------------
 Center     Atomic      Atomic             Coordinates (Angstroms)
 Number     Number       Type             X           Y           Z
 ---------------------------------------------------------------------
      1         14           0       -0.004038    0.009046   -0.000000
      2          8           0       -1.601434    0.164392    0.000009
      3          9           0        0.525743   -0.772655   -1.266665
      4          9           0        0.525760   -0.772628    1.266675
      5          9           0        0.620442    1.451920   -0.000019
      6          1           0       -2.179500   -0.601524    0.000013
 ---------------------------------------------------------------------

 SCF Done:  E(RHF) =  -663.189697555     A.U. after    2 cycles

 The electronic state is 1-A.
 Alpha  occ. eigenvalues --  -69.24312 -26.14701 -26.14698 -26.14697 -20.62168
 Alpha  occ. eigenvalues --   -6.97675  -4.08797  -4.08749  -4.08741  -1.69222
 Alpha  occ. eigenvalues --   -1.67421  -1.67291  -1.36076  -0.88658  -0.82255
 Alpha  occ. eigenvalues --   -0.81602  -0.80493  -0.76579  -0.76329  -0.75154
 Alpha  occ. eigenvalues --   -0.74085  -0.73566  -0.72561  -0.62467  -0.59489
 Alpha virt. eigenvalues --    0.02789   0.06204   0.06307   0.06333   0.09138
 Alpha virt. eigenvalues --    0.16374   0.18352   0.19096   0.20332   0.20632
 Alpha virt. eigenvalues --    0.24126   0.24937   0.25232   0.25997   0.28198

 Mulliken charges:
               1
     1  Si   2.966805
     2  O   -0.716966
     3  F   -0.796731
     4  F   -0.796731
     5  F   -0.790120
     6  H    0.133742
 Sum of Mulliken charges =  -0.00000

 Dipole moment (field-independent basis, Debye):
    X=             -2.0632    Y=             -1.3428    Z=              0.0000  Tot=              2.4617

 Test job not archived.
 1\1\GINC-SE179\SP\RHF\Aug-CC-pVDZ\F3H1O1Si1\OHZDE\09-Apr-2025\0\\#t hf
  aug-cc-pvdz iop(5/13=1,5/36=2,99/5=2) pseudo=read geom=check guess=(r
 ead,tcheck) scf=(maxcycle=1)\\title\\0,1\Si,0,-0.004038,0.009046,0.\O,
 0,-1.601434,0.164387,0.000009\F,0,0.525745,-0.772653,-1.266665\F,0,0.5
 25762,-0.772626,1.266675\F,0,0.620438,1.451922,-0.000019\H,0,-2.179498
 ,-0.601531,0.000013\\Version=ES64L-G16RevC.01\State=1-A\HF=-663.189697
 6\RMSD=4.857e-03\Dipole=-0.8117211,-0.528307,0.0000042\Quadrupole=2.60
 16697,-0.928374,-1.6732958,2.7191216,-0.000031,-0.0000152\PG=C01 [X(F3

 Normal termination of Gaussian 16 at Wed Apr  9 00:06:57 2025.
