 Gaussian 16, Revision C.01,

 ----------------------------------------------------------------------
 #t hf aug-cc-pvdz symm=none int=(grid=ultrafine) guess=(read,tcheck) s
 table=(opt,rrhf)
 ----------------------------------------------------------------------
 -----
 title
 -----
 Symbolic Z-matrix:
 Charge =  0 Multiplicity = 1

 SCF Done:  E(RHF) =  -1120.87745546     A.U. after   14 cycles
 Normal termination of Gaussian 16 at Tue Apr  8 23:44:52 2025.
 Gaussian 16:  ES64L-G16RevC.01  3-Jul-2019

 ----------------------------------------------------------------------
 #t hf aug-cc-pvdz iop(5/13=1,5/36=2,99/5=2) pseudo=read geom=check gue
 ss=(read,tcheck) scf=(maxcycle=1)
 ----------------------------------------------------------------------
 -----
 title
 -----
 Structure from the checkpoint file:  "BDE49_nonexpt_1725_mol1.chk"
 Charge =  0 Multiplicity = 1

                         Standard orientation:
 ---------------------------------------------------------------------
 Center     Atomic      Atomic             Coordinates (Angstroms)
 Number     Number       Type             X           Y           Z
 ---------------------------------------------------------------------
      1         16           0       -0.085186   -0.382692   -1.251889
      2         15           0        1.326260    0.048133    0.252668
      3          8           0        1.103220   -0.603138    1.543613
      4          6           0       -1.681092   -0.648612   -0.300479
      5          6           0       -1.664006   -1.986871    0.437509
      6          1           0       -1.426764   -2.807886   -0.241662
      7          1           0       -2.651591   -2.176108    0.871209
      8          1           0       -0.927040   -1.974004    1.241004
      9          6           0       -2.079145    0.527040    0.600380
     10          6           0       -2.280329    1.864995   -0.112381
     11          1           0       -1.344452    0.625940    1.404469
     12          1           0       -3.018836    0.234245    1.085046
     13          1           0       -1.347196    2.234765   -0.540815
     14          1           0       -2.646129    2.619382    0.588470
     15          1           0       -3.011340    1.779560   -0.922604
     16          1           0       -2.383338   -0.702917   -1.139867
     17          8           0        2.700894   -0.264873   -0.525963
     18          1           0        2.845385   -1.211132   -0.651383
     19          8           0        1.445605    1.637002    0.388020
     20          1           0        1.610056    2.087987   -0.449182
 ---------------------------------------------------------------------

 SCF Done:  E(RHF) =  -1121.08362404     A.U. after    2 cycles

 The electronic state is 1-A.
 Alpha  occ. eigenvalues --  -93.54674 -81.43794 -20.62588 -20.62184 -20.53205
 Alpha  occ. eigenvalues --  -11.29391 -11.24297 -11.23114 -11.23021  -8.84579
 Alpha  occ. eigenvalues --   -7.91928  -6.18722  -6.18492  -6.18234  -5.06573
 Alpha  occ. eigenvalues --   -5.06459  -5.06124  -1.38888  -1.35282  -1.26853
 Alpha  occ. eigenvalues --   -1.09812  -1.00036  -0.95117  -0.87130  -0.84372
 Alpha  occ. eigenvalues --   -0.78959  -0.77837  -0.68272  -0.65803  -0.64335
 Alpha  occ. eigenvalues --   -0.61773  -0.60446  -0.60256  -0.60032  -0.58061
 Alpha  occ. eigenvalues --   -0.57660  -0.53477  -0.52491  -0.51099  -0.50376
 Alpha  occ. eigenvalues --   -0.49229  -0.48957  -0.45879  -0.42822  -0.37969
 Alpha virt. eigenvalues --    0.03040   0.04036   0.04201   0.04967   0.05514
 Alpha virt. eigenvalues --    0.06335   0.06865   0.07880   0.08297   0.08392
 Alpha virt. eigenvalues --    0.09540   0.10121   0.11263   0.12488   0.13008

 Mulliken charges:
               1
     1  S   -0.206662
     2  P    2.318719
     3  O   -0.992577
     4  C   -0.380257
     5  C    0.552114
     6  H   -0.078455
     7  H   -0.053037
     8  H   -0.076914
     9  C    0.268555
    10  C    0.404335
    11  H   -0.197951
    12  H   -0.095838
    13  H   -0.098208
    14  H   -0.052377
    15  H   -0.065784
    16  H   -0.151743
    17  O   -0.711722
    18  H    0.167850
    19  O   -0.719442
    20  H    0.169394
 Sum of Mulliken charges =  -0.00000

 Dipole moment (field-independent basis, Debye):
    X=             -1.4090    Y=              0.0601    Z=             -3.1831  Tot=              3.4816

 Test job not archived.
 1\1\GINC-SE060\SP\RHF\Aug-CC-pVDZ\C4H11O3P1S1\OHZDE\08-Apr-2025\0\\#t
 hf aug-cc-pvdz iop(5/13=1,5/36=2,99/5=2) pseudo=read geom=check guess=
 (read,tcheck) scf=(maxcycle=1)\\title\\0,1\S,0,-0.085186,-0.382692,-1.
 251889\P,0,1.32626,0.048133,0.252668\O,0,1.10322,-0.603138,1.543613\C,
 0,-1.681092,-0.648612,-0.300479\C,0,-1.664006,-1.986871,0.437509\H,0,-
 1.426764,-2.807886,-0.241662\H,0,-2.651591,-2.176108,0.871209\H,0,-0.9
 2704,-1.974004,1.241004\C,0,-2.079145,0.52704,0.60038\C,0,-2.280329,1.
 864995,-0.112381\H,0,-1.344452,0.62594,1.404469\H,0,-3.018836,0.234245

 Normal termination of Gaussian 16 at Tue Apr  8 23:45:04 2025.
