 Gaussian 16, Revision C.01,

 ----------------------------------------------------------------------
 #t hf aug-cc-pvdz symm=none int=(grid=ultrafine) guess=(read,tcheck) s
 table=(opt,rrhf)
 ----------------------------------------------------------------------
 -----
 title
 -----
 Symbolic Z-matrix:
 Charge =  0 Multiplicity = 1

 SCF Done:  E(RHF) =  -233.172235522     A.U. after   14 cycles
 Normal termination of Gaussian 16 at Wed Apr  9 00:34:50 2025.
 Gaussian 16:  ES64L-G16RevC.01  3-Jul-2019

 ----------------------------------------------------------------------
 #t hf aug-cc-pvdz iop(5/13=1,5/36=2,99/5=2) pseudo=read geom=check gue
 ss=(read,tcheck) scf=(maxcycle=1)
 ----------------------------------------------------------------------
 -----
 title
 -----
 Structure from the checkpoint file:  "BDE49_nonexpt_511_mol1.chk"
 Charge =  0 Multiplicity = 1

                         Standard orientation:
 ---------------------------------------------------------------------
 Center     Atomic      Atomic             Coordinates (Angstroms)
 Number     Number       Type             X           Y           Z
 ---------------------------------------------------------------------
      1          1           0       -2.868262   -0.219781    0.000164
      2          5           0       -1.835955   -0.816825   -0.000146
      3          1           0       -1.827317   -2.004678    0.000148
      4          6           0       -0.497802   -0.045237   -0.000038
      5          7           0        0.534745   -0.831585   -0.000016
      6          8           0        1.730040   -0.129193    0.000053
      7          1           0        2.391885   -0.829973    0.000050
      8          6           0       -0.362017    1.457072    0.000026
      9          1           0       -1.341515    1.933844   -0.000010
     10          1           0        0.200226    1.794199   -0.876026
     11          1           0        0.200131    1.794135    0.876164
 ---------------------------------------------------------------------

 SCF Done:  E(RHF) =  -233.244106027     A.U. after    2 cycles

 The electronic state is 1-A.
 Alpha  occ. eigenvalues --  -20.62529 -15.71256 -11.26705 -11.23831  -7.61841
 Alpha  occ. eigenvalues --   -1.39752  -1.14132  -0.97259  -0.80963  -0.71817
 Alpha  occ. eigenvalues --   -0.68333  -0.62944  -0.62585  -0.56655  -0.56069
 Alpha  occ. eigenvalues --   -0.50839  -0.48557  -0.44152  -0.39697
 Alpha virt. eigenvalues --    0.03584   0.03588   0.04131   0.05235   0.06369
 Alpha virt. eigenvalues --    0.06534   0.07223   0.08412   0.08715   0.10796
 Alpha virt. eigenvalues --    0.12842   0.14440   0.14731   0.15629   0.16979

 Mulliken charges:
               1
     1  H    0.275000
     2  B   -0.645586
     3  H    0.349549
     4  C    0.159663
     5  N   -0.122425
     6  O   -0.478899
     7  H    0.181347
     8  C    0.334195
     9  H   -0.173194
    10  H    0.060186
    11  H    0.060163
 Sum of Mulliken charges =   0.00000

 Dipole moment (field-independent basis, Debye):
    X=              0.3347    Y=              0.5431    Z=             -0.0005  Tot=              0.6379

 Test job not archived.
 1\1\GINC-SE339\SP\RHF\Aug-CC-pVDZ\C2H6B1N1O1\OHZDE\09-Apr-2025\0\\#t h
 f aug-cc-pvdz iop(5/13=1,5/36=2,99/5=2) pseudo=read geom=check guess=(
 read,tcheck) scf=(maxcycle=1)\\title\\0,1\H,0,-2.868262,-0.219781,0.00
 0164\B,0,-1.835955,-0.816825,-0.000146\H,0,-1.827317,-2.004678,0.00014
 8\C,0,-0.497802,-0.045237,-0.000038\N,0,0.534745,-0.831585,-0.000016\O
 ,0,1.73004,-0.129193,0.000053\H,0,2.391885,-0.829973,0.00005\C,0,-0.36
 2017,1.457072,0.000026\H,0,-1.341515,1.933844,-0.00001\H,0,0.200226,1.
 794199,-0.876026\H,0,0.200131,1.794135,0.876164\\Version=ES64L-G16RevC

 Normal termination of Gaussian 16 at Wed Apr  9 00:34:53 2025.
