 Gaussian 16, Revision C.01,

 ----------------------------------------------------------------------
 #t hf aug-cc-pvdz symm=none int=(grid=ultrafine) guess=(read,tcheck) s
 table=(opt,rrhf)
 ----------------------------------------------------------------------
 -----
 title
 -----
 Symbolic Z-matrix:
 Charge =  0 Multiplicity = 1

 SCF Done:  E(RHF) =  -757.204215856     A.U. after   18 cycles
 Normal termination of Gaussian 16 at Tue Apr  8 23:14:35 2025.
 Gaussian 16:  ES64L-G16RevC.01  3-Jul-2019

 ----------------------------------------------------------------------
 #t hf aug-cc-pvdz iop(5/13=1,5/36=2,99/5=2) pseudo=read geom=check gue
 ss=(read,tcheck) scf=(maxcycle=1)
 ----------------------------------------------------------------------
 -----
 title
 -----
 Structure from the checkpoint file:  "BDE49_nonexpt_1006_mol1.chk"
 Charge =  0 Multiplicity = 1

                         Standard orientation:
 ---------------------------------------------------------------------
 Center     Atomic      Atomic             Coordinates (Angstroms)
 Number     Number       Type             X           Y           Z
 ---------------------------------------------------------------------
      1          6           0        1.173570   -0.603727   -0.218310
      2          6           0        0.594090    0.779368    0.040343
      3         16           0       -1.229681    0.975437    0.148265
      4          8           0        1.237321    1.775535    0.213344
      5          7           0       -1.829573   -0.776522   -0.297967
      6          8           0       -2.992075   -0.898433   -0.302902
      7          6           0        1.276379   -1.361476    1.122227
      8          1           0        1.942346   -0.836876    1.812252
      9          1           0        1.682930   -2.360109    0.946739
     10          1           0        0.301923   -1.472795    1.601254
     11          6           0        2.535678   -0.481459   -0.912406
     12          1           0        0.478690   -1.149380   -0.860042
     13          1           0        3.238839    0.079865   -0.295127
     14          1           0        2.449068    0.032014   -1.872592
     15          1           0        2.947839   -1.477110   -1.093623
 ---------------------------------------------------------------------

 SCF Done:  E(RHF) =  -757.334453316     A.U. after    2 cycles

 The electronic state is 1-A.
 Alpha  occ. eigenvalues --  -93.58721 -20.70314 -20.59579 -15.84497 -11.39524
 Alpha  occ. eigenvalues --  -11.27579 -11.25251 -11.24268  -8.88364  -6.22387
 Alpha  occ. eigenvalues --   -6.22204  -6.21859  -1.54945  -1.39539  -1.10157
 Alpha  occ. eigenvalues --   -1.04264  -0.95034  -0.92003  -0.86650  -0.77017
 Alpha  occ. eigenvalues --   -0.73737  -0.71148  -0.67745  -0.67068  -0.64354
 Alpha  occ. eigenvalues --   -0.62103  -0.59141  -0.56836  -0.55730  -0.54964
 Alpha  occ. eigenvalues --   -0.50686  -0.50320  -0.42830  -0.40427  -0.40096
 Alpha virt. eigenvalues --    0.03223   0.04339   0.04879   0.05259   0.05538
 Alpha virt. eigenvalues --    0.07056   0.07263   0.07644   0.08093   0.08695
 Alpha virt. eigenvalues --    0.10477   0.11660   0.12245   0.13036   0.13898

 Mulliken charges:
               1
     1  C   -0.817460
     2  C    0.010148
     3  S    0.621525
     4  O   -0.480904
     5  N   -0.105072
     6  O   -0.345549
     7  C    0.547264
     8  H    0.013360
     9  H   -0.074958
    10  H   -0.102209
    11  C    0.815532
    12  H   -0.034882
    13  H    0.017201
    14  H   -0.056461
    15  H   -0.007536
 Sum of Mulliken charges =  -0.00000

 Dipole moment (field-independent basis, Debye):
    X=              0.8770    Y=             -2.7102    Z=             -0.3411  Tot=              2.8689

 Test job not archived.
 1\1\GINC-SE159\SP\RHF\Aug-CC-pVDZ\C4H7N1O2S1\OHZDE\08-Apr-2025\0\\#t h
 f aug-cc-pvdz iop(5/13=1,5/36=2,99/5=2) pseudo=read geom=check guess=(
 read,tcheck) scf=(maxcycle=1)\\title\\0,1\C,0,1.17357,-0.603727,-0.218
 31\C,0,0.59409,0.779368,0.040343\S,0,-1.229681,0.975437,0.148265\O,0,1
 .237321,1.775535,0.213344\N,0,-1.829573,-0.776522,-0.297967\O,0,-2.992
 075,-0.898432,-0.302902\C,0,1.276379,-1.361476,1.122227\H,0,1.942346,-
 0.836876,1.812252\H,0,1.682929,-2.360109,0.946739\H,0,0.301923,-1.4727
 95,1.601254\C,0,2.535678,-0.481459,-0.912406\H,0,0.47869,-1.14938,-0.8

 Normal termination of Gaussian 16 at Tue Apr  8 23:14:41 2025.
