 Gaussian 16, Revision C.01,

 ----------------------------------------------------------------------
 #t hf aug-cc-pvdz symm=none int=(grid=ultrafine) guess=(read,tcheck) s
 table=(opt,rrhf)
 ----------------------------------------------------------------------
 -----
 title
 -----
 Symbolic Z-matrix:
 Charge =  0 Multiplicity = 1

 SCF Done:  E(RHF) =  -310.256283632     A.U. after   12 cycles

 1\1\GINC-SE328\Stability\RHF\Aug-CC-pVDZ\C6H14O1\OHZDE\08-Apr-2025\0\\
 #t hf aug-cc-pvdz symm=none int=(grid=ultrafine) guess=(read,tcheck) s
 table=(opt,rrhf)\\title\\0,1\C,0,-1.207957,-0.140988,-0.233991\O,0,0.,
 -0.000001,0.521604\C,0,1.207957,0.140989,-0.233991\C,0,1.759013,-1.230
 823,-0.63007\C,0,-1.759012,1.230825,-0.630067\H,0,-1.985317,1.814851,0
 .266048\H,0,-2.674787,1.128726,-1.21998\H,0,-1.036984,1.791747,-1.2289
 53\C,0,2.180353,0.925258,0.639247\H,0,2.354364,0.389632,1.576369\H,0,1
 .769097,1.907456,0.880784\H,0,3.140119,1.06031,0.133215\C,0,-2.180353,

 Normal termination of Gaussian 16 at Tue Apr  8 22:51:27 2025.
 Gaussian 16:  ES64L-G16RevC.01  3-Jul-2019

 ----------------------------------------------------------------------
 #t hf aug-cc-pvdz iop(5/13=1,5/36=2,99/5=2) pseudo=read geom=check gue
 ss=(read,tcheck) scf=(maxcycle=1)
 ----------------------------------------------------------------------
 -----
 title
 -----
 Structure from the checkpoint file:  "BDE49_expt_178_mol1.chk"
 Charge =  0 Multiplicity = 1

                         Standard orientation:
 ---------------------------------------------------------------------
 Center     Atomic      Atomic             Coordinates (Angstroms)
 Number     Number       Type             X           Y           Z
 ---------------------------------------------------------------------
      1          6           0       -1.207957   -0.140988   -0.233991
      2          8           0       -0.000000   -0.000001    0.521604
      3          6           0        1.207957    0.140989   -0.233991
      4          6           0        1.759013   -1.230823   -0.630070
      5          6           0       -1.759012    1.230825   -0.630067
      6          1           0       -1.985317    1.814851    0.266048
      7          1           0       -2.674787    1.128726   -1.219980
      8          1           0       -1.036984    1.791747   -1.228953
      9          6           0        2.180353    0.925258    0.639247
     10          1           0        2.354364    0.389632    1.576369
     11          1           0        1.769097    1.907456    0.880784
     12          1           0        3.140119    1.060310    0.133215
     13          6           0       -2.180353   -0.925260    0.639245
     14          1           0       -1.002371   -0.721150   -1.145008
     15          1           0       -2.354364   -0.389636    1.576367
     16          1           0       -1.769097   -1.907458    0.880779
     17          1           0       -3.140119   -1.060311    0.133211
     18          1           0        1.036984   -1.791744   -1.228957
     19          1           0        1.985317   -1.814852    0.266044
     20          1           0        2.674788   -1.128723   -1.219982
     21          1           0        1.002371    0.721152   -1.145006
 ---------------------------------------------------------------------

 SCF Done:  E(RHF) =  -310.357221251     A.U. after    2 cycles

 The electronic state is 1-A.
 Alpha  occ. eigenvalues --  -20.55552 -11.28616 -11.28591 -11.22181 -11.22180
 Alpha  occ. eigenvalues --  -11.21919 -11.21917  -1.31914  -1.06228  -1.00392
 Alpha  occ. eigenvalues --   -0.93253  -0.92841  -0.81435  -0.78078  -0.68432
 Alpha  occ. eigenvalues --   -0.63453  -0.62898  -0.58264  -0.58105  -0.56292
 Alpha  occ. eigenvalues --   -0.53986  -0.53858  -0.52263  -0.51680  -0.51127
 Alpha  occ. eigenvalues --   -0.48576  -0.47630  -0.45487  -0.41749
 Alpha virt. eigenvalues --    0.03505   0.04429   0.04657   0.04773   0.06165
 Alpha virt. eigenvalues --    0.06303   0.06307   0.06773   0.07255   0.08587
 Alpha virt. eigenvalues --    0.09211   0.09401   0.09565   0.09719   0.13603

 Mulliken charges:
               1
     1  C   -0.293976
     2  O   -0.752542
     3  C   -0.293969
     4  C    0.508683
     5  C    0.508686
     6  H    0.020196
     7  H   -0.038426
     8  H   -0.138592
     9  C    0.554056
    10  H   -0.020781
    11  H   -0.069204
    12  H   -0.033806
    13  C    0.554058
    14  H   -0.111884
    15  H   -0.020782
    16  H   -0.069205
    17  H   -0.033803
    18  H   -0.138590
    19  H    0.020197
    20  H   -0.038428
    21  H   -0.111887
 Sum of Mulliken charges =  -0.00000

 Dipole moment (field-independent basis, Debye):
    X=              0.0000    Y=              0.0000    Z=             -1.4514  Tot=              1.4514

 Test job not archived.
 1\1\GINC-SE328\SP\RHF\Aug-CC-pVDZ\C6H14O1\OHZDE\08-Apr-2025\0\\#t hf a
 ug-cc-pvdz iop(5/13=1,5/36=2,99/5=2) pseudo=read geom=check guess=(rea
 d,tcheck) scf=(maxcycle=1)\\title\\0,1\C,0,-1.207957,-0.140988,-0.2339
 91\O,0,0.,-0.000001,0.521604\C,0,1.207957,0.140989,-0.233991\C,0,1.759
 013,-1.230823,-0.63007\C,0,-1.759012,1.230825,-0.630067\H,0,-1.985317,
 1.814851,0.266048\H,0,-2.674787,1.128726,-1.21998\H,0,-1.036984,1.7917
 47,-1.228953\C,0,2.180353,0.925258,0.639247\H,0,2.354364,0.389632,1.57
 6369\H,0,1.769097,1.907456,0.880784\H,0,3.140119,1.06031,0.133215\C,0,

 Normal termination of Gaussian 16 at Tue Apr  8 22:51:36 2025.
