 Gaussian 16, Revision C.01,

 ----------------------------------------------------------------------
 #t hf aug-cc-pvdz symm=none int=(grid=ultrafine) guess=(read,tcheck) s
 table=(opt,rrhf)
 ----------------------------------------------------------------------
 -----
 title
 -----
 Symbolic Z-matrix:
 Charge =  0 Multiplicity = 1

 SCF Done:  E(RHF) =  -505.425757812     A.U. after   12 cycles
 Normal termination of Gaussian 16 at Wed Apr  9 00:45:03 2025.
 Gaussian 16:  ES64L-G16RevC.01  3-Jul-2019

 ----------------------------------------------------------------------
 #t hf aug-cc-pvdz iop(5/13=1,5/36=2,99/5=2) pseudo=read geom=check gue
 ss=(read,tcheck) scf=(maxcycle=1)
 ----------------------------------------------------------------------
 -----
 title
 -----
 Structure from the checkpoint file:  "BDE49_nonexpt_835_mol1.chk"
 Charge =  0 Multiplicity = 1

                         Standard orientation:
 ---------------------------------------------------------------------
 Center     Atomic      Atomic             Coordinates (Angstroms)
 Number     Number       Type             X           Y           Z
 ---------------------------------------------------------------------
      1         14           0        0.907070   -0.618837    0.271837
      2          5           0       -1.001298    0.053888    0.020708
      3          8           0       -2.069188   -0.729010   -0.334656
      4          8           0       -1.234082    1.379786    0.230456
      5          6           0        2.193100    0.585370   -0.400218
      6          1           0        2.072601    0.723869   -1.477926
      7          1           0        3.209390    0.229129   -0.214186
      8          1           0        2.078876    1.562371    0.076391
      9          1           0       -2.163517    1.611668    0.102179
     10          1           0       -1.838959   -1.649356   -0.484412
     11          1           0        1.057084   -1.944509   -0.395745
     12          1           0        1.159597   -0.857311    1.719352
 ---------------------------------------------------------------------

 SCF Done:  E(RHF) =  -505.524412762     A.U. after    2 cycles

 The electronic state is 1-A.
 Alpha  occ. eigenvalues --  -69.04452 -20.59103 -20.58353 -11.21578  -7.66104
 Alpha  occ. eigenvalues --   -6.79893  -3.90675  -3.90661  -3.90613  -1.34995
 Alpha  occ. eigenvalues --   -1.31161  -0.93647  -0.78939  -0.75621  -0.68070
 Alpha  occ. eigenvalues --   -0.62041  -0.59428  -0.58755  -0.55908  -0.55701
 Alpha  occ. eigenvalues --   -0.52563  -0.46084  -0.45036  -0.41038
 Alpha virt. eigenvalues --    0.03180   0.04497   0.04742   0.05596   0.06741
 Alpha virt. eigenvalues --    0.06780   0.07073   0.07799   0.08048   0.09876
 Alpha virt. eigenvalues --    0.10087   0.10729   0.11333   0.12670   0.14124

 Mulliken charges:
               1
     1  Si   0.035555
     2  B    0.874058
     3  O   -0.480573
     4  O   -0.509887
     5  C    0.238208
     6  H   -0.172654
     7  H   -0.274656
     8  H   -0.138372
     9  H    0.174333
    10  H    0.188165
    11  H    0.042397
    12  H    0.023429
 Sum of Mulliken charges =  -0.00000

 Dipole moment (field-independent basis, Debye):
    X=             -0.3989    Y=             -0.6911    Z=             -0.6696  Tot=              1.0417

 Test job not archived.
 1\1\GINC-SE227\SP\RHF\Aug-CC-pVDZ\C1H7B1O2Si1\OHZDE\09-Apr-2025\0\\#t
 hf aug-cc-pvdz iop(5/13=1,5/36=2,99/5=2) pseudo=read geom=check guess=
 (read,tcheck) scf=(maxcycle=1)\\title\\0,1\Si,0,0.90707,-0.618837,0.27
 1837\B,0,-1.001298,0.053888,0.020708\O,0,-2.069188,-0.72901,-0.334656\
 O,0,-1.234082,1.379786,0.230456\C,0,2.1931,0.58537,-0.400218\H,0,2.072
 601,0.723869,-1.477926\H,0,3.20939,0.229129,-0.214186\H,0,2.078876,1.5
 62371,0.076391\H,0,-2.163517,1.611668,0.102179\H,0,-1.838959,-1.649356
 ,-0.484412\H,0,1.057084,-1.944509,-0.395745\H,0,1.159597,-0.857311,1.7

 Normal termination of Gaussian 16 at Wed Apr  9 00:45:07 2025.
