 Gaussian 16, Revision C.01,

 ----------------------------------------------------------------------
 #t hf aug-cc-pvdz symm=none int=(grid=ultrafine) guess=(read,tcheck) s
 table=(opt,rrhf)
 ----------------------------------------------------------------------
 -----
 title
 -----
 Symbolic Z-matrix:
 Charge =  0 Multiplicity = 1

 SCF Done:  E(RHF) =  -498.625967518     A.U. after   12 cycles

 1\1\GINC-SE218\Stability\RHF\Aug-CC-pVDZ\C4H11P1\OHZDE\08-Apr-2025\0\\
 #t hf aug-cc-pvdz symm=none int=(grid=ultrafine) guess=(read,tcheck) s
 table=(opt,rrhf)\\title\\0,1\P,0,1.959984,-0.001883,-0.190491\C,0,0.29
 722,-0.705751,0.330066\H,0,0.315741,-1.754998,0.016743\H,0,0.193597,-0
 .699315,1.419176\C,0,-0.910236,-0.005508,-0.322763\C,0,-2.200858,-0.78
 3838,-0.027967\H,0,-2.405885,-0.808293,1.0477\H,0,-2.132025,-1.817691,
 -0.37843\C,0,-1.042151,1.457001,0.123696\H,0,-3.060763,-0.31974,-0.519
 653\H,0,-0.752683,-0.013465,-1.409114\H,0,-1.913949,1.928296,-0.338417

 Normal termination of Gaussian 16 at Tue Apr  8 23:26:18 2025.
 Gaussian 16:  ES64L-G16RevC.01  3-Jul-2019

 ----------------------------------------------------------------------
 #t hf aug-cc-pvdz iop(5/13=1,5/36=2,99/5=2) pseudo=read geom=check gue
 ss=(read,tcheck) scf=(maxcycle=1)
 ----------------------------------------------------------------------
 -----
 title
 -----
 Structure from the checkpoint file:  "BDE49_nonexpt_1311_mol1.chk"
 Charge =  0 Multiplicity = 1

                         Standard orientation:
 ---------------------------------------------------------------------
 Center     Atomic      Atomic             Coordinates (Angstroms)
 Number     Number       Type             X           Y           Z
 ---------------------------------------------------------------------
      1         15           0        1.959984   -0.001883   -0.190491
      2          6           0        0.297220   -0.705751    0.330066
      3          1           0        0.315741   -1.754998    0.016743
      4          1           0        0.193597   -0.699315    1.419176
      5          6           0       -0.910236   -0.005508   -0.322763
      6          6           0       -2.200858   -0.783838   -0.027967
      7          1           0       -2.405885   -0.808293    1.047700
      8          1           0       -2.132025   -1.817691   -0.378430
      9          6           0       -1.042151    1.457001    0.123696
     10          1           0       -3.060763   -0.319740   -0.519653
     11          1           0       -0.752683   -0.013465   -1.409114
     12          1           0       -1.913949    1.928296   -0.338417
     13          1           0       -1.164194    1.522887    1.210482
     14          1           0       -0.165657    2.050204   -0.150694
     15          1           0        2.763473   -0.880053    0.582973
     16          1           0        2.058734    1.048989    0.758410
 ---------------------------------------------------------------------

 SCF Done:  E(RHF) =  -498.698013457     A.U. after    2 cycles

 The electronic state is 1-A.
 Alpha  occ. eigenvalues --  -81.24927 -11.24348 -11.24034 -11.22564 -11.22553
 Alpha  occ. eigenvalues --   -7.75267  -4.89261  -4.89231  -4.88901  -1.07859
 Alpha  occ. eigenvalues --   -0.93913  -0.92922  -0.79080  -0.74193  -0.63903
 Alpha  occ. eigenvalues --   -0.60533  -0.57986  -0.55298  -0.54004  -0.51102
 Alpha  occ. eigenvalues --   -0.50007  -0.47044  -0.46540  -0.44045  -0.34625
 Alpha virt. eigenvalues --    0.03498   0.04465   0.04753   0.05082   0.06572
 Alpha virt. eigenvalues --    0.06737   0.07057   0.07406   0.07923   0.09070
 Alpha virt. eigenvalues --    0.09774   0.10666   0.12437   0.13363   0.14259

 Mulliken charges:
               1
     1  P    0.057056
     2  C    0.307905
     3  H   -0.148083
     4  H   -0.131096
     5  C   -1.325053
     6  C    0.814690
     7  H   -0.005579
     8  H   -0.080025
     9  C    0.714341
    10  H   -0.074675
    11  H   -0.129342
    12  H   -0.071220
    13  H   -0.030082
    14  H   -0.114563
    15  H    0.075646
    16  H    0.140081
 Sum of Mulliken charges =  -0.00000

 Dipole moment (field-independent basis, Debye):
    X=             -0.9125    Y=             -0.3373    Z=              0.6905  Tot=              1.1930

 Test job not archived.
 1\1\GINC-SE218\SP\RHF\Aug-CC-pVDZ\C4H11P1\OHZDE\08-Apr-2025\0\\#t hf a
 ug-cc-pvdz iop(5/13=1,5/36=2,99/5=2) pseudo=read geom=check guess=(rea
 d,tcheck) scf=(maxcycle=1)\\title\\0,1\P,0,1.959984,-0.001883,-0.19049
 1\C,0,0.29722,-0.705751,0.330066\H,0,0.315741,-1.754998,0.016743\H,0,0
 .193597,-0.699315,1.419176\C,0,-0.910236,-0.005508,-0.322763\C,0,-2.20
 0858,-0.783838,-0.027967\H,0,-2.405885,-0.808293,1.0477\H,0,-2.132025,
 -1.817691,-0.37843\C,0,-1.042151,1.457001,0.123696\H,0,-3.060763,-0.31
 974,-0.519653\H,0,-0.752683,-0.013465,-1.409114\H,0,-1.913949,1.928296

 Normal termination of Gaussian 16 at Tue Apr  8 23:26:23 2025.
