 Gaussian 16, Revision C.01,

 ----------------------------------------------------------------------
 #t hf aug-cc-pvdz symm=none int=(grid=ultrafine) guess=(read,tcheck) s
 table=opt
 ----------------------------------------------------------------------
 -----
 title
 -----
 Symbolic Z-matrix:
 Charge =  0 Multiplicity = 2

 SCF Done:  E(UHF) =  -633.537673836     A.U. after   21 cycles
 Normal termination of Gaussian 16 at Tue Apr  8 23:35:11 2025.
 Gaussian 16:  ES64L-G16RevC.01  3-Jul-2019

 ----------------------------------------------------------------------
 #t hf aug-cc-pvdz iop(5/13=1,5/36=2,99/5=2) pseudo=read geom=check gue
 ss=(read,tcheck) scf=(maxcycle=1)
 ----------------------------------------------------------------------
 -----
 title
 -----
 Structure from the checkpoint file:  "BDE49_nonexpt_1518_mol2.chk"
 Charge =  0 Multiplicity = 2

                         Standard orientation:
 ---------------------------------------------------------------------
 Center     Atomic      Atomic             Coordinates (Angstroms)
 Number     Number       Type             X           Y           Z
 ---------------------------------------------------------------------
      1         15           0       -0.684646   -0.817639   -0.224115
      2          6           0       -1.959755    0.442049    0.192703
      3          1           0       -2.939501    0.010311   -0.022001
      4          1           0       -1.826252    1.346733   -0.405045
      5          1           0       -1.909682    0.708537    1.251766
      6          7           0        0.681565    0.122070    0.450881
      7          9           0        0.819955    1.335054   -0.290468
      8          9           0        1.839232   -0.591475    0.093203
 ---------------------------------------------------------------------

 SCF Done:  E(UHF) =  -633.658347957     A.U. after    2 cycles

 The electronic state is 2-A.
 Alpha  occ. eigenvalues --  -81.32024 -26.16528 -26.16411 -15.82672 -11.26634
 Alpha  occ. eigenvalues --   -7.82270  -4.96916  -4.95969  -4.95520  -1.70894
 Alpha  occ. eigenvalues --   -1.65631  -1.11858  -0.99325  -0.84415  -0.80588
 Alpha  occ. eigenvalues --   -0.79862  -0.74315  -0.73100  -0.70174  -0.63040
 Alpha  occ. eigenvalues --   -0.60663  -0.57689  -0.50136  -0.43360  -0.36712
 Alpha virt. eigenvalues --    0.03095   0.05226   0.05649   0.07149   0.08538
 Alpha virt. eigenvalues --    0.10818   0.11273   0.13019   0.14562   0.14818
 Alpha virt. eigenvalues --    0.16199   0.17110   0.18604   0.18692   0.20693

  Beta  occ. eigenvalues --  -81.31307 -26.16529 -26.15987 -15.82756 -11.26769
  Beta  occ. eigenvalues --   -7.81408  -4.95528  -4.95150  -4.93594  -1.70399
  Beta  occ. eigenvalues --   -1.64802  -1.11388  -0.98761  -0.82951  -0.79818
  Beta  occ. eigenvalues --   -0.79455  -0.74068  -0.70137  -0.69438  -0.61405
  Beta  occ. eigenvalues --   -0.59259  -0.56802  -0.49079  -0.40931
  Beta virt. eigenvalues --    0.02174   0.03165   0.05331   0.06000   0.07304
  Beta virt. eigenvalues --    0.08915   0.11428   0.12335   0.13617   0.15014
  Beta virt. eigenvalues --    0.15428   0.16540   0.17633   0.18822   0.19270

 Mulliken charges and spin densities:
               1          2
     1  P    0.917825   1.104250
     2  C    0.093616  -0.104864
     3  H   -0.171775  -0.004373
     4  H   -0.089070   0.016865
     5  H   -0.104863   0.015244
     6  N    0.087857  -0.075283
     7  F   -0.378709   0.042028
     8  F   -0.354881   0.006133
 Sum of Mulliken charges =  -0.00000   1.00000

 Dipole moment (field-independent basis, Debye):
    X=             -3.5757    Y=             -0.3901    Z=              0.2074  Tot=              3.6029
                          Isotropic Fermi Contact Couplings
        Atom                 a.u.       MegaHertz       Gauss      10(-4) cm-1
     1  P(31)              0.26230     475.05139     169.51015     158.46009
     2  C(13)             -0.02633     -29.59746     -10.56111      -9.87265
     3  H(1)               0.00020       0.87348       0.31168       0.29136
     4  H(1)               0.01208      53.99349      19.26622      18.01029
     5  H(1)               0.01045      46.70695      16.66620      15.57976
     6  N(14)              0.06399      20.67645       7.37787       6.89692
     7  F(19)              0.05722     240.76494      85.91092      80.31054
     8  F(19)             -0.00075      -3.16028      -1.12767      -1.05416

 Normal termination of Gaussian 16 at Tue Apr  8 23:35:14 2025.
