 Gaussian 16, Revision C.01,

 ----------------------------------------------------------------------
 #t hf aug-cc-pvdz symm=none int=(grid=ultrafine) guess=(read,tcheck) s
 table=opt
 ----------------------------------------------------------------------
 -----
 title
 -----
 Symbolic Z-matrix:
 Charge =  0 Multiplicity = 2

 SCF Done:  E(UHF) =  -156.684931033     A.U. after   15 cycles
 Normal termination of Gaussian 16 at Tue Apr  8 22:39:37 2025.
 Gaussian 16:  ES64L-G16RevC.01  3-Jul-2019

 ----------------------------------------------------------------------
 #t hf aug-cc-pvdz iop(5/13=1,5/36=2,99/5=2) pseudo=read geom=check gue
 ss=(read,tcheck) scf=(maxcycle=1)
 ----------------------------------------------------------------------
 -----
 title
 -----
 Structure from the checkpoint file:  "BDE49_expt_1338_mol2.chk"
 Charge =  0 Multiplicity = 2

                         Standard orientation:
 ---------------------------------------------------------------------
 Center     Atomic      Atomic             Coordinates (Angstroms)
 Number     Number       Type             X           Y           Z
 ---------------------------------------------------------------------
      1          6           0        0.000010    1.483372    0.102728
      2          6           0        0.000001    0.059637   -0.347678
      3          6           0        1.271155   -0.680749    0.101758
      4          1           0        2.171713   -0.167977   -0.247981
      5          1           0        1.291471   -1.701091   -0.291757
      6          1           0        1.320343   -0.737652    1.193668
      7          6           0       -1.271164   -0.680733    0.101751
      8          1           0        0.000005    0.053021   -1.453912
      9          1           0       -1.291489   -1.701076   -0.291761
     10          1           0       -2.171714   -0.167951   -0.247994
     11          1           0       -1.320359   -0.737633    1.193662
     12          1           0        0.928065    2.035601    0.197320
     13          1           0       -0.928043    2.035591    0.197401
 ---------------------------------------------------------------------

 SCF Done:  E(UHF) =  -156.735974542     A.U. after    2 cycles

 The electronic state is 2-A.
 Alpha  occ. eigenvalues --  -11.23844 -11.23492 -11.22267 -11.22259  -1.07691
 Alpha  occ. eigenvalues --   -0.92573  -0.92507  -0.76762  -0.63033  -0.61002
 Alpha  occ. eigenvalues --   -0.59631  -0.53889  -0.52228  -0.49508  -0.48615
 Alpha  occ. eigenvalues --   -0.47120  -0.34918
 Alpha virt. eigenvalues --    0.03627   0.04779   0.04810   0.05087   0.06845
 Alpha virt. eigenvalues --    0.07170   0.07571   0.07774   0.09339   0.12434
 Alpha virt. eigenvalues --    0.13561   0.14925   0.15393   0.15919   0.16540

  Beta  occ. eigenvalues --  -11.24164 -11.22192 -11.22184 -11.21061  -1.06253
  Beta  occ. eigenvalues --   -0.92431  -0.86992  -0.74623  -0.61827  -0.59995
  Beta  occ. eigenvalues --   -0.59277  -0.53823  -0.51858  -0.48159  -0.47129
  Beta  occ. eigenvalues --   -0.46937
  Beta virt. eigenvalues --    0.03635   0.04781   0.04823   0.04969   0.06863
  Beta virt. eigenvalues --    0.07187   0.07565   0.07787   0.09170   0.09345
  Beta virt. eigenvalues --    0.13214   0.15017   0.15466   0.15810   0.15934

 Mulliken charges and spin densities:
               1          2
     1  C    0.756433   1.412466
     2  C   -0.872862  -0.278598
     3  C    0.572473   0.029557
     4  H   -0.089518  -0.005023
     5  H   -0.083603  -0.000776
     6  H   -0.017016   0.001079
     7  C    0.572489   0.029553
     8  H   -0.051023   0.033783
     9  H   -0.083606  -0.000777
    10  H   -0.089517  -0.005022
    11  H   -0.017011   0.001080
    12  H   -0.298622  -0.108662
    13  H   -0.298618  -0.108662
 Sum of Mulliken charges =  -0.00000   1.00000

 Dipole moment (field-independent basis, Debye):
    X=             -0.0000    Y=             -0.1209    Z=             -0.2306  Tot=              0.2604
                          Isotropic Fermi Contact Couplings
        Atom                 a.u.       MegaHertz       Gauss      10(-4) cm-1
     1  C(13)              0.21525     241.97772      86.34367      80.71508
     2  C(13)             -0.05948     -66.86202     -23.85803     -22.30277
     3  C(13)              0.01859      20.90020       7.45771       6.97156
     4  H(1)              -0.00073      -3.27143      -1.16733      -1.09123
     5  H(1)              -0.00052      -2.31408      -0.82572      -0.77190
     6  H(1)              -0.00083      -3.69432      -1.31822      -1.23229
     7  C(13)              0.01859      20.89516       7.45591       6.96988
     8  H(1)               0.02433     108.73740      38.80021      36.27089

 Normal termination of Gaussian 16 at Tue Apr  8 22:39:40 2025.
