 Gaussian 16, Revision C.01,

 ----------------------------------------------------------------------
 #t hf aug-cc-pvdz symm=none int=(grid=ultrafine) guess=(read,tcheck) s
 table=(opt,rrhf)
 ----------------------------------------------------------------------
 -----
 title
 -----
 Symbolic Z-matrix:
 Charge =  0 Multiplicity = 1

 SCF Done:  E(RHF) =  -459.590746574     A.U. after   12 cycles
 Normal termination of Gaussian 16 at Tue Apr  8 23:25:59 2025.
 Gaussian 16:  ES64L-G16RevC.01  3-Jul-2019

 ----------------------------------------------------------------------
 #t hf aug-cc-pvdz iop(5/13=1,5/36=2,99/5=2) pseudo=read geom=check gue
 ss=(read,tcheck) scf=(maxcycle=1)
 ----------------------------------------------------------------------
 -----
 title
 -----
 Structure from the checkpoint file:  "BDE49_nonexpt_1308_mol1.chk"
 Charge =  0 Multiplicity = 1

                         Standard orientation:
 ---------------------------------------------------------------------
 Center     Atomic      Atomic             Coordinates (Angstroms)
 Number     Number       Type             X           Y           Z
 ---------------------------------------------------------------------
      1          6           0        0.839331    0.634290   -0.046135
      2         15           0       -0.532571   -0.634127   -0.135463
      3          6           0       -2.023394    0.463667    0.068662
      4          1           0       -2.903806   -0.158441    0.245207
      5          1           0       -2.189729    1.014907   -0.860025
      6          1           0       -1.923645    1.177263    0.889663
      7          6           0        2.226558   -0.010590    0.055127
      8          1           0        0.670638    1.318153    0.791329
      9          1           0        0.772447    1.229571   -0.963144
     10          1           0        2.329086   -0.592034    0.975899
     11          1           0        3.012850    0.749563    0.055677
     12          1           0        2.414470   -0.685106   -0.784557
     13          1           0       -0.448716   -1.066168    1.215974
 ---------------------------------------------------------------------

 SCF Done:  E(RHF) =  -459.653713731     A.U. after    2 cycles

 The electronic state is 1-A.
 Alpha  occ. eigenvalues --  -81.24464 -11.23847 -11.23402 -11.23088  -7.74763
 Alpha  occ. eigenvalues --   -4.88731  -4.88727  -4.88380  -1.02474  -0.95544
 Alpha  occ. eigenvalues --   -0.84931  -0.71695  -0.61950  -0.58030  -0.57140
 Alpha  occ. eigenvalues --   -0.57066  -0.52055  -0.50160  -0.46575  -0.43758
 Alpha  occ. eigenvalues --   -0.32952
 Alpha virt. eigenvalues --    0.03598   0.04341   0.04964   0.05431   0.06628
 Alpha virt. eigenvalues --    0.07052   0.07156   0.08784   0.09184   0.10191
 Alpha virt. eigenvalues --    0.11692   0.12716   0.14185   0.15351   0.16099

 Mulliken charges:
               1
     1  C   -0.089986
     2  P    0.368818
     3  C    0.206141
     4  H   -0.180277
     5  H   -0.117217
     6  H   -0.176665
     7  C    0.336684
     8  H   -0.160808
     9  H   -0.100315
    10  H   -0.092504
    11  H   -0.063794
    12  H   -0.077706
    13  H    0.147630
 Sum of Mulliken charges =  -0.00000

 Dipole moment (field-independent basis, Debye):
    X=              0.0383    Y=              1.2207    Z=              0.5569  Tot=              1.3423

 Test job not archived.
 1\1\GINC-SE084\SP\RHF\Aug-CC-pVDZ\C3H9P1\OHZDE\08-Apr-2025\0\\#t hf au
 g-cc-pvdz iop(5/13=1,5/36=2,99/5=2) pseudo=read geom=check guess=(read
 ,tcheck) scf=(maxcycle=1)\\title\\0,1\C,0,0.839331,0.63429,-0.046135\P
 ,0,-0.532571,-0.634127,-0.135463\C,0,-2.023394,0.463667,0.068662\H,0,-
 2.903806,-0.158441,0.245207\H,0,-2.189729,1.014907,-0.860025\H,0,-1.92
 3645,1.177263,0.889663\C,0,2.226558,-0.01059,0.055127\H,0,0.670638,1.3
 18153,0.791329\H,0,0.772447,1.229571,-0.963144\H,0,2.329086,-0.592034,
 0.975899\H,0,3.01285,0.749563,0.055677\H,0,2.41447,-0.685106,-0.784557

 Normal termination of Gaussian 16 at Tue Apr  8 23:26:04 2025.
