 Gaussian 16, Revision C.01,

 ----------------------------------------------------------------------
 #t hf aug-cc-pvdz symm=none int=(grid=ultrafine) guess=(read,tcheck) s
 table=(opt,rrhf)
 ----------------------------------------------------------------------
 -----
 title
 -----
 Symbolic Z-matrix:
 Charge =  0 Multiplicity = 1

 SCF Done:  E(RHF) =  -476.770100465     A.U. after   12 cycles
 Normal termination of Gaussian 16 at Tue Apr  8 22:44:27 2025.
 Gaussian 16:  ES64L-G16RevC.01  3-Jul-2019

 ----------------------------------------------------------------------
 #t hf aug-cc-pvdz iop(5/13=1,5/36=2,99/5=2) pseudo=read geom=check gue
 ss=(read,tcheck) scf=(maxcycle=1)
 ----------------------------------------------------------------------
 -----
 title
 -----
 Structure from the checkpoint file:  "BDE49_expt_1546_mol1.chk"
 Charge =  0 Multiplicity = 1

                         Standard orientation:
 ---------------------------------------------------------------------
 Center     Atomic      Atomic             Coordinates (Angstroms)
 Number     Number       Type             X           Y           Z
 ---------------------------------------------------------------------
      1         16           0       -1.113776   -0.232816   -0.000001
      2          6           0        0.495189    0.671675    0.000001
      3          6           0        1.643155   -0.334376    0.000001
      4          1           0        0.540899    1.304978    0.887079
      5          1           0        0.540900    1.304979   -0.887076
      6          1           0        1.609596   -0.974619    0.884978
      7          1           0        2.601436    0.192185    0.000002
      8          1           0        1.609597   -0.974618   -0.884977
      9          1           0       -1.912083    0.848352   -0.000001
 ---------------------------------------------------------------------

 SCF Done:  E(RHF) =  -476.817163911     A.U. after    2 cycles

 The electronic state is 1-A.
 Alpha  occ. eigenvalues --  -93.53011 -11.27466 -11.23962  -8.82758  -6.16925
 Alpha  occ. eigenvalues --   -6.16688  -6.16347  -1.05856  -0.93399  -0.81652
 Alpha  occ. eigenvalues --   -0.63384  -0.61552  -0.54355  -0.51738  -0.50208
 Alpha  occ. eigenvalues --   -0.44496  -0.35296
 Alpha virt. eigenvalues --    0.03482   0.04700   0.05305   0.05440   0.07247
 Alpha virt. eigenvalues --    0.07889   0.10264   0.12414   0.13195   0.13984
 Alpha virt. eigenvalues --    0.14634   0.16773   0.17224   0.17541   0.18167

 Mulliken charges:
               1
     1  S    0.201859
     2  C   -0.159805
     3  C    0.304462
     4  H   -0.107638
     5  H   -0.107638
     6  H   -0.063999
     7  H   -0.043586
     8  H   -0.063998
     9  H    0.040342
 Sum of Mulliken charges =  -0.00000

 Dipole moment (field-independent basis, Debye):
    X=              1.1571    Y=              1.3786    Z=              0.0000  Tot=              1.7998

 Test job not archived.
 1\1\GINC-SE328\SP\RHF\Aug-CC-pVDZ\C2H6S1\OHZDE\08-Apr-2025\0\\#t hf au
 g-cc-pvdz iop(5/13=1,5/36=2,99/5=2) pseudo=read geom=check guess=(read
 ,tcheck) scf=(maxcycle=1)\\title\\0,1\S,0,-1.113776,-0.232816,-0.00000
 1\C,0,0.495189,0.671675,0.000001\C,0,1.643155,-0.334376,0.000001\H,0,0
 .540899,1.304978,0.887079\H,0,0.5409,1.304979,-0.887076\H,0,1.609596,-
 0.974619,0.884978\H,0,2.601436,0.192185,0.000002\H,0,1.609597,-0.97461
 8,-0.884977\H,0,-1.912083,0.848352,-0.000001\\Version=ES64L-G16RevC.01
 \State=1-A\HF=-476.8171639\RMSD=5.113e-03\Dipole=0.4552212,0.5423644,0

 Normal termination of Gaussian 16 at Tue Apr  8 22:44:29 2025.
