 Gaussian 16, Revision C.01,

 ----------------------------------------------------------------------
 #t hf aug-cc-pvdz symm=none int=(grid=ultrafine) guess=(read,tcheck) s
 table=(opt,rrhf)
 ----------------------------------------------------------------------
 -----
 title
 -----
 Symbolic Z-matrix:
 Charge =  0 Multiplicity = 1

 SCF Done:  E(RHF) =  -569.618895502     A.U. after   14 cycles
 Normal termination of Gaussian 16 at Tue Apr  8 23:55:20 2025.
 Gaussian 16:  ES64L-G16RevC.01  3-Jul-2019

 ----------------------------------------------------------------------
 #t hf aug-cc-pvdz iop(5/13=1,5/36=2,99/5=2) pseudo=read geom=check gue
 ss=(read,tcheck) scf=(maxcycle=1)
 ----------------------------------------------------------------------
 -----
 title
 -----
 Structure from the checkpoint file:  "BDE49_nonexpt_2014_mol1.chk"
 Charge =  0 Multiplicity = 1

                         Standard orientation:
 ---------------------------------------------------------------------
 Center     Atomic      Atomic             Coordinates (Angstroms)
 Number     Number       Type             X           Y           Z
 ---------------------------------------------------------------------
      1          7           0       -1.020952    0.039361    0.000021
      2         14           0        1.643061    0.001523    0.000003
      3          8           0       -0.797604    1.234503   -0.000023
      4          8           0       -2.064960   -0.538570   -0.000012
      5          8           0        0.113325   -0.788541    0.000011
      6          1           0        2.535051   -1.170089   -0.000010
      7          1           0        1.801341    0.807049    1.221399
      8          1           0        1.801321    0.807060   -1.221390
 ---------------------------------------------------------------------

 SCF Done:  E(RHF) =  -569.736206938     A.U. after    2 cycles

 The electronic state is 1-A.
 Alpha  occ. eigenvalues --  -69.13420 -20.67368 -20.65996 -20.65305 -16.00216
 Alpha  occ. eigenvalues --   -6.88221  -3.99138  -3.98959  -3.98920  -1.62194
 Alpha  occ. eigenvalues --   -1.42779  -1.37416  -0.94479  -0.83334  -0.79690
 Alpha  occ. eigenvalues --   -0.79263  -0.73231  -0.63079  -0.60516  -0.56668
 Alpha  occ. eigenvalues --   -0.54641  -0.52200  -0.51150  -0.50183
 Alpha virt. eigenvalues --    0.03226   0.04617   0.05236   0.05985   0.07607
 Alpha virt. eigenvalues --    0.08667   0.08751   0.11520   0.13673   0.14481
 Alpha virt. eigenvalues --    0.15253   0.16130   0.18713   0.19035   0.19525

 Mulliken charges:
               1
     1  N    0.827687
     2  Si   0.720905
     3  O   -0.402959
     4  O   -0.401390
     5  O   -0.715677
     6  H    0.010272
     7  H   -0.019423
     8  H   -0.019415
 Sum of Mulliken charges =  -0.00000

 Dipole moment (field-independent basis, Debye):
    X=              3.1517    Y=             -0.0508    Z=              0.0001  Tot=              3.1521

 Test job not archived.
 1\1\GINC-SE453\SP\RHF\Aug-CC-pVDZ\H3N1O3Si1\OHZDE\08-Apr-2025\0\\#t hf
  aug-cc-pvdz iop(5/13=1,5/36=2,99/5=2) pseudo=read geom=check guess=(r
 ead,tcheck) scf=(maxcycle=1)\\title\\0,1\N,0,1.020952,0.039361,-0.0000
 21\Si,0,-1.643061,0.001523,-0.000003\O,0,0.797604,1.234503,0.000023\O,
 0,2.06496,-0.53857,0.000012\O,0,-0.113325,-0.788541,-0.000011\H,0,-2.5
 35051,-1.170089,0.00001\H,0,-1.801341,0.807049,-1.221399\H,0,-1.801321
 ,0.80706,1.22139\\Version=ES64L-G16RevC.01\State=1-A\HF=-569.7362069\R
 MSD=5.064e-03\Dipole=-1.2399752,-0.0199803,-0.0000399\Quadrupole=0.326

 Normal termination of Gaussian 16 at Tue Apr  8 23:55:23 2025.
