 Gaussian 16, Revision C.01,

 ----------------------------------------------------------------------
 #t hf aug-cc-pvdz symm=none int=(grid=ultrafine) guess=(read,tcheck) s
 table=(opt,rrhf)
 ----------------------------------------------------------------------
 -----
 title
 -----
 Symbolic Z-matrix:
 Charge =  0 Multiplicity = 1

 SCF Done:  E(RHF) =  -347.844697008     A.U. after   14 cycles
 Normal termination of Gaussian 16 at Tue Apr  8 22:31:32 2025.
 Gaussian 16:  ES64L-G16RevC.01  3-Jul-2019

 ----------------------------------------------------------------------
 #t hf aug-cc-pvdz iop(5/13=1,5/36=2,99/5=2) pseudo=read geom=check gue
 ss=(read,tcheck) scf=(maxcycle=1)
 ----------------------------------------------------------------------
 -----
 title
 -----
 Structure from the checkpoint file:  "BDE49_expt_105_mol1.chk"
 Charge =  0 Multiplicity = 1

                         Standard orientation:
 ---------------------------------------------------------------------
 Center     Atomic      Atomic             Coordinates (Angstroms)
 Number     Number       Type             X           Y           Z
 ---------------------------------------------------------------------
      1          6           0       -2.650305    0.214326   -0.000000
      2          6           0       -1.779164    1.302728    0.000042
      3          6           0       -0.402234    1.098966    0.000037
      4          6           0        0.136720   -0.194091   -0.000009
      5          6           0       -0.750292   -1.274591   -0.000050
      6          6           0       -2.130329   -1.076707   -0.000046
      7          1           0       -0.354441   -2.285524   -0.000087
      8          1           0       -2.173642    2.313095    0.000078
      9          1           0        0.259168    1.959022    0.000070
     10          1           0       -2.797239   -1.932027   -0.000079
     11          1           0       -3.722876    0.372698    0.000003
     12          6           0        1.641238   -0.426805   -0.000012
     13          6           0        2.309246    0.131375   -1.269497
     14          1           0        1.859001   -0.291591   -2.170993
     15          1           0        3.377638   -0.104480   -1.278711
     16          1           0        2.208718    1.219319   -1.325495
     17          6           0        2.309234    0.131268    1.269526
     18          1           0        1.793683   -1.512171   -0.000057
     19          1           0        3.377626   -0.104587    1.278731
     20          1           0        1.858980   -0.291775    2.170982
     21          1           0        2.208703    1.219207    1.325615
 ---------------------------------------------------------------------

 SCF Done:  E(RHF) =  -347.949466139     A.U. after    2 cycles

 The electronic state is 1-A.
 Alpha  occ. eigenvalues --  -11.24543 -11.24386 -11.24237 -11.24196 -11.23843
 Alpha  occ. eigenvalues --  -11.23757 -11.23747 -11.22505 -11.22499  -1.14399
 Alpha  occ. eigenvalues --   -1.07104  -1.00536  -0.98680  -0.92691  -0.84588
 Alpha  occ. eigenvalues --   -0.82426  -0.77202  -0.69648  -0.64843  -0.63068
 Alpha  occ. eigenvalues --   -0.60304  -0.59423  -0.58312  -0.56990  -0.54042
 Alpha  occ. eigenvalues --   -0.53386  -0.50148  -0.49964  -0.47686  -0.46894
 Alpha  occ. eigenvalues --   -0.46514  -0.33685  -0.32695
 Alpha virt. eigenvalues --    0.03359   0.03917   0.04133   0.05059   0.05430
 Alpha virt. eigenvalues --    0.05691   0.06680   0.07359   0.07528   0.07906
 Alpha virt. eigenvalues --    0.08117   0.10248   0.11053   0.11363   0.12127

 Mulliken charges:
               1
     1  C    0.635479
     2  C    0.210825
     3  C    0.614158
     4  C    0.584106
     5  C    0.562095
     6  C    0.370048
     7  H   -0.597746
     8  H   -0.454143
     9  H   -0.648145
    10  H   -0.442142
    11  H   -0.452688
    12  C   -1.052374
    13  C    0.683415
    14  H   -0.090642
    15  H   -0.092147
    16  H   -0.065763
    17  C    0.683412
    18  H   -0.199195
    19  H   -0.092149
    20  H   -0.090641
    21  H   -0.065762
 Sum of Mulliken charges =  -0.00000

 Dipole moment (field-independent basis, Debye):
    X=              0.4101    Y=             -0.0853    Z=             -0.0000  Tot=              0.4189

 Test job not archived.
 1\1\GINC-SE455\SP\RHF\Aug-CC-pVDZ\C9H12\OHZDE\08-Apr-2025\0\\#t hf aug
 -cc-pvdz iop(5/13=1,5/36=2,99/5=2) pseudo=read geom=check guess=(read,
 tcheck) scf=(maxcycle=1)\\title\\0,1\C,0,-2.650305,0.214326,0.\C,0,-1.
 779164,1.302728,0.000042\C,0,-0.402234,1.098966,0.000037\C,0,0.13672,-
 0.194091,-0.000009\C,0,-0.750292,-1.274591,-0.00005\C,0,-2.130329,-1.0
 76707,-0.000046\H,0,-0.354441,-2.285524,-0.000087\H,0,-2.173642,2.3130
 95,0.000078\H,0,0.259168,1.959022,0.00007\H,0,-2.797239,-1.932027,-0.0
 00079\H,0,-3.722876,0.372698,0.000003\C,0,1.641238,-0.426805,-0.000012

 Normal termination of Gaussian 16 at Tue Apr  8 22:31:42 2025.
