 Gaussian 16, Revision C.01,

 ----------------------------------------------------------------------
 #t hf aug-cc-pvdz symm=none int=(grid=ultrafine) guess=(read,tcheck) s
 table=(opt,rrhf)
 ----------------------------------------------------------------------
 -----
 title
 -----
 Symbolic Z-matrix:
 Charge =  0 Multiplicity = 1

 SCF Done:  E(RHF) =  -725.335162360     A.U. after   14 cycles
 Normal termination of Gaussian 16 at Wed Apr  9 00:21:45 2025.
 Gaussian 16:  ES64L-G16RevC.01  3-Jul-2019

 ----------------------------------------------------------------------
 #t hf aug-cc-pvdz iop(5/13=1,5/36=2,99/5=2) pseudo=read geom=check gue
 ss=(read,tcheck) scf=(maxcycle=1)
 ----------------------------------------------------------------------
 -----
 title
 -----
 Structure from the checkpoint file:  "BDE49_nonexpt_2682_mol1.chk"
 Charge =  0 Multiplicity = 1

                         Standard orientation:
 ---------------------------------------------------------------------
 Center     Atomic      Atomic             Coordinates (Angstroms)
 Number     Number       Type             X           Y           Z
 ---------------------------------------------------------------------
      1          9           0        2.347160    0.252163    0.345783
      2         16           0        1.132103   -0.762647   -0.191490
      3          6           0       -0.308384    0.286777    0.250423
      4          8           0       -1.321609   -0.477837   -0.336605
      5          8           0       -0.230096    1.585813   -0.212932
      6          6           0       -2.613533   -0.296239    0.251145
      7          1           0       -2.625059   -0.648844    1.288564
      8          1           0       -3.307640   -0.890567   -0.340448
      9          1           0       -2.908062    0.756312    0.214796
     10          1           0       -0.040097    1.550802   -1.160217
     11          1           0       -0.412082    0.358138    1.335977
 ---------------------------------------------------------------------

 SCF Done:  E(RHF) =  -725.467826848     A.U. after    2 cycles

 The electronic state is 1-A.
 Alpha  occ. eigenvalues --  -93.62026 -26.12465 -20.61299 -20.61027 -11.40336
 Alpha  occ. eigenvalues --  -11.30981  -8.90951  -6.25145  -6.24737  -6.24320
 Alpha  occ. eigenvalues --   -1.63527  -1.41112  -1.33938  -1.03522  -0.94547
 Alpha  occ. eigenvalues --   -0.88712  -0.76080  -0.73856  -0.73278  -0.71727
 Alpha  occ. eigenvalues --   -0.70261  -0.63810  -0.63568  -0.61157  -0.57791
 Alpha  occ. eigenvalues --   -0.52556  -0.49443  -0.46528  -0.38811
 Alpha virt. eigenvalues --    0.03189   0.04647   0.04996   0.05917   0.06989
 Alpha virt. eigenvalues --    0.07328   0.08284   0.11780   0.12259   0.13520
 Alpha virt. eigenvalues --    0.14443   0.15137   0.15572   0.16273   0.16446

 Mulliken charges:
               1
     1  F   -0.623612
     2  S    0.774896
     3  C    0.622351
     4  O   -0.599013
     5  O   -0.508653
     6  C    0.660078
     7  H   -0.063205
     8  H   -0.231711
     9  H   -0.026976
    10  H    0.171958
    11  H   -0.176113
 Sum of Mulliken charges =  -0.00000

 Dipole moment (field-independent basis, Debye):
    X=             -3.4523    Y=             -0.6142    Z=             -0.0708  Tot=              3.5072

 Test job not archived.
 1\1\GINC-SE253\SP\RHF\Aug-CC-pVDZ\C2H5F1O2S1\OHZDE\09-Apr-2025\0\\#t h
 f aug-cc-pvdz iop(5/13=1,5/36=2,99/5=2) pseudo=read geom=check guess=(
 read,tcheck) scf=(maxcycle=1)\\title\\0,1\F,0,2.34716,0.252163,0.34578
 3\S,0,1.132103,-0.762647,-0.19149\C,0,-0.308384,0.286777,0.250423\O,0,
 -1.321609,-0.477837,-0.336605\O,0,-0.230096,1.585813,-0.212932\C,0,-2.
 613533,-0.296239,0.251145\H,0,-2.625059,-0.648844,1.288564\H,0,-3.3076
 4,-0.890567,-0.340448\H,0,-2.908062,0.756312,0.214796\H,0,-0.040097,1.
 550802,-1.160217\H,0,-0.412082,0.358138,1.335977\\Version=ES64L-G16Rev

 Normal termination of Gaussian 16 at Wed Apr  9 00:21:49 2025.
