 Gaussian 16, Revision C.01,

 ----------------------------------------------------------------------
 #t hf aug-cc-pvdz symm=none int=(grid=ultrafine) guess=(read,tcheck) s
 table=(opt,rrhf)
 ----------------------------------------------------------------------
 -----
 title
 -----
 Symbolic Z-matrix:
 Charge =  0 Multiplicity = 1

 SCF Done:  E(RHF) =  -685.042573713     A.U. after   14 cycles
 Normal termination of Gaussian 16 at Tue Apr  8 23:19:51 2025.
 Gaussian 16:  ES64L-G16RevC.01  3-Jul-2019

 ----------------------------------------------------------------------
 #t hf aug-cc-pvdz iop(5/13=1,5/36=2,99/5=2) pseudo=read geom=check gue
 ss=(read,tcheck) scf=(maxcycle=1)
 ----------------------------------------------------------------------
 -----
 title
 -----
 Structure from the checkpoint file:  "BDE49_nonexpt_1144_mol1.chk"
 Charge =  0 Multiplicity = 1

                         Standard orientation:
 ---------------------------------------------------------------------
 Center     Atomic      Atomic             Coordinates (Angstroms)
 Number     Number       Type             X           Y           Z
 ---------------------------------------------------------------------
      1          9           0        1.653864   -0.778890   -0.000023
      2          8           0        1.202465    0.590435   -0.000028
      3          6           0       -0.181003    0.638938   -0.000009
      4          8           0       -0.659536    1.728222   -0.000002
      5         16           0       -0.996441   -0.939597    0.000028
      6          1           0       -2.199145   -0.339327    0.000054
 ---------------------------------------------------------------------

 SCF Done:  E(RHF) =  -685.159176973     A.U. after    2 cycles

 The electronic state is 1-A.
 Alpha  occ. eigenvalues --  -93.60576 -26.21463 -20.76049 -20.61808 -11.47272
 Alpha  occ. eigenvalues --   -8.90354  -6.24485  -6.24284  -6.23895  -1.71765
 Alpha  occ. eigenvalues --   -1.45954  -1.35075  -1.05925  -0.88921  -0.82076
 Alpha  occ. eigenvalues --   -0.80229  -0.75745  -0.70440  -0.68378  -0.65273
 Alpha  occ. eigenvalues --   -0.58205  -0.56625  -0.49698  -0.43135
 Alpha virt. eigenvalues --    0.03615   0.06289   0.07984   0.09208   0.10019
 Alpha virt. eigenvalues --    0.10586   0.10704   0.11752   0.13999   0.14506
 Alpha virt. eigenvalues --    0.16486   0.20109   0.21883   0.22279   0.24071

 Mulliken charges:
               1
     1  F   -0.286698
     2  O   -0.085339
     3  C    0.249173
     4  O   -0.364298
     5  S    0.364157
     6  H    0.123005
 Sum of Mulliken charges =  -0.00000

 Dipole moment (field-independent basis, Debye):
    X=             -1.7619    Y=             -1.8179    Z=              0.0000  Tot=              2.5316

 Test job not archived.
 1\1\GINC-SE132\SP\RHF\Aug-CC-pVDZ\C1H1F1O2S1\OHZDE\08-Apr-2025\0\\#t h
 f aug-cc-pvdz iop(5/13=1,5/36=2,99/5=2) pseudo=read geom=check guess=(
 read,tcheck) scf=(maxcycle=1)\\title\\0,1\F,0,1.653864,-0.77889,-0.000
 023\O,0,1.202465,0.590435,-0.000028\C,0,-0.181003,0.638938,-0.000009\O
 ,0,-0.659536,1.728222,-0.000002\S,0,-0.996441,-0.939597,0.000028\H,0,-
 2.199145,-0.339327,0.000054\\Version=ES64L-G16RevC.01\State=1-A\HF=-68
 5.159177\RMSD=5.508e-03\Dipole=-0.6931903,-0.715221,0.0000153\Quadrupo
 le=2.3078662,-2.7305927,0.4227264,2.3785092,-0.0000878,-0.0000382\PG=C

 Normal termination of Gaussian 16 at Tue Apr  8 23:19:53 2025.
