 Gaussian 16, Revision C.01,

 ----------------------------------------------------------------------
 #t hf aug-cc-pvdz symm=none int=(grid=ultrafine) guess=(read,tcheck) s
 table=(opt,rrhf)
 ----------------------------------------------------------------------
 -----
 title
 -----
 Symbolic Z-matrix:
 Charge =  0 Multiplicity = 1

 SCF Done:  E(RHF) =  -522.395687911     A.U. after   16 cycles
 Normal termination of Gaussian 16 at Tue Apr  8 22:39:37 2025.
 Gaussian 16:  ES64L-G16RevC.01  3-Jul-2019

 ----------------------------------------------------------------------
 #t hf aug-cc-pvdz iop(5/13=1,5/36=2,99/5=2) pseudo=read geom=check gue
 ss=(read,tcheck) scf=(maxcycle=1)
 ----------------------------------------------------------------------
 -----
 title
 -----
 Structure from the checkpoint file:  "BDE49_expt_1277_mol1.chk"
 Charge =  0 Multiplicity = 1

                         Standard orientation:
 ---------------------------------------------------------------------
 Center     Atomic      Atomic             Coordinates (Angstroms)
 Number     Number       Type             X           Y           Z
 ---------------------------------------------------------------------
      1          6           0       -0.322762   -0.186728    0.413546
      2          7           0        1.983129   -0.260327   -0.433413
      3          9           0        1.979496    1.111905   -0.765011
      4          9           0        3.294573   -0.429853    0.070475
      5          6           0       -0.938652    1.064819    0.490157
      6          6           0       -1.067422   -1.286461   -0.021487
      7          6           0       -2.279546    1.212906    0.146554
      8          6           0       -3.015964    0.110931   -0.283282
      9          6           0       -2.407368   -1.139660   -0.368597
     10          1           0       -2.975905   -1.999944   -0.702841
     11          1           0       -0.595165   -2.260817   -0.089324
     12          1           0       -2.748616    2.187873    0.213335
     13          1           0       -4.060429    0.226027   -0.549968
     14          1           0       -0.364486    1.924575    0.816330
     15          6           0        1.130358   -0.349920    0.777909
     16          1           0        1.332520   -1.347561    1.171266
     17          1           0        1.471702    0.398330    1.497111
 ---------------------------------------------------------------------

 SCF Done:  E(RHF) =  -522.559174337     A.U. after    2 cycles

 The electronic state is 1-A.
 Alpha  occ. eigenvalues --  -26.15619 -26.15612 -15.83734 -11.30653 -11.26893
 Alpha  occ. eigenvalues --  -11.26086 -11.25966 -11.25921 -11.25740 -11.25684
 Alpha  occ. eigenvalues --   -1.70453  -1.64748  -1.18556  -1.14667  -1.03835
 Alpha  occ. eigenvalues --   -1.02476  -0.93833  -0.84727  -0.83349  -0.80256
 Alpha  occ. eigenvalues --   -0.79871  -0.77553  -0.73781  -0.71200  -0.69224
 Alpha  occ. eigenvalues --   -0.67744  -0.65305  -0.64727  -0.60636  -0.59480
 Alpha  occ. eigenvalues --   -0.58277  -0.51867  -0.51446  -0.50975  -0.48919
 Alpha  occ. eigenvalues --   -0.35406  -0.35353
 Alpha virt. eigenvalues --    0.03057   0.03707   0.03958   0.05319   0.05485
 Alpha virt. eigenvalues --    0.07352   0.08203   0.08848   0.09344   0.09624
 Alpha virt. eigenvalues --    0.10928   0.12122   0.12733   0.14023   0.14037

 Mulliken charges:
               1
     1  C    0.949695
     2  N    0.005203
     3  F   -0.353318
     4  F   -0.375741
     5  C    0.202705
     6  C    0.179541
     7  C    0.347854
     8  C    0.507531
     9  C    0.372422
    10  H   -0.437692
    11  H   -0.551247
    12  H   -0.437303
    13  H   -0.431678
    14  H   -0.552891
    15  C    0.877632
    16  H   -0.163348
    17  H   -0.139366
 Sum of Mulliken charges =  -0.00000

 Dipole moment (field-independent basis, Debye):
    X=             -2.9831    Y=             -0.8715    Z=              1.5885  Tot=              3.4903

 Test job not archived.
 1\1\GINC-SE105\SP\RHF\Aug-CC-pVDZ\C7H7F2N1\OHZDE\08-Apr-2025\0\\#t hf
 aug-cc-pvdz iop(5/13=1,5/36=2,99/5=2) pseudo=read geom=check guess=(re
 ad,tcheck) scf=(maxcycle=1)\\title\\0,1\C,0,-0.322762,-0.186728,0.4135
 46\N,0,1.983129,-0.260327,-0.433413\F,0,1.979496,1.111905,-0.765011\F,
 0,3.294573,-0.429853,0.070475\C,0,-0.938652,1.064819,0.490157\C,0,-1.0
 67422,-1.286461,-0.021487\C,0,-2.279546,1.212906,0.146554\C,0,-3.01596
 4,0.110931,-0.283282\C,0,-2.407368,-1.13966,-0.368597\H,0,-2.975905,-1
 .999944,-0.702841\H,0,-0.595165,-2.260817,-0.089324\H,0,-2.748616,2.18

 Normal termination of Gaussian 16 at Tue Apr  8 22:39:45 2025.
