 Gaussian 16, Revision C.01,

 ----------------------------------------------------------------------
 #t hf aug-cc-pvdz symm=none int=(grid=ultrafine) guess=(read,tcheck) s
 table=(opt,rrhf)
 ----------------------------------------------------------------------
 -----
 title
 -----
 Symbolic Z-matrix:
 Charge =  0 Multiplicity = 1

 SCF Done:  E(RHF) =  -592.846688187     A.U. after   13 cycles
 Normal termination of Gaussian 16 at Tue Apr  8 23:57:28 2025.
 Gaussian 16:  ES64L-G16RevC.01  3-Jul-2019

 ----------------------------------------------------------------------
 #t hf aug-cc-pvdz iop(5/13=1,5/36=2,99/5=2) pseudo=read geom=check gue
 ss=(read,tcheck) scf=(maxcycle=1)
 ----------------------------------------------------------------------
 -----
 title
 -----
 Structure from the checkpoint file:  "BDE49_nonexpt_2073_mol1.chk"
 Charge =  0 Multiplicity = 1

                         Standard orientation:
 ---------------------------------------------------------------------
 Center     Atomic      Atomic             Coordinates (Angstroms)
 Number     Number       Type             X           Y           Z
 ---------------------------------------------------------------------
      1         14           0       -2.202466   -0.000309    0.000026
      2          8           0       -0.662708   -0.709182   -0.000027
      3          6           0        0.433206    0.060355   -0.000066
      4          8           0        0.424167    1.267928   -0.000004
      5          8           0        1.518213   -0.713695   -0.000022
      6          6           0        2.771766   -0.005672    0.000032
      7          1           0        2.856881    0.619913   -0.889509
      8          1           0        3.536862   -0.778309    0.000062
      9          1           0        2.856808    0.619909    0.889583
     10          1           0       -3.102562   -1.166250    0.000061
     11          1           0       -2.390386    0.810271   -1.216804
     12          1           0       -2.390300    0.810277    1.216866
 ---------------------------------------------------------------------

 SCF Done:  E(RHF) =  -592.977796946     A.U. after    2 cycles

 The electronic state is 1-A.
 Alpha  occ. eigenvalues --  -69.11144 -20.63189 -20.61501 -20.56922 -11.45787
 Alpha  occ. eigenvalues --  -11.30766  -6.85944  -3.96864  -3.96691  -3.96666
 Alpha  occ. eigenvalues --   -1.46528  -1.35914  -1.33145  -0.99358  -0.84678
 Alpha  occ. eigenvalues --   -0.77414  -0.73075  -0.71788  -0.68500  -0.63114
 Alpha  occ. eigenvalues --   -0.62795  -0.58981  -0.55337  -0.53601  -0.50152
 Alpha  occ. eigenvalues --   -0.49577  -0.49086  -0.48178
 Alpha virt. eigenvalues --    0.03418   0.04173   0.05505   0.05641   0.05762
 Alpha virt. eigenvalues --    0.06716   0.07266   0.09445   0.09551   0.10469
 Alpha virt. eigenvalues --    0.13355   0.13587   0.14573   0.14616   0.15262

 Mulliken charges:
               1
     1  Si   0.493279
     2  O   -0.741003
     3  C    0.644422
     4  O   -0.340918
     5  O   -0.492389
     6  C    0.741234
     7  H   -0.057329
     8  H   -0.238720
     9  H   -0.057327
    10  H    0.031466
    11  H    0.008642
    12  H    0.008645
 Sum of Mulliken charges =  -0.00000

 Dipole moment (field-independent basis, Debye):
    X=              0.6424    Y=             -0.5005    Z=             -0.0000  Tot=              0.8143

 Test job not archived.
 1\1\GINC-SE461\SP\RHF\Aug-CC-pVDZ\C2H6O3Si1\OHZDE\08-Apr-2025\0\\#t hf
  aug-cc-pvdz iop(5/13=1,5/36=2,99/5=2) pseudo=read geom=check guess=(r
 ead,tcheck) scf=(maxcycle=1)\\title\\0,1\Si,0,2.202466,-0.000309,-0.00
 0026\O,0,0.662708,-0.709182,0.000027\C,0,-0.433206,0.060355,0.000066\O
 ,0,-0.424167,1.267928,0.000004\O,0,-1.518213,-0.713695,0.000022\C,0,-2
 .771766,-0.005672,-0.000032\H,0,-2.856881,0.619913,0.889509\H,0,-3.536
 862,-0.778309,-0.000062\H,0,-2.856808,0.619909,-0.889583\H,0,3.102562,
 -1.16625,-0.000061\H,0,2.390386,0.810271,1.216804\H,0,2.3903,0.810277,

 Normal termination of Gaussian 16 at Tue Apr  8 23:57:32 2025.
