 Gaussian 16, Revision C.01,

 ----------------------------------------------------------------------
 #t hf aug-cc-pvdz symm=none int=(grid=ultrafine) guess=(read,tcheck) s
 table=(opt,rrhf)
 ----------------------------------------------------------------------
 -----
 title
 -----
 Symbolic Z-matrix:
 Charge =  0 Multiplicity = 1

 SCF Done:  E(RHF) =  -463.879183932     A.U. after   13 cycles
 Normal termination of Gaussian 16 at Tue Apr  8 23:54:16 2025.
 Gaussian 16:  ES64L-G16RevC.01  3-Jul-2019

 ----------------------------------------------------------------------
 #t hf aug-cc-pvdz iop(5/13=1,5/36=2,99/5=2) pseudo=read geom=check gue
 ss=(read,tcheck) scf=(maxcycle=1)
 ----------------------------------------------------------------------
 -----
 title
 -----
 Structure from the checkpoint file:  "BDE49_nonexpt_1993_mol1.chk"
 Charge =  0 Multiplicity = 1

                         Standard orientation:
 ---------------------------------------------------------------------
 Center     Atomic      Atomic             Coordinates (Angstroms)
 Number     Number       Type             X           Y           Z
 ---------------------------------------------------------------------
      1         14           0       -0.078564    0.321754   -0.000074
      2          9           0        1.357125   -0.352948    0.000057
      3          8           0       -1.410591   -0.386702    0.000062
      4          1           0        0.170498    1.765593    0.000017
 ---------------------------------------------------------------------

 SCF Done:  E(RHF) =  -463.984334598     A.U. after    2 cycles

 The electronic state is 1-A.
 Alpha  occ. eigenvalues --  -69.18186 -26.16589 -20.54408  -6.92789  -4.03692
 Alpha  occ. eigenvalues --   -4.03649  -4.03416  -1.69370  -1.23181  -0.84996
 Alpha  occ. eigenvalues --   -0.77723  -0.76994  -0.64252  -0.55538  -0.49758
 Alpha  occ. eigenvalues --   -0.49374
 Alpha virt. eigenvalues --    0.02775   0.04021   0.04901   0.06042   0.08010
 Alpha virt. eigenvalues --    0.09574   0.15949   0.18761   0.21091   0.22689
 Alpha virt. eigenvalues --    0.22711   0.25379   0.27167   0.28616   0.29476

 Mulliken charges:
               1
     1  Si   1.704877
     2  F   -0.720863
     3  O   -0.952238
     4  H   -0.031776
 Sum of Mulliken charges =  -0.00000

 Dipole moment (field-independent basis, Debye):
    X=              2.6048    Y=              2.9599    Z=             -0.0009  Tot=              3.9428

 Test job not archived.
 1\1\GINC-SE342\SP\RHF\Aug-CC-pVDZ\F1H1O1Si1\OHZDE\08-Apr-2025\0\\#t hf
  aug-cc-pvdz iop(5/13=1,5/36=2,99/5=2) pseudo=read geom=check guess=(r
 ead,tcheck) scf=(maxcycle=1)\\title\\0,1\Si,0,0.078564,0.321754,0.0000
 74\F,0,-1.357125,-0.352948,-0.000057\O,0,1.410591,-0.386702,-0.000062\
 H,0,-0.170497,1.765593,-0.000017\\Version=ES64L-G16RevC.01\State=1-A\H
 F=-463.9843346\RMSD=5.722e-03\Dipole=-1.0248103,1.1645165,0.0003468\Qu
 adrupole=-5.2389399,1.6367829,3.602157,0.9942749,0.000057,-0.0000153\P
 G=C01 [X(F1H1O1Si1)]\\@

 Normal termination of Gaussian 16 at Tue Apr  8 23:54:17 2025.
