 Gaussian 16, Revision C.01,

 ----------------------------------------------------------------------
 #t hf aug-cc-pvdz symm=none int=(grid=ultrafine) guess=(read,tcheck) s
 table=(opt,rrhf)
 ----------------------------------------------------------------------
 -----
 title
 -----
 Symbolic Z-matrix:
 Charge =  0 Multiplicity = 1

 SCF Done:  E(RHF) =  -609.555787877     A.U. after   13 cycles
 Normal termination of Gaussian 16 at Tue Apr  8 23:42:13 2025.
 Gaussian 16:  ES64L-G16RevC.01  3-Jul-2019

 ----------------------------------------------------------------------
 #t hf aug-cc-pvdz iop(5/13=1,5/36=2,99/5=2) pseudo=read geom=check gue
 ss=(read,tcheck) scf=(maxcycle=1)
 ----------------------------------------------------------------------
 -----
 title
 -----
 Structure from the checkpoint file:  "BDE49_nonexpt_16_mol1.chk"
 Charge =  0 Multiplicity = 1

                         Standard orientation:
 ---------------------------------------------------------------------
 Center     Atomic      Atomic             Coordinates (Angstroms)
 Number     Number       Type             X           Y           Z
 ---------------------------------------------------------------------
      1          5           0        1.314550    0.311305    0.438928
      2          5           0       -0.161165    0.783263   -0.235898
      3         17           0       -1.572574   -0.241392    0.033964
      4          9           0        2.187974   -0.417084   -0.255146
      5          1           0       -0.361996    1.780271   -0.852935
      6          1           0        1.637076    0.604304    1.556707
 ---------------------------------------------------------------------

 SCF Done:  E(RHF) =  -609.631621241     A.U. after    2 cycles

 The electronic state is 1-A.
 Alpha  occ. eigenvalues -- -103.67053 -26.13598 -10.70515  -8.36198  -8.36000
 Alpha  occ. eigenvalues --   -8.35946  -7.68450  -7.67550  -1.67336  -1.16163
 Alpha  occ. eigenvalues --   -0.84715  -0.76734  -0.73764  -0.71276  -0.61192
 Alpha  occ. eigenvalues --   -0.56223  -0.51100  -0.50042  -0.43082
 Alpha virt. eigenvalues --    0.03716   0.04283   0.04422   0.04722   0.06827
 Alpha virt. eigenvalues --    0.07085   0.07616   0.08600   0.09463   0.10515
 Alpha virt. eigenvalues --    0.13872   0.14734   0.15231   0.16713   0.18736

 Mulliken charges:
               1
     1  B    0.528806
     2  B    0.053831
     3  Cl  -0.348255
     4  F   -0.467209
     5  H    0.182190
     6  H    0.050638
 Sum of Mulliken charges =   0.00000

 Dipole moment (field-independent basis, Debye):
    X=              0.0499    Y=              1.4056    Z=              0.3663  Tot=              1.4534

 Test job not archived.
 1\1\GINC-SE125\SP\RHF\Aug-CC-pVDZ\B2Cl1F1H2\OHZDE\08-Apr-2025\0\\#t hf
  aug-cc-pvdz iop(5/13=1,5/36=2,99/5=2) pseudo=read geom=check guess=(r
 ead,tcheck) scf=(maxcycle=1)\\title\\0,1\B,0,1.31455,0.311305,0.438928
 \B,0,-0.161165,0.783263,-0.235898\Cl,0,-1.572574,-0.241392,0.033964\F,
 0,2.187974,-0.417084,-0.255146\H,0,-0.361996,1.780271,-0.852935\H,0,1.
 637076,0.604304,1.556707\\Version=ES64L-G16RevC.01\State=1-A\HF=-609.6
 316212\RMSD=6.386e-03\Dipole=0.0196396,0.5530179,0.1440978\Quadrupole=
 -2.8825698,1.6854452,1.1971246,1.452306,0.457515,-0.1143072\PG=C01 [X(

 Normal termination of Gaussian 16 at Tue Apr  8 23:42:15 2025.
