 Gaussian 16, Revision C.01,

 ----------------------------------------------------------------------
 #t hf aug-cc-pvdz symm=none int=(grid=ultrafine) guess=(read,tcheck) s
 table=opt
 ----------------------------------------------------------------------
 -----
 title
 -----
 Symbolic Z-matrix:
 Charge =  0 Multiplicity = 2

 SCF Done:  E(UHF) =  -324.473151248     A.U. after   20 cycles
 Normal termination of Gaussian 16 at Tue Apr  8 23:02:43 2025.
 Gaussian 16:  ES64L-G16RevC.01  3-Jul-2019

 ----------------------------------------------------------------------
 #t hf aug-cc-pvdz iop(5/13=1,5/36=2,99/5=2) pseudo=read geom=check gue
 ss=(read,tcheck) scf=(maxcycle=1)
 ----------------------------------------------------------------------
 -----
 title
 -----
 Structure from the checkpoint file:  "BDE49_expt_356_mol2.chk"
 Charge =  0 Multiplicity = 2

                         Standard orientation:
 ---------------------------------------------------------------------
 Center     Atomic      Atomic             Coordinates (Angstroms)
 Number     Number       Type             X           Y           Z
 ---------------------------------------------------------------------
      1          7           0        1.186281   -0.120571   -0.000021
      2          6           0        1.488068    1.306340    0.000007
      3          1           0        2.079914    1.559149    0.887957
      4          1           0        0.557616    1.866288   -0.000022
      5          1           0        2.079987    1.559163   -0.887889
      6          6           0        2.341335   -1.000207   -0.000006
      7          1           0        2.961032   -0.821961   -0.886928
      8          1           0        2.023194   -2.042098   -0.000074
      9          1           0        2.960951   -0.822051    0.886994
     10          6           0       -1.310433    0.071312    0.000031
     11          8           0       -1.426742    1.311193   -0.000016
     12          6           0       -2.571329   -0.785804   -0.000002
     13          1           0       -2.374623   -1.860334    0.000003
     14          1           0       -3.171452   -0.536581   -0.879631
     15          1           0       -3.171492   -0.536580    0.879598
     16          6           0       -0.069853   -0.639810    0.000013
     17          1           0       -0.101888   -1.721531    0.000010
 ---------------------------------------------------------------------

 SCF Done:  E(UHF) =  -324.576669458     A.U. after    2 cycles

 The electronic state is 2-A.
 Alpha  occ. eigenvalues --  -20.54627 -15.66676 -11.30960 -11.28395 -11.28252
 Alpha  occ. eigenvalues --  -11.26039 -11.22853  -1.33417  -1.24459  -1.03338
 Alpha  occ. eigenvalues --   -0.97483  -0.95956  -0.85111  -0.74367  -0.68483
 Alpha  occ. eigenvalues --   -0.66961  -0.66643  -0.60752  -0.60225  -0.58476
 Alpha  occ. eigenvalues --   -0.56116  -0.55560  -0.54190  -0.53819  -0.53230
 Alpha  occ. eigenvalues --   -0.47451  -0.42587  -0.28893
 Alpha virt. eigenvalues --    0.02807   0.03957   0.04617   0.04831   0.06212
 Alpha virt. eigenvalues --    0.06894   0.07041   0.07843   0.08181   0.09029
 Alpha virt. eigenvalues --    0.11826   0.12010   0.12958   0.13832   0.14346

  Beta  occ. eigenvalues --  -20.52801 -15.65405 -11.31468 -11.28367 -11.27219
  Beta  occ. eigenvalues --  -11.26161 -11.22856  -1.29625  -1.21669  -1.00638
  Beta  occ. eigenvalues --   -0.97451  -0.95322  -0.83324  -0.73190  -0.67815
  Beta  occ. eigenvalues --   -0.65433  -0.63619  -0.59497  -0.58095  -0.57833
  Beta  occ. eigenvalues --   -0.55868  -0.54844  -0.53955  -0.53628  -0.45486
  Beta  occ. eigenvalues --   -0.40871  -0.37284
  Beta virt. eigenvalues --    0.02835   0.03971   0.04514   0.04623   0.06224
  Beta virt. eigenvalues --    0.06750   0.07045   0.07616   0.08165   0.08223
  Beta virt. eigenvalues --    0.09033   0.11841   0.12997   0.13168   0.13883

 Mulliken charges and spin densities:
               1          2
     1  N   -0.261992   0.311447
     2  C    0.833920  -0.057597
     3  H   -0.089372   0.014237
     4  H   -0.296057   0.001070
     5  H   -0.089393   0.014234
     6  C    0.762869  -0.055513
     7  H   -0.077014   0.012183
     8  H   -0.263751   0.001074
     9  H   -0.076987   0.012185
    10  C    0.022358  -0.323447
    11  O   -0.632501   0.416268
    12  C    0.397997  -0.000638
    13  H   -0.133614   0.002969
    14  H    0.020666   0.000952
    15  H    0.020660   0.000952
    16  C    0.419196   0.665504
    17  H   -0.556985  -0.015880
 Sum of Mulliken charges =  -0.00000   1.00000

 Dipole moment (field-independent basis, Debye):
    X=              2.8423    Y=             -3.1331    Z=              0.0000  Tot=              4.2303
                          Isotropic Fermi Contact Couplings
        Atom                 a.u.       MegaHertz       Gauss      10(-4) cm-1
     1  N(14)              0.12775      41.27610      14.72834      13.76822
     2  C(13)             -0.01985     -22.31184      -7.96142      -7.44243
     3  H(1)               0.00510      22.81775       8.14194       7.61118
     4  H(1)               0.00086       3.84625       1.37244       1.28297
     5  H(1)               0.00510      22.81343       8.14040       7.60974
     6  C(13)             -0.01936     -21.76848      -7.76753      -7.26118
     7  H(1)               0.00390      17.44875       6.22615       5.82028
     8  H(1)               0.00051       2.28737       0.81619       0.76299

 Normal termination of Gaussian 16 at Tue Apr  8 23:02:49 2025.
