 Gaussian 16, Revision C.01,

 ----------------------------------------------------------------------
 #t hf aug-cc-pvdz symm=none int=(grid=ultrafine) guess=(read,tcheck) s
 table=(opt,rrhf)
 ----------------------------------------------------------------------
 -----
 title
 -----
 Symbolic Z-matrix:
 Charge =  0 Multiplicity = 1

 SCF Done:  E(RHF) =  -655.280595470     A.U. after   13 cycles
 Normal termination of Gaussian 16 at Tue Apr  8 22:47:03 2025.
 Gaussian 16:  ES64L-G16RevC.01  3-Jul-2019

 ----------------------------------------------------------------------
 #t hf aug-cc-pvdz iop(5/13=1,5/36=2,99/5=2) pseudo=read geom=check gue
 ss=(read,tcheck) scf=(maxcycle=1)
 ----------------------------------------------------------------------
 -----
 title
 -----
 Structure from the checkpoint file:  "BDE49_expt_1660_mol1.chk"
 Charge =  0 Multiplicity = 1

                         Standard orientation:
 ---------------------------------------------------------------------
 Center     Atomic      Atomic             Coordinates (Angstroms)
 Number     Number       Type             X           Y           Z
 ---------------------------------------------------------------------
      1          6           0        2.003969    0.928722   -0.000000
      2          6           0        0.784143   -0.017451   -0.000000
      3          6           0       -0.454456    0.893194   -0.000000
      4          6           0        0.818245   -0.895920   -1.261797
      5          1           0       -0.477697    1.523262   -0.888793
      6          1           0       -0.477698    1.523263    0.888791
      7         17           0       -2.047870    0.006078   -0.000000
      8          1           0        2.012982    1.570855   -0.885969
      9          1           0        2.930235    0.347792   -0.000000
     10          1           0        0.802973   -0.284765   -2.169675
     11          1           0       -0.037112   -1.573517   -1.296611
     12          1           0        1.730194   -1.499276   -1.278917
     13          6           0        0.818245   -0.895919    1.261798
     14          1           0        0.802972   -0.284763    2.169675
     15          1           0        1.730193   -1.499275    1.278919
     16          1           0       -0.037113   -1.573516    1.296612
     17          1           0        2.012982    1.570856    0.885968
 ---------------------------------------------------------------------

 SCF Done:  E(RHF) =  -655.360839042     A.U. after    2 cycles

 The electronic state is 1-A.
 Alpha  occ. eigenvalues -- -103.64180 -11.30045 -11.26092 -11.23561 -11.22674
 Alpha  occ. eigenvalues --  -11.22665 -10.67449  -8.33164  -8.32896  -8.32886
 Alpha  occ. eigenvalues --   -1.15943  -1.08781  -0.93983  -0.93487  -0.91412
 Alpha  occ. eigenvalues --   -0.74773  -0.64823  -0.63737  -0.61364  -0.58587
 Alpha  occ. eigenvalues --   -0.56491  -0.53502  -0.52547  -0.52339  -0.49888
 Alpha  occ. eigenvalues --   -0.47538  -0.46804  -0.43800  -0.43495
 Alpha virt. eigenvalues --    0.03278   0.04462   0.04586   0.05157   0.06562
 Alpha virt. eigenvalues --    0.06800   0.07031   0.07383   0.07701   0.09174
 Alpha virt. eigenvalues --    0.09404   0.10949   0.12397   0.13744   0.14271

 Mulliken charges:
               1
     1  C    1.235957
     2  C   -3.757073
     3  C    0.636634
     4  C    1.135195
     5  H    0.001090
     6  H    0.001086
     7  Cl  -0.161825
     8  H   -0.045005
     9  H   -0.033980
    10  H   -0.027247
    11  H   -0.012760
    12  H   -0.011127
    13  C    1.135196
    14  H   -0.027247
    15  H   -0.011130
    16  H   -0.012757
    17  H   -0.045006
 Sum of Mulliken charges =  -0.00000

 Dipole moment (field-independent basis, Debye):
    X=              2.3512    Y=              0.8383    Z=              0.0000  Tot=              2.4962

 Test job not archived.
 1\1\GINC-SE082\SP\RHF\Aug-CC-pVDZ\C5H11Cl1\OHZDE\08-Apr-2025\0\\#t hf
 aug-cc-pvdz iop(5/13=1,5/36=2,99/5=2) pseudo=read geom=check guess=(re
 ad,tcheck) scf=(maxcycle=1)\\title\\0,1\C,0,2.003969,0.928722,0.\C,0,0
 .784143,-0.017451,0.\C,0,-0.454456,0.893194,0.\C,0,0.818245,-0.89592,-
 1.261797\H,0,-0.477697,1.523262,-0.888793\H,0,-0.477698,1.523263,0.888
 791\Cl,0,-2.04787,0.006078,0.\H,0,2.012982,1.570855,-0.885969\H,0,2.93
 0235,0.347792,0.\H,0,0.802973,-0.284765,-2.169675\H,0,-0.037112,-1.573
 517,-1.296611\H,0,1.730194,-1.499276,-1.278917\C,0,0.818245,-0.895919,

 Normal termination of Gaussian 16 at Tue Apr  8 22:47:09 2025.
