 Gaussian 16, Revision C.01,

 ----------------------------------------------------------------------
 #t hf aug-cc-pvdz symm=none int=(grid=ultrafine) guess=(read,tcheck) s
 table=opt
 ----------------------------------------------------------------------
 -----
 title
 -----
 Symbolic Z-matrix:
 Charge =  0 Multiplicity = 2

 SCF Done:  E(UHF) =  -485.825862897     A.U. after   15 cycles
 Normal termination of Gaussian 16 at Tue Apr  8 23:44:13 2025.
 Gaussian 16:  ES64L-G16RevC.01  3-Jul-2019

 ----------------------------------------------------------------------
 #t hf aug-cc-pvdz iop(5/13=1,5/36=2,99/5=2) pseudo=read geom=check gue
 ss=(read,tcheck) scf=(maxcycle=1)
 ----------------------------------------------------------------------
 -----
 title
 -----
 Structure from the checkpoint file:  "BDE49_nonexpt_1732_mol2.chk"
 Charge =  0 Multiplicity = 2

                         Standard orientation:
 ---------------------------------------------------------------------
 Center     Atomic      Atomic             Coordinates (Angstroms)
 Number     Number       Type             X           Y           Z
 ---------------------------------------------------------------------
      1         14           0       -3.090802   -0.114048    0.000000
      2          6           0       -1.383945    0.704188   -0.000001
      3          6           0       -0.203043   -0.290322    0.000000
      4          1           0       -1.318835    1.360145    0.875930
      5          1           0       -1.318835    1.360143   -0.875934
      6          6           0        1.167780    0.401595   -0.000001
      7          1           0       -0.274973   -0.945491   -0.876148
      8          1           0       -0.274973   -0.945489    0.876150
      9          6           0        2.346796   -0.578408    0.000001
     10          1           0        1.240256    1.057226    0.877217
     11          1           0        1.240256    1.057224   -0.877220
     12          6           0        3.710842    0.117935    0.000000
     13          1           0        2.271226   -1.233460   -0.876282
     14          1           0        2.271226   -1.233458    0.876285
     15          1           0        3.830527    0.753567   -0.882894
     16          1           0        4.529157   -0.607222    0.000001
     17          1           0        3.830527    0.753569    0.882892
     18          1           0       -3.292457   -0.954999    1.211388
     19          1           0       -3.292456   -0.955004   -1.211384
 ---------------------------------------------------------------------

 SCF Done:  E(UHF) =  -485.908915532     A.U. after    2 cycles

 The electronic state is 2-A.
 Alpha  occ. eigenvalues --  -69.06314 -11.23661 -11.22885 -11.22793 -11.22641
 Alpha  occ. eigenvalues --  -11.22324  -6.81680  -3.93030  -3.92130  -3.92124
 Alpha  occ. eigenvalues --   -1.07338  -1.01131  -0.91913  -0.82556  -0.79122
 Alpha  occ. eigenvalues --   -0.68108  -0.65344  -0.60306  -0.58918  -0.56503
 Alpha  occ. eigenvalues --   -0.53907  -0.51698  -0.49221  -0.48877  -0.46918
 Alpha  occ. eigenvalues --   -0.46788  -0.46636  -0.42843  -0.31454
 Alpha virt. eigenvalues --    0.03416   0.04156   0.04462   0.04635   0.05486
 Alpha virt. eigenvalues --    0.06201   0.06238   0.06930   0.07903   0.08305
 Alpha virt. eigenvalues --    0.08577   0.09647   0.09719   0.10915   0.11764

  Beta  occ. eigenvalues --  -69.05755 -11.23563 -11.22880 -11.22765 -11.22604
  Beta  occ. eigenvalues --  -11.22321  -6.80843  -3.91741  -3.91736  -3.90875
  Beta  occ. eigenvalues --   -1.07191  -1.00917  -0.91664  -0.82284  -0.79060
  Beta  occ. eigenvalues --   -0.65294  -0.64438  -0.60233  -0.58571  -0.56117
  Beta  occ. eigenvalues --   -0.53809  -0.51411  -0.48880  -0.48747  -0.46669
  Beta  occ. eigenvalues --   -0.46622  -0.46201  -0.41967
  Beta virt. eigenvalues --    0.03147   0.03684   0.04445   0.04648   0.04905
  Beta virt. eigenvalues --    0.05722   0.06274   0.06940   0.07308   0.08017
  Beta virt. eigenvalues --    0.08720   0.09513   0.09714   0.09953   0.11047

 Mulliken charges and spin densities:
               1          2
     1  Si   0.162880   1.028385
     2  C    0.097628  -0.050862
     3  C    0.180274   0.016754
     4  H   -0.112128  -0.002728
     5  H   -0.112127  -0.002728
     6  C    0.158672   0.006649
     7  H   -0.194365  -0.006352
     8  H   -0.194364  -0.006352
     9  C    0.271431  -0.005223
    10  H   -0.170950  -0.000071
    11  H   -0.170951  -0.000071
    12  C    0.537414   0.000086
    13  H   -0.142999   0.000078
    14  H   -0.143001   0.000078
    15  H   -0.084371  -0.000003
    16  H   -0.058057   0.000082
    17  H   -0.084372  -0.000003
    18  H    0.029693   0.011140
    19  H    0.029693   0.011140
 Sum of Mulliken charges =  -0.00000   1.00000

 Dipole moment (field-independent basis, Debye):
    X=              0.9014    Y=              0.3347    Z=             -0.0000  Tot=              0.9616
                          Isotropic Fermi Contact Couplings
        Atom                 a.u.       MegaHertz       Gauss      10(-4) cm-1
     1  Si(29)             0.51452    -457.26795    -163.16458    -152.52817
     2  C(13)              0.01042      11.71233       4.17925       3.90681
     3  C(13)              0.02374      26.68892       9.52327       8.90247
     4  H(1)               0.00030       1.32817       0.47392       0.44303
     5  H(1)               0.00030       1.32821       0.47394       0.44304
     6  C(13)              0.00532       5.98417       2.13530       1.99610
     7  H(1)              -0.00033      -1.48598      -0.53023      -0.49567
     8  H(1)              -0.00033      -1.48598      -0.53024      -0.49567

 Normal termination of Gaussian 16 at Tue Apr  8 23:44:20 2025.
