 Gaussian 16, Revision C.01,

 ----------------------------------------------------------------------
 #t hf aug-cc-pvdz symm=none int=(grid=ultrafine) guess=(read,tcheck) s
 table=(opt,rrhf)
 ----------------------------------------------------------------------
 -----
 title
 -----
 Symbolic Z-matrix:
 Charge =  0 Multiplicity = 1

 SCF Done:  E(RHF) =  -683.496494315     A.U. after   18 cycles
 Normal termination of Gaussian 16 at Tue Apr  8 23:14:28 2025.
 Gaussian 16:  ES64L-G16RevC.01  3-Jul-2019

 ----------------------------------------------------------------------
 #t hf aug-cc-pvdz iop(5/13=1,5/36=2,99/5=2) pseudo=read geom=check gue
 ss=(read,tcheck) scf=(maxcycle=1)
 ----------------------------------------------------------------------
 -----
 title
 -----
 Structure from the checkpoint file:  "BDE49_nonexpt_1011_mol1.chk"
 Charge =  0 Multiplicity = 1

                         Standard orientation:
 ---------------------------------------------------------------------
 Center     Atomic      Atomic             Coordinates (Angstroms)
 Number     Number       Type             X           Y           Z
 ---------------------------------------------------------------------
      1         16           0       -0.682744   -0.592603   -0.911440
      2          7           0       -2.132187    0.177973   -0.038481
      3          8           0       -1.952109    0.594887    1.049874
      4          6           0        0.670282   -0.460437    0.317851
      5          6           0        1.298938   -1.837945    0.558937
      6          1           0        0.549186   -2.570779    0.861732
      7          1           0        2.048941   -1.766893    1.352932
      8          1           0        1.798009   -2.212691   -0.338798
      9          6           0        1.709307    0.604188   -0.076975
     10          6           0        1.175588    2.037188   -0.113841
     11          1           0        2.145680    0.340037   -1.046683
     12          1           0        2.525795    0.540524    0.652761
     13          1           0        0.374013    2.144464   -0.848897
     14          1           0        1.969353    2.738296   -0.383099
     15          1           0        0.780409    2.337023    0.860764
     16          1           0        0.150009   -0.131210    1.226866
 ---------------------------------------------------------------------

 SCF Done:  E(RHF) =  -683.605012790     A.U. after    2 cycles

 The electronic state is 1-A.
 Alpha  occ. eigenvalues --  -93.56320 -20.67388 -15.81948 -11.28436 -11.24685
 Alpha  occ. eigenvalues --  -11.24398 -11.22988  -8.85948  -6.20045  -6.19789
 Alpha  occ. eigenvalues --   -6.19519  -1.51560  -1.10505  -1.01694  -0.98892
 Alpha  occ. eigenvalues --   -0.89374  -0.85885  -0.77520  -0.71896  -0.69104
 Alpha  occ. eigenvalues --   -0.64801  -0.62137  -0.60507  -0.59976  -0.57656
 Alpha  occ. eigenvalues --   -0.53748  -0.50711  -0.49567  -0.48769  -0.44651
 Alpha  occ. eigenvalues --   -0.39070  -0.37305
 Alpha virt. eigenvalues --    0.03377   0.04208   0.04821   0.05549   0.06561
 Alpha virt. eigenvalues --    0.06718   0.07028   0.07391   0.07768   0.09528
 Alpha virt. eigenvalues --    0.09718   0.10021   0.12476   0.13408   0.14402

 Mulliken charges:
               1
     1  S    0.604908
     2  N   -0.204924
     3  O   -0.362109
     4  C   -0.723607
     5  C    0.679773
     6  H   -0.096463
     7  H   -0.035078
     8  H   -0.033897
     9  C    0.277031
    10  C    0.411758
    11  H   -0.141032
    12  H   -0.100501
    13  H   -0.050856
    14  H   -0.072612
    15  H   -0.061610
    16  H   -0.090781
 Sum of Mulliken charges =  -0.00000

 Dipole moment (field-independent basis, Debye):
    X=              2.3649    Y=             -0.4631    Z=              0.2136  Tot=              2.4193

 Test job not archived.
 1\1\GINC-SE453\SP\RHF\Aug-CC-pVDZ\C4H9N1O1S1\OHZDE\08-Apr-2025\0\\#t h
 f aug-cc-pvdz iop(5/13=1,5/36=2,99/5=2) pseudo=read geom=check guess=(
 read,tcheck) scf=(maxcycle=1)\\title\\0,1\S,0,-0.682744,-0.592603,-0.9
 1144\N,0,-2.132187,0.177973,-0.038481\O,0,-1.952109,0.594887,1.049874\
 C,0,0.670282,-0.460437,0.317851\C,0,1.298938,-1.837945,0.558937\H,0,0.
 549186,-2.570779,0.861732\H,0,2.048941,-1.766893,1.352932\H,0,1.798009
 ,-2.212691,-0.338798\C,0,1.709307,0.604188,-0.076975\C,0,1.175588,2.03
 7188,-0.113841\H,0,2.14568,0.340037,-1.046683\H,0,2.525795,0.540524,0.

 Normal termination of Gaussian 16 at Tue Apr  8 23:14:34 2025.
