 Gaussian 16, Revision C.01,

 ----------------------------------------------------------------------
 #t hf aug-cc-pvdz symm=none int=(grid=ultrafine) guess=(read,tcheck) s
 table=(opt,rrhf)
 ----------------------------------------------------------------------
 -----
 title
 -----
 Symbolic Z-matrix:
 Charge =  0 Multiplicity = 1

 SCF Done:  E(RHF) =  -1339.71030405     A.U. after   17 cycles
 Normal termination of Gaussian 16 at Wed Apr  9 00:39:17 2025.
 Gaussian 16:  ES64L-G16RevC.01  3-Jul-2019

 ----------------------------------------------------------------------
 #t hf aug-cc-pvdz iop(5/13=1,5/36=2,99/5=2) pseudo=read geom=check gue
 ss=(read,tcheck) scf=(maxcycle=1)
 ----------------------------------------------------------------------
 -----
 title
 -----
 Structure from the checkpoint file:  "BDE49_nonexpt_630_mol1.chk"
 Charge =  0 Multiplicity = 1

                         Standard orientation:
 ---------------------------------------------------------------------
 Center     Atomic      Atomic             Coordinates (Angstroms)
 Number     Number       Type             X           Y           Z
 ---------------------------------------------------------------------
      1          5           0        2.418737   -0.149060    0.000000
      2         17           0       -3.004444   -0.386612   -0.000001
      3         17           0       -0.298185   -1.998150    0.000000
      4          8           0        3.433995    0.761482   -0.000005
      5          1           0        4.296171    0.331914   -0.000003
      6          8           0        2.733935   -1.469130    0.000009
      7          1           0        1.966066   -2.052219    0.000012
      8          7           0       -1.542031    1.779422   -0.000001
      9          6           0       -1.473469    0.467100    0.000001
     10          6           0       -0.258571   -0.238476    0.000000
     11          6           0        0.951551    0.465293   -0.000001
     12          6           0        0.845736    1.865816   -0.000002
     13          1           0        1.748580    2.461972   -0.000003
     14          6           0       -0.400028    2.473005   -0.000002
     15          1           0       -0.500344    3.553386   -0.000003
 ---------------------------------------------------------------------

 SCF Done:  E(RHF) =  -1339.87663973     A.U. after    2 cycles

 The electronic state is 1-A.
 Alpha  occ. eigenvalues -- -103.69680-103.67785 -20.59742 -20.59697 -15.66541
 Alpha  occ. eigenvalues --  -11.37370 -11.34784 -11.31096 -11.28324 -11.27518
 Alpha  occ. eigenvalues --  -10.72985 -10.71080  -8.38710  -8.38435  -8.38383
 Alpha  occ. eigenvalues --   -8.36815  -8.36489  -8.36484  -7.68736  -1.36424
 Alpha  occ. eigenvalues --   -1.32649  -1.28810  -1.21011  -1.17502  -1.09136
 Alpha  occ. eigenvalues --   -1.02685  -0.89211  -0.86779  -0.80371  -0.77422
 Alpha  occ. eigenvalues --   -0.72584  -0.70131  -0.65975  -0.64852  -0.61952
 Alpha  occ. eigenvalues --   -0.61768  -0.60094  -0.60032  -0.56207  -0.54298
 Alpha  occ. eigenvalues --   -0.53974  -0.52399  -0.51169  -0.49667  -0.47509
 Alpha  occ. eigenvalues --   -0.44291  -0.40636  -0.36251
 Alpha virt. eigenvalues --    0.03021   0.04078   0.04846   0.05066   0.05327
 Alpha virt. eigenvalues --    0.06062   0.06802   0.07691   0.08386   0.08976
 Alpha virt. eigenvalues --    0.09846   0.10509   0.10672   0.12806   0.13362

 Mulliken charges:
               1
     1  B    0.763937
     2  Cl  -0.226576
     3  Cl  -0.430268
     4  O   -0.514340
     5  H    0.202662
     6  O   -0.471208
     7  H    0.207082
     8  N   -0.343009
     9  C   -0.316610
    10  C    0.847874
    11  C   -0.415820
    12  C    1.086669
    13  H   -0.567414
    14  C    0.504650
    15  H   -0.327629
 Sum of Mulliken charges =  -0.00000

 Dipole moment (field-independent basis, Debye):
    X=              2.5722    Y=              0.5463    Z=              0.0000  Tot=              2.6296

 Test job not archived.
 1\1\GINC-SE073\SP\RHF\Aug-CC-pVDZ\C5H4B1Cl2N1O2\OHZDE\09-Apr-2025\0\\#
 t hf aug-cc-pvdz iop(5/13=1,5/36=2,99/5=2) pseudo=read geom=check gues
 s=(read,tcheck) scf=(maxcycle=1)\\title\\0,1\B,0,2.418737,-0.14906,0.\
 Cl,0,-3.004444,-0.386613,-0.000001\Cl,0,-0.298185,-1.99815,0.\O,0,3.43
 3995,0.761483,-0.000005\H,0,4.296171,0.331915,-0.000003\O,0,2.733935,-
 1.469129,0.000009\H,0,1.966066,-2.052219,0.000012\N,0,-1.542031,1.7794
 22,-0.000001\C,0,-1.473469,0.4671,0.000001\C,0,-0.258571,-0.238476,0.\
 C,0,0.951551,0.465293,-0.000001\C,0,0.845735,1.865816,-0.000002\H,0,1.

 Normal termination of Gaussian 16 at Wed Apr  9 00:39:26 2025.
