 Gaussian 16, Revision C.01,

 ----------------------------------------------------------------------
 #t hf aug-cc-pvdz symm=none int=(grid=ultrafine) guess=(read,tcheck) s
 table=(opt,rrhf)
 ----------------------------------------------------------------------
 -----
 title
 -----
 Symbolic Z-matrix:
 Charge =  0 Multiplicity = 1

 SCF Done:  E(RHF) =  -410.648238793     A.U. after   12 cycles
 Normal termination of Gaussian 16 at Wed Apr  9 00:43:57 2025.
 Gaussian 16:  ES64L-G16RevC.01  3-Jul-2019

 ----------------------------------------------------------------------
 #t hf aug-cc-pvdz iop(5/13=1,5/36=2,99/5=2) pseudo=read geom=check gue
 ss=(read,tcheck) scf=(maxcycle=1)
 ----------------------------------------------------------------------
 -----
 title
 -----
 Structure from the checkpoint file:  "BDE49_nonexpt_792_mol1.chk"
 Charge =  0 Multiplicity = 1

                         Standard orientation:
 ---------------------------------------------------------------------
 Center     Atomic      Atomic             Coordinates (Angstroms)
 Number     Number       Type             X           Y           Z
 ---------------------------------------------------------------------
      1          5           0       -0.541009    0.075598    0.000004
      2          7           0       -1.083715    1.361191   -0.000008
      3         14           0        1.487962   -0.103115   -0.000001
      4          6           0       -1.486066   -1.190237    0.000008
      5          1           0       -2.554236   -0.942766    0.000007
      6          1           0       -1.291866   -1.824323    0.873140
      7          1           0       -1.291866   -1.824330   -0.873119
      8          1           0       -0.530349    2.204312   -0.000016
      9          1           0       -2.080192    1.535039   -0.000010
     10          1           0        2.169399    1.222110   -0.000012
     11          1           0        1.977543   -0.845683   -1.192828
     12          1           0        1.977549   -0.845666    1.192835
 ---------------------------------------------------------------------

 SCF Done:  E(RHF) =  -410.708976297     A.U. after    2 cycles

 The electronic state is 1-A.
 Alpha  occ. eigenvalues --  -69.03495 -15.62503 -11.20415  -7.60352  -6.79020
 Alpha  occ. eigenvalues --   -3.89785  -3.89781  -3.89712  -1.12950  -0.93563
 Alpha  occ. eigenvalues --   -0.71996  -0.68710  -0.65978  -0.55587  -0.54783
 Alpha  occ. eigenvalues --   -0.50332  -0.46492  -0.46194  -0.43162  -0.38766
 Alpha virt. eigenvalues --    0.03011   0.04518   0.04913   0.05419   0.06414
 Alpha virt. eigenvalues --    0.07152   0.07736   0.07919   0.08526   0.09616
 Alpha virt. eigenvalues --    0.10113   0.10651   0.11001   0.11179   0.13041

 Mulliken charges:
               1
     1  B    0.573339
     2  N   -0.129958
     3  Si  -0.347717
     4  C    0.523828
     5  H   -0.350153
     6  H   -0.165213
     7  H   -0.165213
     8  H   -0.027707
     9  H   -0.058521
    10  H    0.047174
    11  H    0.050071
    12  H    0.050070
 Sum of Mulliken charges =  -0.00000

 Dipole moment (field-independent basis, Debye):
    X=             -1.7664    Y=              1.2421    Z=             -0.0000  Tot=              2.1594

 Test job not archived.
 1\1\GINC-SE115\SP\RHF\Aug-CC-pVDZ\C1H8B1N1Si1\OHZDE\09-Apr-2025\0\\#t
 hf aug-cc-pvdz iop(5/13=1,5/36=2,99/5=2) pseudo=read geom=check guess=
 (read,tcheck) scf=(maxcycle=1)\\title\\0,1\B,0,-0.541009,0.075598,0.00
 0004\N,0,-1.083716,1.361191,-0.000008\Si,0,1.487962,-0.103114,-0.00000
 1\C,0,-1.486066,-1.190237,0.000008\H,0,-2.554236,-0.942767,0.000007\H,
 0,-1.291865,-1.824323,0.87314\H,0,-1.291865,-1.82433,-0.873119\H,0,-0.
 53035,2.204312,-0.000016\H,0,-2.080193,1.535038,-0.00001\H,0,2.169398,
 1.222111,-0.000012\H,0,1.977543,-0.845682,-1.192828\H,0,1.977549,-0.84

 Normal termination of Gaussian 16 at Wed Apr  9 00:44:01 2025.
