 Gaussian 16, Revision C.01,

 ----------------------------------------------------------------------
 #t hf aug-cc-pvdz symm=none int=(grid=ultrafine) guess=(read,tcheck) s
 table=(opt,rrhf)
 ----------------------------------------------------------------------
 -----
 title
 -----
 Symbolic Z-matrix:
 Charge =  0 Multiplicity = 1

 SCF Done:  E(RHF) =  -1115.29431396     A.U. after   15 cycles
 Normal termination of Gaussian 16 at Wed Apr  9 00:47:57 2025.
 Gaussian 16:  ES64L-G16RevC.01  3-Jul-2019

 ----------------------------------------------------------------------
 #t hf aug-cc-pvdz iop(5/13=1,5/36=2,99/5=2) pseudo=read geom=check gue
 ss=(read,tcheck) scf=(maxcycle=1)
 ----------------------------------------------------------------------
 -----
 title
 -----
 Structure from the checkpoint file:  "BDE49_nonexpt_842_mol1.chk"
 Charge =  0 Multiplicity = 1

                         Standard orientation:
 ---------------------------------------------------------------------
 Center     Atomic      Atomic             Coordinates (Angstroms)
 Number     Number       Type             X           Y           Z
 ---------------------------------------------------------------------
      1          6           0        2.137158   -0.278960    0.150061
      2          6           0        1.693864    1.038161    0.145069
      3          6           0        0.361542    1.307446   -0.146249
      4          6           0        1.250387   -1.312092   -0.133754
      5          6           0       -0.071476   -1.002018   -0.418668
      6          6           0       -0.555204    0.302693   -0.440676
      7          9           0        3.412754   -0.552979    0.428953
      8          9           0        2.550369    2.027696    0.421583
      9          9           0       -0.023490    2.595928   -0.130988
     10          9           0        1.678396   -2.579162   -0.125702
     11          9           0       -0.911941   -2.021697   -0.685283
     12          5           0       -3.594827   -0.102389    0.653505
     13          8           0       -3.013830   -0.598932    1.767027
     14          1           0       -3.638127   -0.924919    2.425308
     15         14           0       -2.389977    0.620871   -0.814241
     16          1           0       -4.789907   -0.083951    0.550712
     17          1           0       -2.575209    2.080753   -0.977773
     18          1           0       -2.704735   -0.020127   -2.114395
 ---------------------------------------------------------------------

 SCF Done:  E(RHF) =  -1115.59590741     A.U. after    2 cycles

 The electronic state is 1-A.
 Alpha  occ. eigenvalues --  -69.07182 -26.17701 -26.17052 -26.16965 -26.16914
 Alpha  occ. eigenvalues --  -26.16609 -20.61569 -11.39106 -11.38414 -11.38351
 Alpha  occ. eigenvalues --  -11.37921 -11.37865 -11.27834  -7.66013  -6.82663
 Alpha  occ. eigenvalues --   -3.93437  -3.93381  -3.93299  -1.72145  -1.71291
 Alpha  occ. eigenvalues --   -1.71004  -1.70328  -1.70145  -1.35626  -1.21166
 Alpha  occ. eigenvalues --   -1.08047  -1.08008  -0.94931  -0.94675  -0.86917
 Alpha  occ. eigenvalues --   -0.86476  -0.85147  -0.81002  -0.80711  -0.80600
 Alpha  occ. eigenvalues --   -0.80481  -0.78989  -0.78532  -0.78312  -0.77118
 Alpha  occ. eigenvalues --   -0.76891  -0.75368  -0.75134  -0.72433  -0.68240
 Alpha  occ. eigenvalues --   -0.66814  -0.66451  -0.62577  -0.58243  -0.56989
 Alpha  occ. eigenvalues --   -0.54915  -0.50755  -0.48949  -0.42944  -0.38203
 Alpha  occ. eigenvalues --   -0.37951
 Alpha virt. eigenvalues --    0.02639   0.04190   0.04592   0.04653   0.06221
 Alpha virt. eigenvalues --    0.06423   0.06680   0.07565   0.07768   0.08510
 Alpha virt. eigenvalues --    0.08921   0.09575   0.09888   0.10381   0.10577

 Mulliken charges:
               1
     1  C    0.634071
     2  C    0.273810
     3  C    0.086286
     4  C    0.285261
     5  C    0.496121
     6  C   -0.395338
     7  F   -0.276039
     8  F   -0.233123
     9  F   -0.333672
    10  F   -0.222846
    11  F   -0.352179
    12  B    0.291409
    13  O   -0.492360
    14  H    0.178417
    15  Si  -0.450693
    16  H    0.220257
    17  H    0.118309
    18  H    0.172308
 Sum of Mulliken charges =  -0.00000

 Dipole moment (field-independent basis, Debye):
    X=             -3.9322    Y=             -0.2146    Z=              0.8777  Tot=              4.0347

 Test job not archived.
 1\1\GINC-SE284\SP\RHF\Aug-CC-pVDZ\C6H4B1F5O1Si1\OHZDE\09-Apr-2025\0\\#
 t hf aug-cc-pvdz iop(5/13=1,5/36=2,99/5=2) pseudo=read geom=check gues
 s=(read,tcheck) scf=(maxcycle=1)\\title\\0,1\C,0,2.137158,-0.27896,0.1
 50061\C,0,1.693864,1.038161,0.145069\C,0,0.361542,1.307446,-0.146249\C
 ,0,1.250387,-1.312092,-0.133754\C,0,-0.071476,-1.002018,-0.418668\C,0,
 -0.555204,0.302693,-0.440676\F,0,3.412754,-0.552979,0.428953\F,0,2.550
 369,2.027696,0.421583\F,0,-0.02349,2.595928,-0.130988\F,0,1.678396,-2.
 579162,-0.125702\F,0,-0.911941,-2.021697,-0.685283\B,0,-3.594827,-0.10

 Normal termination of Gaussian 16 at Wed Apr  9 00:48:10 2025.
