 Gaussian 16, Revision C.01,

 ----------------------------------------------------------------------
 #t hf aug-cc-pvdz symm=none int=(grid=ultrafine) guess=(read,tcheck) s
 table=(opt,rrhf)
 ----------------------------------------------------------------------
 -----
 title
 -----
 Symbolic Z-matrix:
 Charge =  0 Multiplicity = 1

 SCF Done:  E(RHF) =  -562.054518981     A.U. after   15 cycles
 Normal termination of Gaussian 16 at Wed Apr  9 00:44:13 2025.
 Gaussian 16:  ES64L-G16RevC.01  3-Jul-2019

 ----------------------------------------------------------------------
 #t hf aug-cc-pvdz iop(5/13=1,5/36=2,99/5=2) pseudo=read geom=check gue
 ss=(read,tcheck) scf=(maxcycle=1)
 ----------------------------------------------------------------------
 -----
 title
 -----
 Structure from the checkpoint file:  "BDE49_nonexpt_789_mol1.chk"
 Charge =  0 Multiplicity = 1

                         Standard orientation:
 ---------------------------------------------------------------------
 Center     Atomic      Atomic             Coordinates (Angstroms)
 Number     Number       Type             X           Y           Z
 ---------------------------------------------------------------------
      1          6           0       -0.471376    1.121968    0.273351
      2          6           0       -1.845050    1.275119    0.130509
      3          6           0       -2.612792    0.146875   -0.152718
      4          7           0       -2.097664   -1.076801   -0.294127
      5          6           0       -0.774668   -1.204377   -0.149275
      6          6           0        0.105113   -0.149329    0.137194
      7          1           0       -2.315989    2.245939    0.232878
      8          1           0       -3.689725    0.229175   -0.273248
      9          1           0        0.146248    1.988808    0.488345
     10          5           0        3.115088    0.814081   -0.740557
     11          1           0       -0.390765   -2.214434   -0.270505
     12         14           0        1.956993   -0.446498    0.320178
     13          1           0        2.751331    1.914599   -1.020836
     14          1           0        4.219413    0.503555   -1.063999
     15          1           0        2.363287   -0.216419    1.738779
     16          1           0        2.219149   -1.874590    0.013404
 ---------------------------------------------------------------------

 SCF Done:  E(RHF) =  -562.154316309     A.U. after    2 cycles

 The electronic state is 1-A.
 Alpha  occ. eigenvalues --  -69.05771 -15.63229 -11.29026 -11.28951 -11.27406
 Alpha  occ. eigenvalues --  -11.25391 -11.24191  -7.63215  -6.81259  -3.92021
 Alpha  occ. eigenvalues --   -3.92008  -3.91950  -1.23186  -1.07670  -1.02762
 Alpha  occ. eigenvalues --   -0.85784  -0.85558  -0.74496  -0.71236  -0.66827
 Alpha  occ. eigenvalues --   -0.65484  -0.62560  -0.57831  -0.56047  -0.54590
 Alpha  occ. eigenvalues --   -0.51157  -0.48347  -0.47054  -0.42995  -0.40684
 Alpha  occ. eigenvalues --   -0.38239  -0.34784
 Alpha virt. eigenvalues --    0.02630   0.02983   0.03716   0.04334   0.04959
 Alpha virt. eigenvalues --    0.05583   0.06305   0.06779   0.07091   0.07939
 Alpha virt. eigenvalues --    0.08681   0.09136   0.09618   0.09970   0.10446

 Mulliken charges:
               1
     1  C    0.186335
     2  C    0.761214
     3  C    0.560898
     4  N   -0.475896
     5  C    0.734078
     6  C   -0.050704
     7  H   -0.396841
     8  H   -0.340349
     9  H   -0.594148
    10  B   -0.562518
    11  H   -0.502333
    12  Si  -0.086526
    13  H    0.338120
    14  H    0.328434
    15  H    0.109342
    16  H   -0.009106
 Sum of Mulliken charges =  -0.00000

 Dipole moment (field-independent basis, Debye):
    X=              0.8822    Y=              2.0332    Z=              0.0376  Tot=              2.2166

 Test job not archived.
 1\1\GINC-SE165\SP\RHF\Aug-CC-pVDZ\C5H8B1N1Si1\OHZDE\09-Apr-2025\0\\#t
 hf aug-cc-pvdz iop(5/13=1,5/36=2,99/5=2) pseudo=read geom=check guess=
 (read,tcheck) scf=(maxcycle=1)\\title\\0,1\C,0,-0.471376,1.121968,0.27
 3351\C,0,-1.84505,1.275119,0.130509\C,0,-2.612792,0.146875,-0.152718\N
 ,0,-2.097664,-1.076801,-0.294127\C,0,-0.774668,-1.204377,-0.149275\C,0
 ,0.105113,-0.149329,0.137194\H,0,-2.315989,2.245939,0.232878\H,0,-3.68
 9725,0.229175,-0.273248\H,0,0.146248,1.988808,0.488345\B,0,3.115088,0.
 814081,-0.740557\H,0,-0.390765,-2.214434,-0.270505\Si,0,1.956993,-0.44

 Normal termination of Gaussian 16 at Wed Apr  9 00:44:20 2025.
