 Gaussian 16, Revision C.01,

 ----------------------------------------------------------------------
 #t hf aug-cc-pvdz symm=none int=(grid=ultrafine) guess=(read,tcheck) s
 table=(opt,rrhf)
 ----------------------------------------------------------------------
 -----
 title
 -----
 Symbolic Z-matrix:
 Charge =  0 Multiplicity = 1

 SCF Done:  E(RHF) =  -815.563749662     A.U. after   16 cycles
 Normal termination of Gaussian 16 at Tue Apr  8 23:18:57 2025.
 Gaussian 16:  ES64L-G16RevC.01  3-Jul-2019

 ----------------------------------------------------------------------
 #t hf aug-cc-pvdz iop(5/13=1,5/36=2,99/5=2) pseudo=read geom=check gue
 ss=(read,tcheck) scf=(maxcycle=1)
 ----------------------------------------------------------------------
 -----
 title
 -----
 Structure from the checkpoint file:  "BDE49_nonexpt_1131_mol1.chk"
 Charge =  0 Multiplicity = 1

                         Standard orientation:
 ---------------------------------------------------------------------
 Center     Atomic      Atomic             Coordinates (Angstroms)
 Number     Number       Type             X           Y           Z
 ---------------------------------------------------------------------
      1          9           0        2.352234    0.433358   -0.008132
      2          8           0        1.572120   -0.847049    0.002475
      3         15           0       -0.806544    0.102017   -0.056388
      4          8           0       -1.899835    0.176740   -1.006520
      5          8           0       -1.030186   -0.769569    1.248659
      6          1           0       -1.682505   -1.469878    1.117878
      7          8           0       -0.170086    1.419148    0.506432
      8          1           0        0.800731    1.444830    0.511227
      9          8           0        0.504216   -0.654948   -0.839808
 ---------------------------------------------------------------------

 SCF Done:  E(RHF) =  -815.794561462     A.U. after    2 cycles

 The electronic state is 1-A.
 Alpha  occ. eigenvalues --  -81.49010 -26.20865 -20.82505 -20.72540 -20.65699
 Alpha  occ. eigenvalues --  -20.64933 -20.56641  -7.96928  -5.11608  -5.11483
 Alpha  occ. eigenvalues --   -5.11444  -1.70719  -1.52038  -1.42269  -1.39055
 Alpha  occ. eigenvalues --   -1.30739  -1.22048  -0.90132  -0.85600  -0.82866
 Alpha  occ. eigenvalues --   -0.81190  -0.79097  -0.75607  -0.71879  -0.70102
 Alpha  occ. eigenvalues --   -0.68126  -0.64166  -0.63816  -0.60866  -0.59689
 Alpha  occ. eigenvalues --   -0.57959  -0.53507  -0.53044
 Alpha virt. eigenvalues --    0.02640   0.02889   0.05362   0.08135   0.08526
 Alpha virt. eigenvalues --    0.10682   0.11745   0.13817   0.16303   0.17758
 Alpha virt. eigenvalues --    0.18318   0.19182   0.20390   0.22193   0.22587

 Mulliken charges:
               1
     1  F   -0.330200
     2  O    0.090433
     3  P    2.375826
     4  O   -0.759111
     5  O   -0.654272
     6  H    0.164703
     7  O   -0.622904
     8  H    0.221701
     9  O   -0.486176
 Sum of Mulliken charges =  -0.00000

 Dipole moment (field-independent basis, Debye):
    X=              0.6758    Y=             -1.7356    Z=              2.2654  Tot=              2.9327

 Test job not archived.
 1\1\GINC-SE364\SP\RHF\Aug-CC-pVDZ\F1H2O5P1\OHZDE\08-Apr-2025\0\\#t hf
 aug-cc-pvdz iop(5/13=1,5/36=2,99/5=2) pseudo=read geom=check guess=(re
 ad,tcheck) scf=(maxcycle=1)\\title\\0,1\F,0,2.352234,0.433358,-0.00813
 2\O,0,1.57212,-0.847049,0.002475\P,0,-0.806544,0.102017,-0.056388\O,0,
 -1.899835,0.17674,-1.00652\O,0,-1.030186,-0.769569,1.248659\H,0,-1.682
 505,-1.469878,1.117878\O,0,-0.170086,1.419148,0.506432\H,0,0.800731,1.
 44483,0.511227\O,0,0.504216,-0.654948,-0.839808\\Version=ES64L-G16RevC
 .01\State=1-A\HF=-815.7945615\RMSD=4.209e-03\Dipole=0.2658963,-0.68282

 Normal termination of Gaussian 16 at Tue Apr  8 23:19:00 2025.
