 Gaussian 16, Revision C.01,

 ----------------------------------------------------------------------
 #t hf aug-cc-pvdz symm=none int=(grid=ultrafine) guess=(read,tcheck) s
 table=(opt,rrhf)
 ----------------------------------------------------------------------
 -----
 title
 -----
 Symbolic Z-matrix:
 Charge =  0 Multiplicity = 1

 SCF Done:  E(RHF) =  -508.567712558     A.U. after   12 cycles
 Normal termination of Gaussian 16 at Tue Apr  8 23:53:48 2025.
 Gaussian 16:  ES64L-G16RevC.01  3-Jul-2019

 ----------------------------------------------------------------------
 #t hf aug-cc-pvdz iop(5/13=1,5/36=2,99/5=2) pseudo=read geom=check gue
 ss=(read,tcheck) scf=(maxcycle=1)
 ----------------------------------------------------------------------
 -----
 title
 -----
 Structure from the checkpoint file:  "BDE49_nonexpt_1962_mol1.chk"
 Charge =  0 Multiplicity = 1

                         Standard orientation:
 ---------------------------------------------------------------------
 Center     Atomic      Atomic             Coordinates (Angstroms)
 Number     Number       Type             X           Y           Z
 ---------------------------------------------------------------------
      1         14           0        2.034710   -0.281802   -0.257493
      2          6           0        0.590633    0.083210    0.903626
      3          5           0       -0.708243    0.577848    0.154312
      4          1           0        1.689367   -1.366405   -1.209614
      5          1           0        3.228325   -0.710510    0.511383
      6          8           0       -1.686356   -0.274948   -0.262516
      7          6           0       -0.942674    2.104485   -0.163451
      8          1           0        2.394797    0.921762   -1.044208
      9          1           0       -0.052681    2.577672   -0.593045
     10          1           0       -1.148777    2.649374    0.767302
     11          1           0       -1.786271    2.268218   -0.837585
     12          6           0       -1.668176   -1.682019   -0.037679
     13          1           0       -2.549508   -2.099888   -0.524792
     14          1           0       -1.714392   -1.912748    1.031059
     15          1           0       -0.774753   -2.145400   -0.465584
     16          1           0        0.952122    0.862203    1.584799
     17          1           0        0.429208   -0.822759    1.498777
 ---------------------------------------------------------------------

 SCF Done:  E(RHF) =  -508.665829600     A.U. after    2 cycles

 The electronic state is 1-A.
 Alpha  occ. eigenvalues --  -69.06404 -20.57237 -11.29155 -11.20503 -11.19438
 Alpha  occ. eigenvalues --   -7.62303  -6.81663  -3.92431  -3.92425  -3.92419
 Alpha  occ. eigenvalues --   -1.32439  -0.96410  -0.94037  -0.91064  -0.71577
 Alpha  occ. eigenvalues --   -0.68815  -0.64378  -0.64008  -0.59659  -0.55242
 Alpha  occ. eigenvalues --   -0.54266  -0.52302  -0.50932  -0.48409  -0.48034
 Alpha  occ. eigenvalues --   -0.46916  -0.45377  -0.42501
 Alpha virt. eigenvalues --    0.03139   0.04202   0.04453   0.04872   0.06164
 Alpha virt. eigenvalues --    0.06401   0.06742   0.07060   0.07600   0.08637
 Alpha virt. eigenvalues --    0.09189   0.09709   0.09720   0.10221   0.10833

 Mulliken charges:
               1
     1  Si  -0.075798
     2  C    0.260418
     3  B    0.866158
     4  H    0.032139
     5  H    0.037132
     6  O   -0.671118
     7  C    0.495276
     8  H    0.109942
     9  H   -0.159075
    10  H   -0.050126
    11  H   -0.317787
    12  C    0.948960
    13  H   -0.315801
    14  H   -0.174751
    15  H   -0.161202
    16  H   -0.397384
    17  H   -0.426984
 Sum of Mulliken charges =  -0.00000

 Dipole moment (field-independent basis, Debye):
    X=              0.1852    Y=             -1.0702    Z=              1.0757  Tot=              1.5287

 Test job not archived.
 1\1\GINC-SE454\SP\RHF\Aug-CC-pVDZ\C3H11B1O1Si1\OHZDE\08-Apr-2025\0\\#t
  hf aug-cc-pvdz iop(5/13=1,5/36=2,99/5=2) pseudo=read geom=check guess
 =(read,tcheck) scf=(maxcycle=1)\\title\\0,1\Si,0,2.03471,-0.281802,-0.
 257493\C,0,0.590633,0.08321,0.903626\B,0,-0.708243,0.577848,0.154312\H
 ,0,1.689367,-1.366405,-1.209614\H,0,3.228325,-0.71051,0.511383\O,0,-1.
 686356,-0.274948,-0.262516\C,0,-0.942674,2.104485,-0.163451\H,0,2.3947
 97,0.921762,-1.044208\H,0,-0.052681,2.577672,-0.593045\H,0,-1.148777,2
 .649374,0.767302\H,0,-1.786271,2.268218,-0.837585\C,0,-1.668176,-1.682

 Normal termination of Gaussian 16 at Tue Apr  8 23:53:54 2025.
