 Gaussian 16, Revision C.01,

 ----------------------------------------------------------------------
 #t hf aug-cc-pvdz symm=none int=(grid=ultrafine) guess=(read,tcheck) s
 table=(opt,rrhf)
 ----------------------------------------------------------------------
 -----
 title
 -----
 Symbolic Z-matrix:
 Charge =  0 Multiplicity = 1

 SCF Done:  E(RHF) =  -611.236564002     A.U. after   15 cycles
 Normal termination of Gaussian 16 at Wed Apr  9 00:51:43 2025.
 Gaussian 16:  ES64L-G16RevC.01  3-Jul-2019

 ----------------------------------------------------------------------
 #t hf aug-cc-pvdz iop(5/13=1,5/36=2,99/5=2) pseudo=read geom=check gue
 ss=(read,tcheck) scf=(maxcycle=1)
 ----------------------------------------------------------------------
 -----
 title
 -----
 Structure from the checkpoint file:  "BDE49_nonexpt_975_mol1.chk"
 Charge =  0 Multiplicity = 1

                         Standard orientation:
 ---------------------------------------------------------------------
 Center     Atomic      Atomic             Coordinates (Angstroms)
 Number     Number       Type             X           Y           Z
 ---------------------------------------------------------------------
      1          9           0       -1.108142    2.133995   -0.322024
      2          9           0        2.320273   -0.937588    0.124668
      3          8           0        1.628568    1.826079    0.159161
      4          8           0       -0.087699   -2.445297   -0.169822
      5          7           0       -0.568765    0.977893    0.251035
      6          7           0        1.079792   -0.434381   -0.100109
      7          6           0        0.837116    0.940509    0.101594
      8          6           0       -0.039993   -1.250791   -0.180016
      9          6           0       -1.193261   -0.238577   -0.296643
     10          1           0       -1.382510   -0.083624   -1.366379
     11          6           0       -2.457231   -0.658497    0.432504
     12          1           0       -2.263385   -0.784706    1.498719
     13          1           0       -2.815902   -1.605199    0.025874
     14          1           0       -3.231309    0.099168    0.302167
 ---------------------------------------------------------------------

 SCF Done:  E(RHF) =  -611.432313290     A.U. after    2 cycles

 The electronic state is 1-A.
 Alpha  occ. eigenvalues --  -26.21781 -26.19115 -20.61334 -20.61097 -15.80642
 Alpha  occ. eigenvalues --  -15.78768 -11.46698 -11.43952 -11.35479 -11.27402
 Alpha  occ. eigenvalues --   -1.74132  -1.70919  -1.43922  -1.42136  -1.31955
 Alpha  occ. eigenvalues --   -1.19256  -1.08007  -0.96850  -0.92079  -0.89712
 Alpha  occ. eigenvalues --   -0.83401  -0.81706  -0.80796  -0.79276  -0.76297
 Alpha  occ. eigenvalues --   -0.74407  -0.71776  -0.70123  -0.69369  -0.66117
 Alpha  occ. eigenvalues --   -0.61707  -0.60026  -0.59007  -0.57681  -0.53383
 Alpha  occ. eigenvalues --   -0.50228  -0.48264  -0.47145
 Alpha virt. eigenvalues --    0.02654   0.03601   0.05097   0.05600   0.07716
 Alpha virt. eigenvalues --    0.08456   0.08820   0.09712   0.10347   0.11362
 Alpha virt. eigenvalues --    0.12442   0.13073   0.13467   0.13951   0.14248

 Mulliken charges:
               1
     1  F   -0.427156
     2  F   -0.377693
     3  O   -0.332593
     4  O   -0.385295
     5  N   -0.355211
     6  N   -0.100075
     7  C    0.781466
     8  C    0.387853
     9  C    0.158057
    10  H   -0.025912
    11  C    0.604207
    12  H    0.047215
    13  H    0.019676
    14  H    0.005461
 Sum of Mulliken charges =  -0.00000

 Dipole moment (field-independent basis, Debye):
    X=             -3.6739    Y=             -0.8229    Z=             -0.5450  Tot=              3.8041

 Test job not archived.
 1\1\GINC-SE455\SP\RHF\Aug-CC-pVDZ\C4H4F2N2O2\OHZDE\09-Apr-2025\0\\#t h
 f aug-cc-pvdz iop(5/13=1,5/36=2,99/5=2) pseudo=read geom=check guess=(
 read,tcheck) scf=(maxcycle=1)\\title\\0,1\F,0,-1.108137,2.133998,-0.32
 2024\F,0,2.320271,-0.937594,0.124668\O,0,1.628573,1.826075,0.159161\O,
 0,-0.087705,-2.445297,-0.169822\N,0,-0.568763,0.977894,0.251035\N,0,1.
 079791,-0.434384,-0.100109\C,0,0.837118,0.940507,0.101594\C,0,-0.03999
 6,-1.250791,-0.180016\C,0,-1.193262,-0.238574,-0.296643\H,0,-1.38251,-
 0.083621,-1.366379\C,0,-2.457233,-0.658491,0.432504\H,0,-2.263387,-0.7

 Normal termination of Gaussian 16 at Wed Apr  9 00:51:49 2025.
