 Gaussian 16, Revision C.01,

 ----------------------------------------------------------------------
 #t hf aug-cc-pvdz symm=none int=(grid=ultrafine) guess=(read,tcheck) s
 table=(opt,rrhf)
 ----------------------------------------------------------------------
 -----
 title
 -----
 Symbolic Z-matrix:
 Charge =  0 Multiplicity = 1

 SCF Done:  E(RHF) =  -1161.09930888     A.U. after   14 cycles
 Normal termination of Gaussian 16 at Tue Apr  8 23:40:47 2025.
 Gaussian 16:  ES64L-G16RevC.01  3-Jul-2019

 ----------------------------------------------------------------------
 #t hf aug-cc-pvdz iop(5/13=1,5/36=2,99/5=2) pseudo=read geom=check gue
 ss=(read,tcheck) scf=(maxcycle=1)
 ----------------------------------------------------------------------
 -----
 title
 -----
 Structure from the checkpoint file:  "BDE49_nonexpt_1646_mol1.chk"
 Charge =  0 Multiplicity = 1

                         Standard orientation:
 ---------------------------------------------------------------------
 Center     Atomic      Atomic             Coordinates (Angstroms)
 Number     Number       Type             X           Y           Z
 ---------------------------------------------------------------------
      1          7           0       -1.929691   -0.324837   -0.003153
      2          9           0       -1.992321   -0.412490   -1.422572
      3          9           0       -1.631326   -1.661042    0.381122
      4         14           0       -0.372988    0.598442    0.319613
      5          6           0       -0.148073    0.586620    2.167512
      6          1           0       -1.020245    1.018462    2.665900
      7          1           0        0.732454    1.177440    2.434285
      8          1           0        0.001217   -0.429961    2.534763
      9          6           0       -0.641961    2.278143   -0.442660
     10          1           0       -1.506648    2.770285    0.011139
     11          1           0       -0.816500    2.203605   -1.517945
     12          1           0        0.238192    2.905637   -0.279727
     13         15           0        1.370016   -0.522452   -0.756628
     14          9           0        2.414572    0.722604   -0.516124
     15          9           0        1.796982   -1.438139    0.524173
 ---------------------------------------------------------------------

 SCF Done:  E(RHF) =  -1161.33652112     A.U. after    2 cycles

 The electronic state is 1-A.
 Alpha  occ. eigenvalues --  -81.39475 -69.12036 -26.16618 -26.16609 -26.14227
 Alpha  occ. eigenvalues --  -26.14131 -15.81307 -11.24915 -11.24658  -7.88269
 Alpha  occ. eigenvalues --   -6.87198  -5.02333  -5.02051  -5.01587  -3.98028
 Alpha  occ. eigenvalues --   -3.97866  -3.97856  -1.70599  -1.66975  -1.65694
 Alpha  occ. eigenvalues --   -1.65521  -1.10176  -0.98604  -0.95845  -0.89162
 Alpha  occ. eigenvalues --   -0.82428  -0.80037  -0.79943  -0.78999  -0.77348
 Alpha  occ. eigenvalues --   -0.76704  -0.74719  -0.74084  -0.71268  -0.70273
 Alpha  occ. eigenvalues --   -0.67964  -0.61972  -0.60070  -0.58194  -0.58051
 Alpha  occ. eigenvalues --   -0.57645  -0.53056  -0.48413  -0.48159  -0.37406
 Alpha virt. eigenvalues --    0.02724   0.04178   0.04932   0.05510   0.06629
 Alpha virt. eigenvalues --    0.06678   0.07089   0.07582   0.08479   0.08828
 Alpha virt. eigenvalues --    0.10067   0.11416   0.12306   0.13024   0.13760

 Mulliken charges:
               1
     1  N    0.023130
     2  F   -0.415573
     3  F   -0.412695
     4  Si   1.938350
     5  C    0.356099
     6  H   -0.206811
     7  H   -0.241837
     8  H   -0.215674
     9  C    0.384064
    10  H   -0.248603
    11  H   -0.240541
    12  H   -0.223076
    13  P    0.810045
    14  F   -0.652190
    15  F   -0.654688
 Sum of Mulliken charges =  -0.00000

 Dipole moment (field-independent basis, Debye):
    X=             -0.3893    Y=              3.2627    Z=              1.0229  Tot=              3.4414

 Test job not archived.
 1\1\GINC-SE118\SP\RHF\Aug-CC-pVDZ\C2H6F4N1P1Si1\OHZDE\08-Apr-2025\0\\#
 t hf aug-cc-pvdz iop(5/13=1,5/36=2,99/5=2) pseudo=read geom=check gues
 s=(read,tcheck) scf=(maxcycle=1)\\title\\0,1\N,0,-1.929691,-0.324836,-
 0.003153\F,0,-1.992321,-0.412489,-1.422572\F,0,-1.631327,-1.661041,0.3
 81122\Si,0,-0.372988,0.598442,0.319613\C,0,-0.148073,0.58662,2.167512\
 H,0,-1.020245,1.018462,2.6659\H,0,0.732454,1.17744,2.434285\H,0,0.0012
 17,-0.429961,2.534763\C,0,-0.64196,2.278143,-0.44266\H,0,-1.506647,2.7
 70286,0.011139\H,0,-0.816499,2.203605,-1.517945\H,0,0.238193,2.905637,

 Normal termination of Gaussian 16 at Tue Apr  8 23:40:54 2025.
