 Gaussian 16, Revision C.01,

 ----------------------------------------------------------------------
 #t hf aug-cc-pvdz symm=none int=(grid=ultrafine) guess=(read,tcheck) s
 table=(opt,rrhf)
 ----------------------------------------------------------------------
 -----
 title
 -----
 Symbolic Z-matrix:
 Charge =  0 Multiplicity = 1

 SCF Done:  E(RHF) =  -189.307758646     A.U. after   11 cycles
 Normal termination of Gaussian 16 at Tue Apr  8 23:04:44 2025.
 Gaussian 16:  ES64L-G16RevC.01  3-Jul-2019

 ----------------------------------------------------------------------
 #t hf aug-cc-pvdz iop(5/13=1,5/36=2,99/5=2) pseudo=read geom=check gue
 ss=(read,tcheck) scf=(maxcycle=1)
 ----------------------------------------------------------------------
 -----
 title
 -----
 Structure from the checkpoint file:  "BDE49_expt_414_mol1.chk"
 Charge =  0 Multiplicity = 1

                         Standard orientation:
 ---------------------------------------------------------------------
 Center     Atomic      Atomic             Coordinates (Angstroms)
 Number     Number       Type             X           Y           Z
 ---------------------------------------------------------------------
      1          7           0        1.410501   -0.591125    0.206700
      2          6           0        0.722412    0.626799   -0.247660
      3          6           0       -0.722412    0.626799    0.247660
      4          1           0        1.239977    1.494072    0.174342
      5          1           0        1.133081   -1.365622   -0.389133
      6          1           0        2.413502   -0.491433    0.092484
      7          7           0       -1.410501   -0.591126   -0.206700
      8          1           0       -0.719453    0.740069    1.342482
      9          1           0       -1.239977    1.494072   -0.174342
     10          1           0       -2.413502   -0.491432   -0.092484
     11          1           0       -1.133080   -1.365622    0.389132
     12          1           0        0.719452    0.740069   -1.342482
 ---------------------------------------------------------------------

 SCF Done:  E(RHF) =  -189.367270332     A.U. after    2 cycles

 The electronic state is 1-A.
 Alpha  occ. eigenvalues --  -15.60319 -15.60319 -11.25388 -11.25333  -1.16373
 Alpha  occ. eigenvalues --   -1.11597  -0.94604  -0.79781  -0.68306  -0.65863
 Alpha  occ. eigenvalues --   -0.60093  -0.59499  -0.53651  -0.50723  -0.48931
 Alpha  occ. eigenvalues --   -0.39954  -0.37436
 Alpha virt. eigenvalues --    0.03637   0.04191   0.04425   0.04982   0.07304
 Alpha virt. eigenvalues --    0.07346   0.07970   0.09410   0.12611   0.14057
 Alpha virt. eigenvalues --    0.14575   0.14918   0.17144   0.17326   0.18029

 Mulliken charges:
               1
     1  N   -0.375568
     2  C    0.602159
     3  C    0.602159
     4  H   -0.149685
     5  H    0.057886
     6  H   -0.029844
     7  N   -0.375568
     8  H   -0.104948
     9  H   -0.149685
    10  H   -0.029843
    11  H    0.057885
    12  H   -0.104948
 Sum of Mulliken charges =  -0.00000

 Dipole moment (field-independent basis, Debye):
    X=              0.0000    Y=              0.4475    Z=             -0.0000  Tot=              0.4475

 Test job not archived.
 1\1\GINC-SE058\SP\RHF\Aug-CC-pVDZ\C2H8N2\OHZDE\08-Apr-2025\0\\#t hf au
 g-cc-pvdz iop(5/13=1,5/36=2,99/5=2) pseudo=read geom=check guess=(read
 ,tcheck) scf=(maxcycle=1)\\title\\0,1\N,0,1.410501,-0.591125,0.2067\C,
 0,0.722412,0.626799,-0.24766\C,0,-0.722412,0.626799,0.24766\H,0,1.2399
 77,1.494072,0.174342\H,0,1.133081,-1.365622,-0.389133\H,0,2.413502,-0.
 491432,0.092484\N,0,-1.410501,-0.591126,-0.2067\H,0,-0.719453,0.740069
 ,1.342482\H,0,-1.239977,1.494072,-0.174342\H,0,-2.413502,-0.491432,-0.
 092484\H,0,-1.13308,-1.365622,0.389132\H,0,0.719452,0.740069,-1.342482

 Normal termination of Gaussian 16 at Tue Apr  8 23:04:47 2025.
