 Gaussian 16, Revision C.01,

 ----------------------------------------------------------------------
 #t hf aug-cc-pvdz symm=none int=(grid=ultrafine) guess=(read,tcheck) s
 table=(opt,rrhf)
 ----------------------------------------------------------------------
 -----
 title
 -----
 Symbolic Z-matrix:
 Charge =  0 Multiplicity = 1

 SCF Done:  E(RHF) =  -513.565124222     A.U. after   15 cycles
 Normal termination of Gaussian 16 at Tue Apr  8 23:07:43 2025.
 Gaussian 16:  ES64L-G16RevC.01  3-Jul-2019

 ----------------------------------------------------------------------
 #t hf aug-cc-pvdz iop(5/13=1,5/36=2,99/5=2) pseudo=read geom=check gue
 ss=(read,tcheck) scf=(maxcycle=1)
 ----------------------------------------------------------------------
 -----
 title
 -----
 Structure from the checkpoint file:  "BDE49_expt_476_mol1.chk"
 Charge =  0 Multiplicity = 1

                         Standard orientation:
 ---------------------------------------------------------------------
 Center     Atomic      Atomic             Coordinates (Angstroms)
 Number     Number       Type             X           Y           Z
 ---------------------------------------------------------------------
      1          6           0       -1.363495    0.099420   -0.001728
      2          6           0       -0.913077    1.424832   -0.005682
      3          6           0        0.453575    1.692145   -0.007171
      4          6           0       -0.464431   -0.962288    0.003885
      5          6           0        0.909340   -0.680069    0.002678
      6          6           0        1.378460    0.628972   -0.003420
      7          1           0       -1.645302    2.223150   -0.013098
      8          7           0        0.919240    3.007204   -0.074413
      9          1           0        0.262991    3.705714    0.242413
     10          1           0        1.839389    3.154437    0.313611
     11          8           0       -2.719826   -0.051130    0.000349
     12          6           0       -3.253026   -1.366999    0.003333
     13          1           0       -2.949605   -1.925891   -0.888856
     14          1           0       -4.335663   -1.248909    0.003217
     15          1           0       -2.949411   -1.922125    0.897886
     16          1           0        2.437228    0.849590   -0.017918
     17          8           0        1.717424   -1.781242    0.008064
     18          6           0        3.123339   -1.591786   -0.003930
     19          1           0        3.558181   -2.590279   -0.002007
     20          1           0        3.464508   -1.048249    0.884621
     21          1           0        3.450359   -1.057271   -0.903020
     22          1           0       -0.772252   -1.996985    0.008952
 ---------------------------------------------------------------------

 SCF Done:  E(RHF) =  -513.725013455     A.U. after    2 cycles

 The electronic state is 1-A.
 Alpha  occ. eigenvalues --  -20.59816 -20.59527 -15.63142 -11.31443 -11.31184
 Alpha  occ. eigenvalues --  -11.29491 -11.29443 -11.29112 -11.22089 -11.21539
 Alpha  occ. eigenvalues --  -11.21339  -1.36745  -1.36359  -1.19551  -1.10807
 Alpha  occ. eigenvalues --   -1.01678  -0.99129  -0.94208  -0.93393  -0.81916
 Alpha  occ. eigenvalues --   -0.80701  -0.73252  -0.71512  -0.67527  -0.66753
 Alpha  occ. eigenvalues --   -0.66508  -0.65787  -0.64382  -0.63244  -0.60959
 Alpha  occ. eigenvalues --   -0.56504  -0.54519  -0.53878  -0.53139  -0.50876
 Alpha  occ. eigenvalues --   -0.50589  -0.50249  -0.49536  -0.41477  -0.31237
 Alpha  occ. eigenvalues --   -0.29508
 Alpha virt. eigenvalues --    0.03089   0.03850   0.03915   0.05042   0.05595
 Alpha virt. eigenvalues --    0.05786   0.06572   0.06669   0.08065   0.09195
 Alpha virt. eigenvalues --    0.10373   0.10699   0.11590   0.11906   0.13139

 Mulliken charges:
               1
     1  C    0.555704
     2  C    0.820550
     3  C    0.166127
     4  C    0.614819
     5  C    0.407495
     6  C    0.788906
     7  H   -0.653908
     8  N   -0.335012
     9  H   -0.027455
    10  H   -0.029366
    11  O   -0.710053
    12  C    0.863700
    13  H   -0.077880
    14  H   -0.333809
    15  H   -0.077549
    16  H   -0.816147
    17  O   -0.710383
    18  C    0.852223
    19  H   -0.338658
    20  H   -0.078860
    21  H   -0.073754
    22  H   -0.806692
 Sum of Mulliken charges =  -0.00000

 Dipole moment (field-independent basis, Debye):
    X=              1.5707    Y=              0.2856    Z=              0.9659  Tot=              1.8659

 Test job not archived.
 1\1\GINC-SE366\SP\RHF\Aug-CC-pVDZ\C8H11N1O2\OHZDE\08-Apr-2025\0\\#t hf
  aug-cc-pvdz iop(5/13=1,5/36=2,99/5=2) pseudo=read geom=check guess=(r
 ead,tcheck) scf=(maxcycle=1)\\title\\0,1\C,0,-1.363495,0.09942,-0.0017
 28\C,0,-0.913077,1.424832,-0.005682\C,0,0.453575,1.692145,-0.007171\C,
 0,-0.464431,-0.962288,0.003885\C,0,0.90934,-0.680069,0.002678\C,0,1.37
 846,0.628972,-0.00342\H,0,-1.645302,2.22315,-0.013098\N,0,0.91924,3.00
 7204,-0.074413\H,0,0.262991,3.705714,0.242413\H,0,1.839389,3.154437,0.
 313611\O,0,-2.719826,-0.05113,0.000349\C,0,-3.253026,-1.366999,0.00333

 Normal termination of Gaussian 16 at Tue Apr  8 23:07:55 2025.
