 Gaussian 16, Revision C.01,

 ----------------------------------------------------------------------
 #t hf aug-cc-pvdz symm=none int=(grid=ultrafine) guess=(read,tcheck) s
 table=(opt,rrhf)
 ----------------------------------------------------------------------
 -----
 title
 -----
 Symbolic Z-matrix:
 Charge =  0 Multiplicity = 1

 SCF Done:  E(RHF) =  -913.342277558     A.U. after   13 cycles
 Normal termination of Gaussian 16 at Tue Apr  8 22:45:42 2025.
 Gaussian 16:  ES64L-G16RevC.01  3-Jul-2019

 ----------------------------------------------------------------------
 #t hf aug-cc-pvdz iop(5/13=1,5/36=2,99/5=2) pseudo=read geom=check gue
 ss=(read,tcheck) scf=(maxcycle=1)
 ----------------------------------------------------------------------
 -----
 title
 -----
 Structure from the checkpoint file:  "BDE49_expt_1592_mol1.chk"
 Charge =  0 Multiplicity = 1

                         Standard orientation:
 ---------------------------------------------------------------------
 Center     Atomic      Atomic             Coordinates (Angstroms)
 Number     Number       Type             X           Y           Z
 ---------------------------------------------------------------------
      1          6           0       -1.585530    0.085453    0.723543
      2         16           0       -0.299904    1.057046   -0.172086
      3         16           0        1.152451   -0.349590   -0.658478
      4          6           0        2.238936   -0.354856    0.815192
      5          1           0        3.064648   -1.028945    0.573996
      6          1           0        1.713708   -0.731287    1.692371
      7          1           0        2.628799    0.644300    1.003605
      8          6           0       -2.335383   -0.920726   -0.139656
      9          1           0       -2.257135    0.863455    1.101461
     10          1           0       -1.119050   -0.389497    1.588608
     11          1           0       -2.834934   -0.425378   -0.975057
     12          1           0       -3.092406   -1.441447    0.455588
     13          1           0       -1.652521   -1.669716   -0.546017
 ---------------------------------------------------------------------

 SCF Done:  E(RHF) =  -913.423197678     A.U. after    2 cycles

 The electronic state is 1-A.
 Alpha  occ. eigenvalues --  -93.55262 -93.55044 -11.27543 -11.26992 -11.23428
 Alpha  occ. eigenvalues --   -8.84817  -8.84603  -6.18946  -6.18721  -6.18663
 Alpha  occ. eigenvalues --   -6.18459  -6.18364  -6.18152  -1.07385  -1.02424
 Alpha  occ. eigenvalues --   -0.93717  -0.85661  -0.76575  -0.63544  -0.60430
 Alpha  occ. eigenvalues --   -0.59420  -0.58365  -0.54933  -0.51743  -0.50842
 Alpha  occ. eigenvalues --   -0.46922  -0.42953  -0.35357  -0.34795
 Alpha virt. eigenvalues --    0.03440   0.04316   0.05049   0.05444   0.06524
 Alpha virt. eigenvalues --    0.06752   0.07535   0.08765   0.09522   0.10330
 Alpha virt. eigenvalues --    0.12339   0.13486   0.14440   0.14567   0.14798

 Mulliken charges:
               1
     1  C   -0.144249
     2  S    0.146842
     3  S    0.078722
     4  C    0.071689
     5  H   -0.063811
     6  H   -0.081149
     7  H   -0.030549
     8  C    0.285425
     9  H   -0.011274
    10  H   -0.091294
    11  H   -0.052929
    12  H   -0.055779
    13  H   -0.051644
 Sum of Mulliken charges =  -0.00000

 Dipole moment (field-independent basis, Debye):
    X=             -0.3054    Y=             -0.9870    Z=              2.0484  Tot=              2.2942

 Test job not archived.
 1\1\GINC-SE250\SP\RHF\Aug-CC-pVDZ\C3H8S2\OHZDE\08-Apr-2025\0\\#t hf au
 g-cc-pvdz iop(5/13=1,5/36=2,99/5=2) pseudo=read geom=check guess=(read
 ,tcheck) scf=(maxcycle=1)\\title\\0,1\C,0,-1.58553,0.085453,0.723543\S
 ,0,-0.299904,1.057046,-0.172086\S,0,1.152451,-0.34959,-0.658478\C,0,2.
 238936,-0.354856,0.815192\H,0,3.064648,-1.028945,0.573996\H,0,1.713708
 ,-0.731287,1.692371\H,0,2.628799,0.6443,1.003605\C,0,-2.335383,-0.9207
 26,-0.139656\H,0,-2.257135,0.863455,1.101461\H,0,-1.11905,-0.389497,1.
 588608\H,0,-2.834934,-0.425378,-0.975057\H,0,-3.092406,-1.441447,0.455

 Normal termination of Gaussian 16 at Tue Apr  8 22:45:46 2025.
