 Gaussian 16, Revision C.01,

 ----------------------------------------------------------------------
 #t hf aug-cc-pvdz symm=none int=(grid=ultrafine) guess=(read,tcheck) s
 table=(opt,rrhf)
 ----------------------------------------------------------------------
 -----
 title
 -----
 Symbolic Z-matrix:
 Charge =  0 Multiplicity = 1

 SCF Done:  E(RHF) =  -1752.58168343     A.U. after   12 cycles

 1\1\GINC-SE226\Stability\RHF\Aug-CC-pVDZ\C2Cl3F3\OHZDE\08-Apr-2025\0\\
 #t hf aug-cc-pvdz symm=none int=(grid=ultrafine) guess=(read,tcheck) s
 table=(opt,rrhf)\\title\\0,1\C,0,-0.729561,-0.52738,-0.230781\C,0,0.57
 7137,0.14621,0.311548\Cl,0,-2.181669,0.394076,0.235123\F,0,-0.821203,-
 1.761388,0.285439\F,0,-0.66924,-0.628399,-1.563221\Cl,0,0.79777,1.7663
 6,-0.388992\Cl,0,1.977352,-0.892958,-0.0711\F,0,0.471091,0.249775,1.64
 8877\\Version=ES64L-G16RevC.01\HF=-1752.5816834\RMSD=9.570e-09\Dipole=
 0.0498533,0.2003598,-0.0797167\Quadrupole=1.3099477,0.388686,-1.698633

 Normal termination of Gaussian 16 at Tue Apr  8 22:27:26 2025.
 Gaussian 16:  ES64L-G16RevC.01  3-Jul-2019

 ----------------------------------------------------------------------
 #t hf aug-cc-pvdz iop(5/13=1,5/36=2,99/5=2) pseudo=read geom=check gue
 ss=(read,tcheck) scf=(maxcycle=1)
 ----------------------------------------------------------------------
 -----
 title
 -----
 Structure from the checkpoint file:  "BDE49_expt_1005_mol1.chk"
 Charge =  0 Multiplicity = 1

                         Standard orientation:
 ---------------------------------------------------------------------
 Center     Atomic      Atomic             Coordinates (Angstroms)
 Number     Number       Type             X           Y           Z
 ---------------------------------------------------------------------
      1          6           0       -0.729561   -0.527380   -0.230781
      2          6           0        0.577137    0.146210    0.311548
      3         17           0       -2.181669    0.394077    0.235123
      4          9           0       -0.821203   -1.761388    0.285439
      5          9           0       -0.669240   -0.628399   -1.563221
      6         17           0        0.797771    1.766360   -0.388992
      7         17           0        1.977352   -0.892959   -0.071100
      8          9           0        0.471091    0.249775    1.648877
 ---------------------------------------------------------------------

 SCF Done:  E(RHF) =  -1752.76941825     A.U. after    2 cycles

 The electronic state is 1-A.
 Alpha  occ. eigenvalues -- -103.71109-103.70928-103.70782 -26.19763 -26.19598
 Alpha  occ. eigenvalues --  -26.19540 -11.54355 -11.51369 -10.74437 -10.74247
 Alpha  occ. eigenvalues --  -10.74132  -8.40158  -8.39968  -8.39855  -8.39811
 Alpha  occ. eigenvalues --   -8.39805  -8.39623  -8.39615  -8.39513  -8.39505
 Alpha  occ. eigenvalues --   -1.77189  -1.74325  -1.72129  -1.26503  -1.21934
 Alpha  occ. eigenvalues --   -1.18226  -1.05530  -0.96386  -0.88964  -0.88460
 Alpha  occ. eigenvalues --   -0.85050  -0.82224  -0.80938  -0.78667  -0.75675
 Alpha  occ. eigenvalues --   -0.75199  -0.67959  -0.61654  -0.59991  -0.53740
 Alpha  occ. eigenvalues --   -0.52771  -0.52308  -0.51035  -0.50483  -0.48744
 Alpha virt. eigenvalues --    0.06065   0.06696   0.07795   0.09023   0.09761
 Alpha virt. eigenvalues --    0.10698   0.11349   0.12155   0.12871   0.13682
 Alpha virt. eigenvalues --    0.14222   0.15918   0.16843   0.17622   0.18007

 Mulliken charges:
               1
     1  C    0.789698
     2  C    0.171949
     3  Cl  -0.073097
     4  F   -0.280760
     5  F   -0.281754
     6  Cl   0.004964
     7  Cl   0.003680
     8  F   -0.334681
 Sum of Mulliken charges =  -0.00000

 Dipole moment (field-independent basis, Debye):
    X=              0.1422    Y=              0.7334    Z=             -0.2963  Tot=              0.8037

 Test job not archived.
 1\1\GINC-SE226\SP\RHF\Aug-CC-pVDZ\C2Cl3F3\OHZDE\08-Apr-2025\0\\#t hf a
 ug-cc-pvdz iop(5/13=1,5/36=2,99/5=2) pseudo=read geom=check guess=(rea
 d,tcheck) scf=(maxcycle=1)\\title\\0,1\C,0,-0.729561,-0.52738,-0.23078
 1\C,0,0.577137,0.14621,0.311548\Cl,0,-2.181669,0.394076,0.235123\F,0,-
 0.821203,-1.761388,0.285439\F,0,-0.66924,-0.628399,-1.563221\Cl,0,0.79
 777,1.76636,-0.388992\Cl,0,1.977352,-0.892958,-0.0711\F,0,0.471091,0.2
 49775,1.648877\\Version=ES64L-G16RevC.01\State=1-A\HF=-1752.7694183\RM
 SD=5.282e-03\Dipole=0.0559573,0.288556,-0.1165901\Quadrupole=1.6951341

 Normal termination of Gaussian 16 at Tue Apr  8 22:27:30 2025.
