 Gaussian 16, Revision C.01,

 ----------------------------------------------------------------------
 #t hf aug-cc-pvdz symm=none int=(grid=ultrafine) guess=(read,tcheck) s
 table=(opt,rrhf)
 ----------------------------------------------------------------------
 -----
 title
 -----
 Symbolic Z-matrix:
 Charge =  0 Multiplicity = 1

 SCF Done:  E(RHF) =  -406.765914591     A.U. after   13 cycles
 Normal termination of Gaussian 16 at Wed Apr  9 00:41:19 2025.
 Gaussian 16:  ES64L-G16RevC.01  3-Jul-2019

 ----------------------------------------------------------------------
 #t hf aug-cc-pvdz iop(5/13=1,5/36=2,99/5=2) pseudo=read geom=check gue
 ss=(read,tcheck) scf=(maxcycle=1)
 ----------------------------------------------------------------------
 -----
 title
 -----
 Structure from the checkpoint file:  "BDE49_nonexpt_725_mol1.chk"
 Charge =  0 Multiplicity = 1

                         Standard orientation:
 ---------------------------------------------------------------------
 Center     Atomic      Atomic             Coordinates (Angstroms)
 Number     Number       Type             X           Y           Z
 ---------------------------------------------------------------------
      1          5           0        1.604469    0.568339    0.087038
      2         15           0        0.122457   -0.498973   -0.151444
      3          6           0       -1.469524    0.419088    0.082426
      4          1           0       -1.621642    0.733160    1.115006
      5          1           0       -2.308059   -0.203757   -0.232112
      6          1           0       -1.444115    1.304598   -0.555386
      7          1           0        2.625588    0.058851    0.422112
      8          1           0        1.579450    1.700636   -0.279676
      9          1           0        0.126726   -1.465113    0.871965
 ---------------------------------------------------------------------

 SCF Done:  E(RHF) =  -406.809979543     A.U. after    2 cycles

 The electronic state is 1-A.
 Alpha  occ. eigenvalues --  -81.23998 -11.24889  -7.74772  -7.62042  -4.88843
 Alpha  occ. eigenvalues --   -4.88802  -4.88488  -0.96872  -0.77991  -0.65305
 Alpha  occ. eigenvalues --   -0.58538  -0.58050  -0.52198  -0.47470  -0.45618
 Alpha  occ. eigenvalues --   -0.32474
 Alpha virt. eigenvalues --    0.03187   0.04636   0.04906   0.05172   0.06532
 Alpha virt. eigenvalues --    0.06974   0.07193   0.08821   0.10243   0.11154
 Alpha virt. eigenvalues --    0.11762   0.13338   0.14948   0.15443   0.16117

 Mulliken charges:
               1
     1  B   -0.361748
     2  P    0.138923
     3  C    0.114873
     4  H   -0.152808
     5  H   -0.168217
     6  H   -0.156750
     7  H    0.272516
     8  H    0.209950
     9  H    0.103262
 Sum of Mulliken charges =  -0.00000

 Dipole moment (field-independent basis, Debye):
    X=             -1.2126    Y=              0.4053    Z=              0.7976  Tot=              1.5069

 Test job not archived.
 1\1\GINC-SE126\SP\RHF\Aug-CC-pVDZ\C1H6B1P1\OHZDE\09-Apr-2025\0\\#t hf
 aug-cc-pvdz iop(5/13=1,5/36=2,99/5=2) pseudo=read geom=check guess=(re
 ad,tcheck) scf=(maxcycle=1)\\title\\0,1\B,0,1.604469,0.568339,0.087038
 \P,0,0.122457,-0.498973,-0.151444\C,0,-1.469524,0.419088,0.082426\H,0,
 -1.621642,0.73316,1.115006\H,0,-2.308059,-0.203757,-0.232112\H,0,-1.44
 4115,1.304598,-0.555386\H,0,2.625588,0.058851,0.422112\H,0,1.57945,1.7
 00636,-0.279676\H,0,0.126726,-1.465113,0.871965\\Version=ES64L-G16RevC
 .01\State=1-A\HF=-406.8099795\RMSD=1.076e-02\Dipole=-0.4770625,0.15945

 Normal termination of Gaussian 16 at Wed Apr  9 00:41:22 2025.
