 Gaussian 16, Revision C.01,

 ----------------------------------------------------------------------
 #t hf aug-cc-pvdz symm=none int=(grid=ultrafine) guess=(read,tcheck) s
 table=(opt,rrhf)
 ----------------------------------------------------------------------
 -----
 title
 -----
 Symbolic Z-matrix:
 Charge =  0 Multiplicity = 1

 SCF Done:  E(RHF) =  -735.128064080     A.U. after   12 cycles
 Normal termination of Gaussian 16 at Wed Apr  9 00:08:00 2025.
 Gaussian 16:  ES64L-G16RevC.01  3-Jul-2019

 ----------------------------------------------------------------------
 #t hf aug-cc-pvdz iop(5/13=1,5/36=2,99/5=2) pseudo=read geom=check gue
 ss=(read,tcheck) scf=(maxcycle=1)
 ----------------------------------------------------------------------
 -----
 title
 -----
 Structure from the checkpoint file:  "BDE49_nonexpt_2303_mol1.chk"
 Charge =  0 Multiplicity = 1

                         Standard orientation:
 ---------------------------------------------------------------------
 Center     Atomic      Atomic             Coordinates (Angstroms)
 Number     Number       Type             X           Y           Z
 ---------------------------------------------------------------------
      1         14           0        1.053779   -0.933700    0.534799
      2         14           0       -1.053779   -0.933700   -0.534799
      3          6           0       -2.171582    0.494429   -0.059703
      4          1           0       -1.730902   -2.213159   -0.193670
      5          1           0       -0.871099   -0.939590   -2.010867
      6          6           0        2.171582    0.494429    0.059702
      7          1           0        1.730902   -2.213159    0.193670
      8          1           0        0.871100   -0.939588    2.010867
      9          6           0        1.855911    1.486195   -0.776152
     10          6           0       -1.855912    1.486194    0.776153
     11          1           0        3.167451    0.506313    0.504328
     12          1           0        0.885777    1.551062   -1.260539
     13          1           0        2.555179    2.283433   -1.014676
     14          1           0       -3.167450    0.506314   -0.504332
     15          1           0       -0.885779    1.551060    1.260542
     16          1           0       -2.555179    2.283432    1.014677
 ---------------------------------------------------------------------

 SCF Done:  E(RHF) =  -735.219507196     A.U. after    2 cycles

 The electronic state is 1-A.
 Alpha  occ. eigenvalues --  -69.05850 -69.05850 -11.25463 -11.25463 -11.23674
 Alpha  occ. eigenvalues --  -11.23673  -6.81217  -6.81213  -3.91999  -3.91979
 Alpha  occ. eigenvalues --   -3.91974  -3.91962  -3.91956  -3.91906  -1.03421
 Alpha  occ. eigenvalues --   -1.03043  -0.80002  -0.79379  -0.71480  -0.65508
 Alpha  occ. eigenvalues --   -0.63201  -0.62661  -0.57126  -0.55987  -0.48947
 Alpha  occ. eigenvalues --   -0.47971  -0.45779  -0.45191  -0.38849  -0.38708
 Alpha  occ. eigenvalues --   -0.37919
 Alpha virt. eigenvalues --    0.03290   0.04045   0.04775   0.05052   0.05734
 Alpha virt. eigenvalues --    0.06623   0.06690   0.07221   0.07969   0.08245
 Alpha virt. eigenvalues --    0.08910   0.09406   0.09623   0.10073   0.10913

 Mulliken charges:
               1
     1  Si   0.181745
     2  Si   0.181745
     3  C    0.116313
     4  H    0.033293
     5  H    0.142376
     6  C    0.116315
     7  H    0.033293
     8  H    0.142376
     9  C    0.653701
    10  C    0.653703
    11  H   -0.548668
    12  H   -0.295146
    13  H   -0.283617
    14  H   -0.548666
    15  H   -0.295146
    16  H   -0.283618
 Sum of Mulliken charges =  -0.00000

 Dipole moment (field-independent basis, Debye):
    X=             -0.0000    Y=              1.2875    Z=              0.0000  Tot=              1.2875

 Test job not archived.
 1\1\GINC-SE127\SP\RHF\Aug-CC-pVDZ\C4H10Si2\OHZDE\09-Apr-2025\0\\#t hf
 aug-cc-pvdz iop(5/13=1,5/36=2,99/5=2) pseudo=read geom=check guess=(re
 ad,tcheck) scf=(maxcycle=1)\\title\\0,1\Si,0,1.053779,-0.9337,0.534799
 \Si,0,-1.053779,-0.9337,-0.534799\C,0,-2.171582,0.494429,-0.059703\H,0
 ,-1.730902,-2.213159,-0.19367\H,0,-0.871099,-0.93959,-2.010867\C,0,2.1
 71582,0.494429,0.059702\H,0,1.730902,-2.213159,0.19367\H,0,0.8711,-0.9
 39588,2.010867\C,0,1.855911,1.486195,-0.776152\C,0,-1.855912,1.486194,
 0.776153\H,0,3.167451,0.506313,0.504328\H,0,0.885777,1.551062,-1.26053

 Normal termination of Gaussian 16 at Wed Apr  9 00:08:05 2025.
