 Gaussian 16, Revision C.01,

 ----------------------------------------------------------------------
 #t hf aug-cc-pvdz symm=none int=(grid=ultrafine) guess=(read,tcheck) s
 table=(opt,rrhf)
 ----------------------------------------------------------------------
 -----
 title
 -----
 Symbolic Z-matrix:
 Charge =  0 Multiplicity = 1

 SCF Done:  E(RHF) =  -607.841006465     A.U. after   18 cycles
 Normal termination of Gaussian 16 at Tue Apr  8 23:29:12 2025.
 Gaussian 16:  ES64L-G16RevC.01  3-Jul-2019

 ----------------------------------------------------------------------
 #t hf aug-cc-pvdz iop(5/13=1,5/36=2,99/5=2) pseudo=read geom=check gue
 ss=(read,tcheck) scf=(maxcycle=1)
 ----------------------------------------------------------------------
 -----
 title
 -----
 Structure from the checkpoint file:  "BDE49_nonexpt_1389_mol1.chk"
 Charge =  0 Multiplicity = 1

                         Standard orientation:
 ---------------------------------------------------------------------
 Center     Atomic      Atomic             Coordinates (Angstroms)
 Number     Number       Type             X           Y           Z
 ---------------------------------------------------------------------
      1          6           0        1.431141   -0.958431    0.149901
      2          6           0        1.907357    0.301827    0.083417
      3         15           0       -0.290049   -1.346997   -0.216931
      4          6           0       -1.136172    0.308006    0.023010
      5          6           0       -0.285177    1.497573   -0.091312
      6          6           0        1.069174    1.476984   -0.056874
      7          8           0       -2.341994    0.359434    0.171395
      8          1           0        2.114298   -1.791299    0.287627
      9          1           0        2.975677    0.473452    0.172829
     10          1           0       -0.820875    2.441818   -0.113150
     11          1           0        1.586998    2.431011   -0.094434
     12          1           0       -0.687339   -1.981249    0.981076
 ---------------------------------------------------------------------

 SCF Done:  E(RHF) =  -607.941598627     A.U. after    2 cycles

 The electronic state is 1-A.
 Alpha  occ. eigenvalues --  -81.27774 -20.56736 -11.35458 -11.29129 -11.28007
 Alpha  occ. eigenvalues --  -11.27455 -11.26440  -7.78320  -4.92378  -4.92320
 Alpha  occ. eigenvalues --   -4.91967  -1.35460  -1.12898  -1.03022  -0.93437
 Alpha  occ. eigenvalues --   -0.81956  -0.80937  -0.70820  -0.67226  -0.65949
 Alpha  occ. eigenvalues --   -0.63052  -0.59218  -0.56981  -0.54865  -0.51935
 Alpha  occ. eigenvalues --   -0.47389  -0.42182  -0.38298  -0.32922
 Alpha virt. eigenvalues --    0.02676   0.03089   0.03778   0.04589   0.06221
 Alpha virt. eigenvalues --    0.06382   0.08038   0.09547   0.10077   0.11234
 Alpha virt. eigenvalues --    0.12014   0.12691   0.13301   0.13767   0.14033

 Mulliken charges:
               1
     1  C    0.305423
     2  C    0.468581
     3  P    0.515335
     4  C   -0.035996
     5  C    0.591183
     6  C    0.218361
     7  O   -0.526990
     8  H   -0.460297
     9  H   -0.414628
    10  H   -0.425656
    11  H   -0.424169
    12  H    0.188853
 Sum of Mulliken charges =  -0.00000

 Dipole moment (field-independent basis, Debye):
    X=              4.6611    Y=              0.0979    Z=              0.3609  Tot=              4.6761

 Test job not archived.
 1\1\GINC-SE361\SP\RHF\Aug-CC-pVDZ\C5H5O1P1\OHZDE\08-Apr-2025\0\\#t hf
 aug-cc-pvdz iop(5/13=1,5/36=2,99/5=2) pseudo=read geom=check guess=(re
 ad,tcheck) scf=(maxcycle=1)\\title\\0,1\C,0,1.431141,-0.958431,0.14990
 1\C,0,1.907357,0.301827,0.083417\P,0,-0.290049,-1.346997,-0.216931\C,0
 ,-1.136172,0.308006,0.02301\C,0,-0.285177,1.497573,-0.091312\C,0,1.069
 174,1.476984,-0.056874\O,0,-2.341994,0.359434,0.171395\H,0,2.114298,-1
 .791299,0.287627\H,0,2.975677,0.473452,0.172829\H,0,-0.820875,2.441818
 ,-0.11315\H,0,1.586998,2.431011,-0.094434\H,0,-0.687339,-1.981249,0.98

 Normal termination of Gaussian 16 at Tue Apr  8 23:29:16 2025.
