 Gaussian 16, Revision C.01,

 ----------------------------------------------------------------------
 #t hf aug-cc-pvdz symm=none int=(grid=ultrafine) guess=(read,tcheck) s
 table=(opt,rrhf)
 ----------------------------------------------------------------------
 -----
 title
 -----
 Symbolic Z-matrix:
 Charge =  0 Multiplicity = 1

 SCF Done:  E(RHF) =  -1377.01600161     A.U. after   14 cycles
 Normal termination of Gaussian 16 at Tue Apr  8 23:45:18 2025.
 Gaussian 16:  ES64L-G16RevC.01  3-Jul-2019

 ----------------------------------------------------------------------
 #t hf aug-cc-pvdz iop(5/13=1,5/36=2,99/5=2) pseudo=read geom=check gue
 ss=(read,tcheck) scf=(maxcycle=1)
 ----------------------------------------------------------------------
 -----
 title
 -----
 Structure from the checkpoint file:  "BDE49_nonexpt_1782_mol1.chk"
 Charge =  0 Multiplicity = 1

                         Standard orientation:
 ---------------------------------------------------------------------
 Center     Atomic      Atomic             Coordinates (Angstroms)
 Number     Number       Type             X           Y           Z
 ---------------------------------------------------------------------
      1         14           0       -0.282370   -0.098086    0.545600
      2          6           0        1.564520   -0.005677    0.061786
      3         17           0       -1.151129   -1.688021   -0.438266
      4         17           0       -1.296211    1.649383    0.036875
      5          7           0        2.003122    0.936697   -0.806941
      6          1           0        1.382658    1.629162   -1.194075
      7          1           0        2.983590    0.961003   -1.052076
      8          8           0        2.274076   -0.846686    0.589973
      9          1           0       -0.409883   -0.309460    1.989486
 ---------------------------------------------------------------------

 SCF Done:  E(RHF) =  -1377.13093985     A.U. after    2 cycles

 The electronic state is 1-A.
 Alpha  occ. eigenvalues -- -103.68033-103.67459 -69.18006 -20.56727 -15.67634
 Alpha  occ. eigenvalues --  -11.38148 -10.71468 -10.70904  -8.37155  -8.36933
 Alpha  occ. eigenvalues --   -8.36924  -8.36600  -8.36358  -8.36356  -6.92388
 Alpha  occ. eigenvalues --   -4.03241  -4.03152  -4.03029  -1.36907  -1.20220
 Alpha  occ. eigenvalues --   -1.17188  -1.15002  -0.85410  -0.77451  -0.71931
 Alpha  occ. eigenvalues --   -0.67609  -0.60940  -0.60404  -0.57320  -0.56560
 Alpha  occ. eigenvalues --   -0.52252  -0.50201  -0.49025  -0.48518  -0.44073
 Alpha  occ. eigenvalues --   -0.43071
 Alpha virt. eigenvalues --    0.02893   0.04881   0.05346   0.05542   0.07218
 Alpha virt. eigenvalues --    0.07453   0.08764   0.09735   0.11993   0.12179
 Alpha virt. eigenvalues --    0.12635   0.13702   0.14938   0.16457   0.16536

 Mulliken charges:
               1
     1  Si   1.164898
     2  C    0.405395
     3  Cl  -0.480018
     4  Cl  -0.489688
     5  N   -0.078758
     6  H    0.005662
     7  H   -0.014221
     8  O   -0.530768
     9  H    0.017499
 Sum of Mulliken charges =  -0.00000

 Dipole moment (field-independent basis, Debye):
    X=              0.0196    Y=              2.9798    Z=             -1.3183  Tot=              3.2584

 Test job not archived.
 1\1\GINC-SE343\SP\RHF\Aug-CC-pVDZ\C1H3Cl2N1O1Si1\OHZDE\08-Apr-2025\0\\
 #t hf aug-cc-pvdz iop(5/13=1,5/36=2,99/5=2) pseudo=read geom=check gue
 ss=(read,tcheck) scf=(maxcycle=1)\\title\\0,1\Si,0,-0.28237,-0.098086,
 0.5456\C,0,1.56452,-0.005676,0.061786\Cl,0,-1.151128,-1.688021,-0.4382
 66\Cl,0,-1.296211,1.649383,0.036875\N,0,2.003122,0.936698,-0.806941\H,
 0,1.382658,1.629163,-1.194075\H,0,2.98359,0.961004,-1.052076\O,0,2.274
 077,-0.846685,0.589973\H,0,-0.409883,-0.30946,1.989486\\Version=ES64L-
 G16RevC.01\State=1-A\HF=-1377.1309399\RMSD=3.937e-03\Dipole=0.0077084,

 Normal termination of Gaussian 16 at Tue Apr  8 23:45:21 2025.
