 Gaussian 16, Revision C.01,

 ----------------------------------------------------------------------
 #t hf aug-cc-pvdz symm=none int=(grid=ultrafine) guess=(read,tcheck) s
 table=(opt,rrhf)
 ----------------------------------------------------------------------
 -----
 title
 -----
 Symbolic Z-matrix:
 Charge =  0 Multiplicity = 1

 SCF Done:  E(RHF) =  -183.584866510     A.U. after   14 cycles
 Normal termination of Gaussian 16 at Wed Apr  9 00:39:55 2025.
 Gaussian 16:  ES64L-G16RevC.01  3-Jul-2019

 ----------------------------------------------------------------------
 #t hf aug-cc-pvdz iop(5/13=1,5/36=2,99/5=2) pseudo=read geom=check gue
 ss=(read,tcheck) scf=(maxcycle=1)
 ----------------------------------------------------------------------
 -----
 title
 -----
 Structure from the checkpoint file:  "BDE49_nonexpt_67_mol1.chk"
 Charge =  0 Multiplicity = 1

                         Standard orientation:
 ---------------------------------------------------------------------
 Center     Atomic      Atomic             Coordinates (Angstroms)
 Number     Number       Type             X           Y           Z
 ---------------------------------------------------------------------
      1          5           0       -2.286294   -0.272818   -0.326470
      2          5           0       -0.947659   -0.251933    0.614353
      3          6           0        0.475518    0.140177    0.076160
      4          7           0        0.750589    1.378908   -0.105690
      5          1           0       -0.061369    1.982996    0.063018
      6          6           0        1.549399   -0.888146   -0.160998
      7          1           0        1.234119   -1.612915   -0.919236
      8          1           0        1.753307   -1.451558    0.755784
      9          1           0        2.462289   -0.390394   -0.493924
     10          1           0       -1.016714   -0.489147    1.788737
     11          1           0       -2.904539    0.714788   -0.594517
     12          1           0       -2.700947   -1.294558   -0.790419
 ---------------------------------------------------------------------

 SCF Done:  E(RHF) =  -183.641163493     A.U. after    2 cycles

 The electronic state is 1-A.
 Alpha  occ. eigenvalues --  -15.61529 -11.28340 -11.23963  -7.61553  -7.61332
 Alpha  occ. eigenvalues --   -1.17485  -0.98259  -0.79331  -0.73064  -0.67296
 Alpha  occ. eigenvalues --   -0.59401  -0.57927  -0.56176  -0.53262  -0.50206
 Alpha  occ. eigenvalues --   -0.47440  -0.40595  -0.38841
 Alpha virt. eigenvalues --    0.02925   0.03660   0.04009   0.04379   0.05576
 Alpha virt. eigenvalues --    0.05923   0.06645   0.07167   0.07612   0.08315
 Alpha virt. eigenvalues --    0.09280   0.09680   0.10241   0.10538   0.13240

 Mulliken charges:
               1
     1  B   -0.418761
     2  B   -0.264625
     3  C    0.301362
     4  N   -0.437283
     5  H   -0.000355
     6  C    0.080010
     7  H    0.025989
     8  H    0.001599
     9  H   -0.054028
    10  H    0.286794
    11  H    0.227093
    12  H    0.252205
 Sum of Mulliken charges =  -0.00000

 Dipole moment (field-independent basis, Debye):
    X=             -1.3455    Y=             -1.7140    Z=              0.4894  Tot=              2.2333

 Test job not archived.
 1\1\GINC-SE102\SP\RHF\Aug-CC-pVDZ\C2H7B2N1\OHZDE\09-Apr-2025\0\\#t hf
 aug-cc-pvdz iop(5/13=1,5/36=2,99/5=2) pseudo=read geom=check guess=(re
 ad,tcheck) scf=(maxcycle=1)\\title\\0,1\B,0,-2.286294,-0.272818,-0.326
 47\B,0,-0.947659,-0.251933,0.614353\C,0,0.475518,0.140177,0.07616\N,0,
 0.750589,1.378908,-0.10569\H,0,-0.061369,1.982996,0.063018\C,0,1.54939
 9,-0.888146,-0.160998\H,0,1.234119,-1.612915,-0.919236\H,0,1.753307,-1
 .451558,0.755784\H,0,2.462289,-0.390394,-0.493924\H,0,-1.016714,-0.489
 147,1.788737\H,0,-2.904539,0.714788,-0.594517\H,0,-2.700947,-1.294558,

 Normal termination of Gaussian 16 at Wed Apr  9 00:39:59 2025.
