 Gaussian 16, Revision C.01,

 ----------------------------------------------------------------------
 #t hf aug-cc-pvdz symm=none int=(grid=ultrafine) guess=(read,tcheck) s
 table=(opt,rrhf)
 ----------------------------------------------------------------------
 -----
 title
 -----
 Symbolic Z-matrix:
 Charge =  0 Multiplicity = 1

 SCF Done:  E(RHF) =  -1367.87023496     A.U. after   15 cycles
 Normal termination of Gaussian 16 at Wed Apr  9 00:16:35 2025.
 Gaussian 16:  ES64L-G16RevC.01  3-Jul-2019

 ----------------------------------------------------------------------
 #t hf aug-cc-pvdz iop(5/13=1,5/36=2,99/5=2) pseudo=read geom=check gue
 ss=(read,tcheck) scf=(maxcycle=1)
 ----------------------------------------------------------------------
 -----
 title
 -----
 Structure from the checkpoint file:  "BDE49_nonexpt_2574_mol1.chk"
 Charge =  0 Multiplicity = 1

                         Standard orientation:
 ---------------------------------------------------------------------
 Center     Atomic      Atomic             Coordinates (Angstroms)
 Number     Number       Type             X           Y           Z
 ---------------------------------------------------------------------
      1         17           0       -2.260720    0.086218   -0.000154
      2         16           0       -0.364347   -0.929474    0.000228
      3          6           0        0.778848    0.372130    0.000186
      4         16           0        2.302337   -0.225533   -0.000152
      5          8           0        0.414017    1.635403    0.000021
      6          1           0       -0.560827    1.698391    0.000124
 ---------------------------------------------------------------------

 SCF Done:  E(RHF) =  -1367.96420175     A.U. after    2 cycles

 The electronic state is 1-A.
 Alpha  occ. eigenvalues -- -103.71106 -93.65493 -93.53494 -20.68386 -11.45153
 Alpha  occ. eigenvalues --  -10.74214  -8.94788  -8.83449  -8.39922  -8.39631
 Alpha  occ. eigenvalues --   -8.39568  -6.28822  -6.28534  -6.28102  -6.17648
 Alpha  occ. eigenvalues --   -6.17118  -6.17029  -1.45949  -1.19400  -1.10832
 Alpha  occ. eigenvalues --   -0.96430  -0.86672  -0.75129  -0.67771  -0.65761
 Alpha  occ. eigenvalues --   -0.55457  -0.54559  -0.54408  -0.50449  -0.46408
 Alpha  occ. eigenvalues --   -0.37100  -0.36912
 Alpha virt. eigenvalues --    0.00908   0.03997   0.04692   0.07046   0.07933
 Alpha virt. eigenvalues --    0.10560   0.11726   0.12468   0.12853   0.13565
 Alpha virt. eigenvalues --    0.13760   0.14639   0.14944   0.17269   0.17277

 Mulliken charges:
               1
     1  Cl  -0.391718
     2  S    0.637444
     3  C   -0.274708
     4  S    0.189306
     5  O   -0.391573
     6  H    0.231250
 Sum of Mulliken charges =  -0.00000

 Dipole moment (field-independent basis, Debye):
    X=             -1.9389    Y=              0.0780    Z=              0.0005  Tot=              1.9405

 Test job not archived.
 1\1\GINC-SE424\SP\RHF\Aug-CC-pVDZ\C1H1Cl1O1S2\OHZDE\09-Apr-2025\0\\#t
 hf aug-cc-pvdz iop(5/13=1,5/36=2,99/5=2) pseudo=read geom=check guess=
 (read,tcheck) scf=(maxcycle=1)\\title\\0,1\Cl,0,-2.26072,0.086218,-0.0
 00154\S,0,-0.364347,-0.929474,0.000228\C,0,0.778848,0.37213,0.000186\S
 ,0,2.302337,-0.225533,-0.000152\O,0,0.414017,1.635403,0.000021\H,0,-0.
 560827,1.698391,0.000124\\Version=ES64L-G16RevC.01\State=1-A\HF=-1367.
 9642018\RMSD=5.634e-03\Dipole=-0.7628374,0.0306696,0.0001939\Quadrupol
 e=-1.8104545,1.8230313,-0.0125768,-1.9635572,-0.0001503,0.0003348\PG=C

 Normal termination of Gaussian 16 at Wed Apr  9 00:16:37 2025.
