 Gaussian 16, Revision C.01,

 ----------------------------------------------------------------------
 #t hf aug-cc-pvdz symm=none int=(grid=ultrafine) guess=(read,tcheck) s
 table=(opt,rrhf)
 ----------------------------------------------------------------------
 -----
 title
 -----
 Symbolic Z-matrix:
 Charge =  0 Multiplicity = 1

 SCF Done:  E(RHF) =  -913.346051709     A.U. after   14 cycles
 Normal termination of Gaussian 16 at Wed Apr  9 00:23:54 2025.
 Gaussian 16:  ES64L-G16RevC.01  3-Jul-2019

 ----------------------------------------------------------------------
 #t hf aug-cc-pvdz iop(5/13=1,5/36=2,99/5=2) pseudo=read geom=check gue
 ss=(read,tcheck) scf=(maxcycle=1)
 ----------------------------------------------------------------------
 -----
 title
 -----
 Structure from the checkpoint file:  "BDE49_nonexpt_2742_mol1.chk"
 Charge =  0 Multiplicity = 1

                         Standard orientation:
 ---------------------------------------------------------------------
 Center     Atomic      Atomic             Coordinates (Angstroms)
 Number     Number       Type             X           Y           Z
 ---------------------------------------------------------------------
      1         16           0       -1.757033    0.012285   -0.596880
      2         16           0       -0.466464   -0.178676    1.034852
      3          6           0        1.241707   -0.040500    0.314408
      4          6           0        1.522617    1.343392   -0.265715
      5          1           0        0.903700    1.526838   -1.148103
      6          1           0        2.570078    1.415825   -0.575584
      7          1           0        1.324976    2.130594    0.464445
      8          6           0        1.558288   -1.173231   -0.659454
      9          1           0        1.830566   -0.174756    1.230634
     10          1           0        0.923914   -1.109332   -1.547138
     11          1           0        1.403919   -2.149716   -0.197146
     12          1           0        2.600726   -1.106406   -0.987397
     13          1           0       -1.917596    1.351246   -0.582694
 ---------------------------------------------------------------------

 SCF Done:  E(RHF) =  -913.424385158     A.U. after    2 cycles

 The electronic state is 1-A.
 Alpha  occ. eigenvalues --  -93.56168 -93.55527 -11.28528 -11.23804 -11.23537
 Alpha  occ. eigenvalues --   -8.85744  -8.85061  -6.19871  -6.19642  -6.19313
 Alpha  occ. eigenvalues --   -6.19174  -6.18911  -6.18601  -1.09221  -1.00227
 Alpha  occ. eigenvalues --   -0.94208  -0.87690  -0.76616  -0.63819  -0.61032
 Alpha  occ. eigenvalues --   -0.58351  -0.56134  -0.54395  -0.51074  -0.50411
 Alpha  occ. eigenvalues --   -0.46965  -0.44469  -0.36721  -0.35771
 Alpha virt. eigenvalues --    0.03386   0.04447   0.04874   0.05265   0.06825
 Alpha virt. eigenvalues --    0.07289   0.07613   0.08022   0.08623   0.10931
 Alpha virt. eigenvalues --    0.12739   0.13640   0.13752   0.15021   0.15544

 Mulliken charges:
               1
     1  S   -0.150591
     2  S    0.089100
     3  C   -0.702732
     4  C    0.526673
     5  H   -0.044853
     6  H   -0.054479
     7  H   -0.073095
     8  C    0.523967
     9  H   -0.071935
    10  H   -0.038887
    11  H   -0.078166
    12  H   -0.044993
    13  H    0.119991
 Sum of Mulliken charges =  -0.00000

 Dipole moment (field-independent basis, Debye):
    X=              1.8534    Y=              0.9574    Z=             -0.6423  Tot=              2.1827

 Test job not archived.
 1\1\GINC-SE249\SP\RHF\Aug-CC-pVDZ\C3H8S2\OHZDE\09-Apr-2025\0\\#t hf au
 g-cc-pvdz iop(5/13=1,5/36=2,99/5=2) pseudo=read geom=check guess=(read
 ,tcheck) scf=(maxcycle=1)\\title\\0,1\S,0,-1.757033,0.012285,-0.59688\
 S,0,-0.466464,-0.178676,1.034852\C,0,1.241707,-0.0405,0.314408\C,0,1.5
 22617,1.343392,-0.265715\H,0,0.9037,1.526838,-1.148103\H,0,2.570078,1.
 415825,-0.575584\H,0,1.324976,2.130594,0.464445\C,0,1.558288,-1.173231
 ,-0.659454\H,0,1.830566,-0.174756,1.230634\H,0,0.923914,-1.109332,-1.5
 47138\H,0,1.403919,-2.149716,-0.197146\H,0,2.600726,-1.106406,-0.98739

 Normal termination of Gaussian 16 at Wed Apr  9 00:23:59 2025.
