 Gaussian 16, Revision C.01,

 ----------------------------------------------------------------------
 #t hf aug-cc-pvdz symm=none int=(grid=ultrafine) guess=(read,tcheck) s
 table=opt
 ----------------------------------------------------------------------
 -----
 title
 -----
 Symbolic Z-matrix:
 Charge =  0 Multiplicity = 2

 SCF Done:  E(UHF) =  -645.435129325     A.U. after   27 cycles
 Normal termination of Gaussian 16 at Tue Apr  8 23:32:58 2025.
 Gaussian 16:  ES64L-G16RevC.01  3-Jul-2019

 ----------------------------------------------------------------------
 #t hf aug-cc-pvdz iop(5/13=1,5/36=2,99/5=2) pseudo=read geom=check gue
 ss=(read,tcheck) scf=(maxcycle=1)
 ----------------------------------------------------------------------
 -----
 title
 -----
 Structure from the checkpoint file:  "BDE49_nonexpt_1447_mol2.chk"
 Charge =  0 Multiplicity = 2

                         Standard orientation:
 ---------------------------------------------------------------------
 Center     Atomic      Atomic             Coordinates (Angstroms)
 Number     Number       Type             X           Y           Z
 ---------------------------------------------------------------------
      1         15           0       -0.061602   -0.916030   -0.646730
      2          6           0       -1.367992    0.288028    0.023436
      3          6           0       -2.692596   -0.342378    0.395990
      4          1           0       -3.063053   -0.965229   -0.423289
      5          1           0       -3.417121    0.436832    0.635427
      6          1           0       -2.554231   -0.998870    1.260924
      7          6           0        1.504734   -0.169196    0.112827
      8          6           0        1.915420    1.245105   -0.191858
      9          1           0        2.828270    1.487845    0.354588
     10          1           0        1.102533    1.928479    0.062703
     11          1           0        2.088555    1.344672   -1.268543
     12          8           0        2.146481   -0.934240    0.794780
     13          8           0       -1.173770    1.481409    0.084817
 ---------------------------------------------------------------------

 SCF Done:  E(UHF) =  -645.547666343     A.U. after    2 cycles

 The electronic state is 2-A.
 Alpha  occ. eigenvalues --  -81.29087 -20.60148 -20.58960 -11.36895 -11.36274
 Alpha  occ. eigenvalues --  -11.26419 -11.24936  -7.79642  -4.94338  -4.93315
 Alpha  occ. eigenvalues --   -4.92971  -1.39307  -1.37983  -1.02837  -1.01736
 Alpha  occ. eigenvalues --   -0.87929  -0.78050  -0.73464  -0.67490  -0.66123
 Alpha  occ. eigenvalues --   -0.64537  -0.63630  -0.61319  -0.59225  -0.56988
 Alpha  occ. eigenvalues --   -0.55867  -0.53791  -0.52259  -0.41139  -0.39019
 Alpha  occ. eigenvalues --   -0.37704
 Alpha virt. eigenvalues --    0.03161   0.04298   0.05277   0.05687   0.06092
 Alpha virt. eigenvalues --    0.07085   0.07782   0.08577   0.09051   0.10360
 Alpha virt. eigenvalues --    0.11269   0.11737   0.12979   0.13523   0.14315

  Beta  occ. eigenvalues --  -81.28370 -20.59230 -20.58464 -11.37453 -11.36622
  Beta  occ. eigenvalues --  -11.26394 -11.24916  -7.78780  -4.92761  -4.92556
  Beta  occ. eigenvalues --   -4.91173  -1.37463  -1.36930  -1.02691  -1.01614
  Beta  occ. eigenvalues --   -0.84773  -0.78051  -0.72181  -0.67229  -0.65529
  Beta  occ. eigenvalues --   -0.64046  -0.62555  -0.60913  -0.57933  -0.56620
  Beta  occ. eigenvalues --   -0.52051  -0.51978  -0.49875  -0.40479  -0.37421
  Beta virt. eigenvalues --    0.01129   0.03204   0.04383   0.05316   0.05797
  Beta virt. eigenvalues --    0.06131   0.07176   0.07920   0.08899   0.09483
  Beta virt. eigenvalues --    0.11048   0.11605   0.12720   0.13428   0.13658

 Mulliken charges and spin densities:
               1          2
     1  P    0.578806   1.179561
     2  C   -0.061248  -0.303548
     3  C    0.285772   0.031209
     4  H    0.025711  -0.009689
     5  H   -0.068626  -0.000171
     6  H    0.049979  -0.007656
     7  C   -0.082169  -0.193027
     8  C    0.280650   0.003264
     9  H   -0.052047   0.001144
    10  H   -0.008407  -0.003107
    11  H    0.044784  -0.010476
    12  O   -0.488152   0.099726
    13  O   -0.505053   0.212770
 Sum of Mulliken charges =  -0.00000   1.00000

 Dipole moment (field-independent basis, Debye):
    X=             -2.2754    Y=             -0.0001    Z=             -1.2554  Tot=              2.5988
                          Isotropic Fermi Contact Couplings
        Atom                 a.u.       MegaHertz       Gauss      10(-4) cm-1
     1  P(31)              0.25456     461.02603     164.50555     153.78173
     2  C(13)             -0.07069     -79.47067     -28.35711     -26.50856
     3  C(13)              0.00388       4.36610       1.55793       1.45637
     4  H(1)              -0.00253     -11.32585      -4.04135      -3.77790
     5  H(1)              -0.00004      -0.19047      -0.06796      -0.06353
     6  H(1)              -0.00176      -7.86380      -2.80600      -2.62308
     7  C(13)             -0.04890     -54.97766     -19.61740     -18.33857
     8  C(13)              0.00445       5.00152       1.78467       1.66833

 Normal termination of Gaussian 16 at Tue Apr  8 23:33:03 2025.
