 Gaussian 16, Revision C.01,

 ----------------------------------------------------------------------
 #t hf aug-cc-pvdz symm=none int=(grid=ultrafine) guess=(read,tcheck) s
 table=(opt,rrhf)
 ----------------------------------------------------------------------
 -----
 title
 -----
 Symbolic Z-matrix:
 Charge =  0 Multiplicity = 1

 SCF Done:  E(RHF) =  -989.530718684     A.U. after   14 cycles
 Normal termination of Gaussian 16 at Wed Apr  9 00:16:38 2025.
 Gaussian 16:  ES64L-G16RevC.01  3-Jul-2019

 ----------------------------------------------------------------------
 #t hf aug-cc-pvdz iop(5/13=1,5/36=2,99/5=2) pseudo=read geom=check gue
 ss=(read,tcheck) scf=(maxcycle=1)
 ----------------------------------------------------------------------
 -----
 title
 -----
 Structure from the checkpoint file:  "BDE49_nonexpt_2581_mol1.chk"
 Charge =  0 Multiplicity = 1

                         Standard orientation:
 ---------------------------------------------------------------------
 Center     Atomic      Atomic             Coordinates (Angstroms)
 Number     Number       Type             X           Y           Z
 ---------------------------------------------------------------------
      1         17           0       -2.175586   -0.547768   -0.000032
      2         16           0       -0.654220    0.866745    0.000026
      3          6           0        0.779905   -0.194874    0.000003
      4          7           0        1.901350    0.365416    0.000025
      5          1           0        0.563346   -1.270493   -0.000037
      6          6           0        3.100877   -0.454342   -0.000000
      7          1           0        3.701414   -0.207179    0.879682
      8          1           0        3.701418   -0.207120   -0.879662
      9          1           0        2.892166   -1.533695   -0.000037
 ---------------------------------------------------------------------

 SCF Done:  E(RHF) =  -989.612105895     A.U. after    2 cycles

 The electronic state is 1-A.
 Alpha  occ. eigenvalues -- -103.68806 -93.60905 -15.64937 -11.34254 -11.27967
 Alpha  occ. eigenvalues --  -10.71962  -8.90327  -8.37695  -8.37353  -8.37315
 Alpha  occ. eigenvalues --   -6.24396  -6.24139  -6.23704  -1.23493  -1.17497
 Alpha  occ. eigenvalues --   -1.01002  -0.91639  -0.78567  -0.67460  -0.63895
 Alpha  occ. eigenvalues --   -0.61305  -0.55634  -0.53532  -0.52719  -0.47414
 Alpha  occ. eigenvalues --   -0.47167  -0.42101  -0.36077
 Alpha virt. eigenvalues --    0.03279   0.04347   0.05237   0.05494   0.06489
 Alpha virt. eigenvalues --    0.08394   0.09770   0.11064   0.12802   0.12930
 Alpha virt. eigenvalues --    0.13331   0.13807   0.15773   0.15940   0.16107

 Mulliken charges:
               1
     1  Cl  -0.304872
     2  S    0.479511
     3  C    0.267479
     4  N   -0.454128
     5  H   -0.321516
     6  C    0.655286
     7  H   -0.113849
     8  H   -0.113850
     9  H   -0.094061
 Sum of Mulliken charges =  -0.00000

 Dipole moment (field-independent basis, Debye):
    X=              1.8411    Y=             -1.6015    Z=             -0.0000  Tot=              2.4402

 Test job not archived.
 1\1\GINC-SE461\SP\RHF\Aug-CC-pVDZ\C2H4Cl1N1S1\OHZDE\09-Apr-2025\0\\#t
 hf aug-cc-pvdz iop(5/13=1,5/36=2,99/5=2) pseudo=read geom=check guess=
 (read,tcheck) scf=(maxcycle=1)\\title\\0,1\Cl,0,-2.175586,-0.547768,-0
 .000032\S,0,-0.65422,0.866745,0.000026\C,0,0.779905,-0.194874,0.000003
 \N,0,1.90135,0.365416,0.000025\H,0,0.563346,-1.270493,-0.000037\C,0,3.
 100877,-0.454342,0.\H,0,3.701414,-0.207179,0.879682\H,0,3.701418,-0.20
 712,-0.879662\H,0,2.892166,-1.533695,-0.000037\\Version=ES64L-G16RevC.
 01\State=1-A\HF=-989.6121059\RMSD=3.906e-03\Dipole=0.7243518,-0.630097

 Normal termination of Gaussian 16 at Wed Apr  9 00:16:41 2025.
