 Gaussian 16, Revision C.01,

 ----------------------------------------------------------------------
 #t hf aug-cc-pvdz symm=none int=(grid=ultrafine) guess=(read,tcheck) s
 table=(opt,rrhf)
 ----------------------------------------------------------------------
 -----
 title
 -----
 Symbolic Z-matrix:
 Charge =  0 Multiplicity = 1

 SCF Done:  E(RHF) =  -233.302394679     A.U. after   13 cycles
 Normal termination of Gaussian 16 at Wed Apr  9 00:36:22 2025.
 Gaussian 16:  ES64L-G16RevC.01  3-Jul-2019

 ----------------------------------------------------------------------
 #t hf aug-cc-pvdz iop(5/13=1,5/36=2,99/5=2) pseudo=read geom=check gue
 ss=(read,tcheck) scf=(maxcycle=1)
 ----------------------------------------------------------------------
 -----
 title
 -----
 Structure from the checkpoint file:  "BDE49_nonexpt_570_mol1.chk"
 Charge =  0 Multiplicity = 1

                         Standard orientation:
 ---------------------------------------------------------------------
 Center     Atomic      Atomic             Coordinates (Angstroms)
 Number     Number       Type             X           Y           Z
 ---------------------------------------------------------------------
      1          6           0        1.693626   -0.616084   -0.000004
      2          6           0        0.410497    0.193702   -0.000007
      3          1           0        2.543334    0.062702   -0.000008
      4          1           0        1.742054   -1.260423   -0.883256
      5          1           0        1.742056   -1.260413    0.883256
      6          5           0       -2.098577   -0.116091    0.000017
      7          8           0        0.386468    1.397485   -0.000007
      8          7           0       -0.767998   -0.590991    0.000008
      9          1           0       -2.967111   -0.930375   -0.000006
     10          1           0       -2.305222    1.049278   -0.000017
     11          1           0       -0.602723   -1.588966    0.000011
 ---------------------------------------------------------------------

 SCF Done:  E(RHF) =  -233.378760245     A.U. after    2 cycles

 The electronic state is 1-A.
 Alpha  occ. eigenvalues --  -20.55708 -15.65111 -11.38004 -11.25918  -7.62178
 Alpha  occ. eigenvalues --   -1.36729  -1.17910  -1.00904  -0.80781  -0.73854
 Alpha  occ. eigenvalues --   -0.69391  -0.62964  -0.62637  -0.59250  -0.55610
 Alpha  occ. eigenvalues --   -0.54233  -0.48533  -0.45056  -0.44374
 Alpha virt. eigenvalues --    0.02588   0.04160   0.04273   0.05476   0.06296
 Alpha virt. eigenvalues --    0.06538   0.07164   0.09278   0.10630   0.11616
 Alpha virt. eigenvalues --    0.11904   0.13188   0.13846   0.14673   0.16227

 Mulliken charges:
               1
     1  C    0.312611
     2  C    0.502651
     3  H   -0.061260
     4  H    0.019495
     5  H    0.019498
     6  B   -0.644613
     7  O   -0.430496
     8  N   -0.366005
     9  H    0.350987
    10  H    0.318014
    11  H   -0.020882
 Sum of Mulliken charges =  -0.00000

 Dipole moment (field-independent basis, Debye):
    X=              0.9927    Y=             -4.1545    Z=              0.0000  Tot=              4.2714

 Test job not archived.
 1\1\GINC-SE184\SP\RHF\Aug-CC-pVDZ\C2H6B1N1O1\OHZDE\09-Apr-2025\0\\#t h
 f aug-cc-pvdz iop(5/13=1,5/36=2,99/5=2) pseudo=read geom=check guess=(
 read,tcheck) scf=(maxcycle=1)\\title\\0,1\C,0,1.693626,-0.616084,-0.00
 0004\C,0,0.410497,0.193702,-0.000007\H,0,2.543334,0.062701,-0.000008\H
 ,0,1.742054,-1.260423,-0.883256\H,0,1.742056,-1.260413,0.883256\B,0,-2
 .098577,-0.116091,0.000017\O,0,0.386468,1.397485,-0.000007\N,0,-0.7679
 98,-0.590991,0.000008\H,0,-2.967111,-0.930375,-0.000006\H,0,-2.305222,
 1.049278,-0.000017\H,0,-0.602723,-1.588966,0.000011\\Version=ES64L-G16

 Normal termination of Gaussian 16 at Wed Apr  9 00:36:25 2025.
