 Gaussian 16, Revision C.01,

 ----------------------------------------------------------------------
 #t hf aug-cc-pvdz symm=none int=(grid=ultrafine) guess=(read,tcheck) s
 table=(opt,rrhf)
 ----------------------------------------------------------------------
 -----
 title
 -----
 Symbolic Z-matrix:
 Charge =  0 Multiplicity = 1

 SCF Done:  E(RHF) =  -852.713356350     A.U. after   15 cycles
 Normal termination of Gaussian 16 at Wed Apr  9 00:49:42 2025.
 Gaussian 16:  ES64L-G16RevC.01  3-Jul-2019

 ----------------------------------------------------------------------
 #t hf aug-cc-pvdz iop(5/13=1,5/36=2,99/5=2) pseudo=read geom=check gue
 ss=(read,tcheck) scf=(maxcycle=1)
 ----------------------------------------------------------------------
 -----
 title
 -----
 Structure from the checkpoint file:  "BDE49_nonexpt_925_mol1.chk"
 Charge =  0 Multiplicity = 1

                         Standard orientation:
 ---------------------------------------------------------------------
 Center     Atomic      Atomic             Coordinates (Angstroms)
 Number     Number       Type             X           Y           Z
 ---------------------------------------------------------------------
      1         17           0       -2.695136   -0.567524    0.021439
      2          8           0        2.261139   -2.081292    0.028734
      3          7           0       -1.495789    0.720409   -0.013563
      4          7           0        0.199061   -1.027899   -0.025429
      5          7           0        0.800547    1.111713   -0.131203
      6          6           0       -0.284574    0.274911   -0.052024
      7          6           0        1.581719   -1.089159    0.006891
      8          6           0        2.038965    0.370036    0.017975
      9          6           0        0.709322    2.546764    0.055077
     10          1           0       -0.406125   -1.835418   -0.022637
     11          1           0        2.551054    0.581699    0.966193
     12          1           0        2.741949    0.554162   -0.800275
     13          1           0        0.883499    2.835009    1.099503
     14          1           0        1.446489    3.045647   -0.578091
     15          1           0       -0.287989    2.872273   -0.235176
 ---------------------------------------------------------------------

 SCF Done:  E(RHF) =  -852.850837759     A.U. after    2 cycles

 The electronic state is 1-A.
 Alpha  occ. eigenvalues -- -103.67797 -20.58084 -15.70117 -15.68015 -15.66865
 Alpha  occ. eigenvalues --  -11.40808 -11.40649 -11.32104 -11.29459 -10.70785
 Alpha  occ. eigenvalues --   -8.36531  -8.36189  -8.36155  -1.39883  -1.34022
 Alpha  occ. eigenvalues --   -1.22993  -1.20509  -1.08639  -1.01881  -0.94872
 Alpha  occ. eigenvalues --   -0.85884  -0.82077  -0.73302  -0.71400  -0.68517
 Alpha  occ. eigenvalues --   -0.65705  -0.63967  -0.62966  -0.61867  -0.59501
 Alpha  occ. eigenvalues --   -0.57102  -0.56011  -0.51708  -0.49347  -0.47150
 Alpha  occ. eigenvalues --   -0.42952  -0.42465  -0.36229
 Alpha virt. eigenvalues --    0.02471   0.03869   0.04066   0.04974   0.06866
 Alpha virt. eigenvalues --    0.07263   0.08691   0.09094   0.09409   0.10400
 Alpha virt. eigenvalues --    0.12324   0.12642   0.13061   0.13632   0.14304

 Mulliken charges:
               1
     1  Cl   0.065509
     2  O   -0.473129
     3  N   -0.666711
     4  N   -0.402768
     5  N   -0.508863
     6  C    0.818071
     7  C    0.450876
     8  C    0.633681
     9  C    0.766651
    10  H   -0.081408
    11  H   -0.049333
    12  H   -0.106300
    13  H   -0.095455
    14  H   -0.154940
    15  H   -0.195880
 Sum of Mulliken charges =   0.00000

 Dipole moment (field-independent basis, Debye):
    X=              2.2377    Y=              2.8732    Z=              0.1362  Tot=              3.6443

 Test job not archived.
 1\1\GINC-SE454\SP\RHF\Aug-CC-pVDZ\C4H6Cl1N3O1\OHZDE\09-Apr-2025\0\\#t
 hf aug-cc-pvdz iop(5/13=1,5/36=2,99/5=2) pseudo=read geom=check guess=
 (read,tcheck) scf=(maxcycle=1)\\title\\0,1\Cl,0,-2.695136,-0.567524,0.
 021439\O,0,2.261139,-2.081292,0.028734\N,0,-1.495789,0.720409,-0.01356
 3\N,0,0.199061,-1.027899,-0.025429\N,0,0.800547,1.111713,-0.131203\C,0
 ,-0.284574,0.274911,-0.052024\C,0,1.581719,-1.089159,0.006891\C,0,2.03
 8965,0.370036,0.017975\C,0,0.709322,2.546764,0.055077\H,0,-0.406125,-1
 .835418,-0.022637\H,0,2.551054,0.581699,0.966193\H,0,2.741949,0.554162

 Normal termination of Gaussian 16 at Wed Apr  9 00:49:49 2025.
