 Gaussian 16, Revision C.01,

 ----------------------------------------------------------------------
 #t hf aug-cc-pvdz symm=none int=(grid=ultrafine) guess=(read,tcheck) s
 table=(opt,rrhf)
 ----------------------------------------------------------------------
 -----
 title
 -----
 Symbolic Z-matrix:
 Charge =  0 Multiplicity = 1

 SCF Done:  E(RHF) =  -201.526026751     A.U. after   13 cycles
 Normal termination of Gaussian 16 at Wed Apr  9 00:10:30 2025.
 Gaussian 16:  ES64L-G16RevC.01  3-Jul-2019

 ----------------------------------------------------------------------
 #t hf aug-cc-pvdz iop(5/13=1,5/36=2,99/5=2) pseudo=read geom=check gue
 ss=(read,tcheck) scf=(maxcycle=1)
 ----------------------------------------------------------------------
 -----
 title
 -----
 Structure from the checkpoint file:  "BDE49_nonexpt_23_mol1.chk"
 Charge =  0 Multiplicity = 1

                         Standard orientation:
 ---------------------------------------------------------------------
 Center     Atomic      Atomic             Coordinates (Angstroms)
 Number     Number       Type             X           Y           Z
 ---------------------------------------------------------------------
      1          5           0       -0.008711   -0.006063   -0.000024
      2          5           0       -1.702874   -0.035274    0.000001
      3          8           0        0.769857    1.129608   -0.000005
      4          1           0        0.278011    1.953930    0.000001
      5          8           0        0.648826   -1.202028    0.000014
      6          1           0        1.607639   -1.087837    0.000024
      7          1           0       -2.338608   -0.040019   -1.012060
      8          1           0       -2.338581   -0.040029    1.012079
 ---------------------------------------------------------------------

 SCF Done:  E(RHF) =  -201.597384824     A.U. after    2 cycles

 The electronic state is 1-A.
 Alpha  occ. eigenvalues --  -20.58794 -20.57762  -7.64799  -7.61034  -1.34507
 Alpha  occ. eigenvalues --   -1.30613  -0.78856  -0.75606  -0.68766  -0.61696
 Alpha  occ. eigenvalues --   -0.59135  -0.58140  -0.52253  -0.48892  -0.44361
 Alpha virt. eigenvalues --    0.02840   0.04017   0.04468   0.05496   0.06634
 Alpha virt. eigenvalues --    0.07238   0.07585   0.07912   0.10269   0.10717
 Alpha virt. eigenvalues --    0.12840   0.13736   0.15327   0.18146   0.19304

 Mulliken charges:
               1
     1  B    0.662706
     2  B   -0.387650
     3  O   -0.475157
     4  H    0.144157
     5  O   -0.520991
     6  H    0.176003
     7  H    0.200467
     8  H    0.200465
 Sum of Mulliken charges =   0.00000

 Dipole moment (field-independent basis, Debye):
    X=             -0.0181    Y=              1.6439    Z=             -0.0000  Tot=              1.6440

 Test job not archived.
 1\1\GINC-SE402\SP\RHF\Aug-CC-pVDZ\B2H4O2\OHZDE\09-Apr-2025\0\\#t hf au
 g-cc-pvdz iop(5/13=1,5/36=2,99/5=2) pseudo=read geom=check guess=(read
 ,tcheck) scf=(maxcycle=1)\\title\\0,1\B,0,-0.008711,-0.006063,-0.00002
 4\B,0,-1.702874,-0.035272,0.000001\O,0,0.769858,1.129607,-0.000005\H,0
 ,0.278013,1.95393,0.000001\O,0,0.648825,-1.202028,0.000014\H,0,1.60763
 8,-1.087838,0.000024\H,0,-2.338608,-0.040017,-1.01206\H,0,-2.338581,-0
 .040027,1.012079\\Version=ES64L-G16RevC.01\State=1-A\HF=-201.5973848\R
 MSD=2.940e-03\Dipole=-0.0071137,0.6467505,-0.0000181\Quadrupole=-0.344

 Normal termination of Gaussian 16 at Wed Apr  9 00:10:44 2025.
