 Gaussian 16, Revision C.01,

 ----------------------------------------------------------------------
 #t hf aug-cc-pvdz symm=none int=(grid=ultrafine) guess=(read,tcheck) s
 table=(opt,rrhf)
 ----------------------------------------------------------------------
 -----
 title
 -----
 Symbolic Z-matrix:
 Charge =  0 Multiplicity = 1

 SCF Done:  E(RHF) =  -1007.21366657     A.U. after   16 cycles
 Normal termination of Gaussian 16 at Wed Apr  9 00:15:32 2025.
 Gaussian 16:  ES64L-G16RevC.01  3-Jul-2019

 ----------------------------------------------------------------------
 #t hf aug-cc-pvdz iop(5/13=1,5/36=2,99/5=2) pseudo=read geom=check gue
 ss=(read,tcheck) scf=(maxcycle=1)
 ----------------------------------------------------------------------
 -----
 title
 -----
 Structure from the checkpoint file:  "BDE49_nonexpt_2558_mol1.chk"
 Charge =  0 Multiplicity = 1

                         Standard orientation:
 ---------------------------------------------------------------------
 Center     Atomic      Atomic             Coordinates (Angstroms)
 Number     Number       Type             X           Y           Z
 ---------------------------------------------------------------------
      1         17           0        1.604364   -0.480432    0.027388
      2         16           0        0.020688    0.878374   -0.164489
      3          8           0       -1.215079    0.191376    0.577905
      4          8           0       -1.997474   -0.733527   -0.330362
      5          1           0       -1.904780   -1.549433    0.185877
 ---------------------------------------------------------------------

 SCF Done:  E(RHF) =  -1007.30995709     A.U. after    2 cycles

 The electronic state is 1-A.
 Alpha  occ. eigenvalues -- -103.68822 -93.66654 -20.71148 -20.68293 -10.72020
 Alpha  occ. eigenvalues --   -8.95419  -8.37739  -8.37406  -8.37367  -6.29560
 Alpha  occ. eigenvalues --   -6.29200  -6.28708  -1.45921  -1.27519  -1.16492
 Alpha  occ. eigenvalues --   -0.91307  -0.76467  -0.69298  -0.68940  -0.61812
 Alpha  occ. eigenvalues --   -0.55946  -0.52267  -0.50445  -0.49042  -0.39029
 Alpha virt. eigenvalues --    0.03676   0.03887   0.07263   0.09988   0.11200
 Alpha virt. eigenvalues --    0.11509   0.13107   0.15375   0.15800   0.16087
 Alpha virt. eigenvalues --    0.18058   0.18281   0.22643   0.23521   0.25363

 Mulliken charges:
               1
     1  Cl  -0.322902
     2  S    0.824126
     3  O   -0.528122
     4  O   -0.208802
     5  H    0.235699
 Sum of Mulliken charges =  -0.00000

 Dipole moment (field-independent basis, Debye):
    X=             -0.4376    Y=             -0.7257    Z=              0.2283  Tot=              0.8776

 Test job not archived.
 1\1\GINC-SE459\SP\RHF\Aug-CC-pVDZ\Cl1H1O2S1\OHZDE\09-Apr-2025\0\\#t hf
  aug-cc-pvdz iop(5/13=1,5/36=2,99/5=2) pseudo=read geom=check guess=(r
 ead,tcheck) scf=(maxcycle=1)\\title\\0,1\Cl,0,1.604364,-0.480432,0.027
 388\S,0,0.020688,0.878374,-0.164489\O,0,-1.215079,0.191376,0.577905\O,
 0,-1.997474,-0.733527,-0.330362\H,0,-1.90478,-1.549433,0.185877\\Versi
 on=ES64L-G16RevC.01\State=1-A\HF=-1007.3099571\RMSD=3.284e-03\Dipole=-
 0.1721554,-0.2855113,0.0898072\Quadrupole=-1.5419408,3.412444,-1.87050
 32,2.180548,-0.9801918,-1.5255185\PG=C01 [X(Cl1H1O2S1)]\\@

 Normal termination of Gaussian 16 at Wed Apr  9 00:15:34 2025.
