 Gaussian 16, Revision C.01,

 ----------------------------------------------------------------------
 #t hf aug-cc-pvdz symm=none int=(grid=ultrafine) guess=(read,tcheck) s
 table=(opt,rrhf)
 ----------------------------------------------------------------------
 -----
 title
 -----
 Symbolic Z-matrix:
 Charge =  0 Multiplicity = 1

 SCF Done:  E(RHF) =  -832.751567893     A.U. after   18 cycles
 Normal termination of Gaussian 16 at Tue Apr  8 23:14:33 2025.
 Gaussian 16:  ES64L-G16RevC.01  3-Jul-2019

 ----------------------------------------------------------------------
 #t hf aug-cc-pvdz iop(5/13=1,5/36=2,99/5=2) pseudo=read geom=check gue
 ss=(read,tcheck) scf=(maxcycle=1)
 ----------------------------------------------------------------------
 -----
 title
 -----
 Structure from the checkpoint file:  "BDE49_expt_850_mol1.chk"
 Charge =  0 Multiplicity = 1

                         Standard orientation:
 ---------------------------------------------------------------------
 Center     Atomic      Atomic             Coordinates (Angstroms)
 Number     Number       Type             X           Y           Z
 ---------------------------------------------------------------------
      1          6           0       -0.220544    1.338771   -0.177954
      2          6           0       -1.598946    1.204071   -0.227677
      3          6           0       -2.185149   -0.050783   -0.004511
      4          6           0       -1.375829   -1.161318    0.269965
      5          6           0        0.005055   -1.020706    0.300182
      6          6           0        0.594253    0.226006    0.067847
      7          1           0        0.246294    2.303570   -0.328881
      8          1           0       -2.227992    2.061137   -0.432383
      9          1           0       -1.833094   -2.123564    0.462081
     10          1           0        0.615932   -1.881188    0.540951
     11          6           0       -3.608022   -0.196688   -0.049327
     12          6           0        2.072957    0.477504    0.126786
     13          8           0        2.530893    1.555296    0.405090
     14         16           0        3.236030   -0.858239   -0.248975
     15          1           0        2.365452   -1.762788   -0.723816
     16          7           0       -4.756123   -0.315551   -0.086706
 ---------------------------------------------------------------------

 SCF Done:  E(RHF) =  -832.897247926     A.U. after    2 cycles

 The electronic state is 1-A.
 Alpha  occ. eigenvalues --  -93.57871 -20.59946 -15.65960 -11.40831 -11.32432
 Alpha  occ. eigenvalues --  -11.30648 -11.30627 -11.30066 -11.29922 -11.29815
 Alpha  occ. eigenvalues --  -11.29289  -8.87686  -6.21829  -6.21629  -6.21265
 Alpha  occ. eigenvalues --   -1.39894  -1.22041  -1.19280  -1.09492  -1.06502
 Alpha  occ. eigenvalues --   -1.02308  -0.93066  -0.88377  -0.80642  -0.79085
 Alpha  occ. eigenvalues --   -0.72348  -0.70205  -0.67109  -0.65217  -0.64394
 Alpha  occ. eigenvalues --   -0.61003  -0.60325  -0.56944  -0.56040  -0.55238
 Alpha  occ. eigenvalues --   -0.53353  -0.49725  -0.48338  -0.45310  -0.40804
 Alpha  occ. eigenvalues --   -0.38904  -0.38058
 Alpha virt. eigenvalues --    0.01807   0.02433   0.03483   0.04504   0.05638
 Alpha virt. eigenvalues --    0.05968   0.06885   0.07893   0.08359   0.08932
 Alpha virt. eigenvalues --    0.09709   0.09952   0.10916   0.11886   0.11965

 Mulliken charges:
               1
     1  C    0.394296
     2  C    0.033477
     3  C    2.317230
     4  C   -0.202105
     5  C    0.738796
     6  C    0.597891
     7  H   -0.587171
     8  H   -0.555089
     9  H   -0.560356
    10  H   -0.553403
    11  C   -1.257295
    12  C   -0.115205
    13  O   -0.515490
    14  S    0.291114
    15  H    0.051067
    16  N   -0.077758
 Sum of Mulliken charges =  -0.00000

 Dipole moment (field-independent basis, Debye):
    X=              1.3571    Y=             -2.1494    Z=             -0.6839  Tot=              2.6324

 Test job not archived.
 1\1\GINC-SE106\SP\RHF\Aug-CC-pVDZ\C8H5N1O1S1\OHZDE\08-Apr-2025\0\\#t h
 f aug-cc-pvdz iop(5/13=1,5/36=2,99/5=2) pseudo=read geom=check guess=(
 read,tcheck) scf=(maxcycle=1)\\title\\0,1\C,0,-0.220544,1.338771,-0.17
 7954\C,0,-1.598946,1.204071,-0.227677\C,0,-2.185149,-0.050783,-0.00451
 1\C,0,-1.375829,-1.161318,0.269965\C,0,0.005055,-1.020706,0.300182\C,0
 ,0.594253,0.226006,0.067847\H,0,0.246294,2.30357,-0.328881\H,0,-2.2279
 92,2.061137,-0.432383\H,0,-1.833094,-2.123564,0.462081\H,0,0.615932,-1
 .881188,0.540951\C,0,-3.608022,-0.196688,-0.049327\C,0,2.072957,0.4775

 Normal termination of Gaussian 16 at Tue Apr  8 23:14:43 2025.
