 Gaussian 16, Revision C.01,

 ----------------------------------------------------------------------
 #t hf aug-cc-pvdz symm=none int=(grid=ultrafine) guess=(read,tcheck) s
 table=opt
 ----------------------------------------------------------------------
 -----
 title
 -----
 Symbolic Z-matrix:
 Charge =  0 Multiplicity = 2

 SCF Done:  E(UHF) =  -195.722554863     A.U. after   16 cycles
 Normal termination of Gaussian 16 at Tue Apr  8 22:44:58 2025.
 Gaussian 16:  ES64L-G16RevC.01  3-Jul-2019

 ----------------------------------------------------------------------
 #t hf aug-cc-pvdz iop(5/13=1,5/36=2,99/5=2) pseudo=read geom=check gue
 ss=(read,tcheck) scf=(maxcycle=1)
 ----------------------------------------------------------------------
 -----
 title
 -----
 Structure from the checkpoint file:  "BDE49_expt_1553_mol2.chk"
 Charge =  0 Multiplicity = 2

                         Standard orientation:
 ---------------------------------------------------------------------
 Center     Atomic      Atomic             Coordinates (Angstroms)
 Number     Number       Type             X           Y           Z
 ---------------------------------------------------------------------
      1          6           0       -2.134608   -0.728228   -0.175487
      2          6           0       -1.470399    0.547396    0.214121
      3          6           0       -0.015866    0.677972   -0.273117
      4          1           0       -1.507041    0.671404    1.303985
      5          1           0       -2.044483    1.400350   -0.189758
      6          6           0        0.948424   -0.316541    0.383521
      7          1           0        0.334292    1.699647   -0.083613
      8          1           0        0.008481    0.543990   -1.362417
      9          6           0        2.386783   -0.185921   -0.124224
     10          1           0        0.587289   -1.336537    0.211035
     11          1           0        0.928512   -0.168040    1.470326
     12          1           0        2.443512   -0.365902   -1.202461
     13          1           0        3.050534   -0.903021    0.366578
     14          1           0        2.784682    0.816508    0.063580
     15          1           0       -2.942212   -1.145290    0.413420
     16          1           0       -1.929570   -1.181184   -1.139556
 ---------------------------------------------------------------------

 SCF Done:  E(UHF) =  -195.785538541     A.U. after    2 cycles

 The electronic state is 2-A.
 Alpha  occ. eigenvalues --  -11.23523 -11.23025 -11.22656 -11.22414 -11.22030
 Alpha  occ. eigenvalues --   -1.07388  -1.00956  -0.91668  -0.82957  -0.77535
 Alpha  occ. eigenvalues --   -0.64268  -0.60665  -0.59791  -0.57536  -0.55167
 Alpha  occ. eigenvalues --   -0.51262  -0.50166  -0.46806  -0.46613  -0.46372
 Alpha  occ. eigenvalues --   -0.34779
 Alpha virt. eigenvalues --    0.03718   0.04446   0.04623   0.04763   0.06420
 Alpha virt. eigenvalues --    0.06639   0.06913   0.07373   0.07981   0.09307
 Alpha virt. eigenvalues --    0.09896   0.12446   0.13728   0.14853   0.15391

  Beta  occ. eigenvalues --  -11.23356 -11.22578 -11.22403 -11.22034 -11.21065
  Beta  occ. eigenvalues --   -1.06573  -0.99266  -0.88828  -0.80826  -0.75867
  Beta  occ. eigenvalues --   -0.63858  -0.59932  -0.58082  -0.57060  -0.54483
  Beta  occ. eigenvalues --   -0.50662  -0.49598  -0.46364  -0.46278  -0.45826
  Beta virt. eigenvalues --    0.03751   0.04459   0.04662   0.04767   0.06393
  Beta virt. eigenvalues --    0.06611   0.06908   0.07139   0.07871   0.09268
  Beta virt. eigenvalues --    0.09829   0.10912   0.12810   0.13980   0.15235

 Mulliken charges and spin densities:
               1          2
     1  C    0.638823   1.408210
     2  C    0.263670  -0.246703
     3  C    0.121699   0.030367
     4  H   -0.137354   0.007047
     5  H   -0.024124   0.047191
     6  C    0.122950   0.003933
     7  H   -0.131593  -0.002240
     8  H   -0.183083  -0.004760
     9  C    0.412051  -0.002445
    10  H   -0.132997  -0.013130
    11  H   -0.131292   0.002770
    12  H   -0.073313   0.000253
    13  H   -0.069298   0.000271
    14  H   -0.079370   0.000168
    15  H   -0.278039  -0.117396
    16  H   -0.318728  -0.113536
 Sum of Mulliken charges =  -0.00000   1.00000

 Dipole moment (field-independent basis, Debye):
    X=             -0.0109    Y=              0.1892    Z=              0.0435  Tot=              0.1944
                          Isotropic Fermi Contact Couplings
        Atom                 a.u.       MegaHertz       Gauss      10(-4) cm-1
     1  C(13)              0.21742     244.42710      87.21767      81.53211
     2  C(13)             -0.06142     -69.05340     -24.63997     -23.03374
     3  C(13)              0.01748      19.64662       7.01040       6.55341
     4  H(1)               0.00717      32.04333      11.43386      10.68850
     5  H(1)               0.02722     121.65227      43.40856      40.57883
     6  C(13)             -0.00044      -0.49452      -0.17646      -0.16496
     7  H(1)              -0.00107      -4.78565      -1.70764      -1.59632
     8  H(1)              -0.00084      -3.76743      -1.34431      -1.25668

 Normal termination of Gaussian 16 at Tue Apr  8 22:45:02 2025.
