 Gaussian 16, Revision C.01,

 ----------------------------------------------------------------------
 #t hf aug-cc-pvdz symm=none int=(grid=ultrafine) guess=(read,tcheck) s
 table=(opt,rrhf)
 ----------------------------------------------------------------------
 -----
 title
 -----
 Symbolic Z-matrix:
 Charge =  0 Multiplicity = 1

 SCF Done:  E(RHF) =  -1006.70011947     A.U. after   17 cycles
 Normal termination of Gaussian 16 at Tue Apr  8 23:25:56 2025.
 Gaussian 16:  ES64L-G16RevC.01  3-Jul-2019

 ----------------------------------------------------------------------
 #t hf aug-cc-pvdz iop(5/13=1,5/36=2,99/5=2) pseudo=read geom=check gue
 ss=(read,tcheck) scf=(maxcycle=1)
 ----------------------------------------------------------------------
 -----
 title
 -----
 Structure from the checkpoint file:  "BDE49_nonexpt_1200_mol1.chk"
 Charge =  0 Multiplicity = 1

                         Standard orientation:
 ---------------------------------------------------------------------
 Center     Atomic      Atomic             Coordinates (Angstroms)
 Number     Number       Type             X           Y           Z
 ---------------------------------------------------------------------
      1          6           0       -0.434059   -0.281990    0.653847
      2          8           0        0.024423    0.080389    1.702451
      3          8           0        0.305236   -0.935331   -0.313814
      4         16           0        1.852862   -1.542525    0.096839
      5          6           0        2.992941   -0.150458   -0.065453
      6          8           0        4.146928   -0.437033    0.117533
      7          6           0       -1.835115   -0.068657    0.203511
      8          6           0       -2.316167   -0.548630   -1.020577
      9          6           0       -3.640013   -0.319235   -1.380323
     10          6           0       -4.485831    0.385491   -0.525035
     11          6           0       -4.008670    0.863561    0.695530
     12          6           0       -2.687375    0.638390    1.060503
     13          1           0       -2.296381    0.998182    2.003894
     14          1           0       -1.654161   -1.096039   -1.677613
     15          1           0       -4.012833   -0.691675   -2.327333
     16          1           0       -5.517359    0.561318   -0.808849
     17          1           0       -4.667227    1.409930    1.360580
     18          6           0        2.450747    1.217475   -0.402524
     19          6           0        3.559115    2.222220   -0.716879
     20          1           0        1.853976    1.538851    0.458197
     21          1           0        1.746708    1.114631   -1.234062
     22          1           0        4.251038    2.315079    0.121301
     23          1           0        3.127435    3.204430   -0.920565
     24          1           0        4.136869    1.912503   -1.589934
 ---------------------------------------------------------------------

 SCF Done:  E(RHF) =  -1006.90796625     A.U. after    2 cycles

 The electronic state is 1-A.
 Alpha  occ. eigenvalues --  -93.61445 -20.65195 -20.58756 -20.58269 -11.41931
 Alpha  occ. eigenvalues --  -11.38872 -11.27698 -11.27464 -11.27430 -11.27215
 Alpha  occ. eigenvalues --  -11.26576 -11.26516 -11.26458 -11.23980  -8.90573
 Alpha  occ. eigenvalues --   -6.24794  -6.24403  -6.24040  -1.43214  -1.38633
 Alpha  occ. eigenvalues --   -1.34439  -1.17093  -1.07209  -1.05615  -1.03539
 Alpha  occ. eigenvalues --   -1.00041  -0.90889  -0.87894  -0.85280  -0.80963
 Alpha  occ. eigenvalues --   -0.75785  -0.74720  -0.71593  -0.69564  -0.68413
 Alpha  occ. eigenvalues --   -0.66565  -0.65355  -0.64718  -0.64481  -0.61928
 Alpha  occ. eigenvalues --   -0.61088  -0.57568  -0.56478  -0.54856  -0.54433
 Alpha  occ. eigenvalues --   -0.53815  -0.52758  -0.52064  -0.51976  -0.50712
 Alpha  occ. eigenvalues --   -0.48725  -0.42379  -0.39183  -0.36805  -0.36247
 Alpha virt. eigenvalues --    0.02612   0.03565   0.03671   0.04670   0.05277
 Alpha virt. eigenvalues --    0.05374   0.05793   0.06386   0.06778   0.07621
 Alpha virt. eigenvalues --    0.08527   0.08979   0.09279   0.09751   0.10287

 Mulliken charges:
               1
     1  C   -0.209157
     2  O   -0.423201
     3  O   -0.722003
     4  S    0.746537
     5  C   -0.119474
     6  O   -0.499464
     7  C    1.466763
     8  C    0.490277
     9  C    0.399701
    10  C    0.539865
    11  C    0.618829
    12  C   -0.056049
    13  H   -0.603880
    14  H   -0.640367
    15  H   -0.439204
    16  H   -0.432948
    17  H   -0.422897
    18  C   -0.244156
    19  C    0.600477
    20  H    0.038857
    21  H    0.001734
    22  H   -0.030487
    23  H   -0.012556
    24  H   -0.047196
 Sum of Mulliken charges =  -0.00000

 Dipole moment (field-independent basis, Debye):
    X=             -4.7666    Y=              1.8862    Z=             -2.3937  Tot=              5.6576

 Test job not archived.
 1\1\GINC-SE454\SP\RHF\Aug-CC-pVDZ\C10H10O3S1\OHZDE\08-Apr-2025\0\\#t h
 f aug-cc-pvdz iop(5/13=1,5/36=2,99/5=2) pseudo=read geom=check guess=(
 read,tcheck) scf=(maxcycle=1)\\title\\0,1\C,0,-0.434059,-0.28199,0.653
 847\O,0,0.024423,0.080389,1.702451\O,0,0.305236,-0.935331,-0.313814\S,
 0,1.852862,-1.542525,0.096839\C,0,2.992941,-0.150458,-0.065453\O,0,4.1
 46928,-0.437033,0.117533\C,0,-1.835115,-0.068657,0.203511\C,0,-2.31616
 7,-0.54863,-1.020577\C,0,-3.640013,-0.319235,-1.380323\C,0,-4.485831,0
 .385491,-0.525035\C,0,-4.00867,0.863561,0.69553\C,0,-2.687375,0.63839,

 Normal termination of Gaussian 16 at Tue Apr  8 23:26:18 2025.
