 Gaussian 16, Revision C.01,

 ----------------------------------------------------------------------
 #t hf aug-cc-pvdz symm=none int=(grid=ultrafine) guess=(read,tcheck) s
 table=(opt,rrhf)
 ----------------------------------------------------------------------
 -----
 title
 -----
 Symbolic Z-matrix:
 Charge =  0 Multiplicity = 1

 SCF Done:  E(RHF) =  -334.050022177     A.U. after   15 cycles

 1\1\GINC-SE459\Stability\RHF\Aug-CC-pVDZ\C8H11B1\OHZDE\09-Apr-2025\0\\
 #t hf aug-cc-pvdz symm=none int=(grid=ultrafine) guess=(read,tcheck) s
 table=(opt,rrhf)\\title\\0,1\C,0,0.248687,-0.17474,-0.125238\C,0,-0.26
 4578,1.09305,0.191879\C,0,-1.638584,1.313677,0.250654\C,0,-2.528711,0.
 270383,0.010975\C,0,-2.035739,-1.000307,-0.284177\C,0,-0.664683,-1.220
 267,-0.343275\B,0,1.83958,-0.728658,1.369935\H,0,-2.012759,2.30393,0.4
 85481\H,0,-3.597896,0.443899,0.055462\H,0,-2.721023,-1.819684,-0.47056
 6\H,0,-0.286896,-2.210744,-0.574217\H,0,0.413471,1.916256,0.380515\C,0

 Normal termination of Gaussian 16 at Wed Apr  9 00:28:57 2025.
 Gaussian 16:  ES64L-G16RevC.01  3-Jul-2019

 ----------------------------------------------------------------------
 #t hf aug-cc-pvdz iop(5/13=1,5/36=2,99/5=2) pseudo=read geom=check gue
 ss=(read,tcheck) scf=(maxcycle=1)
 ----------------------------------------------------------------------
 -----
 title
 -----
 Structure from the checkpoint file:  "BDE49_nonexpt_346_mol1.chk"
 Charge =  0 Multiplicity = 1

                         Standard orientation:
 ---------------------------------------------------------------------
 Center     Atomic      Atomic             Coordinates (Angstroms)
 Number     Number       Type             X           Y           Z
 ---------------------------------------------------------------------
      1          6           0        0.248687   -0.174740   -0.125238
      2          6           0       -0.264578    1.093050    0.191879
      3          6           0       -1.638584    1.313677    0.250654
      4          6           0       -2.528711    0.270383    0.010975
      5          6           0       -2.035739   -1.000307   -0.284177
      6          6           0       -0.664683   -1.220267   -0.343275
      7          5           0        1.839580   -0.728658    1.369935
      8          1           0       -2.012759    2.303930    0.485481
      9          1           0       -3.597896    0.443899    0.055462
     10          1           0       -2.721023   -1.819684   -0.470566
     11          1           0       -0.286896   -2.210744   -0.574217
     12          1           0        0.413471    1.916256    0.380515
     13          6           0        1.756004   -0.451591   -0.168728
     14          6           0        2.612807    0.684809   -0.738937
     15          1           0        1.899654   -1.358176   -0.762687
     16          1           0        2.576064    1.580684   -0.114601
     17          1           0        2.297419    0.960666   -1.750130
     18          1           0        3.660244    0.374619   -0.787719
     19          1           0        2.052502    0.174896    2.121215
     20          1           0        1.610100   -1.813144    1.808655
 ---------------------------------------------------------------------

 SCF Done:  E(RHF) =  -334.149625621     A.U. after    2 cycles

 The electronic state is 1-A.
 Alpha  occ. eigenvalues --  -11.26065 -11.24865 -11.24840 -11.24753 -11.24718
 Alpha  occ. eigenvalues --  -11.24665 -11.22796 -11.22309  -7.60560  -1.15062
 Alpha  occ. eigenvalues --   -1.05889  -1.01353  -0.97925  -0.87532  -0.83145
 Alpha  occ. eigenvalues --   -0.79216  -0.70240  -0.67528  -0.64584  -0.63209
 Alpha  occ. eigenvalues --   -0.59930  -0.58895  -0.57252  -0.54471  -0.52322
 Alpha  occ. eigenvalues --   -0.51685  -0.49489  -0.48837  -0.45830  -0.44102
 Alpha  occ. eigenvalues --   -0.34369  -0.32941
 Alpha virt. eigenvalues --    0.03080   0.03633   0.04024   0.05089   0.05225
 Alpha virt. eigenvalues --    0.05463   0.06337   0.06684   0.07305   0.07417
 Alpha virt. eigenvalues --    0.07981   0.08709   0.10112   0.10710   0.10914

 Mulliken charges:
               1
     1  C    0.181338
     2  C    0.537084
     3  C    0.211003
     4  C    0.681364
     5  C    0.372629
     6  C    0.315191
     7  B   -0.509762
     8  H   -0.469785
     9  H   -0.439715
    10  H   -0.445804
    11  H   -0.616033
    12  H   -0.645486
    13  C    0.096217
    14  C    0.500092
    15  H   -0.251222
    16  H   -0.068748
    17  H   -0.046517
    18  H   -0.115861
    19  H    0.379353
    20  H    0.334661
 Sum of Mulliken charges =  -0.00000

 Dipole moment (field-independent basis, Debye):
    X=             -0.2167    Y=              0.0981    Z=             -0.6459  Tot=              0.6883

 Test job not archived.
 1\1\GINC-SE459\SP\RHF\Aug-CC-pVDZ\C8H11B1\OHZDE\09-Apr-2025\0\\#t hf a
 ug-cc-pvdz iop(5/13=1,5/36=2,99/5=2) pseudo=read geom=check guess=(rea
 d,tcheck) scf=(maxcycle=1)\\title\\0,1\C,0,0.248687,-0.17474,-0.125238
 \C,0,-0.264578,1.09305,0.191879\C,0,-1.638584,1.313677,0.250654\C,0,-2
 .528711,0.270383,0.010975\C,0,-2.035739,-1.000307,-0.284177\C,0,-0.664
 683,-1.220267,-0.343275\B,0,1.83958,-0.728658,1.369935\H,0,-2.012759,2
 .30393,0.485481\H,0,-3.597896,0.443899,0.055462\H,0,-2.721023,-1.81968
 4,-0.470566\H,0,-0.286896,-2.210744,-0.574217\H,0,0.413471,1.916256,0.

 Normal termination of Gaussian 16 at Wed Apr  9 00:29:07 2025.
