 Gaussian 16, Revision C.01,

 ----------------------------------------------------------------------
 #t hf aug-cc-pvdz symm=none int=(grid=ultrafine) guess=(read,tcheck) s
 table=(opt,rrhf)
 ----------------------------------------------------------------------
 -----
 title
 -----
 Symbolic Z-matrix:
 Charge =  0 Multiplicity = 1

 SCF Done:  E(RHF) =  -724.704948448     A.U. after   16 cycles

 1\1\GINC-SE094\Stability\RHF\Aug-CC-pVDZ\C10H9P1\OHZDE\08-Apr-2025\0\\
 #t hf aug-cc-pvdz symm=none int=(grid=ultrafine) guess=(read,tcheck) s
 table=(opt,rrhf)\\title\\0,1\C,0,-1.690151,-1.555752,-0.001781\C,0,-3.
 012411,-1.183471,0.002458\C,0,-3.369149,0.185333,0.006117\C,0,-2.39584
 5,1.155094,0.005836\C,0,-1.021555,0.804149,0.002431\C,0,-0.660049,-0.5
 79041,-0.002504\H,0,-1.415429,-2.60548,-0.004591\H,0,-3.789775,-1.9392
 21,0.002986\H,0,-4.416392,0.465761,0.009227\H,0,-2.667336,2.20565,0.00
 8333\C,0,0.714819,-0.932151,0.001842\C,0,1.705947,0.026464,0.000166\C,

 Normal termination of Gaussian 16 at Tue Apr  8 23:26:13 2025.
 Gaussian 16:  ES64L-G16RevC.01  3-Jul-2019

 ----------------------------------------------------------------------
 #t hf aug-cc-pvdz iop(5/13=1,5/36=2,99/5=2) pseudo=read geom=check gue
 ss=(read,tcheck) scf=(maxcycle=1)
 ----------------------------------------------------------------------
 -----
 title
 -----
 Structure from the checkpoint file:  "BDE49_nonexpt_1273_mol1.chk"
 Charge =  0 Multiplicity = 1

                         Standard orientation:
 ---------------------------------------------------------------------
 Center     Atomic      Atomic             Coordinates (Angstroms)
 Number     Number       Type             X           Y           Z
 ---------------------------------------------------------------------
      1          6           0       -1.690151   -1.555752   -0.001781
      2          6           0       -3.012411   -1.183471    0.002458
      3          6           0       -3.369149    0.185333    0.006117
      4          6           0       -2.395845    1.155094    0.005836
      5          6           0       -1.021555    0.804149    0.002431
      6          6           0       -0.660049   -0.579041   -0.002504
      7          1           0       -1.415429   -2.605480   -0.004591
      8          1           0       -3.789775   -1.939221    0.002986
      9          1           0       -4.416392    0.465761    0.009227
     10          1           0       -2.667336    2.205650    0.008333
     11          6           0        0.714819   -0.932151    0.001842
     12          6           0        1.705947    0.026464    0.000166
     13          6           0        0.014201    1.774460   -0.001722
     14          6           0        1.333489    1.399987   -0.014332
     15          1           0       -0.253219    2.826161   -0.004879
     16          1           0        2.106237    2.161657   -0.037734
     17         15           0        3.503719   -0.380901   -0.086819
     18          1           0        0.972171   -1.986208    0.012367
     19          1           0        3.376716   -1.786753    0.037603
     20          1           0        3.815462   -0.198483    1.287916
 ---------------------------------------------------------------------

 SCF Done:  E(RHF) =  -724.834956460     A.U. after    2 cycles

 The electronic state is 1-A.
 Alpha  occ. eigenvalues --  -81.26152 -11.25923 -11.25862 -11.25764 -11.25398
 Alpha  occ. eigenvalues --  -11.25318 -11.25190 -11.25183 -11.25154 -11.25055
 Alpha  occ. eigenvalues --  -11.24995  -7.76509  -4.90595  -4.90471  -4.90195
 Alpha  occ. eigenvalues --   -1.17153  -1.10828  -1.04984  -1.01114  -0.98469
 Alpha  occ. eigenvalues --   -0.86815  -0.85002  -0.82077  -0.78151  -0.71246
 Alpha  occ. eigenvalues --   -0.70066  -0.66906  -0.63238  -0.61473  -0.59709
 Alpha  occ. eigenvalues --   -0.59097  -0.55462  -0.54619  -0.52386  -0.51240
 Alpha  occ. eigenvalues --   -0.49082  -0.47770  -0.45560  -0.39705  -0.36934
 Alpha  occ. eigenvalues --   -0.31943  -0.29542
 Alpha virt. eigenvalues --    0.03260   0.03688   0.03843   0.05123   0.05408
 Alpha virt. eigenvalues --    0.06498   0.06720   0.07262   0.07606   0.08550
 Alpha virt. eigenvalues --    0.09186   0.09357   0.10330   0.11164   0.11225

 Mulliken charges:
               1
     1  C    0.575450
     2  C    0.373342
     3  C    0.415973
     4  C    0.606689
     5  C   -0.179453
     6  C    0.588397
     7  H   -0.574010
     8  H   -0.450806
     9  H   -0.446864
    10  H   -0.575063
    11  C    0.225859
    12  C    0.137172
    13  C    0.649879
    14  C    0.375065
    15  H   -0.639994
    16  H   -0.560054
    17  P   -0.127505
    18  H   -0.637090
    19  H    0.081085
    20  H    0.161927
 Sum of Mulliken charges =  -0.00000

 Dipole moment (field-independent basis, Debye):
    X=             -1.0638    Y=             -0.1699    Z=              0.4662  Tot=              1.1739

 Test job not archived.
 1\1\GINC-SE094\SP\RHF\Aug-CC-pVDZ\C10H9P1\OHZDE\08-Apr-2025\0\\#t hf a
 ug-cc-pvdz iop(5/13=1,5/36=2,99/5=2) pseudo=read geom=check guess=(rea
 d,tcheck) scf=(maxcycle=1)\\title\\0,1\C,0,-1.690151,-1.555752,-0.0017
 81\C,0,-3.012411,-1.183471,0.002458\C,0,-3.369149,0.185333,0.006117\C,
 0,-2.395845,1.155094,0.005836\C,0,-1.021555,0.804149,0.002431\C,0,-0.6
 60049,-0.579041,-0.002504\H,0,-1.415429,-2.60548,-0.004591\H,0,-3.7897
 75,-1.939221,0.002986\H,0,-4.416392,0.465761,0.009227\H,0,-2.667336,2.
 20565,0.008333\C,0,0.714819,-0.932151,0.001842\C,0,1.705947,0.026464,0

 Normal termination of Gaussian 16 at Tue Apr  8 23:26:26 2025.
