 Gaussian 16, Revision C.01,

 ----------------------------------------------------------------------
 #t hf aug-cc-pvdz symm=none int=(grid=ultrafine) guess=(read,tcheck) s
 table=(opt,rrhf)
 ----------------------------------------------------------------------
 -----
 title
 -----
 Symbolic Z-matrix:
 Charge =  0 Multiplicity = 1

 SCF Done:  E(RHF) =  -775.269239230     A.U. after   14 cycles
 Normal termination of Gaussian 16 at Wed Apr  9 00:52:26 2025.
 Gaussian 16:  ES64L-G16RevC.01  3-Jul-2019

 ----------------------------------------------------------------------
 #t hf aug-cc-pvdz iop(5/13=1,5/36=2,99/5=2) pseudo=read geom=check gue
 ss=(read,tcheck) scf=(maxcycle=1)
 ----------------------------------------------------------------------
 -----
 title
 -----
 Structure from the checkpoint file:  "BDE49_nonexpt_956_mol1.chk"
 Charge =  0 Multiplicity = 1

                         Standard orientation:
 ---------------------------------------------------------------------
 Center     Atomic      Atomic             Coordinates (Angstroms)
 Number     Number       Type             X           Y           Z
 ---------------------------------------------------------------------
      1          9           0        2.580860   -1.759116    0.773206
      2          9           0        2.552513   -0.312144   -0.874806
      3          8           0       -0.169780    2.868443   -0.045543
      4          6           0       -0.650914    1.856226    0.863409
      5          1           0       -1.739412    1.838573    0.926154
      6          1           0       -0.229245    1.973710    1.868102
      7          6           0       -0.004622    0.719968    0.024279
      8          7           0        1.680692   -1.092276   -0.071953
      9          6           0        1.011143   -0.116230    0.804436
     10          1           0        0.509332   -0.727711    1.556829
     11          1           0        1.763253    0.513509    1.286685
     12          6           0        0.562308    1.894616   -0.818685
     13          1           0        1.643197    2.030223   -0.740156
     14          1           0        0.271977    1.904373   -1.873920
     15          6           0       -0.986845   -0.136823   -0.779945
     16          7           0       -1.608361   -1.174384    0.060547
     17          9           0       -2.460311   -1.866225   -0.814568
     18          9           0       -2.531805   -0.473383    0.877601
     19          1           0       -0.458620   -0.698221   -1.552881
     20          1           0       -1.766292    0.475895   -1.240472
 ---------------------------------------------------------------------

 SCF Done:  E(RHF) =  -775.518602160     A.U. after    2 cycles

 The electronic state is 1-A.
 Alpha  occ. eigenvalues --  -26.17667 -26.17591 -26.17419 -26.17370 -20.58846
 Alpha  occ. eigenvalues --  -15.85425 -15.85355 -11.32031 -11.31969 -11.31757
 Alpha  occ. eigenvalues --  -11.31730 -11.30044  -1.72420  -1.72356  -1.66694
 Alpha  occ. eigenvalues --   -1.66635  -1.36735  -1.21194  -1.17884  -1.07011
 Alpha  occ. eigenvalues --   -0.96875  -0.96175  -0.92645  -0.83265  -0.82638
 Alpha  occ. eigenvalues --   -0.82353  -0.81668  -0.81080  -0.80576  -0.75786
 Alpha  occ. eigenvalues --   -0.75769  -0.75087  -0.71724  -0.71213  -0.70846
 Alpha  occ. eigenvalues --   -0.70509  -0.67819  -0.67277  -0.64835  -0.61874
 Alpha  occ. eigenvalues --   -0.60788  -0.58801  -0.56142  -0.51532  -0.50581
 Alpha  occ. eigenvalues --   -0.49164  -0.48762  -0.45491
 Alpha virt. eigenvalues --    0.03340   0.03525   0.04804   0.05110   0.06106
 Alpha virt. eigenvalues --    0.06367   0.06817   0.08246   0.09486   0.11402
 Alpha virt. eigenvalues --    0.12219   0.12868   0.13060   0.13481   0.13818

 Mulliken charges:
               1
     1  F   -0.353240
     2  F   -0.369113
     3  O   -0.755317
     4  C    1.138442
     5  H   -0.146016
     6  H   -0.228446
     7  C   -1.793688
     8  N   -0.037570
     9  C    1.399651
    10  H    0.004506
    11  H   -0.090252
    12  C    1.120606
    13  H   -0.189027
    14  H   -0.191826
    15  C    1.326218
    16  N   -0.036376
    17  F   -0.354700
    18  F   -0.370928
    19  H    0.007520
    20  H   -0.080444
 Sum of Mulliken charges =  -0.00000

 Dipole moment (field-independent basis, Debye):
    X=              0.1777    Y=              1.1278    Z=              0.2064  Tot=              1.1603

 Test job not archived.
 1\1\GINC-SE460\SP\RHF\Aug-CC-pVDZ\C5H8F4N2O1\OHZDE\09-Apr-2025\0\\#t h
 f aug-cc-pvdz iop(5/13=1,5/36=2,99/5=2) pseudo=read geom=check guess=(
 read,tcheck) scf=(maxcycle=1)\\title\\0,1\F,0,2.58086,-1.759116,0.7732
 06\F,0,2.552513,-0.312144,-0.874806\O,0,-0.16978,2.868443,-0.045543\C,
 0,-0.650914,1.856226,0.863409\H,0,-1.739412,1.838573,0.926154\H,0,-0.2
 29245,1.97371,1.868102\C,0,-0.004622,0.719968,0.024279\N,0,1.680692,-1
 .092276,-0.071953\C,0,1.011143,-0.11623,0.804436\H,0,0.509332,-0.72771
 1,1.556829\H,0,1.763253,0.513509,1.286685\C,0,0.562308,1.894616,-0.818

 Normal termination of Gaussian 16 at Wed Apr  9 00:52:38 2025.
