 Gaussian 16, Revision C.01,

 ----------------------------------------------------------------------
 #t hf aug-cc-pvdz symm=none int=(grid=ultrafine) guess=(read,tcheck) s
 table=(opt,rrhf)
 ----------------------------------------------------------------------
 -----
 title
 -----
 Symbolic Z-matrix:
 Charge =  0 Multiplicity = 1

 SCF Done:  E(RHF) =  -1045.24317597     A.U. after   14 cycles
 Normal termination of Gaussian 16 at Wed Apr  9 00:15:33 2025.
 Gaussian 16:  ES64L-G16RevC.01  3-Jul-2019

 ----------------------------------------------------------------------
 #t hf aug-cc-pvdz iop(5/13=1,5/36=2,99/5=2) pseudo=read geom=check gue
 ss=(read,tcheck) scf=(maxcycle=1)
 ----------------------------------------------------------------------
 -----
 title
 -----
 Structure from the checkpoint file:  "BDE49_nonexpt_2551_mol1.chk"
 Charge =  0 Multiplicity = 1

                         Standard orientation:
 ---------------------------------------------------------------------
 Center     Atomic      Atomic             Coordinates (Angstroms)
 Number     Number       Type             X           Y           Z
 ---------------------------------------------------------------------
      1         17           0       -1.862036    0.305437    0.000511
      2         16           0       -0.235440   -0.948392   -0.000270
      3          6           0        1.095488    0.271896   -0.000694
      4          8           0        0.993699    1.458045   -0.000200
      5          8           0        2.240451   -0.438467    0.000106
      6          1           0        2.975524    0.193836    0.000552
 ---------------------------------------------------------------------

 SCF Done:  E(RHF) =  -1045.34541199     A.U. after    2 cycles

 The electronic state is 1-A.
 Alpha  occ. eigenvalues -- -103.69739 -93.62958 -20.66515 -20.60460 -11.45930
 Alpha  occ. eigenvalues --  -10.72900  -8.92376  -8.38639  -8.38263  -8.38235
 Alpha  occ. eigenvalues --   -6.26435  -6.26185  -6.25765  -1.46634  -1.37533
 Alpha  occ. eigenvalues --   -1.19071  -1.00944  -0.85619  -0.75509  -0.71776
 Alpha  occ. eigenvalues --   -0.68991  -0.63014  -0.56140  -0.55368  -0.52937
 Alpha  occ. eigenvalues --   -0.50960  -0.46826  -0.40183
 Alpha virt. eigenvalues --    0.02738   0.04169   0.07156   0.10172   0.10451
 Alpha virt. eigenvalues --    0.11297   0.12070   0.12342   0.13749   0.14560
 Alpha virt. eigenvalues --    0.14648   0.16336   0.16870   0.20791   0.22325

 Mulliken charges:
               1
     1  Cl  -0.240370
     2  S    0.487542
     3  C    0.270133
     4  O   -0.310715
     5  O   -0.382344
     6  H    0.175753
 Sum of Mulliken charges =  -0.00000

 Dipole moment (field-independent basis, Debye):
    X=              1.9410    Y=             -1.3777    Z=             -0.0005  Tot=              2.3803

 Test job not archived.
 1\1\GINC-SE363\SP\RHF\Aug-CC-pVDZ\C1H1Cl1O2S1\OHZDE\09-Apr-2025\0\\#t
 hf aug-cc-pvdz iop(5/13=1,5/36=2,99/5=2) pseudo=read geom=check guess=
 (read,tcheck) scf=(maxcycle=1)\\title\\0,1\Cl,0,-1.862036,0.305437,0.0
 00511\S,0,-0.23544,-0.948392,-0.00027\C,0,1.095488,0.271896,-0.000694\
 O,0,0.993699,1.458045,-0.0002\O,0,2.240451,-0.438467,0.000106\H,0,2.97
 5524,0.193836,0.000552\\Version=ES64L-G16RevC.01\State=1-A\HF=-1045.34
 5412\RMSD=3.622e-03\Dipole=0.7636649,-0.5420367,-0.0002068\Quadrupole=
 5.1944513,-3.7677989,-1.4266524,0.4897793,-0.0000656,0.0005756\PG=C01

 Normal termination of Gaussian 16 at Wed Apr  9 00:15:35 2025.
