 Gaussian 16, Revision C.01,

 ----------------------------------------------------------------------
 #t hf aug-cc-pvdz symm=none int=(grid=ultrafine) guess=(read,tcheck) s
 table=opt
 ----------------------------------------------------------------------
 -----
 title
 -----
 Symbolic Z-matrix:
 Charge =  0 Multiplicity = 2

 SCF Done:  E(UHF) =  -664.939404104     A.U. after   24 cycles
 Normal termination of Gaussian 16 at Wed Apr  9 00:18:11 2025.
 Gaussian 16:  ES64L-G16RevC.01  3-Jul-2019

 ----------------------------------------------------------------------
 #t hf aug-cc-pvdz iop(5/13=1,5/36=2,99/5=2) pseudo=read geom=check gue
 ss=(read,tcheck) scf=(maxcycle=1)
 ----------------------------------------------------------------------
 -----
 title
 -----
 Structure from the checkpoint file:  "BDE49_nonexpt_2587_mol2.chk"
 Charge =  0 Multiplicity = 2

                         Standard orientation:
 ---------------------------------------------------------------------
 Center     Atomic      Atomic             Coordinates (Angstroms)
 Number     Number       Type             X           Y           Z
 ---------------------------------------------------------------------
      1         16           0       -1.047583   -1.277335   -0.081922
      2          6           0       -0.211859    0.385126    0.051388
      3          8           0        0.958702    0.268428   -0.727276
      4          8           0        0.026149    0.686511    1.393862
      5          6           0        2.090874   -0.368999   -0.132591
      6          1           0        2.491125    0.233498    0.686897
      7          1           0        2.834719   -0.443668   -0.923796
      8          1           0        1.847651   -1.374086    0.225471
      9          6           0       -1.030449    1.509446   -0.549392
     10          1           0       -1.174396    1.336238   -1.614824
     11          1           0       -0.492383    2.449105   -0.403977
     12          1           0       -2.000926    1.567119   -0.056650
     13          1           0        0.285339   -0.123793    1.848525
 ---------------------------------------------------------------------

 SCF Done:  E(UHF) =  -665.042042486     A.U. after    2 cycles

 The electronic state is 2-A.
 Alpha  occ. eigenvalues --  -93.55631 -20.60422 -20.59459 -11.39811 -11.29569
 Alpha  occ. eigenvalues --  -11.23618  -8.85400  -6.20772  -6.19081  -6.18640
 Alpha  occ. eigenvalues --   -1.39834  -1.32540  -1.05139  -0.95740  -0.93638
 Alpha  occ. eigenvalues --   -0.81832  -0.74219  -0.67796  -0.67482  -0.64303
 Alpha  occ. eigenvalues --   -0.59460  -0.56610  -0.54958  -0.53760  -0.53090
 Alpha  occ. eigenvalues --   -0.50194  -0.44708  -0.43213  -0.38511
 Alpha virt. eigenvalues --    0.03461   0.04853   0.04991   0.05798   0.06796
 Alpha virt. eigenvalues --    0.07057   0.07313   0.08386   0.11270   0.12490
 Alpha virt. eigenvalues --    0.12927   0.14793   0.15413   0.15642   0.16252

  Beta  occ. eigenvalues --  -93.54717 -20.60374 -20.59292 -11.39959 -11.29573
  Beta  occ. eigenvalues --  -11.23611  -8.84383  -6.18513  -6.18081  -6.16781
  Beta  occ. eigenvalues --   -1.39610  -1.32220  -1.04380  -0.93573  -0.89470
  Beta  occ. eigenvalues --   -0.80919  -0.73480  -0.67437  -0.66008  -0.63477
  Beta  occ. eigenvalues --   -0.59288  -0.56435  -0.54846  -0.53610  -0.52664
  Beta  occ. eigenvalues --   -0.49684  -0.42300  -0.36245
  Beta virt. eigenvalues --    0.01202   0.03489   0.04906   0.05194   0.05831
  Beta virt. eigenvalues --    0.06938   0.07129   0.07336   0.08506   0.11501
  Beta virt. eigenvalues --    0.12904   0.13270   0.14795   0.15762   0.15990

 Mulliken charges and spin densities:
               1          2
     1  S    0.176684   1.093853
     2  C    0.097002  -0.086083
     3  O   -0.692360   0.006341
     4  O   -0.581914   0.003319
     5  C    0.794253  -0.001790
     6  H   -0.086027   0.001104
     7  H   -0.259515  -0.000857
     8  H   -0.093596  -0.004540
     9  C    0.463523   0.002406
    10  H   -0.016177  -0.005831
    11  H    0.008789  -0.001838
    12  H   -0.023089  -0.000281
    13  H    0.212430  -0.005804
 Sum of Mulliken charges =  -0.00000   1.00000

 Dipole moment (field-independent basis, Debye):
    X=              1.1197    Y=             -0.5147    Z=              0.7112  Tot=              1.4229
                          Isotropic Fermi Contact Couplings
        Atom                 a.u.       MegaHertz       Gauss      10(-4) cm-1
     1  S(33)              0.18608      63.91457      22.80631      21.31961
     2  C(13)             -0.02684     -30.17110     -10.76580     -10.06400
     3  O(17)              0.03000     -18.18285      -6.48809      -6.06515
     4  O(17)              0.00504      -3.05715      -1.09087      -1.01976
     5  C(13)             -0.00083      -0.92806      -0.33115      -0.30957
     6  H(1)              -0.00017      -0.76732      -0.27380      -0.25595
     7  H(1)               0.00004       0.16546       0.05904       0.05519
     8  H(1)              -0.00022      -0.98607      -0.35185      -0.32892

 Normal termination of Gaussian 16 at Wed Apr  9 00:18:15 2025.
