 Gaussian 16, Revision C.01,

 ----------------------------------------------------------------------
 #t hf aug-cc-pvdz symm=none int=(grid=ultrafine) guess=(read,tcheck) s
 table=opt
 ----------------------------------------------------------------------
 -----
 title
 -----
 Symbolic Z-matrix:
 Charge =  0 Multiplicity = 2

 SCF Done:  E(UHF) =  -554.291469768     A.U. after   16 cycles
 Normal termination of Gaussian 16 at Tue Apr  8 23:57:29 2025.
 Gaussian 16:  ES64L-G16RevC.01  3-Jul-2019

 ----------------------------------------------------------------------
 #t hf aug-cc-pvdz iop(5/13=1,5/36=2,99/5=2) pseudo=read geom=check gue
 ss=(read,tcheck) scf=(maxcycle=1)
 ----------------------------------------------------------------------
 -----
 title
 -----
 Structure from the checkpoint file:  "BDE49_nonexpt_2067_mol2.chk"
 Charge =  0 Multiplicity = 2

                         Standard orientation:
 ---------------------------------------------------------------------
 Center     Atomic      Atomic             Coordinates (Angstroms)
 Number     Number       Type             X           Y           Z
 ---------------------------------------------------------------------
      1         14           0       -1.557450    0.074826   -0.140849
      2          6           0        0.373949    0.012370    0.004511
      3          8           0        0.960232    1.283443    0.086171
      4          1           0        0.761398    1.737395   -0.739951
      5          8           0        0.861210   -0.711684   -1.097139
      6          1           0        1.825864   -0.743839   -0.998384
      7          8           0        0.763683   -0.586879    1.217151
      8          1           0        0.494999   -1.511317    1.170294
      9          1           0       -2.100552    0.826137    1.017398
     10          1           0       -2.102113   -1.309197   -0.153994
 ---------------------------------------------------------------------

 SCF Done:  E(UHF) =  -554.395580162     A.U. after    2 cycles

 The electronic state is 2-A.
 Alpha  occ. eigenvalues --  -69.08336 -20.60081 -20.59859 -20.59814 -11.40709
 Alpha  occ. eigenvalues --   -6.83742  -3.95090  -3.94182  -3.94172  -1.42425
 Alpha  occ. eigenvalues --   -1.32144  -1.31858  -0.90614  -0.81168  -0.73104
 Alpha  occ. eigenvalues --   -0.69492  -0.66452  -0.64261  -0.63166  -0.56517
 Alpha  occ. eigenvalues --   -0.54488  -0.51439  -0.49437  -0.44269  -0.34108
 Alpha virt. eigenvalues --    0.03045   0.04691   0.04750   0.05610   0.06622
 Alpha virt. eigenvalues --    0.07606   0.08338   0.09633   0.11836   0.14029
 Alpha virt. eigenvalues --    0.14814   0.15030   0.16054   0.17879   0.19146

  Beta  occ. eigenvalues --  -69.07768 -20.60083 -20.59833 -20.59678 -11.40642
  Beta  occ. eigenvalues --   -6.82890  -3.93794  -3.93782  -3.92902  -1.42278
  Beta  occ. eigenvalues --   -1.32025  -1.31656  -0.90219  -0.80709  -0.71382
  Beta  occ. eigenvalues --   -0.69335  -0.66015  -0.64121  -0.61054  -0.55895
  Beta  occ. eigenvalues --   -0.54368  -0.51237  -0.48523  -0.43060
  Beta virt. eigenvalues --    0.02134   0.03322   0.04774   0.05430   0.06151
  Beta virt. eigenvalues --    0.06945   0.08181   0.09011   0.09941   0.12001
  Beta virt. eigenvalues --    0.14489   0.15752   0.16175   0.17103   0.19325

 Mulliken charges and spin densities:
               1          2
     1  Si   0.250161   0.962916
     2  C    1.069021  -0.002942
     3  O   -0.567298   0.001813
     4  H    0.140499   0.001191
     5  O   -0.504183  -0.006399
     6  H    0.090135  -0.002510
     7  O   -0.561943   0.016556
     8  H    0.123824  -0.012735
     9  H   -0.008728   0.020483
    10  H   -0.031491   0.021628
 Sum of Mulliken charges =  -0.00000   1.00000

 Dipole moment (field-independent basis, Debye):
    X=             -0.5154    Y=             -0.7270    Z=             -1.4401  Tot=              1.6935
                          Isotropic Fermi Contact Couplings
        Atom                 a.u.       MegaHertz       Gauss      10(-4) cm-1
     1  Si(29)             0.53364    -474.25769    -169.22694    -158.19534
     2  C(13)              0.01551      17.43346       6.22069       5.81518
     3  O(17)             -0.00353       2.13809       0.76293       0.71319
     4  H(1)              -0.00012      -0.55786      -0.19906      -0.18608
     5  O(17)             -0.00682       4.13532       1.47558       1.37939
     6  H(1)              -0.00058      -2.59303      -0.92526      -0.86494
     7  O(17)              0.02446     -14.83015      -5.29177      -4.94681
     8  H(1)              -0.00084      -3.77370      -1.34655      -1.25877

 Normal termination of Gaussian 16 at Tue Apr  8 23:57:33 2025.
