 Gaussian 16, Revision C.01,

 ----------------------------------------------------------------------
 #t hf aug-cc-pvdz symm=none int=(grid=ultrafine) guess=(read,tcheck) s
 table=(opt,rrhf)
 ----------------------------------------------------------------------
 -----
 title
 -----
 Symbolic Z-matrix:
 Charge =  0 Multiplicity = 1

 SCF Done:  E(RHF) =  -1036.13013760     A.U. after   12 cycles

 1\1\GINC-SE398\Stability\RHF\Aug-CC-pVDZ\C3H6Cl2\OHZDE\08-Apr-2025\0\\
 #t hf aug-cc-pvdz symm=none int=(grid=ultrafine) guess=(read,tcheck) s
 table=(opt,rrhf)\\title\\0,1\C,0,0.,1.285248,0.431879\H,0,0.058129,2.1
 58334,1.078189\Cl,0,-1.534303,1.483967,-0.529961\H,0,0.813149,1.310015
 ,-0.290624\C,0,0.,0.,1.24492\C,0,0.,-1.285248,0.431879\H,0,-0.881129,-
 0.017366,1.895733\H,0,-0.813149,-1.310015,-0.290624\Cl,0,1.534303,-1.4
 83967,-0.529961\H,0,0.881129,0.017366,1.895733\H,0,-0.058129,-2.158334
 ,1.078189\\Version=ES64L-G16RevC.01\HF=-1036.1301376\RMSD=4.039e-09\Di

 Normal termination of Gaussian 16 at Tue Apr  8 22:29:24 2025.
 Gaussian 16:  ES64L-G16RevC.01  3-Jul-2019

 ----------------------------------------------------------------------
 #t hf aug-cc-pvdz iop(5/13=1,5/36=2,99/5=2) pseudo=read geom=check gue
 ss=(read,tcheck) scf=(maxcycle=1)
 ----------------------------------------------------------------------
 -----
 title
 -----
 Structure from the checkpoint file:  "BDE49_expt_1029_mol1.chk"
 Charge =  0 Multiplicity = 1

                         Standard orientation:
 ---------------------------------------------------------------------
 Center     Atomic      Atomic             Coordinates (Angstroms)
 Number     Number       Type             X           Y           Z
 ---------------------------------------------------------------------
      1          6           0       -0.000000    1.285248    0.431879
      2          1           0        0.058129    2.158334    1.078189
      3         17           0       -1.534303    1.483967   -0.529961
      4          1           0        0.813149    1.310015   -0.290624
      5          6           0        0.000000   -0.000000    1.244920
      6          6           0        0.000000   -1.285248    0.431879
      7          1           0       -0.881129   -0.017366    1.895733
      8          1           0       -0.813149   -1.310015   -0.290624
      9         17           0        1.534303   -1.483967   -0.529961
     10          1           0        0.881129    0.017366    1.895733
     11          1           0       -0.058129   -2.158334    1.078189
 ---------------------------------------------------------------------

 SCF Done:  E(RHF) =  -1036.20338768     A.U. after    2 cycles

 The electronic state is 1-A.
 Alpha  occ. eigenvalues -- -103.65273-103.65273 -11.31441 -11.31437 -11.27165
 Alpha  occ. eigenvalues --  -10.68552 -10.68550  -8.34266  -8.34265  -8.33990
 Alpha  occ. eigenvalues --   -8.33990  -8.33978  -8.33976  -1.17751  -1.15439
 Alpha  occ. eigenvalues --   -1.04484  -0.92875  -0.82065  -0.67564  -0.66830
 Alpha  occ. eigenvalues --   -0.60609  -0.57689  -0.56579  -0.53000  -0.50921
 Alpha  occ. eigenvalues --   -0.45893  -0.45500  -0.44694  -0.44575
 Alpha virt. eigenvalues --    0.03257   0.04206   0.05348   0.05528   0.07142
 Alpha virt. eigenvalues --    0.07159   0.09131   0.09475   0.12322   0.14124
 Alpha virt. eigenvalues --    0.14555   0.14737   0.15548   0.16007   0.16131

 Mulliken charges:
               1
     1  C    0.047088
     2  H    0.025704
     3  Cl  -0.165631
     4  H    0.030280
     5  C    0.185348
     6  C    0.047088
     7  H   -0.030115
     8  H    0.030280
     9  Cl  -0.165631
    10  H   -0.030115
    11  H    0.025704
 Sum of Mulliken charges =  -0.00000

 Dipole moment (field-independent basis, Debye):
    X=             -0.0000    Y=              0.0000    Z=              2.6348  Tot=              2.6348

 Test job not archived.
 1\1\GINC-SE398\SP\RHF\Aug-CC-pVDZ\C3H6Cl2\OHZDE\08-Apr-2025\0\\#t hf a
 ug-cc-pvdz iop(5/13=1,5/36=2,99/5=2) pseudo=read geom=check guess=(rea
 d,tcheck) scf=(maxcycle=1)\\title\\0,1\C,0,0.,1.285248,0.431879\H,0,0.
 058129,2.158334,1.078189\Cl,0,-1.534303,1.483967,-0.529961\H,0,0.81314
 9,1.310015,-0.290624\C,0,0.,0.,1.24492\C,0,0.,-1.285248,0.431879\H,0,-
 0.881129,-0.017366,1.895733\H,0,-0.813149,-1.310015,-0.290624\Cl,0,1.5
 34303,-1.483967,-0.529961\H,0,0.881129,0.017366,1.895733\H,0,-0.058129
 ,-2.158334,1.078189\\Version=ES64L-G16RevC.01\State=1-A\HF=-1036.20338

 Normal termination of Gaussian 16 at Tue Apr  8 22:29:27 2025.
