 Gaussian 16, Revision C.01,

 ----------------------------------------------------------------------
 #t hf aug-cc-pvdz symm=none int=(grid=ultrafine) guess=(read,tcheck) s
 table=opt
 ----------------------------------------------------------------------
 -----
 title
 -----
 Symbolic Z-matrix:
 Charge =  0 Multiplicity = 2

 SCF Done:  E(UHF) =  -826.074098286     A.U. after   19 cycles
 Normal termination of Gaussian 16 at Tue Apr  8 23:43:10 2025.
 Gaussian 16:  ES64L-G16RevC.01  3-Jul-2019

 ----------------------------------------------------------------------
 #t hf aug-cc-pvdz iop(5/13=1,5/36=2,99/5=2) pseudo=read geom=check gue
 ss=(read,tcheck) scf=(maxcycle=1)
 ----------------------------------------------------------------------
 -----
 title
 -----
 Structure from the checkpoint file:  "BDE49_nonexpt_172_mol2.chk"
 Charge =  0 Multiplicity = 2

                         Standard orientation:
 ---------------------------------------------------------------------
 Center     Atomic      Atomic             Coordinates (Angstroms)
 Number     Number       Type             X           Y           Z
 ---------------------------------------------------------------------
      1         17           0        1.636816   -0.092134   -0.000059
      2          5           0        0.084069    0.675410    0.053180
      3         15           0       -1.625529   -0.092586   -0.118219
      4          1           0       -2.333766    0.774797    0.741208
      5          1           0       -1.529517   -1.196780    0.767183
 ---------------------------------------------------------------------

 SCF Done:  E(UHF) =  -826.118137685     A.U. after    2 cycles

 The electronic state is 2-A.
 Alpha  occ. eigenvalues -- -103.67980 -81.26488 -10.71463  -8.37176  -8.36957
 Alpha  occ. eigenvalues --   -8.36885  -7.77147  -7.70892  -4.91140  -4.91084
 Alpha  occ. eigenvalues --   -4.90817  -1.17603  -0.83159  -0.66859  -0.55913
 Alpha  occ. eigenvalues --   -0.54437  -0.51315  -0.50224  -0.38573  -0.33347
 Alpha virt. eigenvalues --    0.03650   0.04406   0.05376   0.05754   0.06784
 Alpha virt. eigenvalues --    0.08277   0.09099   0.11116   0.11332   0.14149
 Alpha virt. eigenvalues --    0.14865   0.16883   0.17421   0.18294   0.18787

  Beta  occ. eigenvalues -- -103.67914 -81.26460 -10.71389  -8.37110  -8.36904
  Beta  occ. eigenvalues --   -8.36685  -7.77107  -7.68926  -4.91105  -4.91014
  Beta  occ. eigenvalues --   -4.90776  -1.16851  -0.81803  -0.64008  -0.53932
  Beta  occ. eigenvalues --   -0.52631  -0.51055  -0.48082  -0.37390
  Beta virt. eigenvalues --    0.02805   0.05358   0.05583   0.05818   0.07008
  Beta virt. eigenvalues --    0.07600   0.08898   0.10441   0.11600   0.11903
  Beta virt. eigenvalues --    0.14986   0.15514   0.17017   0.17819   0.18589

 Mulliken charges and spin densities:
               1          2
     1  Cl  -0.236491   0.003137
     2  B    0.219328   1.014152
     3  P   -0.282739  -0.016759
     4  H    0.139018  -0.018507
     5  H    0.160883   0.017977
 Sum of Mulliken charges =   0.00000   1.00000

 Dipole moment (field-independent basis, Debye):
    X=             -0.9177    Y=             -0.1577    Z=              0.6247  Tot=              1.1213
                          Isotropic Fermi Contact Couplings
        Atom                 a.u.       MegaHertz       Gauss      10(-4) cm-1
     1  Cl(35)             0.05634      24.70270       8.81454       8.23993
     2  B(11)              0.30848     442.47217     157.88507     147.59283
     3  P(31)              0.02843      51.49843      18.37592      17.17803
     4  H(1)               0.00286      12.80596       4.56948       4.27161
     5  H(1)               0.00718      32.09479      11.45222      10.70567
 --------------------------------------------------------
       Center         ----  Spin Dipole Couplings  ----
                      3XX-RR        3YY-RR        3ZZ-RR

 Normal termination of Gaussian 16 at Tue Apr  8 23:43:11 2025.
