 Gaussian 16, Revision C.01,

 ----------------------------------------------------------------------
 #t hf aug-cc-pvdz symm=none int=(grid=ultrafine) guess=(read,tcheck) s
 table=(opt,rrhf)
 ----------------------------------------------------------------------
 -----
 title
 -----
 Symbolic Z-matrix:
 Charge =  0 Multiplicity = 1

 SCF Done:  E(RHF) =  -763.659563761     A.U. after   13 cycles
 Normal termination of Gaussian 16 at Wed Apr  9 00:05:26 2025.
 Gaussian 16:  ES64L-G16RevC.01  3-Jul-2019

 ----------------------------------------------------------------------
 #t hf aug-cc-pvdz iop(5/13=1,5/36=2,99/5=2) pseudo=read geom=check gue
 ss=(read,tcheck) scf=(maxcycle=1)
 ----------------------------------------------------------------------
 -----
 title
 -----
 Structure from the checkpoint file:  "BDE49_nonexpt_2264_mol1.chk"
 Charge =  0 Multiplicity = 1

                         Standard orientation:
 ---------------------------------------------------------------------
 Center     Atomic      Atomic             Coordinates (Angstroms)
 Number     Number       Type             X           Y           Z
 ---------------------------------------------------------------------
      1         16           0       -1.478156   -0.135459   -0.091597
      2          8           0       -0.015999    0.707189    0.042409
      3          1           0       -1.680220   -0.361693    1.223684
      4         14           0        1.424233   -0.145359   -0.004458
      5          1           0        2.468595    0.894711    0.068646
      6          1           0        1.536767   -0.923778   -1.256331
      7          1           0        1.514093   -1.064389    1.152691
 ---------------------------------------------------------------------

 SCF Done:  E(RHF) =  -763.740363299     A.U. after    2 cycles

 The electronic state is 1-A.
 Alpha  occ. eigenvalues --  -93.60303 -69.10444 -20.60166  -8.89325  -6.85261
 Alpha  occ. eigenvalues --   -6.23544  -6.23204  -6.22831  -3.96168  -3.96028
 Alpha  occ. eigenvalues --   -3.95996  -1.32031  -0.94457  -0.73243  -0.64391
 Alpha  occ. eigenvalues --   -0.60357  -0.60031  -0.50300  -0.48265  -0.46371
 Alpha  occ. eigenvalues --   -0.37649
 Alpha virt. eigenvalues --    0.03563   0.04844   0.05428   0.06258   0.07171
 Alpha virt. eigenvalues --    0.08493   0.09122   0.09886   0.12055   0.13754
 Alpha virt. eigenvalues --    0.15372   0.16561   0.18042   0.19133   0.19607

 Mulliken charges:
               1
     1  S    0.393952
     2  O   -1.079950
     3  H    0.056873
     4  Si   0.802310
     5  H   -0.052786
     6  H   -0.051488
     7  H   -0.068913
 Sum of Mulliken charges =  -0.00000

 Dipole moment (field-independent basis, Debye):
    X=              0.2083    Y=             -1.0858    Z=              0.7484  Tot=              1.3351

 Test job not archived.
 1\1\GINC-SE366\SP\RHF\Aug-CC-pVDZ\H4O1S1Si1\OHZDE\09-Apr-2025\0\\#t hf
  aug-cc-pvdz iop(5/13=1,5/36=2,99/5=2) pseudo=read geom=check guess=(r
 ead,tcheck) scf=(maxcycle=1)\\title\\0,1\S,0,-1.478156,-0.135459,-0.09
 1597\O,0,-0.015999,0.707189,0.042409\H,0,-1.68022,-0.361693,1.223684\S
 i,0,1.424233,-0.145359,-0.004458\H,0,2.468595,0.894711,0.068646\H,0,1.
 536767,-0.923778,-1.256331\H,0,1.514093,-1.064389,1.152691\\Version=ES
 64L-G16RevC.01\State=1-A\HF=-763.7403633\RMSD=5.903e-03\Dipole=0.08195
 88,-0.4271703,0.2944505\Quadrupole=1.538786,-2.1835062,0.6447201,0.813

 Normal termination of Gaussian 16 at Wed Apr  9 00:05:28 2025.
