 Gaussian 16, Revision C.01,

 ----------------------------------------------------------------------
 #t hf aug-cc-pvdz symm=none int=(grid=ultrafine) guess=(read,tcheck) s
 table=(opt,rrhf)
 ----------------------------------------------------------------------
 -----
 title
 -----
 Symbolic Z-matrix:
 Charge =  0 Multiplicity = 1

 SCF Done:  E(RHF) =  -551.599056769     A.U. after   13 cycles
 Normal termination of Gaussian 16 at Tue Apr  8 22:42:28 2025.
 Gaussian 16:  ES64L-G16RevC.01  3-Jul-2019

 ----------------------------------------------------------------------
 #t hf aug-cc-pvdz iop(5/13=1,5/36=2,99/5=2) pseudo=read geom=check gue
 ss=(read,tcheck) scf=(maxcycle=1)
 ----------------------------------------------------------------------
 -----
 title
 -----
 Structure from the checkpoint file:  "BDE49_expt_1495_mol1.chk"
 Charge =  0 Multiplicity = 1

                         Standard orientation:
 ---------------------------------------------------------------------
 Center     Atomic      Atomic             Coordinates (Angstroms)
 Number     Number       Type             X           Y           Z
 ---------------------------------------------------------------------
      1          6           0       -1.578884    0.808693    0.045409
      2         16           0       -0.568110   -0.681800   -0.158336
      3          1           0       -1.191757    1.651912   -0.528269
      4          1           0       -1.661116    1.067197    1.101469
      5          1           0       -2.568904    0.545560   -0.337941
      6          8           0        0.860049   -0.206802    0.604918
      7          6           0        1.814445    0.438395   -0.246150
      8          1           0        1.434545    1.392271   -0.627921
      9          1           0        2.094063   -0.201461   -1.088245
     10          1           0        2.689168    0.625219    0.379384
 ---------------------------------------------------------------------

 SCF Done:  E(RHF) =  -551.676357977     A.U. after    2 cycles

 The electronic state is 1-A.
 Alpha  occ. eigenvalues --  -93.57709 -20.59880 -11.29167 -11.26884  -8.86819
 Alpha  occ. eigenvalues --   -6.21044  -6.20675  -6.20332  -1.33118  -1.02526
 Alpha  occ. eigenvalues --   -0.93620  -0.82546  -0.65486  -0.64534  -0.63593
 Alpha  occ. eigenvalues --   -0.59110  -0.57786  -0.52154  -0.49552  -0.43396
 Alpha  occ. eigenvalues --   -0.34877
 Alpha virt. eigenvalues --    0.03487   0.04581   0.05632   0.05755   0.06831
 Alpha virt. eigenvalues --    0.07989   0.09003   0.10848   0.12795   0.13293
 Alpha virt. eigenvalues --    0.15091   0.15821   0.16351   0.16776   0.17247

 Mulliken charges:
               1
     1  C    0.019592
     2  S    0.629813
     3  H   -0.081233
     4  H   -0.030762
     5  H   -0.055200
     6  O   -0.863742
     7  C    0.769564
     8  H   -0.117695
     9  H   -0.075319
    10  H   -0.195017
 Sum of Mulliken charges =  -0.00000

 Dipole moment (field-independent basis, Debye):
    X=             -0.2993    Y=              1.9060    Z=             -1.0812  Tot=              2.2116

 Test job not archived.
 1\1\GINC-SE454\SP\RHF\Aug-CC-pVDZ\C2H6O1S1\OHZDE\08-Apr-2025\0\\#t hf
 aug-cc-pvdz iop(5/13=1,5/36=2,99/5=2) pseudo=read geom=check guess=(re
 ad,tcheck) scf=(maxcycle=1)\\title\\0,1\C,0,-1.578884,0.808693,0.04540
 9\S,0,-0.56811,-0.6818,-0.158336\H,0,-1.191757,1.651912,-0.528269\H,0,
 -1.661116,1.067197,1.101469\H,0,-2.568904,0.54556,-0.337941\O,0,0.8600
 49,-0.206802,0.604918\C,0,1.814445,0.438395,-0.24615\H,0,1.434545,1.39
 2271,-0.627921\H,0,2.094063,-0.201461,-1.088245\H,0,2.689168,0.62522,0
 .379384\\Version=ES64L-G16RevC.01\State=1-A\HF=-551.676358\RMSD=3.480e

 Normal termination of Gaussian 16 at Tue Apr  8 22:42:31 2025.
