 Gaussian 16, Revision C.01,

 ----------------------------------------------------------------------
 #t hf aug-cc-pvdz symm=none int=(grid=ultrafine) guess=(read,tcheck) s
 table=(opt,rrhf)
 ----------------------------------------------------------------------
 -----
 title
 -----
 Symbolic Z-matrix:
 Charge =  0 Multiplicity = 1

 SCF Done:  E(RHF) =  -667.602109477     A.U. after   14 cycles
 Normal termination of Gaussian 16 at Tue Apr  8 22:47:13 2025.
 Gaussian 16:  ES64L-G16RevC.01  3-Jul-2019

 ----------------------------------------------------------------------
 #t hf aug-cc-pvdz iop(5/13=1,5/36=2,99/5=2) pseudo=read geom=check gue
 ss=(read,tcheck) scf=(maxcycle=1)
 ----------------------------------------------------------------------
 -----
 title
 -----
 Structure from the checkpoint file:  "BDE49_expt_1608_mol1.chk"
 Charge =  0 Multiplicity = 1

                         Standard orientation:
 ---------------------------------------------------------------------
 Center     Atomic      Atomic             Coordinates (Angstroms)
 Number     Number       Type             X           Y           Z
 ---------------------------------------------------------------------
      1          6           0       -1.061936   -0.508271   -0.562568
      2         16           0        0.579115   -1.123602   -0.036016
      3          6           0        1.512102    0.414391   -0.068901
      4          6           0        2.955233    0.255064    0.361280
      5          6           0       -1.911079    0.048213    0.581339
      6          1           0       -1.548483   -1.359336   -1.045299
      7          1           0       -0.872220    0.257796   -1.316437
      8          8           0        1.029323    1.468163   -0.399005
      9          1           0        3.238045   -0.786646    0.514760
     10          1           0        3.100619    0.808205    1.292918
     11          1           0        3.597611    0.705461   -0.398444
     12          6           0       -3.279252    0.535417    0.092179
     13          1           0       -1.369664    0.874406    1.049375
     14          1           0       -2.040189   -0.722838    1.347467
     15          1           0       -3.173395    1.330852   -0.651201
     16          1           0       -3.870680    0.932146    0.921299
     17          1           0       -3.852471   -0.276601   -0.366111
 ---------------------------------------------------------------------

 SCF Done:  E(RHF) =  -667.708363627     A.U. after    2 cycles

 The electronic state is 1-A.
 Alpha  occ. eigenvalues --  -93.54604 -20.57226 -11.37693 -11.27030 -11.25655
 Alpha  occ. eigenvalues --  -11.23767 -11.22867  -8.84463  -6.18612  -6.18377
 Alpha  occ. eigenvalues --   -6.18095  -1.36988  -1.08012  -1.03182  -0.98410
 Alpha  occ. eigenvalues --   -0.89039  -0.81214  -0.73711  -0.67153  -0.64856
 Alpha  occ. eigenvalues --   -0.62800  -0.62185  -0.58573  -0.57169  -0.55326
 Alpha  occ. eigenvalues --   -0.53851  -0.52739  -0.49773  -0.48348  -0.45318
 Alpha  occ. eigenvalues --   -0.41465  -0.36795
 Alpha virt. eigenvalues --    0.03579   0.03990   0.04793   0.05229   0.06040
 Alpha virt. eigenvalues --    0.06311   0.06562   0.07507   0.08531   0.08854
 Alpha virt. eigenvalues --    0.10368   0.11879   0.12547   0.12858   0.13471

 Mulliken charges:
               1
     1  C    0.002433
     2  S    0.523642
     3  C   -0.275811
     4  C    0.476012
     5  C    0.018417
     6  H   -0.141233
     7  H   -0.034746
     8  O   -0.536183
     9  H   -0.069530
    10  H    0.050125
    11  H    0.027803
    12  C    0.356999
    13  H   -0.103746
    14  H   -0.085958
    15  H   -0.064377
    16  H   -0.072602
    17  H   -0.071245
 Sum of Mulliken charges =  -0.00000

 Dipole moment (field-independent basis, Debye):
    X=              0.2254    Y=             -1.4234    Z=              0.5789  Tot=              1.5531

 Test job not archived.
 1\1\GINC-SE045\SP\RHF\Aug-CC-pVDZ\C5H10O1S1\OHZDE\08-Apr-2025\0\\#t hf
  aug-cc-pvdz iop(5/13=1,5/36=2,99/5=2) pseudo=read geom=check guess=(r
 ead,tcheck) scf=(maxcycle=1)\\title\\0,1\C,0,-1.061936,-0.508271,-0.56
 2568\S,0,0.579115,-1.123602,-0.036016\C,0,1.512102,0.414391,-0.068901\
 C,0,2.955233,0.255064,0.36128\C,0,-1.911079,0.048213,0.581339\H,0,-1.5
 48483,-1.359336,-1.045299\H,0,-0.87222,0.257796,-1.316437\O,0,1.029323
 ,1.468163,-0.399005\H,0,3.238045,-0.786646,0.51476\H,0,3.100619,0.8082
 05,1.292918\H,0,3.597611,0.705461,-0.398444\C,0,-3.279252,0.535417,0.0

 Normal termination of Gaussian 16 at Tue Apr  8 22:47:21 2025.
