 Gaussian 16, Revision C.01,

 ----------------------------------------------------------------------
 #t hf aug-cc-pvdz symm=none int=(grid=ultrafine) guess=(read,tcheck) s
 table=(opt,rrhf)
 ----------------------------------------------------------------------
 -----
 title
 -----
 Symbolic Z-matrix:
 Charge =  0 Multiplicity = 1

 SCF Done:  E(RHF) =  -532.571595856     A.U. after   13 cycles

 1\1\GINC-SE162\Stability\RHF\Aug-CC-pVDZ\C6H10O4\OHZDE\08-Apr-2025\0\\
 #t hf aug-cc-pvdz symm=none int=(grid=ultrafine) guess=(read,tcheck) s
 table=(opt,rrhf)\\title\\0,1\O,0,-1.733786,0.252042,-0.000025\C,0,-0.6
 13332,-0.469815,-0.000049\O,0,-0.547286,-1.669567,0.000009\C,0,0.61333
 2,0.469815,0.00002\O,0,0.547286,1.669567,-0.000047\O,0,1.733786,-0.252
 042,0.000025\C,0,-2.974029,-0.501959,-0.000002\C,0,2.974029,0.501959,0
 .000012\C,0,4.110975,-0.497571,0.000023\H,0,2.986855,1.146037,-0.88243
 2\H,0,2.986859,1.14606,0.882439\H,0,4.068282,-1.134818,-0.885499\H,0,4

 Normal termination of Gaussian 16 at Tue Apr  8 23:01:58 2025.
 Gaussian 16:  ES64L-G16RevC.01  3-Jul-2019

 ----------------------------------------------------------------------
 #t hf aug-cc-pvdz iop(5/13=1,5/36=2,99/5=2) pseudo=read geom=check gue
 ss=(read,tcheck) scf=(maxcycle=1)
 ----------------------------------------------------------------------
 -----
 title
 -----
 Structure from the checkpoint file:  "BDE49_expt_269_mol1.chk"
 Charge =  0 Multiplicity = 1

                         Standard orientation:
 ---------------------------------------------------------------------
 Center     Atomic      Atomic             Coordinates (Angstroms)
 Number     Number       Type             X           Y           Z
 ---------------------------------------------------------------------
      1          8           0       -1.733786    0.252042   -0.000025
      2          6           0       -0.613332   -0.469815   -0.000049
      3          8           0       -0.547286   -1.669567    0.000009
      4          6           0        0.613332    0.469815    0.000020
      5          8           0        0.547286    1.669567   -0.000047
      6          8           0        1.733786   -0.252042    0.000025
      7          6           0       -2.974029   -0.501959   -0.000002
      8          6           0        2.974029    0.501959    0.000012
      9          6           0        4.110975   -0.497571    0.000023
     10          1           0        2.986855    1.146037   -0.882432
     11          1           0        2.986859    1.146060    0.882439
     12          1           0        4.068282   -1.134818   -0.885499
     13          1           0        4.068285   -1.134794    0.885563
     14          1           0        5.067440    0.031646    0.000014
     15          6           0       -4.110975    0.497571    0.000021
     16          1           0       -2.986840   -1.146050    0.882432
     17          1           0       -2.986873   -1.146047   -0.882438
     18          1           0       -4.068267    1.134805    0.885552
     19          1           0       -5.067440   -0.031646    0.000038
     20          1           0       -4.068300    1.134807   -0.885510
 ---------------------------------------------------------------------

 SCF Done:  E(RHF) =  -532.743548705     A.U. after    2 cycles

 The electronic state is 1-A.
 Alpha  occ. eigenvalues --  -20.62936 -20.62936 -20.58452 -20.58451 -11.41689
 Alpha  occ. eigenvalues --  -11.41642 -11.31037 -11.31037 -11.24105 -11.24105
 Alpha  occ. eigenvalues --   -1.45126  -1.42386  -1.35364  -1.33675  -1.05911
 Alpha  occ. eigenvalues --   -1.04539  -0.94391  -0.88224  -0.83060  -0.79625
 Alpha  occ. eigenvalues --   -0.76342  -0.71840  -0.71476  -0.69723  -0.69378
 Alpha  occ. eigenvalues --   -0.62677  -0.61768  -0.58945  -0.58553  -0.56629
 Alpha  occ. eigenvalues --   -0.55743  -0.54026  -0.53090  -0.52915  -0.52853
 Alpha  occ. eigenvalues --   -0.52415  -0.48721  -0.47954  -0.46280
 Alpha virt. eigenvalues --    0.03418   0.03768   0.04910   0.05149   0.05518
 Alpha virt. eigenvalues --    0.05535   0.05679   0.07052   0.07432   0.07793
 Alpha virt. eigenvalues --    0.08693   0.10471   0.11042   0.12261   0.12465

 Mulliken charges:
               1
     1  O   -0.477520
     2  C    0.395316
     3  O   -0.411025
     4  C    0.395316
     5  O   -0.411025
     6  O   -0.477520
     7  C    0.640617
     8  C    0.640614
     9  C    0.239805
    10  H   -0.148143
    11  H   -0.148147
    12  H   -0.035441
    13  H   -0.035441
    14  H   -0.020021
    15  C    0.239805
    16  H   -0.148146
    17  H   -0.148146
    18  H   -0.035440
    19  H   -0.020021
    20  H   -0.035441
 Sum of Mulliken charges =  -0.00000

 Dipole moment (field-independent basis, Debye):
    X=             -0.0000    Y=             -0.0000    Z=              0.0000  Tot=              0.0000

 Test job not archived.
 1\1\GINC-SE162\SP\RHF\Aug-CC-pVDZ\C6H10O4\OHZDE\08-Apr-2025\0\\#t hf a
 ug-cc-pvdz iop(5/13=1,5/36=2,99/5=2) pseudo=read geom=check guess=(rea
 d,tcheck) scf=(maxcycle=1)\\title\\0,1\O,0,-1.733786,0.252042,-0.00002
 5\C,0,-0.613332,-0.469815,-0.000049\O,0,-0.547286,-1.669567,0.000009\C
 ,0,0.613332,0.469815,0.00002\O,0,0.547286,1.669567,-0.000047\O,0,1.733
 786,-0.252042,0.000025\C,0,-2.974029,-0.501959,-0.000002\C,0,2.974029,
 0.501959,0.000012\C,0,4.110975,-0.497571,0.000023\H,0,2.986855,1.14603
 7,-0.882432\H,0,2.986859,1.14606,0.882439\H,0,4.068282,-1.134818,-0.88

 Normal termination of Gaussian 16 at Tue Apr  8 23:02:07 2025.
