 Gaussian 16, Revision C.01,

 ----------------------------------------------------------------------
 #t hf aug-cc-pvdz symm=none int=(grid=ultrafine) guess=(read,tcheck) s
 table=(opt,rrhf)
 ----------------------------------------------------------------------
 -----
 title
 -----
 Symbolic Z-matrix:
 Charge =  0 Multiplicity = 1

 SCF Done:  E(RHF) =  -977.079952083     A.U. after   10 cycles

 1\1\GINC-SE453\Stability\RHF\Aug-CC-pVDZ\F4H2Si2\OHZDE\09-Apr-2025\0\\
 #t hf aug-cc-pvdz symm=none int=(grid=ultrafine) guess=(read,tcheck) s
 table=(opt,rrhf)\\title\\0,1\Si,0,0.320995,1.137475,0.\Si,0,-0.320995,
 -1.137475,0.\F,0,0.320995,-1.835398,1.290677\F,0,-0.320995,1.835398,1.
 290677\F,0,0.320999,-1.835397,-1.290677\H,0,-1.767223,-1.412109,-0.000
 002\F,0,-0.320999,1.835397,-1.290677\H,0,1.767223,1.412109,-0.000002\\
 Version=ES64L-G16RevC.01\HF=-977.0799521\RMSD=3.747e-09\Dipole=0.,0.,0
 .0000035\Quadrupole=4.0154942,-2.1563039,-1.8591903,3.1458247,0.,0.\PG

 Normal termination of Gaussian 16 at Wed Apr  9 00:07:30 2025.
 Gaussian 16:  ES64L-G16RevC.01  3-Jul-2019

 ----------------------------------------------------------------------
 #t hf aug-cc-pvdz iop(5/13=1,5/36=2,99/5=2) pseudo=read geom=check gue
 ss=(read,tcheck) scf=(maxcycle=1)
 ----------------------------------------------------------------------
 -----
 title
 -----
 Structure from the checkpoint file:  "BDE49_nonexpt_2306_mol1.chk"
 Charge =  0 Multiplicity = 1

                         Standard orientation:
 ---------------------------------------------------------------------
 Center     Atomic      Atomic             Coordinates (Angstroms)
 Number     Number       Type             X           Y           Z
 ---------------------------------------------------------------------
      1         14           0        0.320995    1.137475    0.000000
      2         14           0       -0.320995   -1.137475    0.000000
      3          9           0        0.320995   -1.835398    1.290677
      4          9           0       -0.320995    1.835398    1.290677
      5          9           0        0.320999   -1.835397   -1.290677
      6          1           0       -1.767223   -1.412109   -0.000002
      7          9           0       -0.320999    1.835397   -1.290677
      8          1           0        1.767223    1.412109   -0.000002
 ---------------------------------------------------------------------

 SCF Done:  E(RHF) =  -977.301524462     A.U. after    2 cycles

 The electronic state is 1-A.
 Alpha  occ. eigenvalues --  -69.18412 -69.18412 -26.13813 -26.13813 -26.13812
 Alpha  occ. eigenvalues --  -26.13811  -6.92574  -6.92561  -4.03557  -4.03544
 Alpha  occ. eigenvalues --   -4.03404  -4.03402  -4.03257  -4.03189  -1.67245
 Alpha  occ. eigenvalues --   -1.67146  -1.66022  -1.65998  -0.86491  -0.84786
 Alpha  occ. eigenvalues --   -0.79437  -0.79022  -0.77194  -0.76667  -0.76318
 Alpha  occ. eigenvalues --   -0.75582  -0.74075  -0.73888  -0.72476  -0.72236
 Alpha  occ. eigenvalues --   -0.61882  -0.58110  -0.45670
 Alpha virt. eigenvalues --    0.04034   0.04489   0.04526   0.05147   0.07206
 Alpha virt. eigenvalues --    0.07484   0.07824   0.09067   0.11135   0.11668
 Alpha virt. eigenvalues --    0.12370   0.16601   0.16939   0.20201   0.20665

 Mulliken charges:
               1
     1  Si   1.504405
     2  Si   1.504405
     3  F   -0.739537
     4  F   -0.739537
     5  F   -0.739537
     6  H   -0.025330
     7  F   -0.739537
     8  H   -0.025330
 Sum of Mulliken charges =  -0.00000

 Dipole moment (field-independent basis, Debye):
    X=              0.0000    Y=              0.0000    Z=              0.0000  Tot=              0.0000

 Test job not archived.
 1\1\GINC-SE453\SP\RHF\Aug-CC-pVDZ\F4H2Si2\OHZDE\09-Apr-2025\0\\#t hf a
 ug-cc-pvdz iop(5/13=1,5/36=2,99/5=2) pseudo=read geom=check guess=(rea
 d,tcheck) scf=(maxcycle=1)\\title\\0,1\Si,0,0.320995,1.137475,0.\Si,0,
 -0.320995,-1.137475,0.\F,0,0.320995,-1.835398,1.290677\F,0,-0.320995,1
 .835398,1.290677\F,0,0.320999,-1.835397,-1.290677\H,0,-1.767223,-1.412
 109,-0.000002\F,0,-0.320999,1.835397,-1.290677\H,0,1.767223,1.412109,-
 0.000002\\Version=ES64L-G16RevC.01\State=1-A\HF=-977.3015245\RMSD=4.83
 4e-03\Dipole=0.,0.,0.0000035\Quadrupole=4.4285177,-2.3955193,-2.032998

 Normal termination of Gaussian 16 at Wed Apr  9 00:07:33 2025.
