 Gaussian 16, Revision C.01,

 ----------------------------------------------------------------------
 #t hf aug-cc-pvdz symm=none int=(grid=ultrafine) guess=(read,tcheck) s
 table=(opt,rrhf)
 ----------------------------------------------------------------------
 -----
 title
 -----
 Symbolic Z-matrix:
 Charge =  0 Multiplicity = 1

 SCF Done:  E(RHF) =  -684.784227071     A.U. after   18 cycles
 Normal termination of Gaussian 16 at Tue Apr  8 23:26:00 2025.
 Gaussian 16:  ES64L-G16RevC.01  3-Jul-2019

 ----------------------------------------------------------------------
 #t hf aug-cc-pvdz iop(5/13=1,5/36=2,99/5=2) pseudo=read geom=check gue
 ss=(read,tcheck) scf=(maxcycle=1)
 ----------------------------------------------------------------------
 -----
 title
 -----
 Structure from the checkpoint file:  "BDE49_nonexpt_1293_mol1.chk"
 Charge =  0 Multiplicity = 1

                         Standard orientation:
 ---------------------------------------------------------------------
 Center     Atomic      Atomic             Coordinates (Angstroms)
 Number     Number       Type             X           Y           Z
 ---------------------------------------------------------------------
      1          6           0       -1.961707   -1.424754   -0.051837
      2          6           0       -0.602275   -1.126150   -0.054813
      3          6           0       -0.171454    0.204158   -0.004086
      4          6           0        1.274982    0.587171   -0.018675
      5          8           0        1.629648    1.742968   -0.095619
      6         15           0        2.607255   -0.765506   -0.060505
      7          6           0       -2.899874   -0.396560    0.009808
      8          6           0       -2.478134    0.933143    0.061412
      9          6           0       -1.122677    1.232548    0.050287
     10          1           0       -0.771491    2.256506    0.081846
     11          1           0       -2.288216   -2.457204   -0.096811
     12          1           0        0.116931   -1.935242   -0.106560
     13          1           0       -3.958627   -0.630159    0.016094
     14          1           0       -3.208758    1.732626    0.107622
     15          1           0        2.183121   -1.501563    1.073769
     16          1           0        3.547870    0.016551    0.643986
 ---------------------------------------------------------------------

 SCF Done:  E(RHF) =  -684.905547343     A.U. after    2 cycles

 The electronic state is 1-A.
 Alpha  occ. eigenvalues --  -81.27196 -20.57436 -11.35957 -11.27166 -11.26836
 Alpha  occ. eigenvalues --  -11.26620 -11.26310 -11.26150 -11.25934  -7.77659
 Alpha  occ. eigenvalues --   -4.91645  -4.91623  -4.91292  -1.36494  -1.16374
 Alpha  occ. eigenvalues --   -1.04478  -1.02988  -0.89973  -0.85486  -0.82603
 Alpha  occ. eigenvalues --   -0.76112  -0.71619  -0.66467  -0.65848  -0.63275
 Alpha  occ. eigenvalues --   -0.61149  -0.59868  -0.57608  -0.53687  -0.52524
 Alpha  occ. eigenvalues --   -0.51369  -0.51346  -0.43103  -0.37185  -0.35709
 Alpha  occ. eigenvalues --   -0.35657
 Alpha virt. eigenvalues --    0.02900   0.03810   0.04266   0.05023   0.05460
 Alpha virt. eigenvalues --    0.06293   0.07272   0.07647   0.08053   0.09350
 Alpha virt. eigenvalues --    0.10261   0.10919   0.11254   0.12520   0.13531

 Mulliken charges:
               1
     1  C    0.526383
     2  C    0.382962
     3  C    0.924265
     4  C   -0.290867
     5  O   -0.522949
     6  P   -0.018416
     7  C    0.498773
     8  C    0.600541
     9  C    0.076236
    10  H   -0.584831
    11  H   -0.434271
    12  H   -0.616081
    13  H   -0.434706
    14  H   -0.424233
    15  H    0.164212
    16  H    0.152982
 Sum of Mulliken charges =  -0.00000

 Dipole moment (field-independent basis, Debye):
    X=             -2.2443    Y=             -2.6007    Z=              0.7503  Tot=              3.5162

 Test job not archived.
 1\1\GINC-SE120\SP\RHF\Aug-CC-pVDZ\C7H7O1P1\OHZDE\08-Apr-2025\0\\#t hf
 aug-cc-pvdz iop(5/13=1,5/36=2,99/5=2) pseudo=read geom=check guess=(re
 ad,tcheck) scf=(maxcycle=1)\\title\\0,1\C,0,-1.961707,-1.424754,-0.051
 837\C,0,-0.602275,-1.12615,-0.054813\C,0,-0.171454,0.204158,-0.004086\
 C,0,1.274982,0.587171,-0.018675\O,0,1.629648,1.742968,-0.095619\P,0,2.
 607255,-0.765507,-0.060505\C,0,-2.899874,-0.39656,0.009808\C,0,-2.4781
 34,0.933143,0.061412\C,0,-1.122677,1.232548,0.050287\H,0,-0.77149,2.25
 6506,0.081846\H,0,-2.288216,-2.457204,-0.096811\H,0,0.116931,-1.935242

 Normal termination of Gaussian 16 at Tue Apr  8 23:26:08 2025.
