 Gaussian 16, Revision C.01,

 ----------------------------------------------------------------------
 #t hf aug-cc-pvdz symm=none int=(grid=ultrafine) guess=(read,tcheck) s
 table=(opt,rrhf)
 ----------------------------------------------------------------------
 -----
 title
 -----
 Symbolic Z-matrix:
 Charge =  0 Multiplicity = 1

 SCF Done:  E(RHF) =  -1307.04347794     A.U. after   17 cycles
 Normal termination of Gaussian 16 at Tue Apr  8 23:46:20 2025.
 Gaussian 16:  ES64L-G16RevC.01  3-Jul-2019

 ----------------------------------------------------------------------
 #t hf aug-cc-pvdz iop(5/13=1,5/36=2,99/5=2) pseudo=read geom=check gue
 ss=(read,tcheck) scf=(maxcycle=1)
 ----------------------------------------------------------------------
 -----
 title
 -----
 Structure from the checkpoint file:  "BDE49_nonexpt_1716_mol1.chk"
 Charge =  0 Multiplicity = 1

                         Standard orientation:
 ---------------------------------------------------------------------
 Center     Atomic      Atomic             Coordinates (Angstroms)
 Number     Number       Type             X           Y           Z
 ---------------------------------------------------------------------
      1          6           0       -4.509092   -0.315456    0.095255
      2          6           0       -4.022348    0.988320   -0.004523
      3          6           0       -2.654390    1.216380   -0.061787
      4          6           0       -3.623944   -1.391198    0.139448
      5          6           0       -2.252851   -1.168768    0.080377
      6          6           0       -1.758101    0.137465   -0.024750
      7          1           0       -5.577630   -0.492525    0.140936
      8          1           0       -4.710540    1.824735   -0.037774
      9          1           0       -2.257835    2.220571   -0.137595
     10          1           0       -4.001410   -2.403244    0.224343
     11          1           0       -1.571574   -2.008727    0.130960
     12          6           0       -0.307548    0.452575   -0.093054
     13         16           0        0.792460   -0.956774   -0.385294
     14         15           0        2.736259   -0.093095   -0.012838
     15          8           0        3.746101   -1.007083   -0.536004
     16          8           0        0.105667    1.596804   -0.000025
     17          8           0        2.660004    1.363385   -0.584606
     18          1           0        1.773000    1.760934   -0.391787
     19          8           0        2.779616    0.161043    1.569373
     20          1           0        3.061296   -0.626053    2.052500
 ---------------------------------------------------------------------

 SCF Done:  E(RHF) =  -1307.30287433     A.U. after    2 cycles

 The electronic state is 1-A.
 Alpha  occ. eigenvalues --  -93.57436 -81.44685 -20.62823 -20.61346 -20.61034
 Alpha  occ. eigenvalues --  -20.53944 -11.41981 -11.28855 -11.28731 -11.28456
 Alpha  occ. eigenvalues --  -11.28276 -11.27468 -11.27366  -8.87427  -7.92822
 Alpha  occ. eigenvalues --   -6.21553  -6.21324  -6.21018  -5.07481  -5.07354
 Alpha  occ. eigenvalues --   -5.07050  -1.40942  -1.38815  -1.35386  -1.27538
 Alpha  occ. eigenvalues --   -1.18193  -1.07528  -1.04662  -1.01478  -0.90124
 Alpha  occ. eigenvalues --   -0.86493  -0.84343  -0.80668  -0.77154  -0.74366
 Alpha  occ. eigenvalues --   -0.70395  -0.69244  -0.67637  -0.66926  -0.64797
 Alpha  occ. eigenvalues --   -0.64190  -0.62749  -0.62086  -0.60750  -0.60134
 Alpha  occ. eigenvalues --   -0.57433  -0.55400  -0.53400  -0.53293  -0.52515
 Alpha  occ. eigenvalues --   -0.50540  -0.46497  -0.45576  -0.41610  -0.37607
 Alpha  occ. eigenvalues --   -0.37221
 Alpha virt. eigenvalues --    0.02368   0.02821   0.03377   0.03610   0.04790
 Alpha virt. eigenvalues --    0.05675   0.06609   0.07591   0.08175   0.08762
 Alpha virt. eigenvalues --    0.09306   0.10314   0.10536   0.11445   0.11656

 Mulliken charges:
               1
     1  C    0.499285
     2  C    0.602120
     3  C   -0.007955
     4  C    0.402569
     5  C    0.395373
     6  C    1.492187
     7  H   -0.423116
     8  H   -0.417599
     9  H   -0.618981
    10  H   -0.436827
    11  H   -0.505447
    12  C   -0.612829
    13  S   -0.114787
    14  P    2.122474
    15  O   -0.845175
    16  O   -0.609891
    17  O   -0.722296
    18  H    0.316559
    19  O   -0.673038
    20  H    0.157375
 Sum of Mulliken charges =  -0.00000

 Dipole moment (field-independent basis, Debye):
    X=             -6.9275    Y=             -1.0147    Z=              2.2630  Tot=              7.3581

 Test job not archived.
 1\1\GINC-SE036\SP\RHF\Aug-CC-pVDZ\C7H7O4P1S1\OHZDE\08-Apr-2025\0\\#t h
 f aug-cc-pvdz iop(5/13=1,5/36=2,99/5=2) pseudo=read geom=check guess=(
 read,tcheck) scf=(maxcycle=1)\\title\\0,1\C,0,-4.509092,-0.315456,0.09
 5255\C,0,-4.022348,0.98832,-0.004523\C,0,-2.65439,1.21638,-0.061787\C,
 0,-3.623944,-1.391198,0.139448\C,0,-2.252851,-1.168768,0.080377\C,0,-1
 .758101,0.137465,-0.02475\H,0,-5.57763,-0.492525,0.140936\H,0,-4.71054
 ,1.824735,-0.037774\H,0,-2.257835,2.220571,-0.137595\H,0,-4.00141,-2.4
 03244,0.224343\H,0,-1.571574,-2.008727,0.13096\C,0,-0.307548,0.452575,

 Normal termination of Gaussian 16 at Tue Apr  8 23:46:36 2025.
