 Gaussian 16, Revision C.01,

 ----------------------------------------------------------------------
 #t hf aug-cc-pvdz symm=none int=(grid=ultrafine) guess=(read,tcheck) s
 table=(opt,rrhf)
 ----------------------------------------------------------------------
 -----
 title
 -----
 Symbolic Z-matrix:
 Charge =  0 Multiplicity = 1

 SCF Done:  E(RHF) =  -1103.85295552     A.U. after   16 cycles
 Normal termination of Gaussian 16 at Tue Apr  8 22:58:25 2025.
 Gaussian 16:  ES64L-G16RevC.01  3-Jul-2019

 ----------------------------------------------------------------------
 #t hf aug-cc-pvdz iop(5/13=1,5/36=2,99/5=2) pseudo=read geom=check gue
 ss=(read,tcheck) scf=(maxcycle=1)
 ----------------------------------------------------------------------
 -----
 title
 -----
 Structure from the checkpoint file:  "BDE49_expt_1896_mol1.chk"
 Charge =  0 Multiplicity = 1

                         Standard orientation:
 ---------------------------------------------------------------------
 Center     Atomic      Atomic             Coordinates (Angstroms)
 Number     Number       Type             X           Y           Z
 ---------------------------------------------------------------------
      1          6           0       -0.701621    0.494764    0.417406
      2          8           0       -0.209495    1.584873    0.409421
      3          8           0        0.016687   -0.661001    0.711759
      4          8           0        1.360596   -0.342790    1.089388
      5          6           0        2.179889   -0.187188   -0.013602
      6          8           0        1.860767   -0.356723   -1.142382
      7          6           0       -2.116570    0.149409    0.127672
      8          6           0       -2.608861   -1.160959    0.172375
      9          6           0       -3.948569   -1.402515   -0.111279
     10          6           0       -4.797532   -0.345990   -0.437879
     11          6           0       -4.307749    0.959035   -0.482842
     12          6           0       -2.970550    1.208548   -0.201457
     13          1           0       -2.568174    2.213179   -0.231858
     14          1           0       -1.948743   -1.980276    0.423320
     15          1           0       -4.330486   -2.416077   -0.078428
     16          1           0       -5.841112   -0.540005   -0.658491
     17          1           0       -4.967794    1.779712   -0.738037
     18          6           0        3.517461    0.277559    0.542530
     19         17           0        4.868470   -0.117315   -0.559161
     20          1           0        3.713369   -0.174253    1.512083
     21          1           0        3.475121    1.361225    0.654124
 ---------------------------------------------------------------------

 SCF Done:  E(RHF) =  -1104.06823570     A.U. after    2 cycles

 The electronic state is 1-A.
 Alpha  occ. eigenvalues -- -103.67076 -20.70697 -20.70338 -20.59747 -20.58895
 Alpha  occ. eigenvalues --  -11.43139 -11.42533 -11.34047 -11.28065 -11.27729
 Alpha  occ. eigenvalues --  -11.27520 -11.27403 -11.26600 -11.26529 -10.70326
 Alpha  occ. eigenvalues --   -8.36058  -8.35740  -8.35732  -1.51868  -1.41349
 Alpha  occ. eigenvalues --   -1.38280  -1.28317  -1.18448  -1.17140  -1.05609
 Alpha  occ. eigenvalues --   -1.03678  -1.00064  -0.90896  -0.86129  -0.84290
 Alpha  occ. eigenvalues --   -0.80542  -0.77276  -0.75273  -0.73328  -0.71677
 Alpha  occ. eigenvalues --   -0.68359  -0.67865  -0.65717  -0.65314  -0.63824
 Alpha  occ. eigenvalues --   -0.62206  -0.61765  -0.61170  -0.57279  -0.54718
 Alpha  occ. eigenvalues --   -0.54320  -0.53656  -0.52242  -0.52192  -0.50708
 Alpha  occ. eigenvalues --   -0.49364  -0.46704  -0.46475  -0.37017  -0.36340
 Alpha virt. eigenvalues --    0.02805   0.03753   0.03912   0.04938   0.05311
 Alpha virt. eigenvalues --    0.05392   0.06670   0.06776   0.07646   0.09097
 Alpha virt. eigenvalues --    0.09300   0.10133   0.10796   0.11615   0.12266

 Mulliken charges:
               1
     1  C   -0.091203
     2  O   -0.385680
     3  O   -0.425251
     4  O   -0.344982
     5  C    0.481331
     6  O   -0.333336
     7  C    1.685251
     8  C    0.115475
     9  C    0.538950
    10  C    0.465417
    11  C    0.645792
    12  C   -0.058167
    13  H   -0.593540
    14  H   -0.616850
    15  H   -0.438200
    16  H   -0.431573
    17  H   -0.416857
    18  C   -0.012727
    19  Cl  -0.035108
    20  H    0.079057
    21  H    0.172204
 Sum of Mulliken charges =   0.00000

 Dipole moment (field-independent basis, Debye):
    X=             -3.3167    Y=             -0.5399    Z=              2.0896  Tot=              3.9570

 Test job not archived.
 1\1\GINC-SE336\SP\RHF\Aug-CC-pVDZ\C9H7Cl1O4\OHZDE\08-Apr-2025\0\\#t hf
  aug-cc-pvdz iop(5/13=1,5/36=2,99/5=2) pseudo=read geom=check guess=(r
 ead,tcheck) scf=(maxcycle=1)\\title\\0,1\C,0,-0.701621,0.494764,0.4174
 06\O,0,-0.209495,1.584873,0.409421\O,0,0.016687,-0.661001,0.711759\O,0
 ,1.360596,-0.34279,1.089388\C,0,2.179889,-0.187188,-0.013602\O,0,1.860
 767,-0.356723,-1.142382\C,0,-2.11657,0.149409,0.127672\C,0,-2.608861,-
 1.160959,0.172375\C,0,-3.948569,-1.402515,-0.111279\C,0,-4.797532,-0.3
 4599,-0.437879\C,0,-4.307749,0.959035,-0.482842\C,0,-2.97055,1.208548,

 Normal termination of Gaussian 16 at Tue Apr  8 22:58:41 2025.
