 Gaussian 16, Revision C.01,

 ----------------------------------------------------------------------
 #t hf aug-cc-pvdz symm=none int=(grid=ultrafine) guess=(read,tcheck) s
 table=opt
 ----------------------------------------------------------------------
 -----
 title
 -----
 Symbolic Z-matrix:
 Charge =  0 Multiplicity = 2

 SCF Done:  E(UHF) =  -611.427773193     A.U. after   16 cycles
 Normal termination of Gaussian 16 at Wed Apr  9 00:12:01 2025.
 Gaussian 16:  ES64L-G16RevC.01  3-Jul-2019

 ----------------------------------------------------------------------
 #t hf aug-cc-pvdz iop(5/13=1,5/36=2,99/5=2) pseudo=read geom=check gue
 ss=(read,tcheck) scf=(maxcycle=1)
 ----------------------------------------------------------------------
 -----
 title
 -----
 Structure from the checkpoint file:  "BDE49_nonexpt_2413_mol2.chk"
 Charge =  0 Multiplicity = 2

                         Standard orientation:
 ---------------------------------------------------------------------
 Center     Atomic      Atomic             Coordinates (Angstroms)
 Number     Number       Type             X           Y           Z
 ---------------------------------------------------------------------
      1         14           0       -2.477232    0.076788   -0.049022
      2          8           0       -0.857070    0.588757   -0.044080
      3          1           0       -2.782219   -0.684463    1.187787
      4          1           0       -3.203778    1.372088   -0.063745
      5          6           0        0.109680   -0.372438   -0.032813
      6          8           0       -0.178528   -1.556483   -0.052199
      7          7           0        1.369488    0.132535   -0.001531
      8          6           0        1.679781    1.554244    0.037306
      9          1           0        0.762978    2.133833    0.010224
     10          1           0        2.303076    1.827960   -0.821137
     11          1           0        2.230976    1.798001    0.952596
     12          6           0        2.496524   -0.788287    0.017811
     13          1           0        2.119081   -1.806496   -0.021891
     14          1           0        3.084254   -0.654762    0.932654
     15          1           0        3.149329   -0.608243   -0.843048
 ---------------------------------------------------------------------

 SCF Done:  E(UHF) =  -611.559305618     A.U. after    2 cycles

 The electronic state is 2-A.
 Alpha  occ. eigenvalues --  -69.11166 -20.60525 -20.54201 -15.66058 -11.42271
 Alpha  occ. eigenvalues --  -11.27944 -11.27302  -6.85973  -3.97216  -3.96493
 Alpha  occ. eigenvalues --   -3.96333  -1.41323  -1.30692  -1.22345  -0.97701
 Alpha  occ. eigenvalues --   -0.95115  -0.80929  -0.73005  -0.71137  -0.68462
 Alpha  occ. eigenvalues --   -0.65970  -0.62139  -0.61239  -0.58093  -0.56680
 Alpha  occ. eigenvalues --   -0.56606  -0.54031  -0.51529  -0.48454  -0.47357
 Alpha  occ. eigenvalues --   -0.38845  -0.33692
 Alpha virt. eigenvalues --    0.03114   0.04286   0.04598   0.04834   0.05942
 Alpha virt. eigenvalues --    0.06970   0.07221   0.07919   0.08185   0.09074
 Alpha virt. eigenvalues --    0.10099   0.11478   0.12300   0.13215   0.14294

  Beta  occ. eigenvalues --  -69.10586 -20.60275 -20.54201 -15.66040 -11.42271
  Beta  occ. eigenvalues --  -11.27944 -11.27304  -6.85058  -3.96123  -3.95961
  Beta  occ. eigenvalues --   -3.95109  -1.40992  -1.30358  -1.22285  -0.97689
  Beta  occ. eigenvalues --   -0.95016  -0.80296  -0.72883  -0.70360  -0.68070
  Beta  occ. eigenvalues --   -0.63702  -0.61442  -0.60885  -0.57457  -0.56608
  Beta  occ. eigenvalues --   -0.55974  -0.53882  -0.50870  -0.47193  -0.47060
  Beta  occ. eigenvalues --   -0.38605
  Beta virt. eigenvalues --    0.03126   0.03504   0.04356   0.04843   0.05139
  Beta virt. eigenvalues --    0.06122   0.07065   0.07689   0.08265   0.08902
  Beta virt. eigenvalues --    0.09992   0.10328   0.11782   0.12381   0.13703

 Mulliken charges and spin densities:
               1          2
     1  Si   0.258079   0.998002
     2  O   -0.660716  -0.077229
     3  H    0.043044   0.054491
     4  H    0.024651   0.035073
     5  C    0.342742   0.022775
     6  O   -0.440291  -0.011608
     7  N   -0.347656  -0.012753
     8  C    0.843698  -0.001826
     9  H   -0.257441  -0.002723
    10  H   -0.113927  -0.000373
    11  H   -0.103026   0.000696
    12  C    0.814591  -0.004612
    13  H   -0.233215  -0.000369
    14  H   -0.083541   0.000016
    15  H   -0.086993   0.000440
 Sum of Mulliken charges =  -0.00000   1.00000

 Dipole moment (field-independent basis, Debye):
    X=              1.8753    Y=              2.4235    Z=              0.0632  Tot=              3.0650
                          Isotropic Fermi Contact Couplings
        Atom                 a.u.       MegaHertz       Gauss      10(-4) cm-1
     1  Si(29)             0.69009    -613.30432    -218.84223    -204.57630
     2  O(17)              0.02645     -16.03362      -5.72119      -5.34824
     3  H(1)               0.01403      62.72027      22.38015      20.92123
     4  H(1)               0.01357      60.66060      21.64521      20.23420
     5  C(13)             -0.00117      -1.31551      -0.46941      -0.43881
     6  O(17)              0.00222      -1.34634      -0.48041      -0.44909
     7  N(14)              0.00230       0.74255       0.26496       0.24769
     8  C(13)             -0.00025      -0.28563      -0.10192      -0.09528

 1\1\GINC-SE096\SP\UHF\Aug-CC-pVDZ\C3H8N1O2Si1(2)\OHZDE\09-Apr-2025\0\\
 #t hf aug-cc-pvdz iop(5/13=1,5/36=2,99/5=2) pseudo=read geom=check gue
 ss=(read,tcheck) scf=(maxcycle=1)\\title\\0,2\Si,0,-2.477232,0.076788,
 -0.049022\O,0,-0.85707,0.588757,-0.04408\H,0,-2.782219,-0.684463,1.187
 787\H,0,-3.203778,1.372088,-0.063745\C,0,0.10968,-0.372438,-0.032813\O
 ,0,-0.178528,-1.556483,-0.052199\N,0,1.369488,0.132535,-0.001531\C,0,1
 .679781,1.554244,0.037306\H,0,0.762978,2.133833,0.010224\H,0,2.303076,
 1.82796,-0.821137\H,0,2.230976,1.798001,0.952596\C,0,2.496524,-0.78828

 Normal termination of Gaussian 16 at Wed Apr  9 00:12:07 2025.
