 Gaussian 16, Revision C.01,

 ----------------------------------------------------------------------
 #t hf aug-cc-pvdz symm=none int=(grid=ultrafine) guess=(read,tcheck) s
 table=(opt,rrhf)
 ----------------------------------------------------------------------
 -----
 title
 -----
 Symbolic Z-matrix:
 Charge =  0 Multiplicity = 1

 SCF Done:  E(RHF) =  -1375.28023729     A.U. after   13 cycles
 Normal termination of Gaussian 16 at Wed Apr  9 00:48:02 2025.
 Gaussian 16:  ES64L-G16RevC.01  3-Jul-2019

 ----------------------------------------------------------------------
 #t hf aug-cc-pvdz iop(5/13=1,5/36=2,99/5=2) pseudo=read geom=check gue
 ss=(read,tcheck) scf=(maxcycle=1)
 ----------------------------------------------------------------------
 -----
 title
 -----
 Structure from the checkpoint file:  "BDE49_nonexpt_866_mol1.chk"
 Charge =  0 Multiplicity = 1

                         Standard orientation:
 ---------------------------------------------------------------------
 Center     Atomic      Atomic             Coordinates (Angstroms)
 Number     Number       Type             X           Y           Z
 ---------------------------------------------------------------------
      1         16           0       -0.568566   -1.397887   -0.258800
      2          5           0       -1.612314    0.055963   -0.026988
      3         16           0       -1.022967    1.739634   -0.408929
      4          6           0        1.065772   -0.772368   -0.849126
      5          6           0        2.021071   -0.375650    0.276669
      6          1           0        0.890582    0.052452   -1.542394
      7          6           0        3.388620    0.076449   -0.254119
      8          1           0        2.150904   -1.226426    0.954196
      9          1           0        1.574008    0.428202    0.870026
     10          6           0        4.358720    0.468465    0.864176
     11          1           0        3.251044    0.926182   -0.933120
     12          1           0        3.829291   -0.727935   -0.855337
     13          1           0        3.959931    1.293682    1.461638
     14          1           0        5.322776    0.786714    0.459011
     15          1           0        4.542925   -0.371662    1.540602
     16          1           0        1.475339   -1.601927   -1.430174
     17         16           0       -3.313899   -0.161395    0.591661
     18          1           0       -2.159093    2.394856   -0.113297
     19          1           0       -3.294309   -1.500961    0.715267
 ---------------------------------------------------------------------

 SCF Done:  E(RHF) =  -1375.39163207     A.U. after    2 cycles

 The electronic state is 1-A.
 Alpha  occ. eigenvalues --  -93.54585 -93.54246 -93.53444 -11.27945 -11.24128
 Alpha  occ. eigenvalues --  -11.23826 -11.22910  -8.84545  -8.84193  -8.83401
 Alpha  occ. eigenvalues --   -7.69540  -6.18741  -6.18494  -6.18384  -6.18228
 Alpha  occ. eigenvalues --   -6.18136  -6.17881  -6.17576  -6.17330  -6.17114
 Alpha  occ. eigenvalues --   -1.08762  -1.02889  -0.99461  -0.95101  -0.92742
 Alpha  occ. eigenvalues --   -0.84094  -0.80397  -0.66989  -0.63935  -0.60464
 Alpha  occ. eigenvalues --   -0.60290  -0.57592  -0.57300  -0.53912  -0.52051
 Alpha  occ. eigenvalues --   -0.50518  -0.48731  -0.47955  -0.46969  -0.44545
 Alpha  occ. eigenvalues --   -0.44307  -0.42313  -0.37279  -0.35680
 Alpha virt. eigenvalues --    0.03516   0.04312   0.04458   0.04711   0.05643
 Alpha virt. eigenvalues --    0.05949   0.06634   0.06926   0.07399   0.08083
 Alpha virt. eigenvalues --    0.08665   0.08892   0.09825   0.10134   0.10687

 Mulliken charges:
               1
     1  S    0.239558
     2  B    0.690772
     3  S   -0.178198
     4  C    0.087387
     5  C   -0.002834
     6  H   -0.218951
     7  C    0.178398
     8  H   -0.125289
     9  H   -0.190166
    10  C    0.465007
    11  H   -0.136987
    12  H   -0.141899
    13  H   -0.081529
    14  H   -0.060043
    15  H   -0.072509
    16  H   -0.113740
    17  S   -0.299381
    18  H   -0.041341
    19  H    0.001744
 Sum of Mulliken charges =  -0.00000

 Dipole moment (field-independent basis, Debye):
    X=              1.5089    Y=              0.0518    Z=             -0.2493  Tot=              1.5302

 Test job not archived.
 1\1\GINC-SE222\SP\RHF\Aug-CC-pVDZ\C4H11B1S3\OHZDE\09-Apr-2025\0\\#t hf
  aug-cc-pvdz iop(5/13=1,5/36=2,99/5=2) pseudo=read geom=check guess=(r
 ead,tcheck) scf=(maxcycle=1)\\title\\0,1\S,0,-0.568566,-1.397887,-0.25
 88\B,0,-1.612314,0.055963,-0.026988\S,0,-1.022967,1.739634,-0.408929\C
 ,0,1.065772,-0.772368,-0.849126\C,0,2.021071,-0.37565,0.276669\H,0,0.8
 90582,0.052452,-1.542394\C,0,3.38862,0.076449,-0.254119\H,0,2.150904,-
 1.226426,0.954196\H,0,1.574008,0.428202,0.870026\C,0,4.35872,0.468465,
 0.864176\H,0,3.251044,0.926182,-0.93312\H,0,3.829291,-0.727935,-0.8553

 Normal termination of Gaussian 16 at Wed Apr  9 00:48:12 2025.
