 Gaussian 16, Revision C.01,

 ----------------------------------------------------------------------
 #t hf aug-cc-pvdz symm=none int=(grid=ultrafine) guess=(read,tcheck) s
 table=(opt,rrhf)
 ----------------------------------------------------------------------
 -----
 title
 -----
 Symbolic Z-matrix:
 Charge =  0 Multiplicity = 1

 SCF Done:  E(RHF) =  -795.948727369     A.U. after   18 cycles
 Normal termination of Gaussian 16 at Tue Apr  8 22:54:03 2025.
 Gaussian 16:  ES64L-G16RevC.01  3-Jul-2019

 ----------------------------------------------------------------------
 #t hf aug-cc-pvdz iop(5/13=1,5/36=2,99/5=2) pseudo=read geom=check gue
 ss=(read,tcheck) scf=(maxcycle=1)
 ----------------------------------------------------------------------
 -----
 title
 -----
 Structure from the checkpoint file:  "BDE49_expt_1829_mol1.chk"
 Charge =  0 Multiplicity = 1

                         Standard orientation:
 ---------------------------------------------------------------------
 Center     Atomic      Atomic             Coordinates (Angstroms)
 Number     Number       Type             X           Y           Z
 ---------------------------------------------------------------------
      1          7           0       -2.911035    0.000016    0.885260
      2          8           0       -2.136779   -0.000371    1.754075
      3         16           0       -2.170237    0.000118   -0.917284
      4          6           0       -0.441453    0.000074   -0.564212
      5          6           0        0.249274   -1.207151   -0.397667
      6          6           0        1.604502   -1.200561   -0.089562
      7          6           0        2.305444    0.000003    0.071319
      8          6           0        1.604491    1.200609   -0.089222
      9          6           0        0.249263    1.207255   -0.397325
     10          1           0       -0.278931   -2.144958   -0.520256
     11          1           0        2.127322   -2.144217    0.027757
     12          6           0        3.769220   -0.000055    0.435783
     13          1           0       -0.278952    2.145097   -0.519608
     14          1           0        4.277469    0.884888    0.046704
     15          1           0        4.277620   -0.884522    0.045813
     16          1           0        3.899011   -0.000598    1.523642
     17          1           0        2.127288    2.144241    0.028391
 ---------------------------------------------------------------------

 SCF Done:  E(RHF) =  -796.086793831     A.U. after    2 cycles

 The electronic state is 1-A.
 Alpha  occ. eigenvalues --  -93.56166 -20.68756 -15.82643 -11.27865 -11.27058
 Alpha  occ. eigenvalues --  -11.26380 -11.26374 -11.25215 -11.25211 -11.24687
 Alpha  occ. eigenvalues --   -8.85704  -6.19815  -6.19590  -6.19285  -1.53588
 Alpha  occ. eigenvalues --   -1.16413  -1.07323  -1.02438  -1.00125  -0.94199
 Alpha  occ. eigenvalues --   -0.87235  -0.84653  -0.79892  -0.72218  -0.70654
 Alpha  occ. eigenvalues --   -0.66644  -0.66538  -0.65151  -0.63605  -0.60415
 Alpha  occ. eigenvalues --   -0.59038  -0.55745  -0.54548  -0.51200  -0.50632
 Alpha  occ. eigenvalues --   -0.47911  -0.39577  -0.37614  -0.35375  -0.33219
 Alpha virt. eigenvalues --    0.03151   0.03948   0.04357   0.05226   0.05807
 Alpha virt. eigenvalues --    0.06241   0.06658   0.07508   0.08397   0.08829
 Alpha virt. eigenvalues --    0.09375   0.09693   0.10009   0.12922   0.13166

 Mulliken charges:
               1
     1  N   -0.078603
     2  O   -0.309410
     3  S    0.349511
     4  C    0.713179
     5  C   -0.085529
     6  C    0.865996
     7  C   -0.494910
     8  C    0.866040
     9  C   -0.085600
    10  H   -0.493240
    11  H   -0.586664
    12  C    0.448164
    13  H   -0.493230
    14  H   -0.065121
    15  H   -0.064902
    16  H    0.100971
    17  H   -0.586653
 Sum of Mulliken charges =  -0.00000

 Dipole moment (field-independent basis, Debye):
    X=              2.7030    Y=              0.0000    Z=             -0.1981  Tot=              2.7102

 Test job not archived.
 1\1\GINC-SE218\SP\RHF\Aug-CC-pVDZ\C7H7N1O1S1\OHZDE\08-Apr-2025\0\\#t h
 f aug-cc-pvdz iop(5/13=1,5/36=2,99/5=2) pseudo=read geom=check guess=(
 read,tcheck) scf=(maxcycle=1)\\title\\0,1\N,0,-2.911035,0.000016,0.885
 26\O,0,-2.136779,-0.000371,1.754075\S,0,-2.170237,0.000118,-0.917284\C
 ,0,-0.441453,0.000074,-0.564212\C,0,0.249274,-1.207151,-0.397667\C,0,1
 .604502,-1.200561,-0.089562\C,0,2.305444,0.000003,0.071319\C,0,1.60449
 1,1.200609,-0.089222\C,0,0.249263,1.207255,-0.397325\H,0,-0.278931,-2.
 144958,-0.520256\H,0,2.127322,-2.144217,0.027757\C,0,3.76922,-0.000055

 Normal termination of Gaussian 16 at Tue Apr  8 22:54:12 2025.
