 Gaussian 16, Revision C.01,

 ----------------------------------------------------------------------
 #t hf aug-cc-pvdz symm=none int=(grid=ultrafine) guess=(read,tcheck) s
 table=(opt,rrhf)
 ----------------------------------------------------------------------
 -----
 title
 -----
 Symbolic Z-matrix:
 Charge =  0 Multiplicity = 1

 SCF Done:  E(RHF) =  -884.843990345     A.U. after   16 cycles
 Normal termination of Gaussian 16 at Tue Apr  8 22:52:36 2025.
 Gaussian 16:  ES64L-G16RevC.01  3-Jul-2019

 ----------------------------------------------------------------------
 #t hf aug-cc-pvdz iop(5/13=1,5/36=2,99/5=2) pseudo=read geom=check gue
 ss=(read,tcheck) scf=(maxcycle=1)
 ----------------------------------------------------------------------
 -----
 title
 -----
 Structure from the checkpoint file:  "BDE49_expt_1694_mol1.chk"
 Charge =  0 Multiplicity = 1

                         Standard orientation:
 ---------------------------------------------------------------------
 Center     Atomic      Atomic             Coordinates (Angstroms)
 Number     Number       Type             X           Y           Z
 ---------------------------------------------------------------------
      1          6           0       -0.927677    1.233012   -0.408482
      2          6           0        0.447453    1.231102   -0.184138
      3          6           0        1.170257    0.036651   -0.095650
      4          6           0        0.450112   -1.159458   -0.244176
      5          6           0       -0.919661   -1.161807   -0.468042
      6          6           0       -1.631913    0.038618   -0.554466
      7          1           0       -1.456946    2.178677   -0.467357
      8          1           0        0.951595    2.182479   -0.079373
      9          6           0       -3.105667    0.040431   -0.801565
     10          1           0       -1.444405   -2.105856   -0.573785
     11          1           0       -3.440779    0.953226   -1.288504
     12         17           0       -4.078264   -0.045588    0.761804
     13          1           0       -3.429157   -0.823719   -1.377315
     14          1           0        0.966094   -2.110806   -0.185752
     15          6           0        2.688077   -0.006757    0.152029
     16          6           0        3.299476    1.399484    0.289073
     17          1           0        3.159751    1.994659   -0.617442
     18          1           0        4.375122    1.315182    0.464804
     19          1           0        2.870500    1.949655    1.130883
     20          6           0        3.381813   -0.720544   -1.031647
     21          1           0        3.199140   -0.188821   -1.969414
     22          1           0        3.025266   -1.745771   -1.153765
     23          1           0        4.463076   -0.760810   -0.868429
     24          6           0        2.971959   -0.784971    1.458051
     25          1           0        2.493979   -0.299601    2.313129
     26          1           0        4.048857   -0.826224    1.647749
     27          1           0        2.603011   -1.811840    1.407984
 ---------------------------------------------------------------------

 SCF Done:  E(RHF) =  -884.988127547     A.U. after    2 cycles

 The electronic state is 1-A.
 Alpha  occ. eigenvalues -- -103.64167 -11.31053 -11.25899 -11.25670 -11.25561
 Alpha  occ. eigenvalues --  -11.25130 -11.25106 -11.24542 -11.24480 -11.22876
 Alpha  occ. eigenvalues --  -11.22867 -11.22800 -10.67402  -8.33114  -8.32833
 Alpha  occ. eigenvalues --   -8.32827  -1.16788  -1.14078  -1.09495  -1.01985
 Alpha  occ. eigenvalues --   -1.01618  -0.93526  -0.93300  -0.92014  -0.83562
 Alpha  occ. eigenvalues --   -0.82153  -0.75903  -0.69200  -0.66763  -0.64108
 Alpha  occ. eigenvalues --   -0.62253  -0.60859  -0.60373  -0.59726  -0.58224
 Alpha  occ. eigenvalues --   -0.56981  -0.55358  -0.54162  -0.53457  -0.52210
 Alpha  occ. eigenvalues --   -0.50808  -0.49768  -0.47214  -0.47093  -0.46186
 Alpha  occ. eigenvalues --   -0.44191  -0.44086  -0.34557  -0.33126
 Alpha virt. eigenvalues --    0.03146   0.03615   0.03888   0.04751   0.05083
 Alpha virt. eigenvalues --    0.05316   0.06315   0.06765   0.06980   0.07169
 Alpha virt. eigenvalues --    0.07498   0.08243   0.09106   0.09176   0.09797

 Mulliken charges:
               1
     1  C   -0.132168
     2  C    0.827723
     3  C    0.942063
     4  C    0.345887
     5  C   -0.045774
     6  C    1.130980
     7  H   -0.603729
     8  H   -0.793669
     9  C    0.984587
    10  H   -0.608591
    11  H   -0.209462
    12  Cl  -0.184642
    13  H   -0.189073
    14  H   -0.759344
    15  C   -3.499995
    16  C    1.253635
    17  H    0.012040
    18  H   -0.093996
    19  H    0.014179
    20  C    1.025815
    21  H   -0.044717
    22  H   -0.102011
    23  H   -0.066945
    24  C    1.012051
    25  H   -0.038512
    26  H   -0.069627
    27  H   -0.106702
 Sum of Mulliken charges =   0.00000

 Dipole moment (field-independent basis, Debye):
    X=              2.4145    Y=              0.0848    Z=             -1.7316  Tot=              2.9724

 Test job not archived.
 1\1\GINC-SE424\SP\RHF\Aug-CC-pVDZ\C11H15Cl1\OHZDE\08-Apr-2025\0\\#t hf
  aug-cc-pvdz iop(5/13=1,5/36=2,99/5=2) pseudo=read geom=check guess=(r
 ead,tcheck) scf=(maxcycle=1)\\title\\0,1\C,0,-0.927677,1.233012,-0.408
 482\C,0,0.447453,1.231102,-0.184138\C,0,1.170257,0.036651,-0.09565\C,0
 ,0.450112,-1.159458,-0.244176\C,0,-0.919661,-1.161807,-0.468042\C,0,-1
 .631913,0.038618,-0.554466\H,0,-1.456946,2.178677,-0.467357\H,0,0.9515
 95,2.182479,-0.079373\C,0,-3.105667,0.040431,-0.801565\H,0,-1.444405,-
 2.105856,-0.573785\H,0,-3.440779,0.953226,-1.288504\Cl,0,-4.078264,-0.

 Normal termination of Gaussian 16 at Tue Apr  8 22:52:59 2025.
