 Gaussian 16, Revision C.01,

 ----------------------------------------------------------------------
 #t hf aug-cc-pvdz symm=none int=(grid=ultrafine) guess=(read,tcheck) s
 table=(opt,rrhf)
 ----------------------------------------------------------------------
 -----
 title
 -----
 Symbolic Z-matrix:
 Charge =  0 Multiplicity = 1

 SCF Done:  E(RHF) =  -812.882192345     A.U. after   16 cycles
 Normal termination of Gaussian 16 at Wed Apr  9 00:30:29 2025.
 Gaussian 16:  ES64L-G16RevC.01  3-Jul-2019

 ----------------------------------------------------------------------
 #t hf aug-cc-pvdz iop(5/13=1,5/36=2,99/5=2) pseudo=read geom=check gue
 ss=(read,tcheck) scf=(maxcycle=1)
 ----------------------------------------------------------------------
 -----
 title
 -----
 Structure from the checkpoint file:  "BDE49_nonexpt_322_mol1.chk"
 Charge =  0 Multiplicity = 1

                         Standard orientation:
 ---------------------------------------------------------------------
 Center     Atomic      Atomic             Coordinates (Angstroms)
 Number     Number       Type             X           Y           Z
 ---------------------------------------------------------------------
      1          6           0       -0.846778   -1.129782    0.000122
      2          6           0       -1.480113    0.103046    0.000062
      3          6           0        0.537928   -1.253312    0.000103
      4          6           0        1.349607   -0.113816    0.000028
      5          6           0        0.721323    1.140881   -0.000025
      6          6           0       -0.664480    1.225802   -0.000012
      7          1           0       -2.556632    0.186235    0.000075
      8          7           0       -1.309024    2.565354   -0.000076
      9          8           0       -2.530072    2.598947    0.000092
     10          8           0       -0.574578    3.540765   -0.000005
     11          1           0        1.308894    2.048654   -0.000077
     12          5           0        2.925439   -0.192219    0.000009
     13          7           0       -1.679497   -2.358393    0.000208
     14          1           0        0.946432   -2.256239    0.000161
     15          8           0       -2.891576   -2.216503   -0.000223
     16          8           0       -1.093716   -3.432192   -0.000203
     17          8           0        3.640179   -1.354628   -0.000093
     18          8           0        3.600386    0.987906    0.000098
     19          1           0        4.556265    0.868682    0.000068
     20          1           0        3.127584   -2.166243   -0.000201
 ---------------------------------------------------------------------

 SCF Done:  E(RHF) =  -813.129867443     A.U. after    2 cycles

 The electronic state is 1-A.
 Alpha  occ. eigenvalues --  -20.64234 -20.64082 -20.63771 -20.63741 -20.61737
 Alpha  occ. eigenvalues --  -20.60808 -15.94523 -15.94111 -11.35142 -11.34951
 Alpha  occ. eigenvalues --  -11.32856 -11.32578 -11.31953 -11.28518  -7.69738
 Alpha  occ. eigenvalues --   -1.57493  -1.57111  -1.39123  -1.38752  -1.37779
 Alpha  occ. eigenvalues --   -1.34025  -1.23126  -1.13289  -1.09607  -0.99269
 Alpha  occ. eigenvalues --   -0.97997  -0.88766  -0.85127  -0.82958  -0.81425
 Alpha  occ. eigenvalues --   -0.78387  -0.77409  -0.75996  -0.75551  -0.75234
 Alpha  occ. eigenvalues --   -0.74673  -0.73896  -0.70168  -0.67537  -0.62631
 Alpha  occ. eigenvalues --   -0.61985  -0.61688  -0.59428  -0.57132  -0.56308
 Alpha  occ. eigenvalues --   -0.55373  -0.53998  -0.53637  -0.52882  -0.52328
 Alpha  occ. eigenvalues --   -0.49756  -0.49307  -0.41794  -0.40831
 Alpha virt. eigenvalues --    0.00382   0.01594   0.02064   0.03827   0.04372
 Alpha virt. eigenvalues --    0.04391   0.05546   0.06645   0.06951   0.07145
 Alpha virt. eigenvalues --    0.08616   0.09610   0.11117   0.11138   0.11626

 Mulliken charges:
               1
     1  C    1.187123
     2  C    0.397642
     3  C    0.501329
     4  C    0.256157
     5  C    0.293089
     6  C    1.182752
     7  H   -0.439601
     8  N    0.072901
     9  O   -0.547312
    10  O   -0.557311
    11  H   -0.651860
    12  B    0.659507
    13  N    0.070935
    14  H   -0.691268
    15  O   -0.542490
    16  O   -0.572618
    17  O   -0.528633
    18  O   -0.533598
    19  H    0.207342
    20  H    0.235917
 Sum of Mulliken charges =  -0.00000

 Dipole moment (field-independent basis, Debye):
    X=              4.8132    Y=             -1.6002    Z=              0.0007  Tot=              5.0723

 Test job not archived.
 1\1\GINC-SE419\SP\RHF\Aug-CC-pVDZ\C6H5B1N2O6\OHZDE\09-Apr-2025\0\\#t h
 f aug-cc-pvdz iop(5/13=1,5/36=2,99/5=2) pseudo=read geom=check guess=(
 read,tcheck) scf=(maxcycle=1)\\title\\0,1\C,0,0.846778,-1.129782,-0.00
 0122\C,0,1.480113,0.103046,-0.000062\C,0,-0.537928,-1.253312,-0.000103
 \C,0,-1.349607,-0.113816,-0.000028\C,0,-0.721323,1.140881,0.000025\C,0
 ,0.66448,1.225802,0.000012\H,0,2.556632,0.186235,-0.000075\N,0,1.30902
 4,2.565354,0.000076\O,0,2.530072,2.598947,-0.000092\O,0,0.574578,3.540
 765,0.000005\H,0,-1.308894,2.048654,0.000077\B,0,-2.925439,-0.192219,-

 Normal termination of Gaussian 16 at Wed Apr  9 00:30:45 2025.
