 Gaussian 16, Revision C.01,

 ----------------------------------------------------------------------
 #t hf aug-cc-pvdz symm=none int=(grid=ultrafine) guess=(read,tcheck) s
 table=(opt,rrhf)
 ----------------------------------------------------------------------
 -----
 title
 -----
 Symbolic Z-matrix:
 Charge =  0 Multiplicity = 1

 SCF Done:  E(RHF) =  -350.450707265     A.U. after   13 cycles
 Normal termination of Gaussian 16 at Wed Apr  9 00:37:51 2025.
 Gaussian 16:  ES64L-G16RevC.01  3-Jul-2019

 ----------------------------------------------------------------------
 #t hf aug-cc-pvdz iop(5/13=1,5/36=2,99/5=2) pseudo=read geom=check gue
 ss=(read,tcheck) scf=(maxcycle=1)
 ----------------------------------------------------------------------
 -----
 title
 -----
 Structure from the checkpoint file:  "BDE49_nonexpt_593_mol1.chk"
 Charge =  0 Multiplicity = 1

                         Standard orientation:
 ---------------------------------------------------------------------
 Center     Atomic      Atomic             Coordinates (Angstroms)
 Number     Number       Type             X           Y           Z
 ---------------------------------------------------------------------
      1          6           0        0.785158    0.083384   -0.000014
      2          5           0       -1.777110   -0.086007    0.000011
      3          6           0       -2.073031    1.456507   -0.000016
      4          1           0       -1.613368    1.945442    0.865260
      5          1           0       -3.143809    1.677309   -0.000022
      6          1           0       -1.613363    1.945417   -0.865302
      7          8           0        0.866409    1.290794   -0.000011
      8          6           0        2.013009   -0.825870    0.000007
      9          6           0       -2.947495   -1.145931    0.000014
     10          1           0       -2.633557   -2.194966    0.000024
     11          1           0       -3.595098   -0.989771   -0.871573
     12          1           0       -3.595104   -0.989757    0.871595
     13          6           0        3.329191   -0.055162    0.000004
     14          1           0        1.946907   -1.484751   -0.874845
     15          1           0        1.946896   -1.484726    0.874876
     16          1           0        3.404247    0.587316   -0.878900
     17          1           0        4.177574   -0.743634    0.000020
     18          1           0        3.404235    0.587343    0.878890
     19          7           0       -0.434495   -0.602789    0.000004
     20          1           0       -0.330812   -1.609583    0.000014
 ---------------------------------------------------------------------

 SCF Done:  E(RHF) =  -350.562733322     A.U. after    2 cycles

 The electronic state is 1-A.
 Alpha  occ. eigenvalues --  -20.54629 -15.63752 -11.36823 -11.25598 -11.23032
 Alpha  occ. eigenvalues --  -11.20614 -11.18873  -7.61251  -1.35567  -1.17199
 Alpha  occ. eigenvalues --   -1.04525  -0.95508  -0.91299  -0.88830  -0.77962
 Alpha  occ. eigenvalues --   -0.70929  -0.68980  -0.64411  -0.61915  -0.58030
 Alpha  occ. eigenvalues --   -0.56934  -0.54612  -0.54129  -0.52815  -0.52577
 Alpha  occ. eigenvalues --   -0.52055  -0.50592  -0.49951  -0.45788  -0.42954
 Alpha  occ. eigenvalues --   -0.42769
 Alpha virt. eigenvalues --    0.02644   0.03835   0.04236   0.04433   0.05888
 Alpha virt. eigenvalues --    0.06150   0.06259   0.07543   0.07571   0.08090
 Alpha virt. eigenvalues --    0.08836   0.08940   0.09685   0.10271   0.10403

 Mulliken charges:
               1
     1  C    0.074849
     2  B    0.411037
     3  C    0.490323
     4  H   -0.098711
     5  H   -0.308839
     6  H   -0.098726
     7  O   -0.420243
     8  C    0.289584
     9  C    0.556807
    10  H   -0.394475
    11  H   -0.100250
    12  H   -0.100241
    13  C    0.462926
    14  H   -0.074146
    15  H   -0.074147
    16  H   -0.049587
    17  H   -0.039682
    18  H   -0.049584
    19  N   -0.441654
    20  H   -0.035242
 Sum of Mulliken charges =  -0.00000

 Dipole moment (field-independent basis, Debye):
    X=              0.1613    Y=             -3.7377    Z=              0.0000  Tot=              3.7412

 Test job not archived.
 1\1\GINC-SE339\SP\RHF\Aug-CC-pVDZ\C5H12B1N1O1\OHZDE\09-Apr-2025\0\\#t
 hf aug-cc-pvdz iop(5/13=1,5/36=2,99/5=2) pseudo=read geom=check guess=
 (read,tcheck) scf=(maxcycle=1)\\title\\0,1\C,0,-0.785158,0.083384,0.00
 0014\B,0,1.77711,-0.086007,-0.000011\C,0,2.073031,1.456507,0.000016\H,
 0,1.613368,1.945442,-0.86526\H,0,3.143809,1.677309,0.000022\H,0,1.6133
 63,1.945417,0.865302\O,0,-0.866409,1.290794,0.000011\C,0,-2.013009,-0.
 82587,-0.000007\C,0,2.947495,-1.145931,-0.000014\H,0,2.633557,-2.19496
 6,-0.000024\H,0,3.595098,-0.989771,0.871573\H,0,3.595104,-0.989757,-0.

 Normal termination of Gaussian 16 at Wed Apr  9 00:37:59 2025.
