 Gaussian 16, Revision C.01,

 ----------------------------------------------------------------------
 #t hf aug-cc-pvdz symm=none int=(grid=ultrafine) guess=(read,tcheck) s
 table=opt
 ----------------------------------------------------------------------
 -----
 title
 -----
 Symbolic Z-matrix:
 Charge =  0 Multiplicity = 2

 SCF Done:  E(UHF) =  -613.993358388     A.U. after   22 cycles
 Normal termination of Gaussian 16 at Wed Apr  9 00:30:46 2025.
 Gaussian 16:  ES64L-G16RevC.01  3-Jul-2019

 ----------------------------------------------------------------------
 #t hf aug-cc-pvdz iop(5/13=1,5/36=2,99/5=2) pseudo=read geom=check gue
 ss=(read,tcheck) scf=(maxcycle=1)
 ----------------------------------------------------------------------
 -----
 title
 -----
 Structure from the checkpoint file:  "BDE49_nonexpt_388_mol2.chk"
 Charge =  0 Multiplicity = 2

                         Standard orientation:
 ---------------------------------------------------------------------
 Center     Atomic      Atomic             Coordinates (Angstroms)
 Number     Number       Type             X           Y           Z
 ---------------------------------------------------------------------
      1          9           0       -1.672561   -1.084592   -0.000000
      2          5           0       -1.506209    0.204872    0.000002
      3          6           0        1.212223   -0.204890   -0.000001
      4          7           0        1.992255   -1.059549    0.000002
      5         16           0        0.085310    1.086447   -0.000001
 ---------------------------------------------------------------------

 SCF Done:  E(UHF) =  -614.090888990     A.U. after    2 cycles

 The electronic state is 2-A.
 Alpha  occ. eigenvalues --  -93.62221 -26.18885 -15.66965 -11.32873  -8.92072
 Alpha  occ. eigenvalues --   -7.78071  -6.26240  -6.25978  -6.25601  -1.73484
 Alpha  occ. eigenvalues --   -1.21899  -1.06938  -0.89730  -0.81674  -0.79164
 Alpha  occ. eigenvalues --   -0.73959  -0.59022  -0.56076  -0.54373  -0.48983
 Alpha  occ. eigenvalues --   -0.42532  -0.40923
 Alpha virt. eigenvalues --    0.03461   0.04363   0.04973   0.05670   0.07539
 Alpha virt. eigenvalues --    0.09524   0.09923   0.10380   0.12562   0.13036
 Alpha virt. eigenvalues --    0.13910   0.15048   0.17074   0.17495   0.19071

  Beta  occ. eigenvalues --  -93.62131 -26.18586 -15.66857 -11.32823  -8.91923
  Beta  occ. eigenvalues --   -7.75928  -6.26180  -6.25720  -6.25584  -1.72612
  Beta  occ. eigenvalues --   -1.21611  -1.05676  -0.88635  -0.79184  -0.79023
  Beta  occ. eigenvalues --   -0.71475  -0.58191  -0.55684  -0.54322  -0.47310
  Beta  occ. eigenvalues --   -0.42333
  Beta virt. eigenvalues --    0.01322   0.04616   0.05009   0.05691   0.07962
  Beta virt. eigenvalues --    0.09634   0.09925   0.10166   0.10662   0.12718
  Beta virt. eigenvalues --    0.13190   0.14066   0.17354   0.17640   0.17712

 Mulliken charges and spin densities:
               1          2
     1  F   -0.204848  -0.057421
     2  B    0.456183   1.030103
     3  C   -0.521935   0.025329
     4  N   -0.131240   0.029598
     5  S    0.401840  -0.027609
 Sum of Mulliken charges =  -0.00000   1.00000

 Dipole moment (field-independent basis, Debye):
    X=             -2.3251    Y=              2.5725    Z=             -0.0000  Tot=              3.4675
                          Isotropic Fermi Contact Couplings
        Atom                 a.u.       MegaHertz       Gauss      10(-4) cm-1
     1  F(19)              0.06284     264.38656      94.33970      88.18986
     2  B(11)              0.42516     609.83508     217.60432     203.41909
     3  C(13)              0.02957      33.24728      11.86346      11.09010
     4  N(14)              0.00962       3.10779       1.10894       1.03665
     5  S(33)              0.24383      83.74880      29.88365      27.93559
 --------------------------------------------------------
       Center         ----  Spin Dipole Couplings  ----
                      3XX-RR        3YY-RR        3ZZ-RR

 Normal termination of Gaussian 16 at Wed Apr  9 00:30:48 2025.
