 Gaussian 16, Revision C.01,

 ----------------------------------------------------------------------
 #t hf aug-cc-pvdz symm=none int=(grid=ultrafine) guess=(read,tcheck) s
 table=(opt,rrhf)
 ----------------------------------------------------------------------
 -----
 title
 -----
 Symbolic Z-matrix:
 Charge =  0 Multiplicity = 1

 SCF Done:  E(RHF) =  -663.586890910     A.U. after   14 cycles
 Normal termination of Gaussian 16 at Tue Apr  8 23:51:11 2025.
 Gaussian 16:  ES64L-G16RevC.01  3-Jul-2019

 ----------------------------------------------------------------------
 #t hf aug-cc-pvdz iop(5/13=1,5/36=2,99/5=2) pseudo=read geom=check gue
 ss=(read,tcheck) scf=(maxcycle=1)
 ----------------------------------------------------------------------
 -----
 title
 -----
 Structure from the checkpoint file:  "BDE49_nonexpt_1915_mol1.chk"
 Charge =  0 Multiplicity = 1

                         Standard orientation:
 ---------------------------------------------------------------------
 Center     Atomic      Atomic             Coordinates (Angstroms)
 Number     Number       Type             X           Y           Z
 ---------------------------------------------------------------------
      1         14           0       -0.410939   -1.567831    0.217789
      2          6           0        1.330320   -1.290968   -0.467307
      3          7           0        1.985847   -0.162628    0.158946
      4          6           0        1.994941    1.035938    0.066012
      5          8           0        2.100190    2.202651    0.067816
      6          7           0       -1.338333   -0.162513   -0.103962
      7          1           0       -0.355604   -1.796889    1.674796
      8          1           0       -1.019750   -2.725077   -0.473099
      9          6           0       -2.200316    0.670024   -0.068978
     10          8           0       -3.021502    1.499081   -0.066273
     11          1           0        1.290847   -1.168709   -1.555525
     12          1           0        1.925879   -2.187528   -0.270811
 ---------------------------------------------------------------------

 SCF Done:  E(RHF) =  -663.736063162     A.U. after    2 cycles

 The electronic state is 1-A.
 Alpha  occ. eigenvalues --  -69.12495 -20.63394 -20.62381 -15.66362 -15.65481
 Alpha  occ. eigenvalues --  -11.43432 -11.41959 -11.30649  -6.87358  -3.98308
 Alpha  occ. eigenvalues --   -3.98107  -3.98087  -1.43867  -1.42568  -1.24696
 Alpha  occ. eigenvalues --   -1.23039  -1.00127  -0.83561  -0.75426  -0.74585
 Alpha  occ. eigenvalues --   -0.70906  -0.67929  -0.67503  -0.67023  -0.66382
 Alpha  occ. eigenvalues --   -0.63445  -0.60062  -0.55421  -0.52966  -0.46751
 Alpha  occ. eigenvalues --   -0.45251  -0.44965  -0.40701
 Alpha virt. eigenvalues --    0.02480   0.03820   0.04011   0.04982   0.06831
 Alpha virt. eigenvalues --    0.07061   0.08145   0.08931   0.09502   0.11510
 Alpha virt. eigenvalues --    0.11567   0.11948   0.12380   0.13049   0.13162

 Mulliken charges:
               1
     1  Si   1.073050
     2  C    0.632072
     3  N   -0.144178
     4  C   -0.230129
     5  O   -0.217915
     6  N   -0.253198
     7  H   -0.017980
     8  H   -0.025468
     9  C   -0.183495
    10  O   -0.203888
    11  H   -0.184924
    12  H   -0.243945
 Sum of Mulliken charges =  -0.00000

 Dipole moment (field-independent basis, Debye):
    X=              0.5899    Y=             -4.8416    Z=             -0.7722  Tot=              4.9381

 Test job not archived.
 1\1\GINC-SE103\SP\RHF\Aug-CC-pVDZ\C3H4N2O2Si1\OHZDE\08-Apr-2025\0\\#t
 hf aug-cc-pvdz iop(5/13=1,5/36=2,99/5=2) pseudo=read geom=check guess=
 (read,tcheck) scf=(maxcycle=1)\\title\\0,1\Si,0,-0.410939,-1.567831,0.
 217789\C,0,1.33032,-1.290968,-0.467307\N,0,1.985847,-0.162628,0.158946
 \C,0,1.994941,1.035938,0.066012\O,0,2.10019,2.202651,0.067816\N,0,-1.3
 38333,-0.162513,-0.103962\H,0,-0.355604,-1.796889,1.674796\H,0,-1.0197
 5,-2.725077,-0.473099\C,0,-2.200316,0.670024,-0.068978\O,0,-3.021502,1
 .499081,-0.066273\H,0,1.290847,-1.168709,-1.555525\H,0,1.925879,-2.187

 Normal termination of Gaussian 16 at Tue Apr  8 23:51:18 2025.
