 Gaussian 16, Revision C.01,

 ----------------------------------------------------------------------
 #t hf aug-cc-pvdz symm=none int=(grid=ultrafine) guess=(read,tcheck) s
 table=(opt,rrhf)
 ----------------------------------------------------------------------
 -----
 title
 -----
 Symbolic Z-matrix:
 Charge =  0 Multiplicity = 1

 SCF Done:  E(RHF) =  -1224.21142543     A.U. after   15 cycles
 Normal termination of Gaussian 16 at Tue Apr  8 23:10:31 2025.
 Gaussian 16:  ES64L-G16RevC.01  3-Jul-2019

 ----------------------------------------------------------------------
 #t hf aug-cc-pvdz iop(5/13=1,5/36=2,99/5=2) pseudo=read geom=check gue
 ss=(read,tcheck) scf=(maxcycle=1)
 ----------------------------------------------------------------------
 -----
 title
 -----
 Structure from the checkpoint file:  "BDE49_expt_395_mol1.chk"
 Charge =  0 Multiplicity = 1

                         Standard orientation:
 ---------------------------------------------------------------------
 Center     Atomic      Atomic             Coordinates (Angstroms)
 Number     Number       Type             X           Y           Z
 ---------------------------------------------------------------------
      1         16           0       -0.185140   -0.079310   -0.768211
      2          8           0        0.009552   -1.388809   -1.365832
      3          8           0        0.038638    1.129924   -1.542036
      4          6           0       -1.874947   -0.016173   -0.152728
      5          6           0       -2.531025   -1.204347    0.163339
      6          6           0       -2.506964    1.218670   -0.019431
      7          6           0       -3.815218    1.261686    0.455852
      8          6           0       -4.477849    0.080568    0.787539
      9          6           0       -3.839074   -1.149774    0.637935
     10          1           0       -4.361814   -2.067468    0.881527
     11          1           0       -2.026837   -2.151096    0.015349
     12          1           0       -1.984184    2.122279   -0.306882
     13          1           0       -4.319475    2.215649    0.558035
     14          1           0       -5.497386    0.118316    1.154080
     15          6           0        0.832535    0.012046    0.704186
     16         14           0        2.733142    0.037263    0.399980
     17          1           0        0.565755   -0.850165    1.321155
     18          1           0        0.535775    0.921374    1.234030
     19          6           0        3.205935    1.599418   -0.522094
     20          1           0        2.715790    1.642791   -1.496816
     21          1           0        4.289157    1.641685   -0.674100
     22          1           0        2.911743    2.493622    0.035572
     23          6           0        3.483292    0.045472    2.128590
     24          1           0        4.576022    0.070294    2.067932
     25          1           0        3.205539   -0.848831    2.694498
     26          1           0        3.166132    0.920247    2.704262
     27          6           0        3.260029   -1.503070   -0.528895
     28          1           0        2.788306   -1.554986   -1.512235
     29          1           0        2.981533   -2.409546    0.016332
     30          1           0        4.346380   -1.512785   -0.663890
 ---------------------------------------------------------------------

 SCF Done:  E(RHF) =  -1224.47387793     A.U. after    2 cycles

 The electronic state is 1-A.
 Alpha  occ. eigenvalues --  -93.77549 -69.06111 -20.54890 -20.54862 -11.28377
 Alpha  occ. eigenvalues --  -11.27249 -11.27238 -11.27047 -11.26524 -11.26513
 Alpha  occ. eigenvalues --  -11.26091 -11.21746 -11.20670 -11.20665  -9.04223
 Alpha  occ. eigenvalues --   -6.81251  -6.38886  -6.38670  -6.38585  -3.92070
 Alpha  occ. eigenvalues --   -3.92015  -3.91998  -1.41007  -1.29646  -1.16945
 Alpha  occ. eigenvalues --   -1.05415  -1.03456  -1.01174  -0.95784  -0.92294
 Alpha  occ. eigenvalues --   -0.91745  -0.87983  -0.85392  -0.79971  -0.73800
 Alpha  occ. eigenvalues --   -0.68544  -0.66996  -0.66963  -0.64349  -0.64325
 Alpha  occ. eigenvalues --   -0.62454  -0.61651  -0.60279  -0.57650  -0.56759
 Alpha  occ. eigenvalues --   -0.56157  -0.55050  -0.54569  -0.54059  -0.53397
 Alpha  occ. eigenvalues --   -0.53320  -0.52261  -0.50953  -0.50127  -0.48474
 Alpha  occ. eigenvalues --   -0.47180  -0.44172  -0.43346  -0.42802  -0.36727
 Alpha  occ. eigenvalues --   -0.36155
 Alpha virt. eigenvalues --    0.02500   0.03217   0.03792   0.04487   0.04924
 Alpha virt. eigenvalues --    0.04946   0.05996   0.06570   0.06651   0.06968
 Alpha virt. eigenvalues --    0.07168   0.07714   0.07908   0.08832   0.09123

 Mulliken charges:
               1
     1  S    3.004999
     2  O   -1.244899
     3  O   -1.263448
     4  C   -0.075947
     5  C    0.486940
     6  C    0.402926
     7  C    0.413738
     8  C    0.641116
     9  C    0.400809
    10  H   -0.448344
    11  H   -0.552141
    12  H   -0.549935
    13  H   -0.449641
    14  H   -0.438890
    15  C    0.046794
    16  Si   0.823595
    17  H   -0.333303
    18  H   -0.311472
    19  C    0.589267
    20  H   -0.215329
    21  H   -0.305414
    22  H   -0.280532
    23  C    0.707388
    24  H   -0.307922
    25  H   -0.261043
    26  H   -0.254456
    27  C    0.581799
    28  H   -0.219628
    29  H   -0.274107
    30  H   -0.312920
 Sum of Mulliken charges =  -0.00000

 Dipole moment (field-independent basis, Debye):
    X=             -1.4758    Y=              0.3788    Z=              4.8448  Tot=              5.0788

 Test job not archived.
 1\1\GINC-SE331\SP\RHF\Aug-CC-pVDZ\C10H16O2S1Si1\OHZDE\08-Apr-2025\0\\#
 t hf aug-cc-pvdz iop(5/13=1,5/36=2,99/5=2) pseudo=read geom=check gues
 s=(read,tcheck) scf=(maxcycle=1)\\title\\0,1\S,0,-0.18514,-0.07931,-0.
 768211\O,0,0.009552,-1.388809,-1.365832\O,0,0.038638,1.129924,-1.54203
 6\C,0,-1.874947,-0.016173,-0.152728\C,0,-2.531025,-1.204347,0.163339\C
 ,0,-2.506964,1.21867,-0.019431\C,0,-3.815218,1.261686,0.455852\C,0,-4.
 477849,0.080568,0.787539\C,0,-3.839074,-1.149774,0.637935\H,0,-4.36181
 4,-2.067468,0.881527\H,0,-2.026837,-2.151096,0.015349\H,0,-1.984184,2.

 Normal termination of Gaussian 16 at Tue Apr  8 23:11:00 2025.
