 Gaussian 16, Revision C.01,

 ----------------------------------------------------------------------
 #t hf aug-cc-pvdz symm=none int=(grid=ultrafine) guess=(read,tcheck) s
 table=(opt,rrhf)
 ----------------------------------------------------------------------
 -----
 title
 -----
 Symbolic Z-matrix:
 Charge =  0 Multiplicity = 1

 SCF Done:  E(RHF) =  -926.842633067     A.U. after   15 cycles
 Normal termination of Gaussian 16 at Tue Apr  8 23:25:58 2025.
 Gaussian 16:  ES64L-G16RevC.01  3-Jul-2019

 ----------------------------------------------------------------------
 #t hf aug-cc-pvdz iop(5/13=1,5/36=2,99/5=2) pseudo=read geom=check gue
 ss=(read,tcheck) scf=(maxcycle=1)
 ----------------------------------------------------------------------
 -----
 title
 -----
 Structure from the checkpoint file:  "BDE49_nonexpt_1282_mol1.chk"
 Charge =  0 Multiplicity = 1

                         Standard orientation:
 ---------------------------------------------------------------------
 Center     Atomic      Atomic             Coordinates (Angstroms)
 Number     Number       Type             X           Y           Z
 ---------------------------------------------------------------------
      1          6           0       -0.115692    0.137259   -0.506948
      2          7           0       -0.250243    1.572703   -0.026163
      3         15           0        1.587906   -0.443091   -0.082242
      4          8           0        0.042922    1.797169    1.149378
      5          8           0       -0.667928    2.398335   -0.808726
      6          8           0        2.640747    0.335385   -0.738336
      7          8           0        1.526273   -1.989617   -0.486414
      8          1           0       -0.188328    0.200962   -1.592449
      9          6           0       -1.249944   -0.711806    0.087815
     10          6           0       -2.654322   -0.276386   -0.349675
     11          1           0       -1.167297   -0.698481    1.177636
     12          1           0       -1.063493   -1.742141   -0.227876
     13          6           0       -3.740869   -1.196217    0.214345
     14          1           0       -2.707559   -0.267949   -1.444097
     15          1           0       -2.844913    0.751925   -0.026407
     16          1           0       -3.603308   -2.227602   -0.123656
     17          1           0       -4.733524   -0.870407   -0.104835
     18          1           0       -3.727665   -1.199986    1.308193
     19          1           0        2.244764   -2.221251   -1.087588
     20          8           0        1.582853   -0.552888    1.505176
     21          1           0        1.290457    0.288191    1.895995
 ---------------------------------------------------------------------

 SCF Done:  E(RHF) =  -927.090844638     A.U. after    2 cycles

 The electronic state is 1-A.
 Alpha  occ. eigenvalues --  -81.44100 -20.65031 -20.63882 -20.63856 -20.62595
 Alpha  occ. eigenvalues --  -20.54309 -15.93772 -11.34148 -11.27976 -11.25936
 Alpha  occ. eigenvalues --  -11.24486  -7.92426  -5.07101  -5.07025  -5.06747
 Alpha  occ. eigenvalues --   -1.57414  -1.40176  -1.39073  -1.36496  -1.27825
 Alpha  occ. eigenvalues --   -1.14224  -1.05803  -0.95766  -0.89167  -0.85941
 Alpha  occ. eigenvalues --   -0.83498  -0.78267  -0.76745  -0.75589  -0.75049
 Alpha  occ. eigenvalues --   -0.71226  -0.68828  -0.66124  -0.63885  -0.63272
 Alpha  occ. eigenvalues --   -0.60905  -0.59941  -0.58419  -0.56966  -0.55859
 Alpha  occ. eigenvalues --   -0.53637  -0.53139  -0.52437  -0.50732  -0.50583
 Alpha  occ. eigenvalues --   -0.50458  -0.49449  -0.47326
 Alpha virt. eigenvalues --    0.02539   0.03396   0.04021   0.04803   0.05483
 Alpha virt. eigenvalues --    0.05756   0.06355   0.07136   0.07591   0.08724
 Alpha virt. eigenvalues --    0.09427   0.09619   0.10681   0.11328   0.12819

 Mulliken charges:
               1
     1  C    0.835424
     2  N    0.224216
     3  P    2.546246
     4  O   -0.636122
     5  O   -0.523319
     6  O   -0.901332
     7  O   -0.762761
     8  H   -0.358435
     9  C   -0.139484
    10  C    0.311473
    11  H   -0.161679
    12  H   -0.170973
    13  C    0.592598
    14  H   -0.129365
    15  H   -0.136049
    16  H   -0.086173
    17  H   -0.047455
    18  H   -0.075030
    19  H    0.186131
    20  O   -0.771087
    21  H    0.203177
 Sum of Mulliken charges =  -0.00000

 Dipole moment (field-independent basis, Debye):
    X=             -3.0465    Y=             -4.2252    Z=             -0.6880  Tot=              5.2542

 Test job not archived.
 1\1\GINC-SE329\SP\RHF\Aug-CC-pVDZ\C4H10N1O5P1\OHZDE\08-Apr-2025\0\\#t
 hf aug-cc-pvdz iop(5/13=1,5/36=2,99/5=2) pseudo=read geom=check guess=
 (read,tcheck) scf=(maxcycle=1)\\title\\0,1\C,0,-0.115692,0.137259,-0.5
 06948\N,0,-0.250243,1.572703,-0.026163\P,0,1.587906,-0.443091,-0.08224
 2\O,0,0.042922,1.797169,1.149378\O,0,-0.667928,2.398335,-0.808726\O,0,
 2.640747,0.335384,-0.738336\O,0,1.526273,-1.989617,-0.486414\H,0,-0.18
 8328,0.200962,-1.592449\C,0,-1.249944,-0.711806,0.087815\C,0,-2.654322
 ,-0.276385,-0.349675\H,0,-1.167297,-0.698481,1.177636\H,0,-1.063493,-1

 Normal termination of Gaussian 16 at Tue Apr  8 23:26:12 2025.
