 Gaussian 16, Revision C.01,

 ----------------------------------------------------------------------
 #t hf aug-cc-pvdz symm=none int=(grid=ultrafine) guess=(read,tcheck) s
 table=(opt,rrhf)
 ----------------------------------------------------------------------
 -----
 title
 -----
 Symbolic Z-matrix:
 Charge =  0 Multiplicity = 1

 SCF Done:  E(RHF) =  -496.932422707     A.U. after   15 cycles
 Normal termination of Gaussian 16 at Wed Apr  9 00:25:38 2025.
 Gaussian 16:  ES64L-G16RevC.01  3-Jul-2019

 ----------------------------------------------------------------------
 #t hf aug-cc-pvdz iop(5/13=1,5/36=2,99/5=2) pseudo=read geom=check gue
 ss=(read,tcheck) scf=(maxcycle=1)
 ----------------------------------------------------------------------
 -----
 title
 -----
 Structure from the checkpoint file:  "BDE49_nonexpt_289_mol1.chk"
 Charge =  0 Multiplicity = 1

                         Standard orientation:
 ---------------------------------------------------------------------
 Center     Atomic      Atomic             Coordinates (Angstroms)
 Number     Number       Type             X           Y           Z
 ---------------------------------------------------------------------
      1          6           0       -0.170380    1.843951   -0.542329
      2          6           0       -0.070017    0.502328    0.179076
      3          1           0       -0.214325    1.717059   -1.624878
      4          1           0        0.720097    2.427920   -0.307114
      5          1           0       -1.056767    2.397781   -0.228176
      6          6           0       -0.130569    0.681110    1.714639
      7          1           0       -0.103167   -0.279454    2.229706
      8          1           0       -1.042595    1.211425    2.003191
      9          1           0        0.727977    1.274130    2.034710
     10          5           0        1.282413   -0.307381   -0.174116
     11          7           0       -1.291565   -0.359778   -0.183914
     12          8           0       -1.301113   -1.523470    0.232144
     13          8           0       -2.192152    0.130423   -0.833166
     14          8           0        2.384216    0.460795   -0.397242
     15          8           0        1.375608   -1.656871   -0.192542
     16          1           0        3.171212   -0.076516   -0.541673
     17          1           0        0.519787   -2.068350    0.010335
 ---------------------------------------------------------------------

 SCF Done:  E(RHF) =  -497.091168636     A.U. after    2 cycles

 The electronic state is 1-A.
 Alpha  occ. eigenvalues --  -20.63390 -20.61907 -20.59951 -20.59052 -15.91598
 Alpha  occ. eigenvalues --  -11.31169 -11.26473 -11.24840  -7.68208  -1.55501
 Alpha  occ. eigenvalues --   -1.37294  -1.35955  -1.32359  -1.12392  -0.96295
 Alpha  occ. eigenvalues --   -0.95216  -0.83093  -0.80974  -0.77131  -0.74666
 Alpha  occ. eigenvalues --   -0.73345  -0.71447  -0.65796  -0.61648  -0.61355
 Alpha  occ. eigenvalues --   -0.60543  -0.59059  -0.58188  -0.56684  -0.53599
 Alpha  occ. eigenvalues --   -0.52360  -0.51488  -0.50066  -0.48350  -0.47898
 Alpha virt. eigenvalues --    0.02715   0.04156   0.04419   0.05304   0.06274
 Alpha virt. eigenvalues --    0.06500   0.06658   0.07177   0.07757   0.08409
 Alpha virt. eigenvalues --    0.09285   0.10010   0.10528   0.12868   0.13893

 Mulliken charges:
               1
     1  C    0.875302
     2  C   -1.531286
     3  H   -0.005544
     4  H    0.012178
     5  H    0.074383
     6  C    1.015179
     7  H   -0.026628
     8  H   -0.042026
     9  H   -0.013389
    10  B    0.817641
    11  N    0.535757
    12  O   -0.670929
    13  O   -0.561108
    14  O   -0.504678
    15  O   -0.469449
    16  H    0.204046
    17  H    0.290551
 Sum of Mulliken charges =  -0.00000

 Dipole moment (field-independent basis, Debye):
    X=              2.5119    Y=              1.8439    Z=              1.3277  Tot=              3.3871

 Test job not archived.
 1\1\GINC-SE404\SP\RHF\Aug-CC-pVDZ\C3H8B1N1O4\OHZDE\09-Apr-2025\0\\#t h
 f aug-cc-pvdz iop(5/13=1,5/36=2,99/5=2) pseudo=read geom=check guess=(
 read,tcheck) scf=(maxcycle=1)\\title\\0,1\C,0,-0.17038,1.843951,-0.542
 329\C,0,-0.070017,0.502328,0.179076\H,0,-0.214325,1.717059,-1.624878\H
 ,0,0.720097,2.42792,-0.307114\H,0,-1.056767,2.397781,-0.228176\C,0,-0.
 130569,0.68111,1.714639\H,0,-0.103167,-0.279454,2.229706\H,0,-1.042595
 ,1.211425,2.003191\H,0,0.727977,1.27413,2.03471\B,0,1.282413,-0.307381
 ,-0.174116\N,0,-1.291565,-0.359778,-0.183914\O,0,-1.301113,-1.52347,0.

 Normal termination of Gaussian 16 at Wed Apr  9 00:25:46 2025.
