 Gaussian 16, Revision C.01,

 ----------------------------------------------------------------------
 #t hf aug-cc-pvdz symm=none int=(grid=ultrafine) guess=(read,tcheck) s
 table=opt
 ----------------------------------------------------------------------
 -----
 title
 -----
 Symbolic Z-matrix:
 Charge =  0 Multiplicity = 2

 SCF Done:  E(UHF) =  -527.549432377     A.U. after   13 cycles
 Normal termination of Gaussian 16 at Tue Apr  8 23:44:14 2025.
 Gaussian 16:  ES64L-G16RevC.01  3-Jul-2019

 ----------------------------------------------------------------------
 #t hf aug-cc-pvdz iop(5/13=1,5/36=2,99/5=2) pseudo=read geom=check gue
 ss=(read,tcheck) scf=(maxcycle=1)
 ----------------------------------------------------------------------
 -----
 title
 -----
 Structure from the checkpoint file:  "BDE49_nonexpt_1757_mol2.chk"
 Charge =  0 Multiplicity = 2

                         Standard orientation:
 ---------------------------------------------------------------------
 Center     Atomic      Atomic             Coordinates (Angstroms)
 Number     Number       Type             X           Y           Z
 ---------------------------------------------------------------------
      1         14           0        0.096704    0.000000   -0.412509
      2          6           0       -1.689202   -0.000000    0.154622
      3          9           0        0.828259   -1.285520    0.223402
      4          9           0        0.828259    1.285520    0.223402
      5          1           0       -1.712371   -0.000004    1.249615
      6          1           0       -2.207468   -0.888665   -0.211734
      7          1           0       -2.207466    0.888669   -0.211727
 ---------------------------------------------------------------------

 SCF Done:  E(UHF) =  -527.673220985     A.U. after    2 cycles

 The electronic state is 2-A.
 Alpha  occ. eigenvalues --  -69.16943 -26.11967 -26.11965 -11.24786  -6.91143
 Alpha  occ. eigenvalues --   -4.02266  -4.01744  -4.01544  -1.65484  -1.64290
 Alpha  occ. eigenvalues --   -0.97523  -0.83256  -0.77753  -0.74789  -0.74114
 Alpha  occ. eigenvalues --   -0.72436  -0.70435  -0.58920  -0.58349  -0.54767
 Alpha  occ. eigenvalues --   -0.37207
 Alpha virt. eigenvalues --    0.03429   0.05025   0.05413   0.05674   0.08009
 Alpha virt. eigenvalues --    0.08119   0.10915   0.13998   0.15438   0.15679
 Alpha virt. eigenvalues --    0.16309   0.16666   0.20227   0.22383   0.24586

  Beta  occ. eigenvalues --  -69.16373 -26.11649 -26.11648 -11.24363  -6.90199
  Beta  occ. eigenvalues --   -4.01372  -4.01225  -4.00328  -1.64527  -1.63336
  Beta  occ. eigenvalues --   -0.96195  -0.81785  -0.76603  -0.73901  -0.72698
  Beta  occ. eigenvalues --   -0.70923  -0.70154  -0.58094  -0.58063  -0.51002
  Beta virt. eigenvalues --    0.01616   0.04636   0.05168   0.05623   0.06763
  Beta virt. eigenvalues --    0.08229   0.08916   0.11738   0.14611   0.15517
  Beta virt. eigenvalues --    0.16931   0.17709   0.18902   0.22308   0.22825

 Mulliken charges and spin densities:
               1          2
     1  Si   1.762549   0.939110
     2  C    0.206091   0.139945
     3  F   -0.741195  -0.028867
     4  F   -0.741195  -0.028867
     5  H   -0.134968  -0.001394
     6  H   -0.175640  -0.009963
     7  H   -0.175641  -0.009963
 Sum of Mulliken charges =   0.00000   1.00000

 Dipole moment (field-independent basis, Debye):
    X=             -2.4099    Y=             -0.0000    Z=             -1.0392  Tot=              2.6245
                          Isotropic Fermi Contact Couplings
        Atom                 a.u.       MegaHertz       Gauss      10(-4) cm-1
     1  Si(29)             0.84352    -749.66030    -267.49744    -250.05976
     2  C(13)              0.08498      95.53469      34.08915      31.86694
     3  F(19)              0.06124     257.67159      91.94363      85.94999
     4  F(19)              0.06124     257.67158      91.94363      85.94999
     5  H(1)               0.00487      21.78158       7.77221       7.26555
     6  H(1)              -0.00269     -12.01237      -4.28631      -4.00689
     7  H(1)              -0.00269     -12.01238      -4.28632      -4.00690
 --------------------------------------------------------

 Normal termination of Gaussian 16 at Tue Apr  8 23:44:16 2025.
