 Gaussian 16, Revision C.01,

 ----------------------------------------------------------------------
 #t hf aug-cc-pvdz symm=none int=(grid=ultrafine) guess=(read,tcheck) s
 table=opt
 ----------------------------------------------------------------------
 -----
 title
 -----
 Symbolic Z-matrix:
 Charge =  0 Multiplicity = 2

 SCF Done:  E(UHF) =  -588.864316292     A.U. after   22 cycles
 Normal termination of Gaussian 16 at Tue Apr  8 23:42:22 2025.
 Gaussian 16:  ES64L-G16RevC.01  3-Jul-2019

 ----------------------------------------------------------------------
 #t hf aug-cc-pvdz iop(5/13=1,5/36=2,99/5=2) pseudo=read geom=check gue
 ss=(read,tcheck) scf=(maxcycle=1)
 ----------------------------------------------------------------------
 -----
 title
 -----
 Structure from the checkpoint file:  "BDE49_nonexpt_1699_mol2.chk"
 Charge =  0 Multiplicity = 2

                         Standard orientation:
 ---------------------------------------------------------------------
 Center     Atomic      Atomic             Coordinates (Angstroms)
 Number     Number       Type             X           Y           Z
 ---------------------------------------------------------------------
      1         16           0        1.824400   -0.073949   -0.000001
      2          8           0        0.279491   -0.663035   -0.000003
      3          6           0       -0.860086    0.146521    0.000000
      4          6           0       -0.840005    1.476157    0.000000
      5          6           0       -2.070206   -0.734245    0.000004
      6          1           0       -2.980633   -0.135117    0.000006
      7          1           0       -2.070530   -1.381550    0.881357
      8          1           0       -2.070534   -1.381553   -0.881347
      9          1           0        0.088401    2.030289   -0.000004
     10          1           0       -1.771254    2.024799    0.000002
 ---------------------------------------------------------------------

 SCF Done:  E(UHF) =  -588.948303160     A.U. after    2 cycles

 The electronic state is 2-A.
 Alpha  occ. eigenvalues --  -93.60921 -20.64243 -11.32053 -11.24676 -11.23244
 Alpha  occ. eigenvalues --   -8.89984  -6.25158  -6.23802  -6.23128  -1.38806
 Alpha  occ. eigenvalues --   -1.07232  -0.96671  -0.93823  -0.75477  -0.67509
 Alpha  occ. eigenvalues --   -0.66778  -0.65837  -0.57505  -0.57337  -0.55084
 Alpha  occ. eigenvalues --   -0.52801  -0.43721  -0.38549  -0.36493
 Alpha virt. eigenvalues --    0.03611   0.04680   0.05267   0.06062   0.06885
 Alpha virt. eigenvalues --    0.08485   0.09418   0.11343   0.11903   0.12883
 Alpha virt. eigenvalues --    0.14512   0.15380   0.16543   0.16810   0.16851

  Beta  occ. eigenvalues --  -93.60069 -20.63576 -11.32412 -11.24638 -11.22925
  Beta  occ. eigenvalues --   -8.89037  -6.23417  -6.22619  -6.21310  -1.37065
  Beta  occ. eigenvalues --   -1.06853  -0.95537  -0.89248  -0.73177  -0.67291
  Beta  occ. eigenvalues --   -0.64049  -0.62679  -0.57252  -0.55626  -0.54771
  Beta  occ. eigenvalues --   -0.52276  -0.36516  -0.35912
  Beta virt. eigenvalues --    0.01045   0.03626   0.04724   0.05352   0.06218
  Beta virt. eigenvalues --    0.07058   0.08587   0.09810   0.11229   0.13001
  Beta virt. eigenvalues --    0.14094   0.14539   0.15804   0.16665   0.16830

 Mulliken charges and spin densities:
               1          2
     1  S    0.416439   0.955786
     2  O   -0.847504   0.036185
     3  C    0.138287  -0.182586
     4  C    0.868651   0.202838
     5  C    0.129739   0.039285
     6  H   -0.086644  -0.001350
     7  H    0.028245  -0.003299
     8  H    0.028245  -0.003299
     9  H   -0.377426  -0.032213
    10  H   -0.298032  -0.011347
 Sum of Mulliken charges =  -0.00000   1.00000

 Dipole moment (field-independent basis, Debye):
    X=             -1.0421    Y=              0.6375    Z=              0.0000  Tot=              1.2217
                          Isotropic Fermi Contact Couplings
        Atom                 a.u.       MegaHertz       Gauss      10(-4) cm-1
     1  S(33)              0.19896      68.33769      24.38459      22.79500
     2  O(17)              0.07246     -43.92443     -15.67333     -14.65161
     3  C(13)             -0.03650     -41.02935     -14.64029     -13.68592
     4  C(13)              0.02860      32.15057      11.47212      10.72428
     5  C(13)              0.00694       7.80356       2.78450       2.60299
     6  H(1)              -0.00044      -1.95507      -0.69762      -0.65214
     7  H(1)              -0.00212      -9.45927      -3.37530      -3.15527
     8  H(1)              -0.00212      -9.45925      -3.37529      -3.15527

 Normal termination of Gaussian 16 at Tue Apr  8 23:42:26 2025.
