 Gaussian 16, Revision C.01,

 ----------------------------------------------------------------------
 #t hf aug-cc-pvdz symm=none int=(grid=ultrafine) guess=(read,tcheck) s
 table=(opt,rrhf)
 ----------------------------------------------------------------------
 -----
 title
 -----
 Symbolic Z-matrix:
 Charge =  0 Multiplicity = 1

 SCF Done:  E(RHF) =  -915.632791042     A.U. after   15 cycles
 Normal termination of Gaussian 16 at Tue Apr  8 23:19:07 2025.
 Gaussian 16:  ES64L-G16RevC.01  3-Jul-2019

 ----------------------------------------------------------------------
 #t hf aug-cc-pvdz iop(5/13=1,5/36=2,99/5=2) pseudo=read geom=check gue
 ss=(read,tcheck) scf=(maxcycle=1)
 ----------------------------------------------------------------------
 -----
 title
 -----
 Structure from the checkpoint file:  "BDE49_nonexpt_1072_mol1.chk"
 Charge =  0 Multiplicity = 1

                         Standard orientation:
 ---------------------------------------------------------------------
 Center     Atomic      Atomic             Coordinates (Angstroms)
 Number     Number       Type             X           Y           Z
 ---------------------------------------------------------------------
      1         17           0       -2.263824   -0.666048   -0.085926
      2          8           0       -0.790722   -0.212060   -0.879723
      3          6           0        0.290384    0.083084    0.016566
      4          8           0        0.502392   -1.026734    0.797013
      5          8           0        0.042521    1.168379    0.814418
      6          8           0        1.339364    0.380950   -0.844517
      7          6           0        1.426563   -0.860538    1.880846
      8          1           0        1.596722   -1.861418    2.274020
      9          1           0        1.003554   -0.220047    2.655453
     10          1           0        2.370621   -0.436549    1.527499
     11          6           0       -0.171393    2.418968    0.144602
     12          1           0       -0.483181    3.115014    0.921172
     13          1           0       -0.959940    2.323723   -0.604697
     14          1           0        0.748811    2.767597   -0.326432
     15          6           0        1.758490   -0.661637   -1.740304
     16          1           0        2.742616   -0.362621   -2.098209
     17          1           0        1.067250   -0.749839   -2.579621
     18          1           0        1.825847   -1.616579   -1.216237
 ---------------------------------------------------------------------

 SCF Done:  E(RHF) =  -915.801340074     A.U. after    2 cycles

 The electronic state is 1-A.
 Alpha  occ. eigenvalues -- -103.70883 -20.64931 -20.59650 -20.59612 -20.59441
 Alpha  occ. eigenvalues --  -11.47338 -11.29213 -11.29212 -11.29043 -10.73521
 Alpha  occ. eigenvalues --   -8.39290  -8.38870  -8.38849  -1.46495  -1.34422
 Alpha  occ. eigenvalues --   -1.33550  -1.33249  -1.10561  -0.99373  -0.95378
 Alpha  occ. eigenvalues --   -0.94353  -0.81349  -0.75506  -0.74691  -0.74300
 Alpha  occ. eigenvalues --   -0.66767  -0.65384  -0.62603  -0.61921  -0.61190
 Alpha  occ. eigenvalues --   -0.59967  -0.58761  -0.58247  -0.54669  -0.52559
 Alpha  occ. eigenvalues --   -0.51444  -0.49139  -0.48146  -0.47750  -0.46372
 Alpha  occ. eigenvalues --   -0.45347
 Alpha virt. eigenvalues --    0.03495   0.04529   0.04616   0.05354   0.06051
 Alpha virt. eigenvalues --    0.06231   0.06377   0.07183   0.07539   0.08938
 Alpha virt. eigenvalues --    0.09938   0.12522   0.13128   0.13416   0.14434

 Mulliken charges:
               1
     1  Cl   0.216411
     2  O   -0.735065
     3  C    1.343109
     4  O   -0.705116
     5  O   -0.668542
     6  O   -0.691882
     7  C    0.755167
     8  H   -0.219703
     9  H   -0.065733
    10  H   -0.042409
    11  C    0.711471
    12  H   -0.239938
    13  H   -0.037118
    14  H   -0.075414
    15  C    0.784842
    16  H   -0.205988
    17  H   -0.074695
    18  H   -0.049396
 Sum of Mulliken charges =  -0.00000

 Dipole moment (field-independent basis, Debye):
    X=              1.7978    Y=              0.5574    Z=              0.2378  Tot=              1.8972

 Test job not archived.
 1\1\GINC-SE060\SP\RHF\Aug-CC-pVDZ\C4H9Cl1O4\OHZDE\08-Apr-2025\0\\#t hf
  aug-cc-pvdz iop(5/13=1,5/36=2,99/5=2) pseudo=read geom=check guess=(r
 ead,tcheck) scf=(maxcycle=1)\\title\\0,1\Cl,0,-2.263824,-0.666048,-0.0
 85926\O,0,-0.790722,-0.21206,-0.879723\C,0,0.290384,0.083084,0.016566\
 O,0,0.502392,-1.026734,0.797013\O,0,0.042521,1.168379,0.814418\O,0,1.3
 39364,0.38095,-0.844517\C,0,1.426563,-0.860538,1.880846\H,0,1.596722,-
 1.861418,2.27402\H,0,1.003554,-0.220047,2.655453\H,0,2.370621,-0.43654
 9,1.527499\C,0,-0.171393,2.418968,0.144602\H,0,-0.483181,3.115014,0.92

 Normal termination of Gaussian 16 at Tue Apr  8 23:19:16 2025.
