 Gaussian 16, Revision C.01,

 ----------------------------------------------------------------------
 #t hf aug-cc-pvdz symm=none int=(grid=ultrafine) guess=(read,tcheck) s
 table=(opt,rrhf)
 ----------------------------------------------------------------------
 -----
 title
 -----
 Symbolic Z-matrix:
 Charge =  0 Multiplicity = 1

 SCF Done:  E(RHF) =  -884.040810845     A.U. after   12 cycles
 Normal termination of Gaussian 16 at Wed Apr  9 00:15:36 2025.
 Gaussian 16:  ES64L-G16RevC.01  3-Jul-2019

 ----------------------------------------------------------------------
 #t hf aug-cc-pvdz iop(5/13=1,5/36=2,99/5=2) pseudo=read geom=check gue
 ss=(read,tcheck) scf=(maxcycle=1)
 ----------------------------------------------------------------------
 -----
 title
 -----
 Structure from the checkpoint file:  "BDE49_nonexpt_2521_mol1.chk"
 Charge =  0 Multiplicity = 1

                         Standard orientation:
 ---------------------------------------------------------------------
 Center     Atomic      Atomic             Coordinates (Angstroms)
 Number     Number       Type             X           Y           Z
 ---------------------------------------------------------------------
      1          6           0        3.455905   -0.030868   -0.000000
      2          6           0        2.014110   -0.532731   -0.000000
      3          1           0        4.148841   -0.877858   -0.000000
      4          1           0        3.661908    0.577217    0.883932
      5          1           0        3.661908    0.577217   -0.883932
      6         16           0        0.845668    0.904134   -0.000000
      7          1           0        1.824342   -1.141645    0.885626
      8          1           0        1.824342   -1.141646   -0.885625
      9         14           0       -1.105084   -0.055769   -0.000000
     10          6           0       -2.327283    1.370569   -0.000000
     11          1           0       -2.203364    2.000882    0.884587
     12          1           0       -3.353614    0.989294   -0.000000
     13          6           0       -1.331036   -1.120534   -1.535474
     14          1           0       -1.212273   -0.526834   -2.445560
     15          1           0       -2.331989   -1.565311   -1.547195
     16          1           0       -0.607974   -1.940425   -1.571533
     17          6           0       -1.331036   -1.120533    1.535475
     18          1           0       -2.331989   -1.565310    1.547195
     19          1           0       -1.212273   -0.526833    2.445561
     20          1           0       -0.607974   -1.940425    1.571534
     21          1           0       -2.203364    2.000882   -0.884588
 ---------------------------------------------------------------------

 SCF Done:  E(RHF) =  -884.149995528     A.U. after    2 cycles

 The electronic state is 1-A.
 Alpha  occ. eigenvalues --  -93.50139 -69.07013 -11.26912 -11.23265 -11.21379
 Alpha  occ. eigenvalues --  -11.21376 -11.21232  -8.80045  -6.81970  -6.14194
 Alpha  occ. eigenvalues --   -6.13995  -6.13746  -3.92796  -3.92716  -3.92691
 Alpha  occ. eigenvalues --   -1.04787  -0.96741  -0.92271  -0.92248  -0.90822
 Alpha  occ. eigenvalues --   -0.80302  -0.62861  -0.62751  -0.58726  -0.56957
 Alpha  occ. eigenvalues --   -0.56804  -0.56187  -0.54971  -0.54853  -0.53646
 Alpha  occ. eigenvalues --   -0.52988  -0.50929  -0.46172  -0.44133  -0.42866
 Alpha  occ. eigenvalues --   -0.39335  -0.33751
 Alpha virt. eigenvalues --    0.02848   0.04025   0.04665   0.04819   0.05989
 Alpha virt. eigenvalues --    0.06078   0.06353   0.06839   0.06932   0.07916
 Alpha virt. eigenvalues --    0.08437   0.09094   0.09363   0.10579   0.10620

 Mulliken charges:
               1
     1  C    0.399920
     2  C   -0.063128
     3  H   -0.037138
     4  H   -0.051931
     5  H   -0.051931
     6  S   -0.391316
     7  H   -0.193747
     8  H   -0.193749
     9  Si   1.368508
    10  C    0.537014
    11  H   -0.273348
    12  H   -0.283595
    13  C    0.552138
    14  H   -0.279886
    15  H   -0.204423
    16  H   -0.313936
    17  C    0.552136
    18  H   -0.204423
    19  H   -0.279887
    20  H   -0.313934
    21  H   -0.273345
 Sum of Mulliken charges =  -0.00000

 Dipole moment (field-independent basis, Debye):
    X=             -0.4223    Y=             -1.8253    Z=             -0.0000  Tot=              1.8735

 Test job not archived.
 1\1\GINC-SE252\SP\RHF\Aug-CC-pVDZ\C5H14S1Si1\OHZDE\09-Apr-2025\0\\#t h
 f aug-cc-pvdz iop(5/13=1,5/36=2,99/5=2) pseudo=read geom=check guess=(
 read,tcheck) scf=(maxcycle=1)\\title\\0,1\C,0,-3.455905,0.030868,0.\C,
 0,-2.01411,0.532731,0.\H,0,-4.148841,0.877858,0.\H,0,-3.661908,-0.5772
 17,0.883932\H,0,-3.661908,-0.577217,-0.883932\S,0,-0.845668,-0.904134,
 0.\H,0,-1.824342,1.141645,0.885626\H,0,-1.824342,1.141646,-0.885625\Si
 ,0,1.105084,0.055769,0.\C,0,2.327283,-1.370569,0.\H,0,2.203364,-2.0008
 82,0.884587\H,0,3.353614,-0.989294,0.\C,0,1.331036,1.120534,-1.535474\

 Normal termination of Gaussian 16 at Wed Apr  9 00:15:46 2025.
