 Gaussian 16, Revision C.01,

 ----------------------------------------------------------------------
 #t hf aug-cc-pvdz symm=none int=(grid=ultrafine) guess=(read,tcheck) s
 table=opt
 ----------------------------------------------------------------------
 -----
 title
 -----
 Symbolic Z-matrix:
 Charge =  0 Multiplicity = 2

 SCF Done:  E(UHF) =  -625.897684706     A.U. after   25 cycles
 Normal termination of Gaussian 16 at Wed Apr  9 00:17:44 2025.
 Gaussian 16:  ES64L-G16RevC.01  3-Jul-2019

 ----------------------------------------------------------------------
 #t hf aug-cc-pvdz iop(5/13=1,5/36=2,99/5=2) pseudo=read geom=check gue
 ss=(read,tcheck) scf=(maxcycle=1)
 ----------------------------------------------------------------------
 -----
 title
 -----
 Structure from the checkpoint file:  "BDE49_nonexpt_2588_mol2.chk"
 Charge =  0 Multiplicity = 2

                         Standard orientation:
 ---------------------------------------------------------------------
 Center     Atomic      Atomic             Coordinates (Angstroms)
 Number     Number       Type             X           Y           Z
 ---------------------------------------------------------------------
      1         16           0        1.679036   -0.514352   -0.003638
      2          6           0        0.049241    0.251713    0.329043
      3          8           0       -0.862336   -0.515643   -0.396663
      4          8           0        0.063519    1.598573   -0.033556
      5          6           0       -2.207645   -0.427632    0.085223
      6          1           0       -2.287547   -0.828483    1.102309
      7          1           0       -2.813981   -1.030623   -0.588433
      8          1           0       -2.560416    0.607582    0.069615
      9          1           0        0.312516    1.635807   -0.967689
     10          1           0       -0.174192    0.237430    1.398560
 ---------------------------------------------------------------------

 SCF Done:  E(UHF) =  -625.989741035     A.U. after    2 cycles

 The electronic state is 2-A.
 Alpha  occ. eigenvalues --  -93.55857 -20.60177 -20.60169 -11.39211 -11.30136
 Alpha  occ. eigenvalues --   -8.85651  -6.21017  -6.19314  -6.18843  -1.40007
 Alpha  occ. eigenvalues --   -1.32857  -1.02764  -0.93781  -0.86882  -0.73653
 Alpha  occ. eigenvalues --   -0.71014  -0.66721  -0.63293  -0.60977  -0.57493
 Alpha  occ. eigenvalues --   -0.51840  -0.48954  -0.46421  -0.44465  -0.38634
 Alpha virt. eigenvalues --    0.03463   0.04856   0.05225   0.06117   0.07107
 Alpha virt. eigenvalues --    0.08108   0.10683   0.12803   0.13537   0.14082
 Alpha virt. eigenvalues --    0.14378   0.15088   0.16283   0.16722   0.17230

  Beta  occ. eigenvalues --  -93.54937 -20.60094 -20.60057 -11.39352 -11.30126
  Beta  occ. eigenvalues --   -8.84626  -6.18763  -6.18278  -6.16991  -1.39778
  Beta  occ. eigenvalues --   -1.32590  -1.00277  -0.91280  -0.83346  -0.73171
  Beta  occ. eigenvalues --   -0.70898  -0.65328  -0.62578  -0.60711  -0.57076
  Beta  occ. eigenvalues --   -0.51668  -0.48319  -0.45262  -0.36297
  Beta virt. eigenvalues --    0.01291   0.03472   0.04883   0.05324   0.06155
  Beta virt. eigenvalues --    0.07136   0.08275   0.11422   0.12849   0.14029
  Beta virt. eigenvalues --    0.14441   0.14803   0.15876   0.16348   0.16780

 Mulliken charges and spin densities:
               1          2
     1  S    0.211693   1.088915
     2  C    0.599317  -0.090256
     3  O   -0.633593  -0.009281
     4  O   -0.500825   0.013602
     5  C    0.629321  -0.001400
     6  H   -0.055535  -0.000251
     7  H   -0.237289  -0.000664
     8  H   -0.021185   0.000337
     9  H    0.168849  -0.005305
    10  H   -0.160753   0.004305
 Sum of Mulliken charges =  -0.00000   1.00000

 Dipole moment (field-independent basis, Debye):
    X=             -1.8457    Y=              0.0317    Z=              0.2873  Tot=              1.8682
                          Isotropic Fermi Contact Couplings
        Atom                 a.u.       MegaHertz       Gauss      10(-4) cm-1
     1  S(33)              0.20030      68.79777      24.54875      22.94847
     2  C(13)             -0.02450     -27.54826      -9.82990      -9.18911
     3  O(17)              0.04140     -25.09600      -8.95488      -8.37113
     4  O(17)              0.00916      -5.55140      -1.98088      -1.85175
     5  C(13)              0.00082       0.91836       0.32769       0.30633
     6  H(1)              -0.00013      -0.56961      -0.20325      -0.19000
     7  H(1)              -0.00005      -0.21032      -0.07505      -0.07016
     8  H(1)               0.00007       0.30765       0.10978       0.10262

 Normal termination of Gaussian 16 at Wed Apr  9 00:17:47 2025.
