 Gaussian 16, Revision C.01,

 ----------------------------------------------------------------------
 #t hf aug-cc-pvdz symm=none int=(grid=ultrafine) guess=(read,tcheck) s
 table=(opt,rrhf)
 ----------------------------------------------------------------------
 -----
 title
 -----
 Symbolic Z-matrix:
 Charge =  0 Multiplicity = 1

 SCF Done:  E(RHF) =  -237.931230022     A.U. after   10 cycles
 Normal termination of Gaussian 16 at Tue Apr  8 22:34:19 2025.
 Gaussian 16:  ES64L-G16RevC.01  3-Jul-2019

 ----------------------------------------------------------------------
 #t hf aug-cc-pvdz iop(5/13=1,5/36=2,99/5=2) pseudo=read geom=check gue
 ss=(read,tcheck) scf=(maxcycle=1)
 ----------------------------------------------------------------------
 -----
 title
 -----
 Structure from the checkpoint file:  "BDE49_expt_112_mol1.chk"
 Charge =  0 Multiplicity = 1

                         Standard orientation:
 ---------------------------------------------------------------------
 Center     Atomic      Atomic             Coordinates (Angstroms)
 Number     Number       Type             X           Y           Z
 ---------------------------------------------------------------------
      1          6           0        0.000000    0.503180    0.000000
      2          1           0        0.000111    1.105007    0.912358
      3          1           0        0.000111    1.105007   -0.912358
      4          9           0       -1.107909   -0.290517    0.000000
      5          9           0        1.107884   -0.290493    0.000000
 ---------------------------------------------------------------------

 SCF Done:  E(RHF) =  -238.019434252     A.U. after    2 cycles

 The electronic state is 1-A'.
 Alpha  occ. eigenvalues --  -26.13909 -26.13901 -11.42581  -1.70075  -1.65758
 Alpha  occ. eigenvalues --   -1.00585  -0.81821  -0.81500  -0.81158  -0.73176
 Alpha  occ. eigenvalues --   -0.69895  -0.66520  -0.56480
 Alpha virt. eigenvalues --    0.03406   0.05163   0.08551   0.08904   0.14729
 Alpha virt. eigenvalues --    0.16594   0.24052   0.24184   0.26024   0.26307
 Alpha virt. eigenvalues --    0.27490   0.27916   0.30714   0.34302   0.35913

 Mulliken charges:
               1
     1  C    0.970411
     2  H   -0.135308
     3  H   -0.135308
     4  F   -0.349904
     5  F   -0.349892
 Sum of Mulliken charges =  -0.00000

 Dipole moment (field-independent basis, Debye):
    X=              0.0002    Y=              2.4691    Z=             -0.0000  Tot=              2.4691

 Test job not archived.
 1\1\GINC-SE455\SP\RHF\Aug-CC-pVDZ\C1H2F2\OHZDE\08-Apr-2025\0\\#t hf au
 g-cc-pvdz iop(5/13=1,5/36=2,99/5=2) pseudo=read geom=check guess=(read
 ,tcheck) scf=(maxcycle=1)\\title\\0,1\C,0,0.,0.50318,0.\H,0,0.000111,1
 .105007,0.912358\H,0,0.000111,1.105007,-0.912358\F,0,-1.107909,-0.2905
 17,0.\F,0,1.107884,-0.290493,0.\\Version=ES64L-G16RevC.01\State=1-A'\H
 F=-238.0194343\RMSD=5.534e-03\Dipole=0.0000682,0.9714224,0.\Quadrupole
 =-2.352597,1.1782321,1.1743649,0.0001533,0.,0.\PG=CS [SG(C1F2),X(H2)]\
 \@

 Normal termination of Gaussian 16 at Tue Apr  8 22:34:21 2025.
