 Gaussian 16, Revision C.01,

 ----------------------------------------------------------------------
 #t hf aug-cc-pvdz symm=none int=(grid=ultrafine) guess=(read,tcheck) s
 table=opt
 ----------------------------------------------------------------------
 -----
 title
 -----
 Symbolic Z-matrix:
 Charge =  0 Multiplicity = 2

 SCF Done:  E(UHF) =  -578.875537382     A.U. after   16 cycles
 Normal termination of Gaussian 16 at Tue Apr  8 23:40:11 2025.
 Gaussian 16:  ES64L-G16RevC.01  3-Jul-2019

 ----------------------------------------------------------------------
 #t hf aug-cc-pvdz iop(5/13=1,5/36=2,99/5=2) pseudo=read geom=check gue
 ss=(read,tcheck) scf=(maxcycle=1)
 ----------------------------------------------------------------------
 -----
 title
 -----
 Structure from the checkpoint file:  "BDE49_nonexpt_164_mol2.chk"
 Charge =  0 Multiplicity = 2

                         Standard orientation:
 ---------------------------------------------------------------------
 Center     Atomic      Atomic             Coordinates (Angstroms)
 Number     Number       Type             X           Y           Z
 ---------------------------------------------------------------------
      1         17           0        1.512291   -0.218906    0.000000
      2          7           0       -1.157648    0.649770   -0.000002
      3          5           0        0.186125    0.955449   -0.000001
      4          6           0       -1.804902   -0.667083    0.000002
      5          1           0       -1.805117    1.425978   -0.000001
      6          1           0       -1.041318   -1.442708   -0.000019
      7          1           0       -2.430114   -0.792498   -0.888527
      8          1           0       -2.430079   -0.792512    0.888554
 ---------------------------------------------------------------------

 SCF Done:  E(UHF) =  -578.931988310     A.U. after    2 cycles

 The electronic state is 2-A.
 Alpha  occ. eigenvalues -- -103.65016 -15.64174 -11.28183 -10.68491  -8.34265
 Alpha  occ. eigenvalues --   -8.33963  -8.33924  -7.68169  -1.18255  -1.13718
 Alpha  occ. eigenvalues --   -0.93359  -0.73572  -0.64344  -0.61258  -0.60053
 Alpha  occ. eigenvalues --   -0.54846  -0.49371  -0.49069  -0.40744  -0.34280
 Alpha virt. eigenvalues --    0.03001   0.04566   0.04598   0.05967   0.07579
 Alpha virt. eigenvalues --    0.07676   0.07914   0.09771   0.13571   0.13848
 Alpha virt. eigenvalues --    0.15037   0.15362   0.15654   0.17235   0.17934

  Beta  occ. eigenvalues -- -103.64914 -15.64339 -11.28039 -10.68373  -8.34049
  Beta  occ. eigenvalues --   -8.33878  -8.33740  -7.66008  -1.17941  -1.12966
  Beta  occ. eigenvalues --   -0.92672  -0.72551  -0.62565  -0.61493  -0.58092
  Beta  occ. eigenvalues --   -0.54352  -0.48981  -0.47178  -0.41673
  Beta virt. eigenvalues --    0.02921   0.04255   0.04673   0.05273   0.07561
  Beta virt. eigenvalues --    0.07809   0.07833   0.08696   0.13278   0.13763
  Beta virt. eigenvalues --    0.14915   0.15740   0.15840   0.16307   0.17383

 Mulliken charges and spin densities:
               1          2
     1  Cl  -0.280170   0.016096
     2  N   -0.114249  -0.118239
     3  B    0.031851   1.084920
     4  C    0.774140   0.030302
     5  H    0.000197   0.001833
     6  H   -0.177051  -0.007559
     7  H   -0.117361  -0.003677
     8  H   -0.117357  -0.003677
 Sum of Mulliken charges =   0.00000   1.00000

 Dipole moment (field-independent basis, Debye):
    X=             -3.1062    Y=             -0.0517    Z=              0.0000  Tot=              3.1066
                          Isotropic Fermi Contact Couplings
        Atom                 a.u.       MegaHertz       Gauss      10(-4) cm-1
     1  Cl(35)             0.10522      46.13571      16.46237      15.38922
     2  N(14)              0.02578       8.33096       2.97269       2.77891
     3  B(11)              0.40505     580.99223     207.31248     193.79815
     4  C(13)              0.02840      31.92951      11.39324      10.65054
     5  H(1)               0.00576      25.73311       9.18221       8.58364
     6  H(1)              -0.00092      -4.09990      -1.46295      -1.36758
     7  H(1)              -0.00146      -6.53990      -2.33360      -2.18148
     8  H(1)              -0.00146      -6.54023      -2.33372      -2.18159

 1\1\GINC-SE128\SP\UHF\Aug-CC-pVDZ\C1H4B1Cl1N1(2)\OHZDE\08-Apr-2025\0\\
 #t hf aug-cc-pvdz iop(5/13=1,5/36=2,99/5=2) pseudo=read geom=check gue
 ss=(read,tcheck) scf=(maxcycle=1)\\title\\0,2\Cl,0,1.512291,-0.218906,
 0.\N,0,-1.157648,0.64977,-0.000002\B,0,0.186125,0.955449,-0.000001\C,0
 ,-1.804902,-0.667083,0.000002\H,0,-1.805117,1.425978,-0.000001\H,0,-1.
 041318,-1.442708,-0.000019\H,0,-2.430114,-0.792498,-0.888527\H,0,-2.43
 0079,-0.792512,0.888554\\Version=ES64L-G16RevC.01\State=2-A\HF=-578.93
 19883\S2=0.758559\S2-1=0.\S2A=0.750042\RMSD=2.051e-03\Dipole=-1.222075

 Normal termination of Gaussian 16 at Tue Apr  8 23:40:14 2025.
