 Gaussian 16, Revision C.01,

 ----------------------------------------------------------------------
 #t hf aug-cc-pvdz symm=none int=(grid=ultrafine) guess=(read,tcheck) s
 table=(opt,rrhf)
 ----------------------------------------------------------------------
 -----
 title
 -----
 Symbolic Z-matrix:
 Charge =  0 Multiplicity = 1

 SCF Done:  E(RHF) =  -556.965540828     A.U. after   13 cycles
 Normal termination of Gaussian 16 at Tue Apr  8 23:49:32 2025.
 Gaussian 16:  ES64L-G16RevC.01  3-Jul-2019

 ----------------------------------------------------------------------
 #t hf aug-cc-pvdz iop(5/13=1,5/36=2,99/5=2) pseudo=read geom=check gue
 ss=(read,tcheck) scf=(maxcycle=1)
 ----------------------------------------------------------------------
 -----
 title
 -----
 Structure from the checkpoint file:  "BDE49_nonexpt_1881_mol1.chk"
 Charge =  0 Multiplicity = 1

                         Standard orientation:
 ---------------------------------------------------------------------
 Center     Atomic      Atomic             Coordinates (Angstroms)
 Number     Number       Type             X           Y           Z
 ---------------------------------------------------------------------
      1          6           0        0.817435    0.333255    0.867996
      2         14           0        2.154034   -0.332709   -0.307445
      3          6           0       -0.524924    0.467954    0.203964
      4          8           0       -0.900435    1.423867   -0.428176
      5          8           0       -1.268243   -0.650436    0.374791
      6          1           0        3.420197   -0.458611    0.450457
      7          1           0        2.350605    0.597613   -1.439870
      8          1           0        1.762366   -1.663037   -0.824014
      9          6           0       -2.558412   -0.640823   -0.262821
     10          1           0       -3.005164   -1.604545   -0.028823
     11          1           0       -2.452179   -0.517988   -1.341766
     12          1           0       -3.172050    0.172372    0.127680
     13          1           0        1.133019    1.322002    1.207386
     14          1           0        0.751556   -0.339644    1.725422
 ---------------------------------------------------------------------

 SCF Done:  E(RHF) =  -557.075896100     A.U. after    2 cycles

 The electronic state is 1-A.
 Alpha  occ. eigenvalues --  -69.07563 -20.61837 -20.55971 -11.39821 -11.29851
 Alpha  occ. eigenvalues --  -11.24747  -6.82834  -3.93623  -3.93604  -3.93591
 Alpha  occ. eigenvalues --   -1.41960  -1.32469  -1.03112  -0.94713  -0.78817
 Alpha  occ. eigenvalues --   -0.72074  -0.70060  -0.69115  -0.67083  -0.60580
 Alpha  occ. eigenvalues --   -0.57776  -0.56334  -0.54105  -0.49384  -0.48739
 Alpha  occ. eigenvalues --   -0.47784  -0.47138  -0.45517
 Alpha virt. eigenvalues --    0.03244   0.04188   0.04680   0.05166   0.06220
 Alpha virt. eigenvalues --    0.06309   0.07183   0.08323   0.08659   0.09708
 Alpha virt. eigenvalues --    0.09923   0.10900   0.14018   0.14143   0.14820

 Mulliken charges:
               1
     1  C    0.061072
     2  Si   0.334731
     3  C    0.451524
     4  O   -0.491897
     5  O   -0.559785
     6  H   -0.012182
     7  H    0.030194
     8  H    0.013261
     9  C    0.754990
    10  H   -0.244245
    11  H   -0.073000
    12  H   -0.071391
    13  H   -0.052266
    14  H   -0.141007
 Sum of Mulliken charges =  -0.00000

 Dipole moment (field-independent basis, Debye):
    X=              0.1180    Y=             -1.7411    Z=              1.1180  Tot=              2.0724

 Test job not archived.
 1\1\GINC-SE362\SP\RHF\Aug-CC-pVDZ\C3H8O2Si1\OHZDE\08-Apr-2025\0\\#t hf
  aug-cc-pvdz iop(5/13=1,5/36=2,99/5=2) pseudo=read geom=check guess=(r
 ead,tcheck) scf=(maxcycle=1)\\title\\0,1\C,0,0.817435,0.333255,0.86799
 6\Si,0,2.154034,-0.332709,-0.307445\C,0,-0.524924,0.467954,0.203964\O,
 0,-0.900435,1.423867,-0.428176\O,0,-1.268243,-0.650436,0.374791\H,0,3.
 420197,-0.458611,0.450457\H,0,2.350605,0.597613,-1.43987\H,0,1.762366,
 -1.663037,-0.824014\C,0,-2.558412,-0.640823,-0.262821\H,0,-3.005164,-1
 .604545,-0.028823\H,0,-2.452179,-0.517988,-1.341766\H,0,-3.17205,0.172

 Normal termination of Gaussian 16 at Tue Apr  8 23:49:36 2025.
