 Gaussian 16, Revision C.01,

 ----------------------------------------------------------------------
 #t hf aug-cc-pvdz symm=none int=(grid=ultrafine) guess=(read,tcheck) s
 table=(opt,rrhf)
 ----------------------------------------------------------------------
 -----
 title
 -----
 Symbolic Z-matrix:
 Charge =  0 Multiplicity = 1

 SCF Done:  E(RHF) =  -608.608752237     A.U. after   15 cycles
 Normal termination of Gaussian 16 at Tue Apr  8 23:51:26 2025.
 Gaussian 16:  ES64L-G16RevC.01  3-Jul-2019

 ----------------------------------------------------------------------
 #t hf aug-cc-pvdz iop(5/13=1,5/36=2,99/5=2) pseudo=read geom=check gue
 ss=(read,tcheck) scf=(maxcycle=1)
 ----------------------------------------------------------------------
 -----
 title
 -----
 Structure from the checkpoint file:  "BDE49_nonexpt_1916_mol1.chk"
 Charge =  0 Multiplicity = 1

                         Standard orientation:
 ---------------------------------------------------------------------
 Center     Atomic      Atomic             Coordinates (Angstroms)
 Number     Number       Type             X           Y           Z
 ---------------------------------------------------------------------
      1         14           0       -2.409375   -0.166283   -0.000000
      2          6           0       -0.682686    0.631608    0.000001
      3          1           0       -3.388764    0.944126   -0.000002
      4          1           0       -2.582991   -0.991946    1.212741
      5          1           0       -2.582988   -0.991950   -1.212738
      6          8           0        0.252229   -0.461708    0.000005
      7          7           0        1.638064   -0.054494    0.000007
      8          8           0        1.860506    1.129117   -0.000001
      9          8           0        2.386289   -0.986980   -0.000011
     10          1           0       -0.538268    1.258059    0.884869
     11          1           0       -0.538266    1.258056   -0.884868
 ---------------------------------------------------------------------

 SCF Done:  E(RHF) =  -608.732133144     A.U. after    2 cycles

 The electronic state is 1-A.
 Alpha  occ. eigenvalues --  -69.08718 -20.68566 -20.65276 -20.65139 -15.98993
 Alpha  occ. eigenvalues --  -11.31428  -6.84059  -3.94858  -3.94831  -3.94814
 Alpha  occ. eigenvalues --   -1.61338  -1.42423  -1.38661  -1.00722  -0.88448
 Alpha  occ. eigenvalues --   -0.82128  -0.79258  -0.78202  -0.72506  -0.66674
 Alpha  occ. eigenvalues --   -0.63981  -0.57178  -0.54459  -0.53678  -0.51046
 Alpha  occ. eigenvalues --   -0.50221  -0.49445  -0.47953
 Alpha virt. eigenvalues --    0.02869   0.04404   0.04526   0.06026   0.07369
 Alpha virt. eigenvalues --    0.07632   0.08543   0.08578   0.09251   0.09779
 Alpha virt. eigenvalues --    0.13552   0.14373   0.14839   0.15059   0.15303

 Mulliken charges:
               1
     1  Si   0.425130
     2  C    0.513767
     3  H   -0.010564
     4  H   -0.039299
     5  H   -0.039300
     6  O   -0.487784
     7  N    0.842944
     8  O   -0.419250
     9  O   -0.432698
    10  H   -0.176473
    11  H   -0.176474
 Sum of Mulliken charges =  -0.00000

 Dipole moment (field-independent basis, Debye):
    X=             -3.2396    Y=              1.2182    Z=              0.0000  Tot=              3.4611

 Test job not archived.
 1\1\GINC-SE100\SP\RHF\Aug-CC-pVDZ\C1H5N1O3Si1\OHZDE\08-Apr-2025\0\\#t
 hf aug-cc-pvdz iop(5/13=1,5/36=2,99/5=2) pseudo=read geom=check guess=
 (read,tcheck) scf=(maxcycle=1)\\title\\0,1\Si,0,2.409375,-0.166283,0.\
 C,0,0.682686,0.631608,-0.000001\H,0,3.388764,0.944126,0.000002\H,0,2.5
 82991,-0.991946,-1.212741\H,0,2.582988,-0.99195,1.212738\O,0,-0.252229
 ,-0.461708,-0.000005\N,0,-1.638064,-0.054494,-0.000007\O,0,-1.860506,1
 .129117,0.000001\O,0,-2.386289,-0.98698,0.000011\H,0,0.538268,1.258059
 ,-0.884869\H,0,0.538266,1.258056,0.884868\\Version=ES64L-G16RevC.01\St

 Normal termination of Gaussian 16 at Tue Apr  8 23:51:29 2025.
