 Gaussian 16, Revision C.01,

 ----------------------------------------------------------------------
 #t hf aug-cc-pvdz symm=none int=(grid=ultrafine) guess=(read,tcheck) s
 table=(opt,rrhf)
 ----------------------------------------------------------------------
 -----
 title
 -----
 Symbolic Z-matrix:
 Charge =  0 Multiplicity = 1

 SCF Done:  E(RHF) =  -957.428626404     A.U. after   15 cycles
 Normal termination of Gaussian 16 at Wed Apr  9 00:14:50 2025.
 Gaussian 16:  ES64L-G16RevC.01  3-Jul-2019

 ----------------------------------------------------------------------
 #t hf aug-cc-pvdz iop(5/13=1,5/36=2,99/5=2) pseudo=read geom=check gue
 ss=(read,tcheck) scf=(maxcycle=1)
 ----------------------------------------------------------------------
 -----
 title
 -----
 Structure from the checkpoint file:  "BDE49_nonexpt_2497_mol1.chk"
 Charge =  0 Multiplicity = 1

                         Standard orientation:
 ---------------------------------------------------------------------
 Center     Atomic      Atomic             Coordinates (Angstroms)
 Number     Number       Type             X           Y           Z
 ---------------------------------------------------------------------
      1         14           0       -2.360048   -0.117168   -0.525610
      2         16           0       -1.056492   -0.994788    0.968884
      3          6           0        0.546882   -0.403092    0.390291
      4          6           0        1.227332   -1.081782   -0.625439
      5          6           0        2.486188   -0.646577   -1.032955
      6          6           0        1.143558    0.703835    1.001441
      7          6           0        2.405302    1.131033    0.592408
      8          6           0        3.077971    0.459665   -0.426302
      9          1           0        4.059532    0.793590   -0.742622
     10          1           0        3.006580   -1.177962   -1.821926
     11          1           0        0.771296   -1.948969   -1.087188
     12          1           0        0.620376    1.220946    1.796521
     13          1           0        2.861754    1.989236    1.072876
     14          6           0       -2.335657    1.756131   -0.523903
     15          1           0       -2.660544    2.151421    0.441494
     16          1           0       -3.008692    2.138998   -1.297803
     17          1           0       -1.331704    2.134527   -0.731301
     18          1           0       -3.698604   -0.636112   -0.160097
     19          1           0       -1.984910   -0.623991   -1.866813
 ---------------------------------------------------------------------

 SCF Done:  E(RHF) =  -957.551399700     A.U. after    2 cycles

 The electronic state is 1-A.
 Alpha  occ. eigenvalues --  -93.52388 -69.08488 -11.28352 -11.25498 -11.25489
 Alpha  occ. eigenvalues --  -11.25415 -11.25342 -11.25277 -11.22382  -8.82262
 Alpha  occ. eigenvalues --   -6.83494  -6.16442  -6.16206  -6.15968  -3.94314
 Alpha  occ. eigenvalues --   -3.94238  -3.94203  -1.15517  -1.04127  -1.01960
 Alpha  occ. eigenvalues --   -0.95113  -0.92122  -0.83873  -0.80783  -0.70971
 Alpha  occ. eigenvalues --   -0.67124  -0.64217  -0.63512  -0.60071  -0.57439
 Alpha  occ. eigenvalues --   -0.57043  -0.56041  -0.52452  -0.50913  -0.49320
 Alpha  occ. eigenvalues --   -0.47366  -0.46471  -0.43555  -0.36164  -0.34921
 Alpha  occ. eigenvalues --   -0.33426
 Alpha virt. eigenvalues --    0.03146   0.03942   0.04082   0.05027   0.05531
 Alpha virt. eigenvalues --    0.05674   0.06907   0.07288   0.07443   0.07867
 Alpha virt. eigenvalues --    0.08373   0.09308   0.09748   0.10202   0.11531

 Mulliken charges:
               1
     1  Si   0.841993
     2  S   -0.294026
     3  C    0.321035
     4  C    0.161026
     5  C    0.539649
     6  C    0.240028
     7  C    0.497990
     8  C    0.439219
     9  H   -0.437300
    10  H   -0.447252
    11  H   -0.506799
    12  H   -0.528164
    13  H   -0.447385
    14  C    0.276150
    15  H   -0.206884
    16  H   -0.227669
    17  H   -0.226055
    18  H   -0.023031
    19  H    0.027476
 Sum of Mulliken charges =   0.00000

 Dipole moment (field-independent basis, Debye):
    X=              0.7879    Y=              1.6073    Z=             -1.1758  Tot=              2.1417

 Test job not archived.
 1\1\GINC-SE335\SP\RHF\Aug-CC-pVDZ\C7H10S1Si1\OHZDE\09-Apr-2025\0\\#t h
 f aug-cc-pvdz iop(5/13=1,5/36=2,99/5=2) pseudo=read geom=check guess=(
 read,tcheck) scf=(maxcycle=1)\\title\\0,1\Si,0,2.360048,-0.117168,0.52
 561\S,0,1.056492,-0.994788,-0.968884\C,0,-0.546882,-0.403092,-0.390291
 \C,0,-1.227332,-1.081782,0.625439\C,0,-2.486188,-0.646577,1.032955\C,0
 ,-1.143558,0.703835,-1.001441\C,0,-2.405302,1.131033,-0.592408\C,0,-3.
 077971,0.459665,0.426302\H,0,-4.059532,0.79359,0.742622\H,0,-3.00658,-
 1.177962,1.821926\H,0,-0.771296,-1.948969,1.087188\H,0,-0.620376,1.220

 Normal termination of Gaussian 16 at Wed Apr  9 00:14:59 2025.
