 Gaussian 16, Revision C.01,

 ----------------------------------------------------------------------
 #t hf aug-cc-pvdz symm=none int=(grid=ultrafine) guess=(read,tcheck) s
 table=(opt,rrhf)
 ----------------------------------------------------------------------
 -----
 title
 -----
 Symbolic Z-matrix:
 Charge =  0 Multiplicity = 1

 SCF Done:  E(RHF) =  -907.561690499     A.U. after   14 cycles
 Normal termination of Gaussian 16 at Wed Apr  9 00:50:45 2025.
 Gaussian 16:  ES64L-G16RevC.01  3-Jul-2019

 ----------------------------------------------------------------------
 #t hf aug-cc-pvdz iop(5/13=1,5/36=2,99/5=2) pseudo=read geom=check gue
 ss=(read,tcheck) scf=(maxcycle=1)
 ----------------------------------------------------------------------
 -----
 title
 -----
 Structure from the checkpoint file:  "BDE49_nonexpt_920_mol1.chk"
 Charge =  0 Multiplicity = 1

                         Standard orientation:
 ---------------------------------------------------------------------
 Center     Atomic      Atomic             Coordinates (Angstroms)
 Number     Number       Type             X           Y           Z
 ---------------------------------------------------------------------
      1         16           0       -1.760691   -1.085667    0.000007
      2          7           0       -0.045287   -1.039626    0.000007
      3          5           0       -2.221886    0.676746   -0.000015
      4          9           0       -1.324980    1.645351   -0.000051
      5          9           0       -3.510114    0.987153    0.000029
      6          6           0        0.643941   -0.804342   -1.203847
      7          6           0        1.905101   -0.368422   -1.234642
      8          6           0        2.690942    0.013458    0.000002
      9          6           0        1.905103   -0.368416    1.234649
     10          6           0        0.643943   -0.804337    1.203858
     11          6           0        3.056974    1.515254   -0.000002
     12          1           0        0.086245   -1.054118    2.097118
     13          1           0        0.086241   -1.054129   -2.097105
     14          1           0        2.389141   -0.274655   -2.200726
     15          1           0        3.646993    1.772758    0.885110
     16          1           0        2.151423    2.126708   -0.000003
     17          1           0        2.389144   -0.274644    2.200732
     18          1           0        3.646992    1.772753   -0.885117
     19          1           0        3.641133   -0.542054    0.000002
 ---------------------------------------------------------------------

 SCF Done:  E(RHF) =  -907.761431645     A.U. after    2 cycles

 The electronic state is 1-A.
 Alpha  occ. eigenvalues --  -93.59008 -26.15511 -26.15442 -15.67958 -11.28655
 Alpha  occ. eigenvalues --  -11.28647 -11.25336 -11.23691 -11.23688 -11.22611
 Alpha  occ. eigenvalues --   -8.88528  -7.77653  -6.22787  -6.22410  -6.22207
 Alpha  occ. eigenvalues --   -1.70702  -1.68695  -1.25151  -1.09381  -1.03524
 Alpha  occ. eigenvalues --   -1.00011  -0.92924  -0.88487  -0.84422  -0.84152
 Alpha  occ. eigenvalues --   -0.83655  -0.78940  -0.78520  -0.73851  -0.73364
 Alpha  occ. eigenvalues --   -0.70898  -0.66402  -0.66213  -0.61556  -0.60863
 Alpha  occ. eigenvalues --   -0.59350  -0.56203  -0.55113  -0.52752  -0.49337
 Alpha  occ. eigenvalues --   -0.47451  -0.46331  -0.41616  -0.37937  -0.29821
 Alpha virt. eigenvalues --    0.03294   0.03884   0.03954   0.04810   0.05785
 Alpha virt. eigenvalues --    0.05997   0.06239   0.07065   0.07166   0.08548
 Alpha virt. eigenvalues --    0.08679   0.09660   0.10274   0.11619   0.11706

 Mulliken charges:
               1
     1  S    0.331955
     2  N   -0.873892
     3  B    1.129940
     4  F   -0.474118
     5  F   -0.461607
     6  C    0.835176
     7  C    0.642616
     8  C   -0.866165
     9  C    0.642625
    10  C    0.835155
    11  C    0.431503
    12  H   -0.539466
    13  H   -0.539468
    14  H   -0.412480
    15  H   -0.080804
    16  H   -0.068003
    17  H   -0.412480
    18  H   -0.080802
    19  H   -0.039683
 Sum of Mulliken charges =   0.00000

 Dipole moment (field-independent basis, Debye):
    X=              1.0439    Y=             -0.5538    Z=             -0.0000  Tot=              1.1817

 Test job not archived.
 1\1\GINC-SE329\SP\RHF\Aug-CC-pVDZ\C6H8B1F2N1S1\OHZDE\09-Apr-2025\0\\#t
  hf aug-cc-pvdz iop(5/13=1,5/36=2,99/5=2) pseudo=read geom=check guess
 =(read,tcheck) scf=(maxcycle=1)\\title\\0,1\S,0,-1.760691,-1.085667,0.
 000007\N,0,-0.045287,-1.039626,0.000007\B,0,-2.221886,0.676746,-0.0000
 15\F,0,-1.32498,1.645351,-0.000051\F,0,-3.510114,0.987153,0.000029\C,0
 ,0.643941,-0.804342,-1.203847\C,0,1.905101,-0.368422,-1.234642\C,0,2.6
 90942,0.013458,0.000002\C,0,1.905103,-0.368416,1.234649\C,0,0.643943,-
 0.804337,1.203858\C,0,3.056974,1.515254,-0.000002\H,0,0.086245,-1.0541

 Normal termination of Gaussian 16 at Wed Apr  9 00:50:57 2025.
