 Gaussian 16, Revision C.01,

 ----------------------------------------------------------------------
 #t hf aug-cc-pvdz symm=none int=(grid=ultrafine) guess=(read,tcheck) s
 table=(opt,rrhf)
 ----------------------------------------------------------------------
 -----
 title
 -----
 Symbolic Z-matrix:
 Charge =  0 Multiplicity = 1

 SCF Done:  E(RHF) =  -408.366900813     A.U. after   12 cycles
 Normal termination of Gaussian 16 at Tue Apr  8 23:56:31 2025.
 Gaussian 16:  ES64L-G16RevC.01  3-Jul-2019

 ----------------------------------------------------------------------
 #t hf aug-cc-pvdz iop(5/13=1,5/36=2,99/5=2) pseudo=read geom=check gue
 ss=(read,tcheck) scf=(maxcycle=1)
 ----------------------------------------------------------------------
 -----
 title
 -----
 Structure from the checkpoint file:  "BDE49_nonexpt_2034_mol1.chk"
 Charge =  0 Multiplicity = 1

                         Standard orientation:
 ---------------------------------------------------------------------
 Center     Atomic      Atomic             Coordinates (Angstroms)
 Number     Number       Type             X           Y           Z
 ---------------------------------------------------------------------
      1         14           0       -1.789588   -0.074796   -0.000007
      2          6           0       -0.022265    0.585869   -0.000024
      3          6           0        1.070351   -0.499398    0.000024
      4          1           0        0.098778    1.236194   -0.875464
      5          6           0        2.491081    0.075153    0.000012
      6          1           0        0.943023   -1.146779   -0.875254
      7          1           0        0.943011   -1.146714    0.875349
      8          1           0        2.663567    0.697989   -0.883126
      9          1           0        3.242484   -0.719660    0.000046
     10          1           0        0.098769    1.236262    0.875367
     11          1           0        2.663556    0.698054    0.883106
     12          1           0       -2.034877   -0.910927   -1.201472
     13          1           0       -2.764165    1.043754   -0.000090
     14          1           0       -2.034909   -0.910776    1.201557
 ---------------------------------------------------------------------

 SCF Done:  E(RHF) =  -408.429765354     A.U. after    2 cycles

 The electronic state is 1-A.
 Alpha  occ. eigenvalues --  -69.05451 -11.23760 -11.22526 -11.22209  -6.80788
 Alpha  occ. eigenvalues --   -3.91563  -3.91555  -3.91546  -1.04797  -0.92432
 Alpha  occ. eigenvalues --   -0.80745  -0.68755  -0.63407  -0.57888  -0.54535
 Alpha  occ. eigenvalues --   -0.54485  -0.49061  -0.47972  -0.46469  -0.46293
 Alpha  occ. eigenvalues --   -0.42625
 Alpha virt. eigenvalues --    0.03471   0.04425   0.04693   0.04914   0.06338
 Alpha virt. eigenvalues --    0.06900   0.07091   0.07932   0.08643   0.09664
 Alpha virt. eigenvalues --    0.09901   0.10222   0.10852   0.13587   0.15306

 Mulliken charges:
               1
     1  Si   0.317892
     2  C    0.117339
     3  C   -0.010830
     4  H   -0.160479
     5  C    0.386532
     6  H   -0.130077
     7  H   -0.130074
     8  H   -0.061987
     9  H   -0.072980
    10  H   -0.160477
    11  H   -0.061988
    12  H    0.000552
    13  H   -0.033979
    14  H    0.000556
 Sum of Mulliken charges =  -0.00000

 Dipole moment (field-independent basis, Debye):
    X=              0.7880    Y=              0.2309    Z=             -0.0000  Tot=              0.8211

 Test job not archived.
 1\1\GINC-SE322\SP\RHF\Aug-CC-pVDZ\C3H10Si1\OHZDE\08-Apr-2025\0\\#t hf
 aug-cc-pvdz iop(5/13=1,5/36=2,99/5=2) pseudo=read geom=check guess=(re
 ad,tcheck) scf=(maxcycle=1)\\title\\0,1\Si,0,-1.789588,-0.074796,-0.00
 0007\C,0,-0.022265,0.585869,-0.000024\C,0,1.070351,-0.499398,0.000024\
 H,0,0.098778,1.236194,-0.875464\C,0,2.491081,0.075153,0.000012\H,0,0.9
 43023,-1.146779,-0.875254\H,0,0.943011,-1.146714,0.875349\H,0,2.663567
 ,0.697989,-0.883126\H,0,3.242484,-0.71966,0.000046\H,0,0.098769,1.2362
 62,0.875367\H,0,2.663556,0.698054,0.883106\H,0,-2.034877,-0.910927,-1.

 Normal termination of Gaussian 16 at Tue Apr  8 23:56:35 2025.
