 Gaussian 16, Revision C.01,

 ----------------------------------------------------------------------
 #t hf aug-cc-pvdz symm=none int=(grid=ultrafine) guess=(read,tcheck) s
 table=(opt,rrhf)
 ----------------------------------------------------------------------
 -----
 title
 -----
 Symbolic Z-matrix:
 Charge =  0 Multiplicity = 1

 SCF Done:  E(RHF) =  -825.921966515     A.U. after   13 cycles
 Normal termination of Gaussian 16 at Tue Apr  8 23:44:12 2025.
 Gaussian 16:  ES64L-G16RevC.01  3-Jul-2019

 ----------------------------------------------------------------------
 #t hf aug-cc-pvdz iop(5/13=1,5/36=2,99/5=2) pseudo=read geom=check gue
 ss=(read,tcheck) scf=(maxcycle=1)
 ----------------------------------------------------------------------
 -----
 title
 -----
 Structure from the checkpoint file:  "BDE49_nonexpt_1751_mol1.chk"
 Charge =  0 Multiplicity = 1

                         Standard orientation:
 ---------------------------------------------------------------------
 Center     Atomic      Atomic             Coordinates (Angstroms)
 Number     Number       Type             X           Y           Z
 ---------------------------------------------------------------------
      1         14           0        0.052950    0.817090    0.000001
      2          6           0       -1.541734   -0.053891   -0.000006
      3          6           0       -2.609083   -0.618983    0.000008
      4         17           0        1.608678   -0.561759   -0.000005
      5          1           0       -3.548244   -1.119818    0.000045
      6          1           0        0.182116    1.633845    1.217426
      7          1           0        0.182199    1.633863   -1.217402
 ---------------------------------------------------------------------

 SCF Done:  E(RHF) =  -825.991394579     A.U. after    2 cycles

 The electronic state is 1-A.
 Alpha  occ. eigenvalues -- -103.65495 -69.13615 -11.27430 -11.24684 -10.68956
 Alpha  occ. eigenvalues --   -8.34648  -8.34415  -8.34412  -6.88313  -3.99202
 Alpha  occ. eigenvalues --   -3.99104  -3.99023  -1.13931  -1.03738  -0.78501
 Alpha  occ. eigenvalues --   -0.72218  -0.58848  -0.54323  -0.54292  -0.47650
 Alpha  occ. eigenvalues --   -0.46593  -0.42364  -0.42059
 Alpha virt. eigenvalues --    0.03091   0.04873   0.05331   0.05586   0.06303
 Alpha virt. eigenvalues --    0.08465   0.09174   0.10121   0.10635   0.12429
 Alpha virt. eigenvalues --    0.14220   0.14415   0.14421   0.16445   0.17558

 Mulliken charges:
               1
     1  Si   0.611300
     2  C   -1.219357
     3  C    1.593219
     4  Cl  -0.509871
     5  H   -0.402490
     6  H   -0.036399
     7  H   -0.036402
 Sum of Mulliken charges =  -0.00000

 Dipole moment (field-independent basis, Debye):
    X=             -1.9512    Y=              0.6962    Z=              0.0000  Tot=              2.0717

 Test job not archived.
 1\1\GINC-SE186\SP\RHF\Aug-CC-pVDZ\C2H3Cl1Si1\OHZDE\08-Apr-2025\0\\#t h
 f aug-cc-pvdz iop(5/13=1,5/36=2,99/5=2) pseudo=read geom=check guess=(
 read,tcheck) scf=(maxcycle=1)\\title\\0,1\Si,0,-0.05295,0.81709,-0.000
 001\C,0,1.541734,-0.053891,0.000006\C,0,2.609083,-0.618984,-0.000008\C
 l,0,-1.608678,-0.561759,0.000005\H,0,3.548244,-1.119819,-0.000045\H,0,
 -0.182116,1.633845,-1.217426\H,0,-0.182199,1.633863,1.217402\\Version=
 ES64L-G16RevC.01\State=1-A\HF=-825.9913946\RMSD=1.056e-02\Dipole=0.767
 6808,0.2738994,-0.0000141\Quadrupole=2.2136007,-0.2368042,-1.9767965,-

 Normal termination of Gaussian 16 at Tue Apr  8 23:44:15 2025.
