 Gaussian 16, Revision C.01,

 ----------------------------------------------------------------------
 #t hf aug-cc-pvdz symm=none int=(grid=ultrafine) guess=(read,tcheck) s
 table=opt
 ----------------------------------------------------------------------
 -----
 title
 -----
 Symbolic Z-matrix:
 Charge =  0 Multiplicity = 2

 SCF Done:  E(UHF) =  -142.885205495     A.U. after   17 cycles
 Normal termination of Gaussian 16 at Wed Apr  9 00:34:07 2025.
 Gaussian 16:  ES64L-G16RevC.01  3-Jul-2019

 ----------------------------------------------------------------------
 #t hf aug-cc-pvdz iop(5/13=1,5/36=2,99/5=2) pseudo=read geom=check gue
 ss=(read,tcheck) scf=(maxcycle=1)
 ----------------------------------------------------------------------
 -----
 title
 -----
 Structure from the checkpoint file:  "BDE49_nonexpt_472_mol2.chk"
 Charge =  0 Multiplicity = 2

                         Standard orientation:
 ---------------------------------------------------------------------
 Center     Atomic      Atomic             Coordinates (Angstroms)
 Number     Number       Type             X           Y           Z
 ---------------------------------------------------------------------
      1          1           0        1.752422    1.486338   -0.942453
      2          5           0        1.773443    0.748192   -0.004354
      3          6           0        0.893777   -0.483310    0.290025
      4          6           0       -0.496444   -0.565742   -0.382199
      5          1           0        1.539702   -1.299372   -0.092623
      6          6           0       -1.478303    0.471964    0.168460
      7          1           0       -0.911841   -1.569927   -0.238834
      8          1           0       -0.383868   -0.426693   -1.462451
      9          1           0       -1.621660    0.346673    1.246385
     10          1           0       -2.458106    0.387129   -0.309145
     11          1           0        0.816304   -0.693264    1.364530
     12          1           0       -1.114345    1.490678   -0.001358
 ---------------------------------------------------------------------

 SCF Done:  E(UHF) =  -142.931044212     A.U. after    2 cycles

 The electronic state is 2-A.
 Alpha  occ. eigenvalues --  -11.23649 -11.22670 -11.21868  -7.63154  -1.05084
 Alpha  occ. eigenvalues --   -0.93405  -0.81317  -0.66650  -0.60700  -0.60059
 Alpha  occ. eigenvalues --   -0.55904  -0.51872  -0.49412  -0.48422  -0.46122
 Alpha  occ. eigenvalues --   -0.31723
 Alpha virt. eigenvalues --    0.03309   0.04275   0.04649   0.04806   0.05987
 Alpha virt. eigenvalues --    0.06764   0.06902   0.07229   0.08504   0.09448
 Alpha virt. eigenvalues --    0.11242   0.11554   0.13363   0.14147   0.14847

  Beta  occ. eigenvalues --  -11.23499 -11.22681 -11.21900  -7.61374  -1.04732
  Beta  occ. eigenvalues --   -0.93041  -0.80755  -0.64565  -0.60576  -0.57886
  Beta  occ. eigenvalues --   -0.55388  -0.51290  -0.48572  -0.48192  -0.45452
  Beta virt. eigenvalues --    0.03286   0.04285   0.04523   0.04742   0.06361
  Beta virt. eigenvalues --    0.06685   0.06905   0.07264   0.08300   0.09574
  Beta virt. eigenvalues --    0.10677   0.11892   0.12589   0.14151   0.14464

 Mulliken charges and spin densities:
               1          2
     1  H    0.414037  -0.004714
     2  B   -0.358953   1.036499
     3  C    0.294463  -0.062612
     4  C    0.063345   0.037781
     5  H   -0.112059  -0.015850
     6  C    0.296169  -0.001315
     7  H   -0.070235   0.006095
     8  H   -0.105590   0.000051
     9  H   -0.075864  -0.000069
    10  H   -0.077949  -0.000454
    11  H   -0.177663   0.002625
    12  H   -0.089701   0.001963
 Sum of Mulliken charges =  -0.00000   1.00000

 Dipole moment (field-independent basis, Debye):
    X=             -0.7862    Y=             -0.6996    Z=             -0.2451  Tot=              1.0806
                          Isotropic Fermi Contact Couplings
        Atom                 a.u.       MegaHertz       Gauss      10(-4) cm-1
     1  H(1)               0.00578      25.84917       9.22363       8.62236
     2  B(11)              0.25639     367.74981     131.22228     122.66813
     3  C(13)              0.00252       2.82810       1.00914       0.94335
     4  C(13)              0.03418      38.42162      13.70979      12.81607
     5  H(1)              -0.00119      -5.30599      -1.89331      -1.76989
     6  C(13)             -0.00204      -2.29375      -0.81847      -0.76511
     7  H(1)               0.00138       6.18231       2.20600       2.06220
     8  H(1)              -0.00074      -3.32821      -1.18759      -1.11017

 Normal termination of Gaussian 16 at Wed Apr  9 00:34:11 2025.
