 Gaussian 16, Revision C.01,

 ----------------------------------------------------------------------
 #t hf aug-cc-pvdz symm=none int=(grid=ultrafine) guess=(read,tcheck) s
 table=opt
 ----------------------------------------------------------------------
 -----
 title
 -----
 Symbolic Z-matrix:
 Charge =  0 Multiplicity = 2

 SCF Done:  E(UHF) =  -1131.27831322     A.U. after   19 cycles
 Normal termination of Gaussian 16 at Wed Apr  9 00:49:03 2025.
 Gaussian 16:  ES64L-G16RevC.01  3-Jul-2019

 ----------------------------------------------------------------------
 #t hf aug-cc-pvdz iop(5/13=1,5/36=2,99/5=2) pseudo=read geom=check gue
 ss=(read,tcheck) scf=(maxcycle=1)
 ----------------------------------------------------------------------
 -----
 title
 -----
 Structure from the checkpoint file:  "BDE49_nonexpt_916_mol2.chk"
 Charge =  0 Multiplicity = 2

                         Standard orientation:
 ---------------------------------------------------------------------
 Center     Atomic      Atomic             Coordinates (Angstroms)
 Number     Number       Type             X           Y           Z
 ---------------------------------------------------------------------
      1         16           0        2.072394   -0.362433    0.000001
      2         16           0        0.585755    0.944353   -0.000001
      3          6           0       -0.961861   -0.093913    0.000000
      4          9           0       -1.993606    0.763880   -0.000002
      5          9           0       -1.045376   -0.867895    1.082056
      6          9           0       -1.045375   -0.867899   -1.082054
 ---------------------------------------------------------------------

 SCF Done:  E(UHF) =  -1131.44319214     A.U. after    2 cycles

 The electronic state is 2-A.
 Alpha  occ. eigenvalues --  -93.62387 -93.60273 -26.19306 -26.19046 -26.19035
 Alpha  occ. eigenvalues --  -11.56893  -8.92033  -8.89979  -6.26025  -6.25872
 Alpha  occ. eigenvalues --   -6.25739  -6.25043  -6.23679  -6.23149  -1.78920
 Alpha  occ. eigenvalues --   -1.71893  -1.71815  -1.12366  -1.03852  -0.92804
 Alpha  occ. eigenvalues --   -0.90745  -0.90540  -0.81284  -0.79589  -0.79519
 Alpha  occ. eigenvalues --   -0.75461  -0.75450  -0.74154  -0.58800  -0.54079
 Alpha  occ. eigenvalues --   -0.52360  -0.41437  -0.39906
 Alpha virt. eigenvalues --    0.05532   0.07052   0.08476   0.09828   0.10236
 Alpha virt. eigenvalues --    0.11927   0.12057   0.12948   0.13540   0.13769
 Alpha virt. eigenvalues --    0.14258   0.19139   0.23519   0.23582   0.24595

  Beta  occ. eigenvalues --  -93.62194 -93.59431 -26.19313 -26.19036 -26.19024
  Beta  occ. eigenvalues --  -11.56941  -8.91815  -8.89043  -6.25940  -6.25689
  Beta  occ. eigenvalues --   -6.24976  -6.23209  -6.22623  -6.21360  -1.78910
  Beta  occ. eigenvalues --   -1.71899  -1.71781  -1.10635  -1.02331  -0.91074
  Beta  occ. eigenvalues --   -0.90647  -0.89427  -0.79728  -0.79490  -0.77386
  Beta  occ. eigenvalues --   -0.75424  -0.75363  -0.74117  -0.58053  -0.50836
  Beta  occ. eigenvalues --   -0.44344  -0.39521
  Beta virt. eigenvalues --   -0.01337   0.06017   0.07133   0.08490   0.10033
  Beta virt. eigenvalues --    0.10296   0.12312   0.12613   0.13031   0.13589
  Beta virt. eigenvalues --    0.15035   0.15106   0.19352   0.23735   0.23999

 Mulliken charges and spin densities:
               1          2
     1  S    0.036405   0.920633
     2  S    0.138219   0.105117
     3  C    0.599044  -0.019717
     4  F   -0.259384  -0.000449
     5  F   -0.257142  -0.002792
     6  F   -0.257143  -0.002792
 Sum of Mulliken charges =  -0.00000   1.00000

 Dipole moment (field-independent basis, Debye):
    X=              1.1351    Y=              0.5243    Z=              0.0000  Tot=              1.2504
                          Isotropic Fermi Contact Couplings
        Atom                 a.u.       MegaHertz       Gauss      10(-4) cm-1
     1  S(33)              0.20108      69.06571      24.64436      23.03784
     2  S(33)              0.08721      29.95543      10.68884       9.99206
     3  C(13)             -0.01132     -12.72345      -4.54004      -4.24409
     4  F(19)             -0.00191      -8.03847      -2.86832      -2.68134
     5  F(19)              0.00099       4.17328       1.48913       1.39206
     6  F(19)              0.00099       4.17326       1.48912       1.39205
 --------------------------------------------------------
       Center         ----  Spin Dipole Couplings  ----

 Normal termination of Gaussian 16 at Wed Apr  9 00:49:06 2025.
