 Gaussian 16, Revision C.01,

 ----------------------------------------------------------------------
 #t hf aug-cc-pvdz symm=none int=(grid=ultrafine) guess=(read,tcheck) s
 table=(opt,rrhf)
 ----------------------------------------------------------------------
 -----
 title
 -----
 Symbolic Z-matrix:
 Charge =  0 Multiplicity = 1

 SCF Done:  E(RHF) =  -444.229212583     A.U. after   12 cycles
 Normal termination of Gaussian 16 at Wed Apr  9 00:04:29 2025.
 Gaussian 16:  ES64L-G16RevC.01  3-Jul-2019

 ----------------------------------------------------------------------
 #t hf aug-cc-pvdz iop(5/13=1,5/36=2,99/5=2) pseudo=read geom=check gue
 ss=(read,tcheck) scf=(maxcycle=1)
 ----------------------------------------------------------------------
 -----
 title
 -----
 Structure from the checkpoint file:  "BDE49_nonexpt_2238_mol1.chk"
 Charge =  0 Multiplicity = 1

                         Standard orientation:
 ---------------------------------------------------------------------
 Center     Atomic      Atomic             Coordinates (Angstroms)
 Number     Number       Type             X           Y           Z
 ---------------------------------------------------------------------
      1         14           0        1.657093   -0.007375   -0.000002
      2          8           0        0.056254   -0.397538   -0.000001
      3          6           0       -1.024451    0.538066    0.000004
      4          6           0       -2.336829   -0.225061    0.000001
      5          1           0       -0.956900    1.182667   -0.886312
      6          1           0       -0.956899    1.182657    0.886327
      7          1           0       -2.407162   -0.860935   -0.885210
      8          1           0       -3.182779    0.468286    0.000005
      9          1           0       -2.407161   -0.860944    0.885205
     10          1           0        2.393030   -1.286018   -0.000009
     11          1           0        2.018111    0.789902    1.200055
     12          1           0        2.018107    0.789913   -1.200054
 ---------------------------------------------------------------------

 SCF Done:  E(RHF) =  -444.313627968     A.U. after    2 cycles

 The electronic state is 1-A.
 Alpha  occ. eigenvalues --  -69.08961 -20.56131 -11.29777 -11.22871  -6.83782
 Alpha  occ. eigenvalues --   -3.94696  -3.94562  -3.94533  -1.30644  -1.01190
 Alpha  occ. eigenvalues --   -0.84753  -0.73242  -0.66159  -0.62491  -0.59970
 Alpha  occ. eigenvalues --   -0.54982  -0.53823  -0.49306  -0.48799  -0.46412
 Alpha  occ. eigenvalues --   -0.44416
 Alpha virt. eigenvalues --    0.03470   0.04626   0.05000   0.05275   0.06170
 Alpha virt. eigenvalues --    0.07191   0.07425   0.07861   0.09226   0.09636
 Alpha virt. eigenvalues --    0.10677   0.13660   0.14149   0.15238   0.15651

 Mulliken charges:
               1
     1  Si   0.562813
     2  O   -0.897309
     3  C    0.693805
     4  C    0.211232
     5  H   -0.185826
     6  H   -0.185827
     7  H   -0.062357
     8  H   -0.025271
     9  H   -0.062359
    10  H    0.002311
    11  H   -0.025605
    12  H   -0.025606
 Sum of Mulliken charges =  -0.00000

 Dipole moment (field-independent basis, Debye):
    X=             -0.6749    Y=              1.1193    Z=              0.0000  Tot=              1.3070

 Test job not archived.
 1\1\GINC-SE393\SP\RHF\Aug-CC-pVDZ\C2H8O1Si1\OHZDE\09-Apr-2025\0\\#t hf
  aug-cc-pvdz iop(5/13=1,5/36=2,99/5=2) pseudo=read geom=check guess=(r
 ead,tcheck) scf=(maxcycle=1)\\title\\0,1\Si,0,1.657093,-0.007375,-0.00
 0002\O,0,0.056254,-0.397538,-0.000001\C,0,-1.024451,0.538066,0.000004\
 C,0,-2.336829,-0.225061,0.000001\H,0,-0.9569,1.182667,-0.886312\H,0,-0
 .956899,1.182657,0.886327\H,0,-2.407162,-0.860935,-0.88521\H,0,-3.1827
 79,0.468286,0.000005\H,0,-2.407161,-0.860944,0.885205\H,0,2.39303,-1.2
 86018,-0.000009\H,0,2.018111,0.789902,1.200055\H,0,2.018107,0.789913,-

 Normal termination of Gaussian 16 at Wed Apr  9 00:04:32 2025.
