 Gaussian 16, Revision C.01,

 ----------------------------------------------------------------------
 #t hf aug-cc-pvdz symm=none int=(grid=ultrafine) guess=(read,tcheck) s
 table=(opt,rrhf)
 ----------------------------------------------------------------------
 -----
 title
 -----
 Symbolic Z-matrix:
 Charge =  0 Multiplicity = 1

 SCF Done:  E(RHF) =  -519.556760280     A.U. after   14 cycles
 Normal termination of Gaussian 16 at Wed Apr  9 00:40:27 2025.
 Gaussian 16:  ES64L-G16RevC.01  3-Jul-2019

 ----------------------------------------------------------------------
 #t hf aug-cc-pvdz iop(5/13=1,5/36=2,99/5=2) pseudo=read geom=check gue
 ss=(read,tcheck) scf=(maxcycle=1)
 ----------------------------------------------------------------------
 -----
 title
 -----
 Structure from the checkpoint file:  "BDE49_nonexpt_699_mol1.chk"
 Charge =  0 Multiplicity = 1

                         Standard orientation:
 ---------------------------------------------------------------------
 Center     Atomic      Atomic             Coordinates (Angstroms)
 Number     Number       Type             X           Y           Z
 ---------------------------------------------------------------------
      1         15           0        0.085492   -1.157348   -0.226489
      2          5           0        1.593108    0.044295    0.031069
      3          8           0        1.439973    1.379887    0.078861
      4          6           0       -1.258920   -0.114092    0.446918
      5          6           0       -1.831758    0.873833   -0.249486
      6          1           0       -1.581764   -0.298948    1.468279
      7          1           0       -1.575567    1.072015   -1.286914
      8          1           0       -2.607495    1.497147    0.182887
      9          1           0        0.507641    1.649523    0.093454
     10          1           0        2.699096   -0.399408    0.071292
     11          1           0        0.334454   -1.979129    0.897510
 ---------------------------------------------------------------------

 SCF Done:  E(RHF) =  -519.637013819     A.U. after    2 cycles

 The electronic state is 1-A.
 Alpha  occ. eigenvalues --  -81.24656 -20.59533 -11.26860 -11.25874  -7.75313
 Alpha  occ. eigenvalues --   -7.65290  -4.89386  -4.89253  -4.89018  -1.33854
 Alpha  occ. eigenvalues --   -1.05285  -0.84459  -0.78251  -0.74678  -0.65290
 Alpha  occ. eigenvalues --   -0.63662  -0.59612  -0.56666  -0.55974  -0.49941
 Alpha  occ. eigenvalues --   -0.44069  -0.41540  -0.33206
 Alpha virt. eigenvalues --    0.03122   0.04272   0.04656   0.05812   0.05946
 Alpha virt. eigenvalues --    0.06666   0.07222   0.08988   0.09128   0.09627
 Alpha virt. eigenvalues --    0.10870   0.11866   0.13096   0.13142   0.14171

 Mulliken charges:
               1
     1  P   -0.107970
     2  B    0.264111
     3  O   -0.484077
     4  C    0.205460
     5  C    0.459774
     6  H   -0.404589
     7  H   -0.318814
     8  H   -0.260030
     9  H    0.269817
    10  H    0.273124
    11  H    0.103192
 Sum of Mulliken charges =   0.00000

 Dipole moment (field-independent basis, Debye):
    X=             -1.6864    Y=              0.1900    Z=              0.8102  Tot=              1.8806

 Test job not archived.
 1\1\GINC-SE120\SP\RHF\Aug-CC-pVDZ\C2H6B1O1P1\OHZDE\09-Apr-2025\0\\#t h
 f aug-cc-pvdz iop(5/13=1,5/36=2,99/5=2) pseudo=read geom=check guess=(
 read,tcheck) scf=(maxcycle=1)\\title\\0,1\P,0,0.085491,-1.157348,-0.22
 6489\B,0,1.593108,0.044294,0.031069\O,0,1.439974,1.379886,0.078861\C,0
 ,-1.25892,-0.114091,0.446918\C,0,-1.831757,0.873834,-0.249486\H,0,-1.5
 81764,-0.298947,1.468279\H,0,-1.575566,1.072016,-1.286914\H,0,-2.60749
 4,1.497149,0.182887\H,0,0.507642,1.649523,0.093454\H,0,2.699096,-0.399
 41,0.071292\H,0,0.334453,-1.979129,0.89751\\Version=ES64L-G16RevC.01\S

 Normal termination of Gaussian 16 at Wed Apr  9 00:40:30 2025.
