 Gaussian 16, Revision C.01,

 ----------------------------------------------------------------------
 #t hf aug-cc-pvdz symm=none int=(grid=ultrafine) guess=(read,tcheck) s
 table=(opt,rrhf)
 ----------------------------------------------------------------------
 -----
 title
 -----
 Symbolic Z-matrix:
 Charge =  0 Multiplicity = 1

 SCF Done:  E(RHF) =  -408.649489349     A.U. after   16 cycles

 1\1\GINC-SE128\Stability\RHF\Aug-CC-pVDZ\C10H9B1\OHZDE\09-Apr-2025\0\\
 #t hf aug-cc-pvdz symm=none int=(grid=ultrafine) guess=(read,tcheck) s
 table=(opt,rrhf)\\title\\0,1\C,0,1.056471,1.432059,0.\C,0,2.372979,1.0
 33425,0.\C,0,2.712081,-0.337155,0.\C,0,1.718969,-1.284459,0.\C,0,0.351
 934,-0.903186,0.\C,0,0.,0.485545,0.\H,0,0.814705,2.486223,0.\H,0,3.160
 618,1.778737,0.\H,0,3.754232,-0.635574,0.\H,0,1.965026,-2.34127,0.\C,0
 ,-1.395816,0.865729,0.\C,0,-2.349509,-0.152353,0.\C,0,-0.678045,-1.879
 088,0.\C,0,-2.003365,-1.516202,0.\H,0,-0.397241,-2.927768,0.\H,0,-2.77

 Normal termination of Gaussian 16 at Wed Apr  9 00:22:24 2025.
 Gaussian 16:  ES64L-G16RevC.01  3-Jul-2019

 ----------------------------------------------------------------------
 #t hf aug-cc-pvdz iop(5/13=1,5/36=2,99/5=2) pseudo=read geom=check gue
 ss=(read,tcheck) scf=(maxcycle=1)
 ----------------------------------------------------------------------
 -----
 title
 -----
 Structure from the checkpoint file:  "BDE49_nonexpt_264_mol1.chk"
 Charge =  0 Multiplicity = 1

                         Standard orientation:
 ---------------------------------------------------------------------
 Center     Atomic      Atomic             Coordinates (Angstroms)
 Number     Number       Type             X           Y           Z
 ---------------------------------------------------------------------
      1          6           0        1.056471    1.432059    0.000000
      2          6           0        2.372979    1.033425    0.000000
      3          6           0        2.712081   -0.337155    0.000000
      4          6           0        1.718969   -1.284459    0.000000
      5          6           0        0.351934   -0.903186    0.000000
      6          6           0        0.000000    0.485545    0.000000
      7          1           0        0.814705    2.486223    0.000000
      8          1           0        3.160618    1.778737    0.000000
      9          1           0        3.754232   -0.635574    0.000000
     10          1           0        1.965026   -2.341270    0.000000
     11          6           0       -1.395816    0.865729    0.000000
     12          6           0       -2.349509   -0.152353    0.000000
     13          6           0       -0.678045   -1.879088    0.000000
     14          6           0       -2.003365   -1.516202    0.000000
     15          1           0       -0.397241   -2.927768    0.000000
     16          1           0       -2.779244   -2.273239    0.000000
     17          1           0       -3.398570    0.122689    0.000000
     18          5           0       -1.910050    2.312512    0.000000
     19          1           0       -1.194338    3.264654    0.000000
     20          1           0       -3.089130    2.497084    0.000000
 ---------------------------------------------------------------------

 SCF Done:  E(RHF) =  -408.766407443     A.U. after    2 cycles

 The electronic state is 1-A'.
 Alpha  occ. eigenvalues --  -11.26472 -11.26252 -11.26190 -11.25673 -11.25194
 Alpha  occ. eigenvalues --  -11.25056 -11.24945 -11.24814 -11.24454 -11.22711
 Alpha  occ. eigenvalues --   -7.60428  -1.16909  -1.10713  -1.04685  -1.00927
 Alpha  occ. eigenvalues --   -0.98219  -0.86135  -0.84311  -0.82257  -0.71775
 Alpha  occ. eigenvalues --   -0.71327  -0.68951  -0.66546  -0.62701  -0.60639
 Alpha  occ. eigenvalues --   -0.59383  -0.57608  -0.55709  -0.53967  -0.52202
 Alpha  occ. eigenvalues --   -0.49991  -0.47192  -0.46056  -0.45658  -0.39438
 Alpha  occ. eigenvalues --   -0.32776  -0.30032
 Alpha virt. eigenvalues --    0.03120   0.03548   0.03600   0.03894   0.05013
 Alpha virt. eigenvalues --    0.05174   0.05891   0.06702   0.06875   0.07745
 Alpha virt. eigenvalues --    0.09240   0.09372   0.10133   0.10145   0.10930

 Mulliken charges:
               1
     1  C    0.583334
     2  C    0.402453
     3  C    0.417894
     4  C    0.935531
     5  C   -0.013819
     6  C    0.342717
     7  H   -0.721647
     8  H   -0.479879
     9  H   -0.450732
    10  H   -0.583322
    11  C   -0.596069
    12  C    1.122756
    13  C    0.854156
    14  C    0.173092
    15  H   -0.607798
    16  H   -0.448899
    17  H   -0.560652
    18  B   -1.211326
    19  H    0.421716
    20  H    0.420495
 Sum of Mulliken charges =   0.00000

 Dipole moment (field-independent basis, Debye):
    X=              0.5125    Y=             -1.3729    Z=              0.0000  Tot=              1.4655

 Test job not archived.
 1\1\GINC-SE128\SP\RHF\Aug-CC-pVDZ\C10H9B1\OHZDE\09-Apr-2025\0\\#t hf a
 ug-cc-pvdz iop(5/13=1,5/36=2,99/5=2) pseudo=read geom=check guess=(rea
 d,tcheck) scf=(maxcycle=1)\\title\\0,1\C,0,1.056471,1.432059,0.\C,0,2.
 372979,1.033425,0.\C,0,2.712081,-0.337155,0.\C,0,1.718969,-1.284459,0.
 \C,0,0.351934,-0.903186,0.\C,0,0.,0.485545,0.\H,0,0.814705,2.486223,0.
 \H,0,3.160618,1.778737,0.\H,0,3.754232,-0.635574,0.\H,0,1.965026,-2.34
 127,0.\C,0,-1.395816,0.865729,0.\C,0,-2.349509,-0.152353,0.\C,0,-0.678
 045,-1.879088,0.\C,0,-2.003365,-1.516202,0.\H,0,-0.397241,-2.927768,0.

 Normal termination of Gaussian 16 at Wed Apr  9 00:22:37 2025.
