 Gaussian 16, Revision C.01,

 ----------------------------------------------------------------------
 #t hf aug-cc-pvdz symm=none int=(grid=ultrafine) guess=(read,tcheck) s
 table=(opt,rrhf)
 ----------------------------------------------------------------------
 -----
 title
 -----
 Symbolic Z-matrix:
 Charge =  0 Multiplicity = 1

 SCF Done:  E(RHF) =  -1030.25614553     A.U. after   14 cycles
 Normal termination of Gaussian 16 at Tue Apr  8 23:20:06 2025.
 Gaussian 16:  ES64L-G16RevC.01  3-Jul-2019

 ----------------------------------------------------------------------
 #t hf aug-cc-pvdz iop(5/13=1,5/36=2,99/5=2) pseudo=read geom=check gue
 ss=(read,tcheck) scf=(maxcycle=1)
 ----------------------------------------------------------------------
 -----
 title
 -----
 Structure from the checkpoint file:  "BDE49_nonexpt_115_mol1.chk"
 Charge =  0 Multiplicity = 1

                         Standard orientation:
 ---------------------------------------------------------------------
 Center     Atomic      Atomic             Coordinates (Angstroms)
 Number     Number       Type             X           Y           Z
 ---------------------------------------------------------------------
      1          5           0        0.471406   -0.684456    1.237082
      2          5           0       -0.471401    0.684434    1.237097
      3         16           0       -1.958322    0.914787    0.256349
      4          6           0       -2.087190   -0.554923   -0.612707
      5          7           0       -2.214897   -1.532524   -1.217789
      6         16           0        1.958319   -0.914794    0.256318
      7          6           0        2.087191    0.554936   -0.612701
      8          7           0        2.214901    1.532552   -1.217758
      9          1           0       -0.264534    1.640207    1.913884
     10          1           0        0.264524   -1.640255    1.913829
 ---------------------------------------------------------------------

 SCF Done:  E(RHF) =  -1030.36342698     A.U. after    2 cycles

 The electronic state is 1-A.
 Alpha  occ. eigenvalues --  -93.61859 -93.61858 -15.67104 -15.67104 -11.32899
 Alpha  occ. eigenvalues --  -11.32899  -8.91661  -8.91661  -7.68418  -7.68338
 Alpha  occ. eigenvalues --   -6.25891  -6.25890  -6.25531  -6.25517  -6.25317
 Alpha  occ. eigenvalues --   -6.25300  -1.22115  -1.22033  -1.06663  -1.05727
 Alpha  occ. eigenvalues --   -0.79043  -0.74976  -0.66984  -0.60445  -0.57839
 Alpha  occ. eigenvalues --   -0.57751  -0.56819  -0.55784  -0.54491  -0.54100
 Alpha  occ. eigenvalues --   -0.50009  -0.47186  -0.45611  -0.42405  -0.42326
 Alpha virt. eigenvalues --    0.02330   0.02773   0.02861   0.04010   0.05648
 Alpha virt. eigenvalues --    0.06009   0.06596   0.06744   0.07674   0.09436
 Alpha virt. eigenvalues --    0.10056   0.10918   0.11351   0.11663   0.11773

 Mulliken charges:
               1
     1  B    0.222157
     2  B    0.222154
     3  S    0.280791
     4  C   -0.503301
     5  N   -0.169431
     6  S    0.280793
     7  C   -0.503303
     8  N   -0.169430
     9  H    0.169785
    10  H    0.169785
 Sum of Mulliken charges =  -0.00000

 Dipole moment (field-independent basis, Debye):
    X=              0.0000    Y=             -0.0000    Z=              4.1119  Tot=              4.1119

 Test job not archived.
 1\1\GINC-SE344\SP\RHF\Aug-CC-pVDZ\C2H2B2N2S2\OHZDE\08-Apr-2025\0\\#t h
 f aug-cc-pvdz iop(5/13=1,5/36=2,99/5=2) pseudo=read geom=check guess=(
 read,tcheck) scf=(maxcycle=1)\\title\\0,1\B,0,0.471406,-0.684456,1.237
 082\B,0,-0.471401,0.684434,1.237097\S,0,-1.958322,0.914787,0.256349\C,
 0,-2.08719,-0.554923,-0.612707\N,0,-2.214897,-1.532524,-1.217789\S,0,1
 .958319,-0.914794,0.256318\C,0,2.087191,0.554936,-0.612701\N,0,2.21490
 1,1.532552,-1.217758\H,0,-0.264534,1.640207,1.913884\H,0,0.264524,-1.6
 40255,1.913829\\Version=ES64L-G16RevC.01\State=1-A\HF=-1030.363427\RMS

 Normal termination of Gaussian 16 at Tue Apr  8 23:20:11 2025.
