 Gaussian 16, Revision C.01,

 ----------------------------------------------------------------------
 #t hf aug-cc-pvdz symm=none int=(grid=ultrafine) guess=(read,tcheck) s
 table=(opt,rrhf)
 ----------------------------------------------------------------------
 -----
 title
 -----
 Symbolic Z-matrix:
 Charge =  0 Multiplicity = 1

 SCF Done:  E(RHF) =  -747.996722655     A.U. after   15 cycles
 Normal termination of Gaussian 16 at Wed Apr  9 00:44:58 2025.
 Gaussian 16:  ES64L-G16RevC.01  3-Jul-2019

 ----------------------------------------------------------------------
 #t hf aug-cc-pvdz iop(5/13=1,5/36=2,99/5=2) pseudo=read geom=check gue
 ss=(read,tcheck) scf=(maxcycle=1)
 ----------------------------------------------------------------------
 -----
 title
 -----
 Structure from the checkpoint file:  "BDE49_nonexpt_795_mol1.chk"
 Charge =  0 Multiplicity = 1

                         Standard orientation:
 ---------------------------------------------------------------------
 Center     Atomic      Atomic             Coordinates (Angstroms)
 Number     Number       Type             X           Y           Z
 ---------------------------------------------------------------------
      1         14           0       -0.125829    0.215003    0.799601
      2          7           0       -1.141868   -1.193358    0.017086
      3          5           0        1.739155   -0.067702    0.031296
      4          8           0       -2.343746   -1.055816   -0.148593
      5          8           0       -0.531008   -2.234438   -0.274664
      6          8           0        2.105880   -1.245491   -0.522685
      7          8           0        2.606716    0.978087    0.104899
      8          6           0       -1.037766    1.806870    0.430649
      9          6           0       -1.041880    2.218995   -1.052044
     10          1           0       -0.560333    2.583587    1.041332
     11          1           0       -2.060357    1.704015    0.806303
     12          1           0       -0.025655    2.340268   -1.436622
     13          1           0       -1.562813    3.169603   -1.191584
     14          1           0       -1.551920    1.473981   -1.667667
     15          1           0        3.472622    0.762768   -0.266578
     16          1           0        1.370706   -1.883046   -0.525890
     17          1           0       -0.248196   -0.163129    2.226932
 ---------------------------------------------------------------------

 SCF Done:  E(RHF) =  -748.168967171     A.U. after    2 cycles

 The electronic state is 1-A.
 Alpha  occ. eigenvalues --  -69.11035 -20.62790 -20.61827 -20.60373 -20.59274
 Alpha  occ. eigenvalues --  -15.88404 -11.24971 -11.24813  -7.68386  -6.86301
 Alpha  occ. eigenvalues --   -3.97145  -3.96944  -3.96884  -1.53417  -1.36275
 Alpha  occ. eigenvalues --   -1.35549  -1.32509  -1.03764  -0.93863  -0.86666
 Alpha  occ. eigenvalues --   -0.80221  -0.80030  -0.76196  -0.73359  -0.70961
 Alpha  occ. eigenvalues --   -0.66756  -0.63317  -0.62683  -0.60886  -0.60706
 Alpha  occ. eigenvalues --   -0.59111  -0.53877  -0.53669  -0.52560  -0.51662
 Alpha  occ. eigenvalues --   -0.48351  -0.47705  -0.46532  -0.43845
 Alpha virt. eigenvalues --    0.02723   0.03623   0.04312   0.05200   0.05922
 Alpha virt. eigenvalues --    0.06058   0.06458   0.06797   0.07347   0.07820
 Alpha virt. eigenvalues --    0.08670   0.08881   0.09422   0.09881   0.10404

 Mulliken charges:
               1
     1  Si   0.613862
     2  N    0.369715
     3  B    0.912085
     4  O   -0.547565
     5  O   -0.653679
     6  O   -0.520648
     7  O   -0.500306
     8  C    0.150693
     9  C    0.323714
    10  H   -0.167384
    11  H   -0.156005
    12  H   -0.131872
    13  H   -0.094715
    14  H   -0.083517
    15  H    0.184117
    16  H    0.283679
    17  H    0.017827
 Sum of Mulliken charges =  -0.00000

 Dipole moment (field-independent basis, Debye):
    X=              1.8470    Y=              3.3901    Z=              1.0455  Tot=              3.9997

 Test job not archived.
 1\1\GINC-SE083\SP\RHF\Aug-CC-pVDZ\C2H8B1N1O4Si1\OHZDE\09-Apr-2025\0\\#
 t hf aug-cc-pvdz iop(5/13=1,5/36=2,99/5=2) pseudo=read geom=check gues
 s=(read,tcheck) scf=(maxcycle=1)\\title\\0,1\Si,0,0.125829,0.215003,-0
 .799601\N,0,1.141868,-1.193358,-0.017086\B,0,-1.739155,-0.067702,-0.03
 1296\O,0,2.343746,-1.055816,0.148593\O,0,0.531008,-2.234438,0.274664\O
 ,0,-2.10588,-1.245491,0.522685\O,0,-2.606716,0.978087,-0.104899\C,0,1.
 037766,1.80687,-0.430649\C,0,1.04188,2.218995,1.052044\H,0,0.560333,2.
 583587,-1.041332\H,0,2.060357,1.704015,-0.806303\H,0,0.025655,2.340268

 Normal termination of Gaussian 16 at Wed Apr  9 00:45:08 2025.
