 Gaussian 16, Revision C.01,

 ----------------------------------------------------------------------
 #t hf aug-cc-pvdz symm=none int=(grid=ultrafine) guess=(read,tcheck) s
 table=(opt,rrhf)
 ----------------------------------------------------------------------
 -----
 title
 -----
 Symbolic Z-matrix:
 Charge =  0 Multiplicity = 1

 SCF Done:  E(RHF) =  -814.121300411     A.U. after   15 cycles
 Normal termination of Gaussian 16 at Tue Apr  8 23:29:18 2025.
 Gaussian 16:  ES64L-G16RevC.01  3-Jul-2019

 ----------------------------------------------------------------------
 #t hf aug-cc-pvdz iop(5/13=1,5/36=2,99/5=2) pseudo=read geom=check gue
 ss=(read,tcheck) scf=(maxcycle=1)
 ----------------------------------------------------------------------
 -----
 title
 -----
 Structure from the checkpoint file:  "BDE49_nonexpt_1365_mol1.chk"
 Charge =  0 Multiplicity = 1

                         Standard orientation:
 ---------------------------------------------------------------------
 Center     Atomic      Atomic             Coordinates (Angstroms)
 Number     Number       Type             X           Y           Z
 ---------------------------------------------------------------------
      1          6           0       -1.070487    0.110403    0.742537
      2          6           0        1.009617    0.116707    0.230548
      3          6           0        2.790594   -1.519262    0.115208
      4          6           0        3.200586    0.818627   -0.631925
      5          1           0        3.444899    0.526507   -1.660431
      6          1           0        2.728226    1.796710   -0.644210
      7          1           0        2.870637   -2.008827   -0.863480
      8          1           0        2.100856   -2.086600    0.735986
      9          7           0        0.097152   -0.706180    0.654884
     10          7           0       -0.691077    1.476099    0.378430
     11          7           0        0.520261    1.472890    0.060062
     12         15           0       -2.228028   -0.572031   -0.592754
     13          7           0        2.304900   -0.153958   -0.018392
     14          9           0       -3.650486    0.098932   -0.141959
     15          1           0        4.131249    0.875287   -0.059390
     16          1           0        3.779863   -1.510235    0.580786
     17          1           0       -2.394467   -1.793954    0.110056
     18          1           0       -1.586979    0.110389    1.706527
 ---------------------------------------------------------------------

 SCF Done:  E(RHF) =  -814.292423893     A.U. after    2 cycles

 The electronic state is 1-A.
 Alpha  occ. eigenvalues --  -81.33566 -26.11506 -15.72171 -15.70940 -15.67175
 Alpha  occ. eigenvalues --  -15.62303 -11.37356 -11.31720 -11.28625 -11.28353
 Alpha  occ. eigenvalues --   -7.82990  -4.97110  -4.96778  -4.96475  -1.63654
 Alpha  occ. eigenvalues --   -1.38821  -1.26099  -1.17779  -1.04478  -0.98890
 Alpha  occ. eigenvalues --   -0.92795  -0.86666  -0.82311  -0.77524  -0.73508
 Alpha  occ. eigenvalues --   -0.72839  -0.71809  -0.69805  -0.66130  -0.64660
 Alpha  occ. eigenvalues --   -0.62055  -0.59734  -0.57876  -0.57432  -0.55597
 Alpha  occ. eigenvalues --   -0.55364  -0.49115  -0.46701  -0.45547  -0.42711
 Alpha  occ. eigenvalues --   -0.38795  -0.34339
 Alpha virt. eigenvalues --    0.02718   0.03591   0.04007   0.04608   0.06101
 Alpha virt. eigenvalues --    0.06673   0.07339   0.07384   0.07882   0.08762
 Alpha virt. eigenvalues --    0.09445   0.10003   0.10935   0.12112   0.12796

 Mulliken charges:
               1
     1  C    0.913745
     2  C    0.399968
     3  C    0.862986
     4  C    0.904822
     5  H   -0.074917
     6  H   -0.240150
     7  H   -0.073999
     8  H   -0.218911
     9  N   -0.698638
    10  N   -0.516660
    11  N   -0.581081
    12  P    0.934285
    13  N   -0.409771
    14  F   -0.681071
    15  H   -0.156112
    16  H   -0.146502
    17  H    0.042124
    18  H   -0.260118
 Sum of Mulliken charges =  -0.00000

 Dipole moment (field-independent basis, Debye):
    X=              4.2003    Y=             -1.8654    Z=             -0.0179  Tot=              4.5960

 Test job not archived.
 1\1\GINC-SE461\SP\RHF\Aug-CC-pVDZ\C4H8F1N4P1\OHZDE\08-Apr-2025\0\\#t h
 f aug-cc-pvdz iop(5/13=1,5/36=2,99/5=2) pseudo=read geom=check guess=(
 read,tcheck) scf=(maxcycle=1)\\title\\0,1\C,0,-1.070487,0.110403,0.742
 537\C,0,1.009617,0.116707,0.230548\C,0,2.790594,-1.519262,0.115208\C,0
 ,3.200586,0.818627,-0.631925\H,0,3.444899,0.526507,-1.660431\H,0,2.728
 226,1.79671,-0.64421\H,0,2.870637,-2.008827,-0.86348\H,0,2.100856,-2.0
 866,0.735986\N,0,0.097152,-0.70618,0.654884\N,0,-0.691077,1.476099,0.3
 7843\N,0,0.520261,1.47289,0.060062\P,0,-2.228028,-0.572031,-0.592754\N

 Normal termination of Gaussian 16 at Tue Apr  8 23:29:27 2025.
