 Gaussian 16, Revision C.01,

 ----------------------------------------------------------------------
 #t hf aug-cc-pvdz symm=none int=(grid=ultrafine) guess=(read,tcheck) s
 table=(opt,rrhf)
 ----------------------------------------------------------------------
 -----
 title
 -----
 Symbolic Z-matrix:
 Charge =  0 Multiplicity = 1

 SCF Done:  E(RHF) =  -362.077081840     A.U. after   14 cycles
 Normal termination of Gaussian 16 at Wed Apr  9 00:37:29 2025.
 Gaussian 16:  ES64L-G16RevC.01  3-Jul-2019

 ----------------------------------------------------------------------
 #t hf aug-cc-pvdz iop(5/13=1,5/36=2,99/5=2) pseudo=read geom=check gue
 ss=(read,tcheck) scf=(maxcycle=1)
 ----------------------------------------------------------------------
 -----
 title
 -----
 Structure from the checkpoint file:  "BDE49_nonexpt_610_mol1.chk"
 Charge =  0 Multiplicity = 1

                         Standard orientation:
 ---------------------------------------------------------------------
 Center     Atomic      Atomic             Coordinates (Angstroms)
 Number     Number       Type             X           Y           Z
 ---------------------------------------------------------------------
      1          6           0        1.824465    0.072094    0.000005
      2          7           0        0.488919   -0.320501   -0.000008
      3          6           0       -0.567481    0.577239   -0.000019
      4          5           0       -2.255940   -1.355925    0.000004
      5          8           0        2.729884   -0.721663    0.000017
      6          1           0        1.940926    1.164168    0.000006
      7          8           0       -0.426697    1.777631    0.000000
      8          1           0        0.310871   -1.316357   -0.000006
      9          7           0       -1.849505   -0.010548   -0.000003
     10          1           0       -1.449408   -2.230382   -0.000010
     11          1           0       -3.419328   -1.589096    0.000010
     12          1           0       -2.546656    0.724892    0.000004
 ---------------------------------------------------------------------

 SCF Done:  E(RHF) =  -362.193365257     A.U. after    2 cycles

 The electronic state is 1-A.
 Alpha  occ. eigenvalues --  -20.57773 -20.57517 -15.69503 -15.67925 -11.43938
 Alpha  occ. eigenvalues --  -11.39235  -7.65478  -1.40795  -1.38076  -1.24275
 Alpha  occ. eigenvalues --   -1.19100  -0.91750  -0.84749  -0.80438  -0.74168
 Alpha  occ. eigenvalues --   -0.70208  -0.67661  -0.65889  -0.65708  -0.60599
 Alpha  occ. eigenvalues --   -0.58129  -0.53000  -0.50291  -0.47356  -0.46841
 Alpha  occ. eigenvalues --   -0.44995
 Alpha virt. eigenvalues --    0.02925   0.03175   0.03898   0.04438   0.06145
 Alpha virt. eigenvalues --    0.07820   0.08898   0.09292   0.09472   0.10842
 Alpha virt. eigenvalues --    0.11453   0.12771   0.13708   0.13902   0.14418

 Mulliken charges:
               1
     1  C    0.797627
     2  N   -0.106357
     3  C    0.732580
     4  B   -0.623939
     5  O   -0.440899
     6  H   -0.173815
     7  O   -0.419260
     8  H   -0.131182
     9  N   -0.344388
    10  H    0.306826
    11  H    0.419330
    12  H   -0.016522
 Sum of Mulliken charges =  -0.00000

 Dipole moment (field-independent basis, Debye):
    X=             -3.7684    Y=             -1.1273    Z=             -0.0000  Tot=              3.9334

 Test job not archived.
 1\1\GINC-SE332\SP\RHF\Aug-CC-pVDZ\C2H5B1N2O2\OHZDE\09-Apr-2025\0\\#t h
 f aug-cc-pvdz iop(5/13=1,5/36=2,99/5=2) pseudo=read geom=check guess=(
 read,tcheck) scf=(maxcycle=1)\\title\\0,1\C,0,1.824465,0.072094,0.0000
 05\N,0,0.488919,-0.320501,-0.000008\C,0,-0.567481,0.577239,-0.000019\B
 ,0,-2.25594,-1.355925,0.000004\O,0,2.729884,-0.721663,0.000017\H,0,1.9
 40926,1.164168,0.000006\O,0,-0.426697,1.777631,0.\H,0,0.310871,-1.3163
 57,-0.000006\N,0,-1.849505,-0.010548,-0.000003\H,0,-1.449408,-2.230382
 ,-0.00001\H,0,-3.419328,-1.589096,0.00001\H,0,-2.546656,0.724892,0.000

 Normal termination of Gaussian 16 at Wed Apr  9 00:37:33 2025.
