 Gaussian 16, Revision C.01,

 ----------------------------------------------------------------------
 #t hf aug-cc-pvdz symm=none int=(grid=ultrafine) guess=(read,tcheck) s
 table=(opt,rrhf)
 ----------------------------------------------------------------------
 -----
 title
 -----
 Symbolic Z-matrix:
 Charge =  0 Multiplicity = 1

 SCF Done:  E(RHF) =  -706.618328712     A.U. after   14 cycles
 Normal termination of Gaussian 16 at Tue Apr  8 23:03:51 2025.
 Gaussian 16:  ES64L-G16RevC.01  3-Jul-2019

 ----------------------------------------------------------------------
 #t hf aug-cc-pvdz iop(5/13=1,5/36=2,99/5=2) pseudo=read geom=check gue
 ss=(read,tcheck) scf=(maxcycle=1)
 ----------------------------------------------------------------------
 -----
 title
 -----
 Structure from the checkpoint file:  "BDE49_expt_387_mol1.chk"
 Charge =  0 Multiplicity = 1

                         Standard orientation:
 ---------------------------------------------------------------------
 Center     Atomic      Atomic             Coordinates (Angstroms)
 Number     Number       Type             X           Y           Z
 ---------------------------------------------------------------------
      1          8           0        0.495130    1.125571    0.635591
      2          6           0        1.426314    1.402770   -0.404377
      3          6           0        2.508048    0.327913   -0.333681
      4          1           0        1.817330    2.403513   -0.212770
      5          1           0        0.940198    1.391987   -1.388063
      6         16           0        1.567170   -1.214233   -0.025239
      7          1           0        3.203794    0.515149    0.485082
      8          1           0        3.057325    0.233939   -1.271005
      9          6           0        0.102514   -0.235818    0.626591
     10          6           0       -1.158455   -0.492905   -0.195123
     11          1           0       -0.056604   -0.514088    1.670320
     12          6           0       -2.393383    0.211580    0.381333
     13          1           0       -1.328631   -1.575177   -0.236185
     14          1           0       -0.984888   -0.171788   -1.227817
     15          6           0       -3.651743   -0.011602   -0.461848
     16          1           0       -2.183121    1.282126    0.462765
     17          1           0       -2.569116   -0.146083    1.403157
     18          1           0       -3.518683    0.368329   -1.479539
     19          1           0       -4.515403    0.499131   -0.027796
     20          1           0       -3.897730   -1.075503   -0.536431
 ---------------------------------------------------------------------

 SCF Done:  E(RHF) =  -706.733780162     A.U. after    2 cycles

 The electronic state is 1-A.
 Alpha  occ. eigenvalues --  -93.52367 -20.58516 -11.32342 -11.30171 -11.27165
 Alpha  occ. eigenvalues --  -11.23477 -11.22993 -11.22486  -8.82135  -6.16274
 Alpha  occ. eigenvalues --   -6.16109  -6.15743  -1.35408  -1.07098  -1.04926
 Alpha  occ. eigenvalues --   -1.00244  -0.92034  -0.83310  -0.80722  -0.78193
 Alpha  occ. eigenvalues --   -0.70576  -0.67182  -0.63151  -0.62737  -0.58599
 Alpha  occ. eigenvalues --   -0.57902  -0.55231  -0.54331  -0.52586  -0.50528
 Alpha  occ. eigenvalues --   -0.49313  -0.47480  -0.45912  -0.44664  -0.42315
 Alpha  occ. eigenvalues --   -0.33922
 Alpha virt. eigenvalues --    0.03471   0.04079   0.04573   0.04915   0.05640
 Alpha virt. eigenvalues --    0.05871   0.06126   0.07257   0.08260   0.08502
 Alpha virt. eigenvalues --    0.08837   0.09356   0.10193   0.12540   0.12983

 Mulliken charges:
               1
     1  O   -0.782809
     2  C    0.742891
     3  C   -0.041587
     4  H   -0.230080
     5  H   -0.137912
     6  S    0.437581
     7  H   -0.133216
     8  H   -0.059718
     9  C    0.736084
    10  C   -0.043574
    11  H   -0.362957
    12  C    0.191549
    13  H   -0.101654
    14  H   -0.201996
    15  C    0.437599
    16  H   -0.114020
    17  H   -0.124470
    18  H   -0.078790
    19  H   -0.057685
    20  H   -0.075237
 Sum of Mulliken charges =  -0.00000

 Dipole moment (field-independent basis, Debye):
    X=              0.0795    Y=              0.9879    Z=             -0.9035  Tot=              1.3411

 Test job not archived.
 1\1\GINC-SE072\SP\RHF\Aug-CC-pVDZ\C6H12O1S1\OHZDE\08-Apr-2025\0\\#t hf
  aug-cc-pvdz iop(5/13=1,5/36=2,99/5=2) pseudo=read geom=check guess=(r
 ead,tcheck) scf=(maxcycle=1)\\title\\0,1\O,0,0.49513,1.125571,0.635591
 \C,0,1.426314,1.40277,-0.404377\C,0,2.508048,0.327913,-0.333681\H,0,1.
 81733,2.403513,-0.21277\H,0,0.940198,1.391987,-1.388063\S,0,1.56717,-1
 .214233,-0.025239\H,0,3.203794,0.515149,0.485082\H,0,3.057325,0.233939
 ,-1.271005\C,0,0.102514,-0.235818,0.626591\C,0,-1.158455,-0.492905,-0.
 195123\H,0,-0.056604,-0.514088,1.67032\C,0,-2.393383,0.21158,0.381333\

 Normal termination of Gaussian 16 at Tue Apr  8 23:04:01 2025.
