 Gaussian 16, Revision C.01,

 ----------------------------------------------------------------------
 #t hf aug-cc-pvdz symm=none int=(grid=ultrafine) guess=(read,tcheck) s
 table=(opt,rrhf)
 ----------------------------------------------------------------------
 -----
 title
 -----
 Symbolic Z-matrix:
 Charge =  0 Multiplicity = 1

 SCF Done:  E(RHF) =  -445.805360117     A.U. after   13 cycles
 Normal termination of Gaussian 16 at Wed Apr  9 00:33:49 2025.
 Gaussian 16:  ES64L-G16RevC.01  3-Jul-2019

 ----------------------------------------------------------------------
 #t hf aug-cc-pvdz iop(5/13=1,5/36=2,99/5=2) pseudo=read geom=check gue
 ss=(read,tcheck) scf=(maxcycle=1)
 ----------------------------------------------------------------------
 -----
 title
 -----
 Structure from the checkpoint file:  "BDE49_nonexpt_461_mol1.chk"
 Charge =  0 Multiplicity = 1

                         Standard orientation:
 ---------------------------------------------------------------------
 Center     Atomic      Atomic             Coordinates (Angstroms)
 Number     Number       Type             X           Y           Z
 ---------------------------------------------------------------------
      1          1           0       -1.037152    2.451638    0.287024
      2          1           0        1.037151    2.451638    0.287024
      3          5           0       -0.000000    1.871659    0.216604
      4         15           0        0.000000    0.138469   -0.335323
      5          6           0       -1.480388   -0.843535    0.156986
      6          6           0        1.480388   -0.843535    0.156986
      7          1           0       -2.367039   -0.224320    0.010647
      8          1           0       -1.434854   -1.151535    1.203927
      9          1           0       -1.574633   -1.732238   -0.470103
     10          1           0        2.367039   -0.224319    0.010647
     11          1           0        1.574633   -1.732238   -0.470103
     12          1           0        1.434854   -1.151535    1.203927
 ---------------------------------------------------------------------

 SCF Done:  E(RHF) =  -445.863807577     A.U. after    2 cycles

 The electronic state is 1-A.
 Alpha  occ. eigenvalues --  -81.23619 -11.24518 -11.24515  -7.74405  -7.60703
 Alpha  occ. eigenvalues --   -4.88491  -4.88472  -4.88149  -0.98440  -0.94326
 Alpha  occ. eigenvalues --   -0.75313  -0.63197  -0.59088  -0.58318  -0.57336
 Alpha  occ. eigenvalues --   -0.56495  -0.50245  -0.45907  -0.44703  -0.30284
 Alpha virt. eigenvalues --    0.02903   0.04585   0.04934   0.05408   0.06297
 Alpha virt. eigenvalues --    0.06571   0.06786   0.07575   0.08490   0.09014
 Alpha virt. eigenvalues --    0.10308   0.11433   0.12477   0.14396   0.15078

 Mulliken charges:
               1
     1  H    0.268836
     2  H    0.268838
     3  B   -0.455923
     4  P    0.666277
     5  C    0.130989
     6  C    0.130987
     7  H   -0.214356
     8  H   -0.149449
     9  H   -0.141197
    10  H   -0.214354
    11  H   -0.141197
    12  H   -0.149450
 Sum of Mulliken charges =  -0.00000

 Dipole moment (field-independent basis, Debye):
    X=              0.0000    Y=             -1.7753    Z=              0.9217  Tot=              2.0003

 Test job not archived.
 1\1\GINC-SE339\SP\RHF\Aug-CC-pVDZ\C2H8B1P1\OHZDE\09-Apr-2025\0\\#t hf
 aug-cc-pvdz iop(5/13=1,5/36=2,99/5=2) pseudo=read geom=check guess=(re
 ad,tcheck) scf=(maxcycle=1)\\title\\0,1\H,0,-1.037152,2.451638,0.28702
 4\H,0,1.037151,2.451638,0.287024\B,0,0.,1.871659,0.216604\P,0,0.,0.138
 469,-0.335323\C,0,-1.480388,-0.843535,0.156986\C,0,1.480388,-0.843535,
 0.156986\H,0,-2.367039,-0.22432,0.010647\H,0,-1.434854,-1.151535,1.203
 927\H,0,-1.574633,-1.732238,-0.470103\H,0,2.367039,-0.224319,0.010647\
 H,0,1.574633,-1.732238,-0.470103\H,0,1.434854,-1.151535,1.203927\\Vers

 Normal termination of Gaussian 16 at Wed Apr  9 00:33:52 2025.
