 Gaussian 16, Revision C.01,

 ----------------------------------------------------------------------
 #t hf aug-cc-pvdz symm=none int=(grid=ultrafine) guess=(read,tcheck) s
 table=(opt,rrhf)
 ----------------------------------------------------------------------
 -----
 title
 -----
 Symbolic Z-matrix:
 Charge =  0 Multiplicity = 1

 SCF Done:  E(RHF) =  -357.444392144     A.U. after   12 cycles
 Normal termination of Gaussian 16 at Wed Apr  9 00:28:46 2025.
 Gaussian 16:  ES64L-G16RevC.01  3-Jul-2019

 ----------------------------------------------------------------------
 #t hf aug-cc-pvdz iop(5/13=1,5/36=2,99/5=2) pseudo=read geom=check gue
 ss=(read,tcheck) scf=(maxcycle=1)
 ----------------------------------------------------------------------
 -----
 title
 -----
 Structure from the checkpoint file:  "BDE49_nonexpt_353_mol1.chk"
 Charge =  0 Multiplicity = 1

                         Standard orientation:
 ---------------------------------------------------------------------
 Center     Atomic      Atomic             Coordinates (Angstroms)
 Number     Number       Type             X           Y           Z
 ---------------------------------------------------------------------
      1          9           0       -1.483450    1.141514   -0.000009
      2          9           0       -1.483450   -1.141514   -0.000007
      3          7           0        0.612942    0.000000    0.000006
      4          5           0       -0.780926    0.000000    0.000009
      5          6           0        1.393084   -1.229455    0.000005
      6          1           0        2.036055   -1.284700   -0.886870
      7          1           0        0.727447   -2.090959    0.000007
      8          1           0        2.036059   -1.284698    0.886877
      9          6           0        1.393084    1.229455    0.000003
     10          1           0        0.727447    2.090959    0.000002
     11          1           0        2.036056    1.284698   -0.886872
     12          1           0        2.036058    1.284700    0.886876
 ---------------------------------------------------------------------

 SCF Done:  E(RHF) =  -357.579596865     A.U. after    2 cycles

 The electronic state is 1-A.
 Alpha  occ. eigenvalues --  -26.11915 -26.11906 -15.63295 -11.27463 -11.27461
 Alpha  occ. eigenvalues --   -7.72356  -1.66996  -1.64852  -1.19734  -0.97100
 Alpha  occ. eigenvalues --   -0.89921  -0.84290  -0.79996  -0.76023  -0.75394
 Alpha  occ. eigenvalues --   -0.70779  -0.70128  -0.65670  -0.63870  -0.61495
 Alpha  occ. eigenvalues --   -0.56109  -0.54532  -0.53513  -0.39123
 Alpha virt. eigenvalues --    0.03159   0.04432   0.04483   0.05511   0.07406
 Alpha virt. eigenvalues --    0.07577   0.07754   0.07780   0.08802   0.09629
 Alpha virt. eigenvalues --    0.14076   0.14384   0.14746   0.15272   0.17302

 Mulliken charges:
               1
     1  F   -0.509119
     2  F   -0.509119
     3  N   -0.301724
     4  B    0.825537
     5  C    0.727120
     6  H   -0.088197
     7  H   -0.303515
     8  H   -0.088195
     9  C    0.727118
    10  H   -0.303515
    11  H   -0.088196
    12  H   -0.088195
 Sum of Mulliken charges =  -0.00000

 Dipole moment (field-independent basis, Debye):
    X=              3.0213    Y=             -0.0000    Z=              0.0001  Tot=              3.0213

 Test job not archived.
 1\1\GINC-SE329\SP\RHF\Aug-CC-pVDZ\C2H6B1F2N1\OHZDE\09-Apr-2025\0\\#t h
 f aug-cc-pvdz iop(5/13=1,5/36=2,99/5=2) pseudo=read geom=check guess=(
 read,tcheck) scf=(maxcycle=1)\\title\\0,1\F,0,-1.48345,1.141514,-0.000
 009\F,0,-1.48345,-1.141514,-0.000007\N,0,0.612942,0.,0.000006\B,0,-0.7
 80926,0.,0.000009\C,0,1.393084,-1.229455,0.000005\H,0,2.036055,-1.2847
 ,-0.88687\H,0,0.727447,-2.090959,0.000007\H,0,2.036059,-1.284698,0.886
 877\C,0,1.393084,1.229455,0.000003\H,0,0.727447,2.090959,0.000002\H,0,
 2.036056,1.284698,-0.886872\H,0,2.036058,1.2847,0.886876\\Version=ES64

 Normal termination of Gaussian 16 at Wed Apr  9 00:28:50 2025.
