 Gaussian 16, Revision C.01,

 ----------------------------------------------------------------------
 #t hf aug-cc-pvdz symm=none int=(grid=ultrafine) guess=(read,tcheck) s
 table=opt
 ----------------------------------------------------------------------
 -----
 title
 -----
 Symbolic Z-matrix:
 Charge =  0 Multiplicity = 2

 SCF Done:  E(UHF) =  -352.511245149     A.U. after   17 cycles
 Normal termination of Gaussian 16 at Wed Apr  9 00:32:28 2025.
 Gaussian 16:  ES64L-G16RevC.01  3-Jul-2019

 ----------------------------------------------------------------------
 #t hf aug-cc-pvdz iop(5/13=1,5/36=2,99/5=2) pseudo=read geom=check gue
 ss=(read,tcheck) scf=(maxcycle=1)
 ----------------------------------------------------------------------
 -----
 title
 -----
 Structure from the checkpoint file:  "BDE49_nonexpt_419_mol2.chk"
 Charge =  0 Multiplicity = 2

                         Standard orientation:
 ---------------------------------------------------------------------
 Center     Atomic      Atomic             Coordinates (Angstroms)
 Number     Number       Type             X           Y           Z
 ---------------------------------------------------------------------
      1          9           0        2.411499   -0.646745    0.169311
      2          5           0        1.479427    0.051850   -0.429318
      3          6           0        0.040119    0.315689    0.211417
      4          8           0       -0.806650   -0.586591   -0.463403
      5          8           0       -0.365886    1.664789    0.097343
      6          6           0       -2.083162   -0.758607    0.152642
      7          1           0       -1.978829   -1.200746    1.151716
      8          1           0       -2.649604   -1.437596   -0.483780
      9          1           0       -2.610293    0.196019    0.232846
     10          1           0       -0.257650    1.919537   -0.827502
     11          1           0        0.034301    0.116163    1.293640
 ---------------------------------------------------------------------

 SCF Done:  E(UHF) =  -352.635315567     A.U. after    2 cycles

 The electronic state is 2-A.
 Alpha  occ. eigenvalues --  -26.15433 -20.59183 -20.59162 -11.34525 -11.29190
 Alpha  occ. eigenvalues --   -7.71299  -1.69865  -1.37993  -1.31266  -0.98154
 Alpha  occ. eigenvalues --   -0.89195  -0.85840  -0.78646  -0.75554  -0.73666
 Alpha  occ. eigenvalues --   -0.69554  -0.69083  -0.62192  -0.59853  -0.56570
 Alpha  occ. eigenvalues --   -0.50418  -0.50025  -0.47167  -0.36645
 Alpha virt. eigenvalues --    0.03563   0.04490   0.04698   0.05086   0.06284
 Alpha virt. eigenvalues --    0.06751   0.06979   0.08127   0.10162   0.11413
 Alpha virt. eigenvalues --    0.13003   0.13616   0.14569   0.16618   0.17033

  Beta  occ. eigenvalues --  -26.15113 -20.59227 -20.59189 -11.34189 -11.29194
  Beta  occ. eigenvalues --   -7.69421  -1.68936  -1.37933  -1.31335  -0.97632
  Beta  occ. eigenvalues --   -0.88598  -0.84781  -0.75989  -0.75632  -0.72766
  Beta  occ. eigenvalues --   -0.68921  -0.68698  -0.62174  -0.59675  -0.56167
  Beta  occ. eigenvalues --   -0.50418  -0.47753  -0.47118
  Beta virt. eigenvalues --    0.02861   0.04209   0.04786   0.05140   0.06467
  Beta virt. eigenvalues --    0.06733   0.06928   0.07858   0.08927   0.11939
  Beta virt. eigenvalues --    0.12666   0.13832   0.14095   0.16161   0.16710

 Mulliken charges and spin densities:
               1          2
     1  F   -0.308058  -0.041288
     2  B    0.311439   1.037071
     3  C    1.042711   0.039076
     4  O   -0.673196  -0.005585
     5  O   -0.547870  -0.008016
     6  C    0.669438  -0.009792
     7  H   -0.071620   0.000969
     8  H   -0.246638   0.000303
     9  H   -0.024232  -0.000399
    10  H    0.160133  -0.001750
    11  H   -0.312107  -0.010588
 Sum of Mulliken charges =  -0.00000   1.00000

 Dipole moment (field-independent basis, Debye):
    X=             -1.3125    Y=              0.0206    Z=              0.0209  Tot=              1.3128
                          Isotropic Fermi Contact Couplings
        Atom                 a.u.       MegaHertz       Gauss      10(-4) cm-1
     1  F(19)              0.06958     292.73767     104.45608      97.64678
     2  B(11)              0.34184     490.32683     174.96081     163.55542
     3  C(13)              0.06174      69.41091      24.76754      23.15299
     4  O(17)             -0.01058       6.41319       2.28839       2.13921
     5  O(17)              0.00066      -0.39717      -0.14172      -0.13248
     6  C(13)             -0.00007      -0.07906      -0.02821      -0.02637
     7  H(1)               0.00023       1.03564       0.36954       0.34545
     8  H(1)               0.00029       1.31211       0.46819       0.43767

 Normal termination of Gaussian 16 at Wed Apr  9 00:32:32 2025.
