 Gaussian 16, Revision C.01,

 ----------------------------------------------------------------------
 #t hf aug-cc-pvdz symm=none int=(grid=ultrafine) guess=(read,tcheck) s
 table=(opt,rrhf)
 ----------------------------------------------------------------------
 -----
 title
 -----
 Symbolic Z-matrix:
 Charge =  0 Multiplicity = 1

 SCF Done:  E(RHF) =  -684.308139931     A.U. after   13 cycles
 Normal termination of Gaussian 16 at Tue Apr  8 23:24:33 2025.
 Gaussian 16:  ES64L-G16RevC.01  3-Jul-2019

 ----------------------------------------------------------------------
 #t hf aug-cc-pvdz iop(5/13=1,5/36=2,99/5=2) pseudo=read geom=check gue
 ss=(read,tcheck) scf=(maxcycle=1)
 ----------------------------------------------------------------------
 -----
 title
 -----
 Structure from the checkpoint file:  "BDE49_nonexpt_1276_mol1.chk"
 Charge =  0 Multiplicity = 1

                         Standard orientation:
 ---------------------------------------------------------------------
 Center     Atomic      Atomic             Coordinates (Angstroms)
 Number     Number       Type             X           Y           Z
 ---------------------------------------------------------------------
      1          6           0        1.088700   -0.000002   -0.430333
      2         15           0       -0.644847   -0.000016    0.096880
      3          8           0       -0.956878    0.000007    1.536740
      4          8           0       -1.240941   -1.276635   -0.690294
      5          6           0        1.794232   -1.276895    0.055005
      6          1           0        1.305297   -2.173135   -0.330072
      7          1           0        1.795770   -1.328773    1.146700
      8          6           0        1.794178    1.276953    0.054922
      9          1           0        1.055531   -0.000037   -1.526086
     10          1           0        1.795719    1.328902    1.146614
     11          1           0        1.305205    2.173148   -0.330213
     12          1           0        2.832788    1.280115   -0.286240
     13          1           0        2.832844   -1.280034   -0.286153
     14          8           0       -1.241056    1.276568   -0.690283
     15          1           0       -1.900919    1.736023   -0.157171
     16          1           0       -1.901185   -1.735841   -0.157438
 ---------------------------------------------------------------------

 SCF Done:  E(RHF) =  -684.482287332     A.U. after    2 cycles

 The electronic state is 1-A.
 Alpha  occ. eigenvalues --  -81.40660 -20.60945 -20.60942 -20.52174 -11.26061
 Alpha  occ. eigenvalues --  -11.23946 -11.23941  -7.89119  -5.03762  -5.03678
 Alpha  occ. eigenvalues --   -5.03361  -1.37181  -1.34196  -1.25300  -1.07507
 Alpha  occ. eigenvalues --   -0.94241  -0.87304  -0.78852  -0.74936  -0.68686
 Alpha  occ. eigenvalues --   -0.67081  -0.64442  -0.63028  -0.58950  -0.58306
 Alpha  occ. eigenvalues --   -0.56657  -0.55353  -0.54171  -0.50995  -0.50207
 Alpha  occ. eigenvalues --   -0.50086  -0.48247  -0.45009
 Alpha virt. eigenvalues --    0.03235   0.04263   0.04437   0.05421   0.06082
 Alpha virt. eigenvalues --    0.06777   0.07616   0.07948   0.08607   0.10107
 Alpha virt. eigenvalues --    0.11732   0.13930   0.14385   0.14569   0.15110

 Mulliken charges:
               1
     1  C   -1.027515
     2  P    2.400336
     3  O   -0.898903
     4  O   -0.763457
     5  C    0.580334
     6  H   -0.079538
     7  H   -0.023582
     8  C    0.580343
     9  H   -0.102902
    10  H   -0.023571
    11  H   -0.079544
    12  H   -0.063353
    13  H   -0.063345
    14  O   -0.763497
    15  H    0.164106
    16  H    0.164087
 Sum of Mulliken charges =  -0.00000

 Dipole moment (field-independent basis, Debye):
    X=              0.4595    Y=              0.0003    Z=             -1.5992  Tot=              1.6639

 Test job not archived.
 1\1\GINC-SE229\SP\RHF\Aug-CC-pVDZ\C3H9O3P1\OHZDE\08-Apr-2025\0\\#t hf
 aug-cc-pvdz iop(5/13=1,5/36=2,99/5=2) pseudo=read geom=check guess=(re
 ad,tcheck) scf=(maxcycle=1)\\title\\0,1\C,0,1.0887,-0.000002,-0.430333
 \P,0,-0.644847,-0.000016,0.09688\O,0,-0.956878,0.000007,1.53674\O,0,-1
 .240941,-1.276635,-0.690294\C,0,1.794232,-1.276895,0.055005\H,0,1.3052
 97,-2.173135,-0.330072\H,0,1.79577,-1.328773,1.1467\C,0,1.794178,1.276
 953,0.054922\H,0,1.055531,-0.000037,-1.526086\H,0,1.795719,1.328902,1.
 146614\H,0,1.305205,2.173148,-0.330213\H,0,2.832788,1.280115,-0.28624\

 Normal termination of Gaussian 16 at Tue Apr  8 23:24:40 2025.
