 Gaussian 16, Revision C.01,

 ----------------------------------------------------------------------
 #t hf aug-cc-pvdz symm=none int=(grid=ultrafine) guess=(read,tcheck) s
 table=(opt,rrhf)
 ----------------------------------------------------------------------
 -----
 title
 -----
 Symbolic Z-matrix:
 Charge =  0 Multiplicity = 1

 SCF Done:  E(RHF) =  -899.802465139     A.U. after   14 cycles
 Normal termination of Gaussian 16 at Tue Apr  8 22:52:38 2025.
 Gaussian 16:  ES64L-G16RevC.01  3-Jul-2019

 ----------------------------------------------------------------------
 #t hf aug-cc-pvdz iop(5/13=1,5/36=2,99/5=2) pseudo=read geom=check gue
 ss=(read,tcheck) scf=(maxcycle=1)
 ----------------------------------------------------------------------
 -----
 title
 -----
 Structure from the checkpoint file:  "BDE49_expt_1833_mol1.chk"
 Charge =  0 Multiplicity = 1

                         Standard orientation:
 ---------------------------------------------------------------------
 Center     Atomic      Atomic             Coordinates (Angstroms)
 Number     Number       Type             X           Y           Z
 ---------------------------------------------------------------------
      1         16           0       -0.711607    0.000000   -0.104069
      2          8           0       -1.237401    1.262690   -0.473692
      3          8           0       -1.237403   -1.262689   -0.473694
      4          7           0        1.021088   -0.000000   -0.630625
      5          9           0       -0.490852   -0.000001    1.482837
      6          9           0        1.580789    1.088133    0.017391
      7          9           0        1.580788   -1.088135    0.017391
 ---------------------------------------------------------------------

 SCF Done:  E(RHF) =  -900.059210862     A.U. after    2 cycles

 The electronic state is 1-A.
 Alpha  occ. eigenvalues --  -93.93442 -26.23161 -26.23155 -26.22931 -20.66010
 Alpha  occ. eigenvalues --  -20.66010 -15.92172  -9.19109  -6.53719  -6.53689
 Alpha  occ. eigenvalues --   -6.53491  -1.78862  -1.76292  -1.72455  -1.52046
 Alpha  occ. eigenvalues --   -1.41941  -1.19705  -0.99443  -0.91263  -0.87840
 Alpha  occ. eigenvalues --   -0.87630  -0.84285  -0.82495  -0.81918  -0.80341
 Alpha  occ. eigenvalues --   -0.76388  -0.75126  -0.73052  -0.65690  -0.63219
 Alpha  occ. eigenvalues --   -0.61029  -0.59249  -0.54874
 Alpha virt. eigenvalues --    0.06524   0.07911   0.08445   0.08554   0.11944
 Alpha virt. eigenvalues --    0.12955   0.13364   0.14006   0.15243   0.18938
 Alpha virt. eigenvalues --    0.19124   0.20058   0.20162   0.24643   0.26003

 Mulliken charges:
               1
     1  S    2.571546
     2  O   -0.741634
     3  O   -0.741633
     4  N    0.042898
     5  F   -0.499564
     6  F   -0.315807
     7  F   -0.315807
 Sum of Mulliken charges =  -0.00000

 Dipole moment (field-independent basis, Debye):
    X=              0.4512    Y=             -0.0000    Z=             -0.2296  Tot=              0.5062

 Test job not archived.
 1\1\GINC-SE336\SP\RHF\Aug-CC-pVDZ\F3N1O2S1\OHZDE\08-Apr-2025\0\\#t hf
 aug-cc-pvdz iop(5/13=1,5/36=2,99/5=2) pseudo=read geom=check guess=(re
 ad,tcheck) scf=(maxcycle=1)\\title\\0,1\S,0,-0.711607,0.,-0.104069\O,0
 ,-1.237401,1.26269,-0.473692\O,0,-1.237402,-1.262689,-0.473694\N,0,1.0
 21088,0.,-0.630625\F,0,-0.490852,-0.000001,1.482837\F,0,1.580789,1.088
 134,0.017391\F,0,1.580788,-1.088134,0.017391\\Version=ES64L-G16RevC.01
 \State=1-A\HF=-900.0592109\RMSD=4.858e-03\Dipole=0.1775185,-0.0000011,
 -0.0903182\Quadrupole=0.2313489,-1.7805675,1.5492186,-0.000001,-1.1988

 Normal termination of Gaussian 16 at Tue Apr  8 22:52:41 2025.
