 Gaussian 16, Revision C.01,

 ----------------------------------------------------------------------
 #t hf aug-cc-pvdz symm=none int=(grid=ultrafine) guess=(read,tcheck) s
 table=(opt,rrhf)
 ----------------------------------------------------------------------
 -----
 title
 -----
 Symbolic Z-matrix:
 Charge =  0 Multiplicity = 1

 SCF Done:  E(RHF) =  -1591.30156660     A.U. after   13 cycles
 Normal termination of Gaussian 16 at Tue Apr  8 22:57:36 2025.
 Gaussian 16:  ES64L-G16RevC.01  3-Jul-2019

 ----------------------------------------------------------------------
 #t hf aug-cc-pvdz iop(5/13=1,5/36=2,99/5=2) pseudo=read geom=check gue
 ss=(read,tcheck) scf=(maxcycle=1)
 ----------------------------------------------------------------------
 -----
 title
 -----
 Structure from the checkpoint file:  "BDE49_expt_1966_mol1.chk"
 Charge =  0 Multiplicity = 1

                         Standard orientation:
 ---------------------------------------------------------------------
 Center     Atomic      Atomic             Coordinates (Angstroms)
 Number     Number       Type             X           Y           Z
 ---------------------------------------------------------------------
      1         16           0        2.153419    0.675555    0.257417
      2         16           0        0.883903   -0.781165   -0.556828
      3          1           0        1.793973    1.689767   -0.554258
      4         16           0       -0.883902   -0.781165    0.556828
      5         16           0       -2.153419    0.675554   -0.257418
      6          1           0       -1.793981    1.689764    0.554263
 ---------------------------------------------------------------------

 SCF Done:  E(RHF) =  -1591.38326273     A.U. after    2 cycles

 The electronic state is 1-A.
 Alpha  occ. eigenvalues --  -93.60169 -93.60165 -93.58194 -93.58194  -8.89578
 Alpha  occ. eigenvalues --   -8.89563  -8.87803  -8.87803  -6.23639  -6.23578
 Alpha  occ. eigenvalues --   -6.23340  -6.23323  -6.22989  -6.22987  -6.21887
 Alpha  occ. eigenvalues --   -6.21882  -6.21675  -6.21671  -6.21314  -6.21313
 Alpha  occ. eigenvalues --   -1.08388  -1.01672  -0.91967  -0.80209  -0.59288
 Alpha  occ. eigenvalues --   -0.58617  -0.53266  -0.50971  -0.47777  -0.41477
 Alpha  occ. eigenvalues --   -0.39460  -0.37510  -0.37231
 Alpha virt. eigenvalues --    0.03480   0.04567   0.05824   0.05928   0.08213
 Alpha virt. eigenvalues --    0.10848   0.10859   0.11817   0.11948   0.12396
 Alpha virt. eigenvalues --    0.12952   0.13308   0.14507   0.16073   0.16662

 Mulliken charges:
               1
     1  S   -0.097339
     2  S   -0.055009
     3  H    0.152348
     4  S   -0.055009
     5  S   -0.097339
     6  H    0.152348
 Sum of Mulliken charges =  -0.00000

 Dipole moment (field-independent basis, Debye):
    X=             -0.0000    Y=              1.8000    Z=              0.0000  Tot=              1.8000

 Test job not archived.
 1\1\GINC-SE069\SP\RHF\Aug-CC-pVDZ\H2S4\OHZDE\08-Apr-2025\0\\#t hf aug-
 cc-pvdz iop(5/13=1,5/36=2,99/5=2) pseudo=read geom=check guess=(read,t
 check) scf=(maxcycle=1)\\title\\0,1\S,0,2.153419,0.675555,0.257417\S,0
 ,0.883903,-0.781165,-0.556828\H,0,1.793973,1.689767,-0.554258\S,0,-0.8
 83902,-0.781165,0.556828\S,0,-2.153419,0.675554,-0.257418\H,0,-1.79398
 1,1.689764,0.554263\\Version=ES64L-G16RevC.01\State=1-A\HF=-1591.38326
 27\RMSD=6.355e-03\Dipole=-0.0000017,0.7081645,0.0000015\Quadrupole=-1.
 5115118,2.8148124,-1.3033006,-0.0000141,-0.6539635,0.0000082\PG=C01 [X

 Normal termination of Gaussian 16 at Tue Apr  8 22:57:38 2025.
