 Gaussian 16, Revision C.01,

 ----------------------------------------------------------------------
 #t hf aug-cc-pvdz symm=none int=(grid=ultrafine) guess=(read,tcheck) s
 table=(opt,rrhf)
 ----------------------------------------------------------------------
 -----
 title
 -----
 Symbolic Z-matrix:
 Charge =  0 Multiplicity = 1

 SCF Done:  E(RHF) =  -835.800251854     A.U. after   15 cycles
 Normal termination of Gaussian 16 at Tue Apr  8 23:28:54 2025.
 Gaussian 16:  ES64L-G16RevC.01  3-Jul-2019

 ----------------------------------------------------------------------
 #t hf aug-cc-pvdz iop(5/13=1,5/36=2,99/5=2) pseudo=read geom=check gue
 ss=(read,tcheck) scf=(maxcycle=1)
 ----------------------------------------------------------------------
 -----
 title
 -----
 Structure from the checkpoint file:  "BDE49_nonexpt_1341_mol1.chk"
 Charge =  0 Multiplicity = 1

                         Standard orientation:
 ---------------------------------------------------------------------
 Center     Atomic      Atomic             Coordinates (Angstroms)
 Number     Number       Type             X           Y           Z
 ---------------------------------------------------------------------
      1          6           0        2.844626   -1.166480   -0.176945
      2          6           0        1.548010   -1.231884    0.328094
      3          6           0        3.446210    0.069877   -0.399709
      4          6           0        2.742441    1.239190   -0.117345
      5          6           0        1.446921    1.172948    0.387597
      6          6           0        0.837895   -0.064259    0.622662
      7          1           0        1.083315   -2.197226    0.498746
      8         15           0       -1.812242    0.117330   -0.133889
      9          8           0       -1.806324    1.409008   -0.835322
     10          8           0       -3.147565   -0.246170    0.680230
     11          1           0        3.384668   -2.081549   -0.393193
     12          1           0        3.202020    2.205644   -0.291251
     13          1           0        4.456268    0.122307   -0.790004
     14          1           0        0.898090    2.085411    0.591836
     15          6           0       -0.572836   -0.137846    1.161689
     16          1           0       -0.753204    0.630595    1.917976
     17          1           0       -0.775600   -1.108510    1.619908
     18          1           0       -3.945770    0.048777    0.224585
     19          8           0       -1.651347   -1.147789   -1.124077
     20          1           0       -1.283861   -0.875069   -1.973187
 ---------------------------------------------------------------------

 SCF Done:  E(RHF) =  -836.015791056     A.U. after    2 cycles

 The electronic state is 1-A.
 Alpha  occ. eigenvalues --  -81.41344 -20.61568 -20.61106 -20.52330 -11.26498
 Alpha  occ. eigenvalues --  -11.26326 -11.25152 -11.25049 -11.25012 -11.24886
 Alpha  occ. eigenvalues --  -11.24812  -7.89738  -5.04389  -5.04295  -5.03997
 Alpha  occ. eigenvalues --   -1.37693  -1.34466  -1.25638  -1.15448  -1.05819
 Alpha  occ. eigenvalues --   -1.01582  -0.96117  -0.84416  -0.83713  -0.80481
 Alpha  occ. eigenvalues --   -0.75584  -0.70593  -0.68558  -0.66404  -0.65456
 Alpha  occ. eigenvalues --   -0.64437  -0.63431  -0.59818  -0.59284  -0.58289
 Alpha  occ. eigenvalues --   -0.57440  -0.56182  -0.53971  -0.50674  -0.50473
 Alpha  occ. eigenvalues --   -0.49947  -0.48566  -0.46898  -0.34596  -0.33842
 Alpha virt. eigenvalues --    0.03084   0.03748   0.04238   0.04861   0.05310
 Alpha virt. eigenvalues --    0.06021   0.06127   0.07834   0.08505   0.09983
 Alpha virt. eigenvalues --    0.10098   0.10443   0.10567   0.10866   0.12630

 Mulliken charges:
               1
     1  C    0.218096
     2  C    0.496152
     3  C    0.636465
     4  C    0.233055
     5  C    0.477483
     6  C    0.679712
     7  H   -0.582169
     8  P    2.409098
     9  O   -0.933241
    10  O   -0.708802
    11  H   -0.449824
    12  H   -0.446575
    13  H   -0.437157
    14  H   -0.608232
    15  C   -0.140882
    16  H   -0.141045
    17  H   -0.256351
    18  H    0.167460
    19  O   -0.772178
    20  H    0.158933
 Sum of Mulliken charges =  -0.00000

 Dipole moment (field-independent basis, Debye):
    X=              0.5739    Y=             -1.6856    Z=              0.4232  Tot=              1.8302

 Test job not archived.
 1\1\GINC-SE334\SP\RHF\Aug-CC-pVDZ\C7H9O3P1\OHZDE\08-Apr-2025\0\\#t hf
 aug-cc-pvdz iop(5/13=1,5/36=2,99/5=2) pseudo=read geom=check guess=(re
 ad,tcheck) scf=(maxcycle=1)\\title\\0,1\C,0,-2.844626,-1.16648,0.17694
 5\C,0,-1.54801,-1.231884,-0.328094\C,0,-3.44621,0.069877,0.399709\C,0,
 -2.742441,1.23919,0.117345\C,0,-1.446921,1.172948,-0.387597\C,0,-0.837
 895,-0.064259,-0.622662\H,0,-1.083315,-2.197226,-0.498746\P,0,1.812242
 ,0.11733,0.133889\O,0,1.806324,1.409008,0.835322\O,0,3.147565,-0.24617
 ,-0.68023\H,0,-3.384668,-2.081549,0.393193\H,0,-3.20202,2.205644,0.291

 Normal termination of Gaussian 16 at Tue Apr  8 23:29:07 2025.
