 Gaussian 16, Revision C.01,

 ----------------------------------------------------------------------
 #t hf aug-cc-pvdz symm=none int=(grid=ultrafine) guess=(read,tcheck) s
 table=(opt,rrhf)
 ----------------------------------------------------------------------
 -----
 title
 -----
 Symbolic Z-matrix:
 Charge =  0 Multiplicity = 1

 SCF Done:  E(RHF) =  -628.479429908     A.U. after   13 cycles
 Normal termination of Gaussian 16 at Tue Apr  8 23:35:56 2025.
 Gaussian 16:  ES64L-G16RevC.01  3-Jul-2019

 ----------------------------------------------------------------------
 #t hf aug-cc-pvdz iop(5/13=1,5/36=2,99/5=2) pseudo=read geom=check gue
 ss=(read,tcheck) scf=(maxcycle=1)
 ----------------------------------------------------------------------
 -----
 title
 -----
 Structure from the checkpoint file:  "BDE49_nonexpt_1519_mol1.chk"
 Charge =  0 Multiplicity = 1

                         Standard orientation:
 ---------------------------------------------------------------------
 Center     Atomic      Atomic             Coordinates (Angstroms)
 Number     Number       Type             X           Y           Z
 ---------------------------------------------------------------------
      1          6           0       -0.974534    0.141305    0.021697
      2          7           0        1.805289   -0.307607    0.495779
      3          8           0        2.428131    0.711061   -0.318731
      4          6           0       -2.159069   -0.447434   -0.770369
      5          1           0       -2.416453   -1.454108   -0.428090
      6          1           0       -1.943893   -0.498129   -1.842143
      7          6           0       -0.653037    1.549642   -0.503627
      8          1           0       -0.339983    1.530841   -1.549991
      9          1           0        0.143857    2.020832    0.073877
     10          1           0       -1.541161    2.188294   -0.424073
     11          1           0       -3.044014    0.184617   -0.641274
     12          6           0       -1.325926    0.205938    1.518978
     13          1           0       -2.159531    0.897749    1.682214
     14          1           0       -0.474449    0.556019    2.108168
     15          1           0       -1.621002   -0.774163    1.904066
     16         15           0        0.427621   -1.101171   -0.185280
     17          1           0        2.399599    1.488916    0.249369
     18          1           0        0.658330   -0.874398   -1.570878
     19          1           0        2.537710   -0.980856    0.697282
 ---------------------------------------------------------------------

 SCF Done:  E(RHF) =  -628.594427716     A.U. after    2 cycles

 The electronic state is 1-A.
 Alpha  occ. eigenvalues --  -81.26796 -20.61005 -15.67273 -11.25272 -11.23127
 Alpha  occ. eigenvalues --  -11.22738 -11.22650  -7.76914  -4.91074  -4.90849
 Alpha  occ. eigenvalues --   -4.90576  -1.35324  -1.08646  -1.05794  -0.93345
 Alpha  occ. eigenvalues --   -0.93075  -0.80624  -0.72239  -0.70423  -0.65705
 Alpha  occ. eigenvalues --   -0.62639  -0.60851  -0.60051  -0.57547  -0.54898
 Alpha  occ. eigenvalues --   -0.54208  -0.52108  -0.50429  -0.47763  -0.47256
 Alpha  occ. eigenvalues --   -0.43893  -0.40186  -0.34047
 Alpha virt. eigenvalues --    0.03423   0.04223   0.04834   0.04936   0.06151
 Alpha virt. eigenvalues --    0.06676   0.07109   0.07205   0.07420   0.09083
 Alpha virt. eigenvalues --    0.09205   0.09521   0.11294   0.12108   0.12947

 Mulliken charges:
               1
     1  C   -2.883707
     2  N   -0.353278
     3  O   -0.524583
     4  C    1.081370
     5  H   -0.067047
     6  H   -0.061219
     7  C    1.109729
     8  H   -0.079823
     9  H   -0.124678
    10  H   -0.025212
    11  H   -0.021410
    12  C    0.919891
    13  H   -0.003831
    14  H   -0.065766
    15  H   -0.066569
    16  P    0.782528
    17  H    0.229302
    18  H    0.117202
    19  H    0.037102
 Sum of Mulliken charges =  -0.00000

 Dipole moment (field-independent basis, Debye):
    X=             -0.4870    Y=              0.9042    Z=              0.6578  Tot=              1.2196

 Test job not archived.
 1\1\GINC-SE345\SP\RHF\Aug-CC-pVDZ\C4H12N1O1P1\OHZDE\08-Apr-2025\0\\#t
 hf aug-cc-pvdz iop(5/13=1,5/36=2,99/5=2) pseudo=read geom=check guess=
 (read,tcheck) scf=(maxcycle=1)\\title\\0,1\C,0,-0.974534,0.141305,0.02
 1697\N,0,1.805289,-0.307607,0.495779\O,0,2.428131,0.711061,-0.318731\C
 ,0,-2.159069,-0.447434,-0.770369\H,0,-2.416453,-1.454108,-0.42809\H,0,
 -1.943893,-0.498129,-1.842143\C,0,-0.653037,1.549642,-0.503627\H,0,-0.
 339983,1.530841,-1.549991\H,0,0.143857,2.020832,0.073877\H,0,-1.541161
 ,2.188294,-0.424073\H,0,-3.044014,0.184617,-0.641274\C,0,-1.325926,0.2

 Normal termination of Gaussian 16 at Tue Apr  8 23:36:03 2025.
