 Gaussian 16, Revision C.01,

 ----------------------------------------------------------------------
 #t hf aug-cc-pvdz symm=none int=(grid=ultrafine) guess=(read,tcheck) s
 table=(opt,rrhf)
 ----------------------------------------------------------------------
 -----
 title
 -----
 Symbolic Z-matrix:
 Charge =  0 Multiplicity = 1

 SCF Done:  E(RHF) =  -913.322055607     A.U. after   13 cycles
 Normal termination of Gaussian 16 at Tue Apr  8 23:56:22 2025.
 Gaussian 16:  ES64L-G16RevC.01  3-Jul-2019

 ----------------------------------------------------------------------
 #t hf aug-cc-pvdz iop(5/13=1,5/36=2,99/5=2) pseudo=read geom=check gue
 ss=(read,tcheck) scf=(maxcycle=1)
 ----------------------------------------------------------------------
 -----
 title
 -----
 Structure from the checkpoint file:  "BDE49_nonexpt_2037_mol1.chk"
 Charge =  0 Multiplicity = 1

                         Standard orientation:
 ---------------------------------------------------------------------
 Center     Atomic      Atomic             Coordinates (Angstroms)
 Number     Number       Type             X           Y           Z
 ---------------------------------------------------------------------
      1         14           0        1.747754    0.048726    0.007337
      2         16           0       -0.474873   -0.146840    0.062130
      3          8           0       -0.867601   -1.299749   -0.704737
      4          8           0       -0.968163    0.076189    1.405749
      5          8           0       -0.913008    1.178921   -0.814428
      6          1           0       -1.352172    1.791182   -0.204790
      7          1           0        2.248854   -1.118928    0.753084
      8          1           0        2.076719    1.322233    0.672415
      9          1           0        2.146180    0.029898   -1.410178
 ---------------------------------------------------------------------

 SCF Done:  E(RHF) =  -913.493955287     A.U. after    2 cycles

 The electronic state is 1-A.
 Alpha  occ. eigenvalues --  -93.81717 -69.13228 -20.64458 -20.58130 -20.57802
 Alpha  occ. eigenvalues --   -9.08094  -6.88448  -6.42721  -6.42619  -6.42297
 Alpha  occ. eigenvalues --   -3.99277  -3.99152  -3.99149  -1.46704  -1.35405
 Alpha  occ. eigenvalues --   -1.32908  -0.91734  -0.78981  -0.74910  -0.70358
 Alpha  occ. eigenvalues --   -0.68337  -0.65346  -0.59486  -0.55273  -0.55072
 Alpha  occ. eigenvalues --   -0.53071  -0.52632  -0.51057  -0.46159
 Alpha virt. eigenvalues --    0.02475   0.04039   0.05383   0.05665   0.06280
 Alpha virt. eigenvalues --    0.07967   0.08115   0.10081   0.11666   0.12453
 Alpha virt. eigenvalues --    0.13433   0.14981   0.15577   0.16391   0.17909

 Mulliken charges:
               1
     1  Si   0.523753
     2  S    2.087632
     3  O   -0.959608
     4  O   -0.994970
     5  O   -0.758892
     6  H    0.182071
     7  H   -0.051347
     8  H   -0.016432
     9  H   -0.012207
 Sum of Mulliken charges =  -0.00000

 Dipole moment (field-independent basis, Debye):
    X=              3.8796    Y=              2.7603    Z=             -0.0211  Tot=              4.7615

 Test job not archived.
 1\1\GINC-SE396\SP\RHF\Aug-CC-pVDZ\H4O3S1Si1\OHZDE\08-Apr-2025\0\\#t hf
  aug-cc-pvdz iop(5/13=1,5/36=2,99/5=2) pseudo=read geom=check guess=(r
 ead,tcheck) scf=(maxcycle=1)\\title\\0,1\Si,0,-1.747754,-0.048726,0.00
 7337\S,0,0.474873,0.14684,0.06213\O,0,0.867601,1.299749,-0.704737\O,0,
 0.968163,-0.076189,1.405749\O,0,0.913008,-1.178921,-0.814428\H,0,1.352
 173,-1.791182,-0.20479\H,0,-2.248854,1.118927,0.753084\H,0,-2.076719,-
 1.322234,0.672415\H,0,-2.14618,-0.029899,-1.410178\\Version=ES64L-G16R
 evC.01\State=1-A\HF=-913.4939553\RMSD=4.546e-03\Dipole=-1.526368,-1.08

 Normal termination of Gaussian 16 at Tue Apr  8 23:56:25 2025.
