 Gaussian 16, Revision C.01,

 ----------------------------------------------------------------------
 #t hf aug-cc-pvdz symm=none int=(grid=ultrafine) guess=(read,tcheck) s
 table=opt
 ----------------------------------------------------------------------
 -----
 title
 -----
 Symbolic Z-matrix:
 Charge =  0 Multiplicity = 2

 SCF Done:  E(UHF) =  -446.787069266     A.U. after   15 cycles
 Normal termination of Gaussian 16 at Tue Apr  8 23:43:38 2025.
 Gaussian 16:  ES64L-G16RevC.01  3-Jul-2019

 ----------------------------------------------------------------------
 #t hf aug-cc-pvdz iop(5/13=1,5/36=2,99/5=2) pseudo=read geom=check gue
 ss=(read,tcheck) scf=(maxcycle=1)
 ----------------------------------------------------------------------
 -----
 title
 -----
 Structure from the checkpoint file:  "BDE49_nonexpt_1733_mol2.chk"
 Charge =  0 Multiplicity = 2

                         Standard orientation:
 ---------------------------------------------------------------------
 Center     Atomic      Atomic             Coordinates (Angstroms)
 Number     Number       Type             X           Y           Z
 ---------------------------------------------------------------------
      1          6           0        0.440746   -0.239126   -0.000000
      2          6           0       -0.775052    0.711986   -0.000001
      3         14           0       -2.451099   -0.167600    0.000001
      4          6           0        1.786410    0.501058   -0.000001
      5          1           0       -0.733484    1.369869    0.875976
      6          1           0       -0.733484    1.369866   -0.875979
      7          1           0        0.393514   -0.896776   -0.876168
      8          1           0        0.393514   -0.896774    0.876170
      9          6           0        2.991627   -0.443526   -0.000000
     10          1           0        1.833593    1.158053    0.876634
     11          1           0        1.833593    1.158051   -0.876638
     12          1           0        2.987989   -1.090127    0.882977
     13          1           0        3.933104    0.112512   -0.000001
     14          1           0        2.987989   -1.090130   -0.882975
     15          1           0       -2.621669   -1.015246    1.211436
     16          1           0       -2.621670   -1.015250   -1.211432
 ---------------------------------------------------------------------

 SCF Done:  E(UHF) =  -446.858207802     A.U. after    2 cycles

 The electronic state is 2-A.
 Alpha  occ. eigenvalues --  -69.06330 -11.23678 -11.23069 -11.22657 -11.22433
 Alpha  occ. eigenvalues --   -6.81698  -3.93047  -3.92148  -3.92141  -1.06533
 Alpha  occ. eigenvalues --   -0.97890  -0.86423  -0.79585  -0.68112  -0.64715
 Alpha  occ. eigenvalues --   -0.58999  -0.58034  -0.54918  -0.50958  -0.50405
 Alpha  occ. eigenvalues --   -0.47963  -0.47192  -0.46895  -0.43074  -0.31478
 Alpha virt. eigenvalues --    0.03435   0.04334   0.04594   0.04748   0.05705
 Alpha virt. eigenvalues --    0.06449   0.06834   0.07469   0.08251   0.08985
 Alpha virt. eigenvalues --    0.09106   0.10176   0.10324   0.12033   0.12307

  Beta  occ. eigenvalues --  -69.05771 -11.23582 -11.23039 -11.22620 -11.22429
  Beta  occ. eigenvalues --   -6.80860  -3.91758  -3.91754  -3.90892  -1.06330
  Beta  occ. eigenvalues --   -0.97626  -0.86103  -0.79450  -0.64648  -0.64339
  Beta  occ. eigenvalues --   -0.58667  -0.57940  -0.54580  -0.50822  -0.49912
  Beta  occ. eigenvalues --   -0.47744  -0.47073  -0.46228  -0.42201
  Beta virt. eigenvalues --    0.03171   0.03705   0.04527   0.04765   0.05347
  Beta virt. eigenvalues --    0.05961   0.06536   0.07483   0.08048   0.08484
  Beta virt. eigenvalues --    0.09292   0.09701   0.10215   0.10639   0.12091

 Mulliken charges and spin densities:
               1          2
     1  C    0.112971   0.006932
     2  C    0.078801  -0.029486
     3  Si   0.188651   1.011911
     4  C    0.200201   0.005453
     5  H   -0.111698  -0.001931
     6  H   -0.111701  -0.001931
     7  H   -0.187544  -0.006365
     8  H   -0.187543  -0.006365
     9  C    0.436702  -0.001462
    10  H   -0.128055   0.000157
    11  H   -0.128053   0.000157
    12  H   -0.073903   0.000056
    13  H   -0.066488   0.000138
    14  H   -0.073903   0.000056
    15  H    0.025783   0.011341
    16  H    0.025782   0.011341
 Sum of Mulliken charges =  -0.00000   1.00000

 Dipole moment (field-independent basis, Debye):
    X=              0.8764    Y=              0.4464    Z=              0.0000  Tot=              0.9836
                          Isotropic Fermi Contact Couplings
        Atom                 a.u.       MegaHertz       Gauss      10(-4) cm-1
     1  C(13)              0.02356      26.48394       9.45013       8.83409
     2  C(13)              0.01044      11.74110       4.18952       3.91641
     3  Si(29)             0.51531    -457.96615    -163.41371    -152.76107
     4  C(13)              0.00541       6.08229       2.17031       2.02883
     5  H(1)               0.00030       1.33972       0.47804       0.44688
     6  H(1)               0.00030       1.33971       0.47804       0.44688
     7  H(1)              -0.00033      -1.47613      -0.52672      -0.49238
     8  H(1)              -0.00033      -1.47613      -0.52672      -0.49238

 Normal termination of Gaussian 16 at Tue Apr  8 23:43:42 2025.
