 Gaussian 16, Revision C.01,

 ----------------------------------------------------------------------
 #t hf aug-cc-pvdz symm=none int=(grid=ultrafine) guess=(read,tcheck) s
 table=opt
 ----------------------------------------------------------------------
 -----
 title
 -----
 Symbolic Z-matrix:
 Charge =  0 Multiplicity = 2

 SCF Done:  E(UHF) =  -862.300247186     A.U. after   21 cycles
 Normal termination of Gaussian 16 at Tue Apr  8 23:49:18 2025.
 Gaussian 16:  ES64L-G16RevC.01  3-Jul-2019

 ----------------------------------------------------------------------
 #t hf aug-cc-pvdz iop(5/13=1,5/36=2,99/5=2) pseudo=read geom=check gue
 ss=(read,tcheck) scf=(maxcycle=1)
 ----------------------------------------------------------------------
 -----
 title
 -----
 Structure from the checkpoint file:  "BDE49_nonexpt_1875_mol2.chk"
 Charge =  0 Multiplicity = 2

                         Standard orientation:
 ---------------------------------------------------------------------
 Center     Atomic      Atomic             Coordinates (Angstroms)
 Number     Number       Type             X           Y           Z
 ---------------------------------------------------------------------
      1         14           0        1.592955   -0.477621   -0.083903
      2          6           0        0.010376    0.560530    0.018789
      3          8           0       -0.105175    1.734913    0.019876
      4          1           0        2.752930    0.324186    0.359647
      5          1           0        1.444164   -1.784313    0.581158
      6         17           0       -1.512901   -0.535039   -0.002230
 ---------------------------------------------------------------------

 SCF Done:  E(UHF) =  -862.373579959     A.U. after    2 cycles

 The electronic state is 2-A.
 Alpha  occ. eigenvalues -- -103.66332 -69.12359 -20.63857 -11.41918 -10.69652
 Alpha  occ. eigenvalues --   -8.35338  -8.35057  -8.35055  -6.87761  -3.99115
 Alpha  occ. eigenvalues --   -3.98257  -3.98164  -1.43997  -1.14785  -0.85682
 Alpha  occ. eigenvalues --   -0.75045  -0.68189  -0.63923  -0.63868  -0.53411
 Alpha  occ. eigenvalues --   -0.47988  -0.47371  -0.44943  -0.36658
 Alpha virt. eigenvalues --    0.03350   0.04985   0.05328   0.05650   0.07019
 Alpha virt. eigenvalues --    0.08159   0.09278   0.10996   0.12246   0.13327
 Alpha virt. eigenvalues --    0.13949   0.15310   0.16221   0.17009   0.17711

  Beta  occ. eigenvalues -- -103.66336 -69.11762 -20.63129 -11.42253 -10.69658
  Beta  occ. eigenvalues --   -8.35341  -8.35067  -8.35062  -6.86873  -3.97820
  Beta  occ. eigenvalues --   -3.97736  -3.96853  -1.42557  -1.14763  -0.84196
  Beta  occ. eigenvalues --   -0.72959  -0.67840  -0.62490  -0.60228  -0.52772
  Beta  occ. eigenvalues --   -0.47369  -0.47116  -0.44178
  Beta virt. eigenvalues --   -0.00436   0.03633   0.05253   0.05743   0.06312
  Beta virt. eigenvalues --    0.08470   0.09383   0.10142   0.12236   0.13139
  Beta virt. eigenvalues --    0.13750   0.14485   0.16139   0.17506   0.18148

 Mulliken charges and spin densities:
               1          2
     1  Si   0.561417   0.991288
     2  C    0.027803  -0.148122
     3  O   -0.308263   0.167856
     4  H   -0.036080  -0.000122
     5  H   -0.037984  -0.008807
     6  Cl  -0.206892  -0.002092
 Sum of Mulliken charges =  -0.00000   1.00000

 Dipole moment (field-independent basis, Debye):
    X=              2.9800    Y=             -1.7279    Z=              0.0208  Tot=              3.4448
                          Isotropic Fermi Contact Couplings
        Atom                 a.u.       MegaHertz       Gauss      10(-4) cm-1
     1  Si(29)             0.54962    -488.46372    -174.29600    -162.93396
     2  C(13)             -0.03249     -36.52740     -13.03388     -12.18423
     3  O(17)              0.05865     -35.55570     -12.68716     -11.86011
     4  H(1)              -0.00037      -1.67484      -0.59763      -0.55867
     5  H(1)              -0.00217      -9.68802      -3.45692      -3.23157
     6  Cl(35)            -0.00847      -3.71437      -1.32538      -1.23898
 --------------------------------------------------------
       Center         ----  Spin Dipole Couplings  ----

 Normal termination of Gaussian 16 at Tue Apr  8 23:49:21 2025.
