 Gaussian 16, Revision C.01,

 ----------------------------------------------------------------------
 #t hf aug-cc-pvdz symm=none int=(grid=ultrafine) guess=(read,tcheck) s
 table=(opt,rrhf)
 ----------------------------------------------------------------------
 -----
 title
 -----
 Symbolic Z-matrix:
 Charge =  0 Multiplicity = 1

 SCF Done:  E(RHF) =  -698.724053900     A.U. after   16 cycles
 Normal termination of Gaussian 16 at Wed Apr  9 00:47:10 2025.
 Gaussian 16:  ES64L-G16RevC.01  3-Jul-2019

 ----------------------------------------------------------------------
 #t hf aug-cc-pvdz iop(5/13=1,5/36=2,99/5=2) pseudo=read geom=check gue
 ss=(read,tcheck) scf=(maxcycle=1)
 ----------------------------------------------------------------------
 -----
 title
 -----
 Structure from the checkpoint file:  "BDE49_nonexpt_781_mol1.chk"
 Charge =  0 Multiplicity = 1

                         Standard orientation:
 ---------------------------------------------------------------------
 Center     Atomic      Atomic             Coordinates (Angstroms)
 Number     Number       Type             X           Y           Z
 ---------------------------------------------------------------------
      1          6           0       -2.059109   -1.539346    0.103210
      2          6           0       -3.371363   -1.141283    0.186485
      3          6           0       -3.702578    0.233516    0.157402
      4          6           0       -2.715670    1.183196    0.045602
      5          6           0       -1.351498    0.805011   -0.042591
      6          6           0       -1.015929   -0.584146   -0.013110
      7          1           0       -1.802464   -2.593466    0.124908
      8          1           0       -4.159766   -1.880241    0.274701
      9          1           0       -4.741920    0.535002    0.223771
     10          1           0       -2.968824    2.238098    0.023128
     11          6           0        0.350189   -0.961790   -0.102531
     12          6           0        1.363357   -0.028551   -0.215871
     13          6           0       -0.301766    1.754145   -0.158431
     14          6           0        1.007199    1.352421   -0.239428
     15          1           0       -0.552248    2.810016   -0.180815
     16          1           0        1.785525    2.104562   -0.323581
     17          5           0        4.377878    0.284914    1.036870
     18          1           0        0.585087   -2.022200   -0.081483
     19         14           0        3.162301   -0.569305   -0.323001
     20          1           0        4.166151    1.378866    1.462022
     21          1           0        5.370898   -0.261736    1.407086
     22          1           0        3.196734   -2.053338   -0.281545
     23          1           0        3.742226   -0.148892   -1.634958
 ---------------------------------------------------------------------

 SCF Done:  E(RHF) =  -698.862328996     A.U. after    2 cycles

 The electronic state is 1-A.
 Alpha  occ. eigenvalues --  -69.05030 -11.25690 -11.25488 -11.25283 -11.25074
 Alpha  occ. eigenvalues --  -11.25040 -11.25038 -11.24906 -11.24850 -11.24823
 Alpha  occ. eigenvalues --  -11.23679  -7.62561  -6.80536  -3.91284  -3.91271
 Alpha  occ. eigenvalues --   -3.91209  -1.16821  -1.10288  -1.04666  -1.00482
 Alpha  occ. eigenvalues --   -0.98011  -0.85720  -0.84074  -0.81751  -0.73639
 Alpha  occ. eigenvalues --   -0.70989  -0.70004  -0.67500  -0.63461  -0.62928
 Alpha  occ. eigenvalues --   -0.60686  -0.59296  -0.58716  -0.54636  -0.54002
 Alpha  occ. eigenvalues --   -0.51813  -0.50404  -0.48494  -0.47617  -0.45562
 Alpha  occ. eigenvalues --   -0.44752  -0.41219  -0.39017  -0.32360  -0.29580
 Alpha virt. eigenvalues --    0.03023   0.03301   0.03653   0.03770   0.04682
 Alpha virt. eigenvalues --    0.04905   0.05789   0.06220   0.06879   0.07005
 Alpha virt. eigenvalues --    0.07494   0.07720   0.08686   0.08869   0.09325

 Mulliken charges:
               1
     1  C    0.747710
     2  C    0.164646
     3  C    0.244534
     4  C    0.627895
     5  C    0.020095
     6  C    0.902207
     7  H   -0.565680
     8  H   -0.454712
     9  H   -0.446182
    10  H   -0.580547
    11  C    0.506428
    12  C   -0.399217
    13  C    0.856350
    14  C    0.527106
    15  H   -0.632179
    16  H   -0.708588
    17  B   -0.562946
    18  H   -0.707336
    19  Si  -0.386580
    20  H    0.350054
    21  H    0.339891
    22  H    0.010874
    23  H    0.146178
 Sum of Mulliken charges =  -0.00000

 Dipole moment (field-independent basis, Debye):
    X=             -0.6670    Y=              0.2321    Z=              0.4255  Tot=              0.8245

 Test job not archived.
 1\1\GINC-SE143\SP\RHF\Aug-CC-pVDZ\C10H11B1Si1\OHZDE\09-Apr-2025\0\\#t
 hf aug-cc-pvdz iop(5/13=1,5/36=2,99/5=2) pseudo=read geom=check guess=
 (read,tcheck) scf=(maxcycle=1)\\title\\0,1\C,0,-2.059109,-1.539346,0.1
 0321\C,0,-3.371363,-1.141283,0.186485\C,0,-3.702578,0.233516,0.157402\
 C,0,-2.71567,1.183196,0.045602\C,0,-1.351498,0.805011,-0.042591\C,0,-1
 .015929,-0.584146,-0.01311\H,0,-1.802464,-2.593466,0.124908\H,0,-4.159
 766,-1.880241,0.274701\H,0,-4.74192,0.535002,0.223771\H,0,-2.968824,2.
 238098,0.023128\C,0,0.350189,-0.96179,-0.102531\C,0,1.363357,-0.028551

 Normal termination of Gaussian 16 at Wed Apr  9 00:47:29 2025.
