 Gaussian 16, Revision C.01,

 ----------------------------------------------------------------------
 #t hf aug-cc-pvdz symm=none int=(grid=ultrafine) guess=(read,tcheck) s
 table=opt
 ----------------------------------------------------------------------
 -----
 title
 -----
 Symbolic Z-matrix:
 Charge =  0 Multiplicity = 2

 SCF Done:  E(UHF) =  -135.959480901     A.U. after   14 cycles
 Normal termination of Gaussian 16 at Wed Apr  9 00:42:54 2025.
 Gaussian 16:  ES64L-G16RevC.01  3-Jul-2019

 ----------------------------------------------------------------------
 #t hf aug-cc-pvdz iop(5/13=1,5/36=2,99/5=2) pseudo=read geom=check gue
 ss=(read,tcheck) scf=(maxcycle=1)
 ----------------------------------------------------------------------
 -----
 title
 -----
 Structure from the checkpoint file:  "BDE49_nonexpt_767_mol2.chk"
 Charge =  0 Multiplicity = 2

                         Standard orientation:
 ---------------------------------------------------------------------
 Center     Atomic      Atomic             Coordinates (Angstroms)
 Number     Number       Type             X           Y           Z
 ---------------------------------------------------------------------
      1          5           0        0.000000   -0.523473   -0.000001
      2          7           0        1.259151    0.092090    0.000008
      3          7           0       -1.259151    0.092090   -0.000008
      4          1           0       -2.117006   -0.431725   -0.000017
      5          1           0       -1.398294    1.095779   -0.000009
      6          1           0        2.117006   -0.431725    0.000016
      7          1           0        1.398294    1.095779    0.000016
 ---------------------------------------------------------------------

 SCF Done:  E(UHF) =  -136.005234866     A.U. after    2 cycles

 The electronic state is 2-A.
 Alpha  occ. eigenvalues --  -15.60409 -15.60407  -7.62357  -1.12986  -1.09310
 Alpha  occ. eigenvalues --   -0.71306  -0.68061  -0.65839  -0.60395  -0.46360
 Alpha  occ. eigenvalues --   -0.37639  -0.31427
 Alpha virt. eigenvalues --    0.03600   0.04587   0.04789   0.05671   0.07454
 Alpha virt. eigenvalues --    0.08728   0.10289   0.10701   0.17189   0.18284
 Alpha virt. eigenvalues --    0.18706   0.19291   0.19522   0.20911   0.21817

  Beta  occ. eigenvalues --  -15.60448 -15.60445  -7.60456  -1.12322  -1.09153
  Beta  occ. eigenvalues --   -0.69672  -0.65751  -0.65045  -0.59709  -0.46123
  Beta  occ. eigenvalues --   -0.38498
  Beta virt. eigenvalues --    0.03303   0.04649   0.04663   0.05762   0.07482
  Beta virt. eigenvalues --    0.07922   0.09852   0.10312   0.17005   0.17174
  Beta virt. eigenvalues --    0.18426   0.19697   0.19752   0.19805   0.21981

 Mulliken charges and spin densities:
               1          2
     1  B    0.097132   1.044025
     2  N   -0.066813  -0.055692
     3  N   -0.066813  -0.055692
     4  H    0.025749  -0.008871
     5  H   -0.007502   0.042551
     6  H    0.025749  -0.008871
     7  H   -0.007502   0.042551
 Sum of Mulliken charges =  -0.00000   1.00000

 Dipole moment (field-independent basis, Debye):
    X=             -0.0000    Y=              1.5919    Z=              0.0000  Tot=              1.5919
                          Isotropic Fermi Contact Couplings
        Atom                 a.u.       MegaHertz       Gauss      10(-4) cm-1
     1  B(11)              0.31496     451.76108     161.19959     150.69128
     2  N(14)              0.03951      12.76649       4.55540       4.25844
     3  N(14)              0.03951      12.76649       4.55540       4.25844
     4  H(1)               0.00454      20.27773       7.23560       6.76392
     5  H(1)               0.01409      63.00134      22.48044      21.01498
     6  H(1)               0.00454      20.27773       7.23560       6.76392
     7  H(1)               0.01409      63.00134      22.48044      21.01498
 --------------------------------------------------------

 Normal termination of Gaussian 16 at Wed Apr  9 00:42:57 2025.
