 Gaussian 16, Revision C.01,

 ----------------------------------------------------------------------
 #t hf aug-cc-pvdz symm=none int=(grid=ultrafine) guess=(read,tcheck) s
 table=(opt,rrhf)
 ----------------------------------------------------------------------
 -----
 title
 -----
 Symbolic Z-matrix:
 Charge =  0 Multiplicity = 1

 SCF Done:  E(RHF) =  -764.355651124     A.U. after   14 cycles
 Normal termination of Gaussian 16 at Wed Apr  9 00:22:03 2025.
 Gaussian 16:  ES64L-G16RevC.01  3-Jul-2019

 ----------------------------------------------------------------------
 #t hf aug-cc-pvdz iop(5/13=1,5/36=2,99/5=2) pseudo=read geom=check gue
 ss=(read,tcheck) scf=(maxcycle=1)
 ----------------------------------------------------------------------
 -----
 title
 -----
 Structure from the checkpoint file:  "BDE49_nonexpt_2680_mol1.chk"
 Charge =  0 Multiplicity = 1

                         Standard orientation:
 ---------------------------------------------------------------------
 Center     Atomic      Atomic             Coordinates (Angstroms)
 Number     Number       Type             X           Y           Z
 ---------------------------------------------------------------------
      1          9           0       -2.335337   -0.257420    0.468224
      2         16           0       -1.083364   -0.962541   -0.394609
      3          6           0        0.329230   -0.122576    0.442926
      4          8           0        0.199651    1.233641    0.639542
      5          8           0        1.347214   -0.501669   -0.444025
      6          6           0       -0.108800    2.031757   -0.513099
      7          1           0        0.095659    3.060388   -0.220504
      8          1           0       -1.163483    1.926430   -0.775381
      9          1           0        0.518096    1.755689   -1.363027
     10          6           0        2.636436   -0.631262    0.162386
     11          1           0        3.333467   -0.864526   -0.640829
     12          1           0        2.643688   -1.444131    0.897069
     13          1           0        2.932680    0.304572    0.644910
     14          1           0        0.475642   -0.544279    1.440066
 ---------------------------------------------------------------------

 SCF Done:  E(RHF) =  -764.501156357     A.U. after    2 cycles

 The electronic state is 1-A.
 Alpha  occ. eigenvalues --  -93.61435 -26.12015 -20.60940 -20.60037 -11.39772
 Alpha  occ. eigenvalues --  -11.30760 -11.29089  -8.90345  -6.24550  -6.24135
 Alpha  occ. eigenvalues --   -6.23739  -1.63008  -1.40469  -1.33606  -1.03690
 Alpha  occ. eigenvalues --   -0.96281  -0.94155  -0.83689  -0.73815  -0.73777
 Alpha  occ. eigenvalues --   -0.72630  -0.72028  -0.69871  -0.64527  -0.63295
 Alpha  occ. eigenvalues --   -0.62218  -0.59394  -0.54881  -0.54002  -0.49807
 Alpha  occ. eigenvalues --   -0.48619  -0.44642  -0.38250
 Alpha virt. eigenvalues --    0.03176   0.04462   0.04779   0.05644   0.06614
 Alpha virt. eigenvalues --    0.06822   0.07190   0.08378   0.08912   0.11467
 Alpha virt. eigenvalues --    0.12579   0.13731   0.14509   0.15257   0.15560

 Mulliken charges:
               1
     1  F   -0.642287
     2  S    0.744257
     3  C    0.752740
     4  O   -0.694008
     5  O   -0.600509
     6  C    0.711084
     7  H   -0.221616
     8  H   -0.063256
     9  H   -0.054344
    10  C    0.663844
    11  H   -0.235826
    12  H   -0.087918
    13  H   -0.031595
    14  H   -0.240567
 Sum of Mulliken charges =  -0.00000

 Dipole moment (field-independent basis, Debye):
    X=              3.4592    Y=              0.0622    Z=             -0.3785  Tot=              3.4804

 Test job not archived.
 1\1\GINC-SE284\SP\RHF\Aug-CC-pVDZ\C3H7F1O2S1\OHZDE\09-Apr-2025\0\\#t h
 f aug-cc-pvdz iop(5/13=1,5/36=2,99/5=2) pseudo=read geom=check guess=(
 read,tcheck) scf=(maxcycle=1)\\title\\0,1\F,0,-2.335337,-0.257421,0.46
 8224\S,0,-1.083364,-0.962541,-0.394609\C,0,0.32923,-0.122576,0.442926\
 O,0,0.199651,1.233641,0.639542\O,0,1.347214,-0.501669,-0.444025\C,0,-0
 .108801,2.031757,-0.513099\H,0,0.095658,3.060388,-0.220504\H,0,-1.1634
 83,1.92643,-0.775381\H,0,0.518096,1.755689,-1.363027\C,0,2.636436,-0.6
 31261,0.162386\H,0,3.333467,-0.864525,-0.640829\H,0,2.643688,-1.44413,

 Normal termination of Gaussian 16 at Wed Apr  9 00:22:07 2025.
