 Gaussian 16, Revision C.01,

 ----------------------------------------------------------------------
 #t hf aug-cc-pvdz symm=none int=(grid=ultrafine) guess=(read,tcheck) s
 table=opt
 ----------------------------------------------------------------------
 -----
 title
 -----
 Symbolic Z-matrix:
 Charge =  0 Multiplicity = 2

 SCF Done:  E(UHF) =  -1300.33733574     A.U. after   23 cycles
 Normal termination of Gaussian 16 at Tue Apr  8 23:44:56 2025.
 Gaussian 16:  ES64L-G16RevC.01  3-Jul-2019

 ----------------------------------------------------------------------
 #t hf aug-cc-pvdz iop(5/13=1,5/36=2,99/5=2) pseudo=read geom=check gue
 ss=(read,tcheck) scf=(maxcycle=1)
 ----------------------------------------------------------------------
 -----
 title
 -----
 Structure from the checkpoint file:  "BDE49_nonexpt_1766_mol2.chk"
 Charge =  0 Multiplicity = 2

                         Standard orientation:
 ---------------------------------------------------------------------
 Center     Atomic      Atomic             Coordinates (Angstroms)
 Number     Number       Type             X           Y           Z
 ---------------------------------------------------------------------
      1          6           0       -1.750756   -0.016269   -0.019455
      2         14           0        0.000781   -0.000310    0.550093
      3          7           0       -2.885040   -0.024553   -0.250272
      4         17           0        0.918395   -1.695201   -0.171626
      5         17           0        0.886833    1.711309   -0.171472
 ---------------------------------------------------------------------

 SCF Done:  E(UHF) =  -1300.42588023     A.U. after    2 cycles

 The electronic state is 2-A.
 Alpha  occ. eigenvalues -- -103.69871-103.69870 -69.22317 -15.68719 -11.29537
 Alpha  occ. eigenvalues --  -10.73306 -10.73294  -8.39111  -8.39107  -8.38756
 Alpha  occ. eigenvalues --   -8.38755  -8.38703  -8.38700  -6.96645  -4.07716
 Alpha  occ. eigenvalues --   -4.07070  -4.07059  -1.22586  -1.19588  -1.17475
 Alpha  occ. eigenvalues --   -0.81454  -0.65962  -0.60543  -0.58468  -0.56608
 Alpha  occ. eigenvalues --   -0.53068  -0.53054  -0.50976  -0.50965  -0.49718
 Alpha  occ. eigenvalues --   -0.39838
 Alpha virt. eigenvalues --    0.04024   0.04424   0.04717   0.05859   0.07834
 Alpha virt. eigenvalues --    0.08189   0.10412   0.11807   0.12053   0.12771
 Alpha virt. eigenvalues --    0.13141   0.15304   0.15909   0.17206   0.17472

  Beta  occ. eigenvalues -- -103.69752-103.69752 -69.21657 -15.67834 -11.29934
  Beta  occ. eigenvalues --  -10.73177 -10.73165  -8.38824  -8.38820  -8.38642
  Beta  occ. eigenvalues --   -8.38639  -8.38503  -8.38501  -6.95540  -4.06633
  Beta  occ. eigenvalues --   -4.06587  -4.05673  -1.21065  -1.18528  -1.16525
  Beta  occ. eigenvalues --   -0.79269  -0.64208  -0.59295  -0.57044  -0.53956
  Beta  occ. eigenvalues --   -0.52539  -0.51911  -0.50550  -0.49192  -0.48952
  Beta virt. eigenvalues --   -0.01383   0.04903   0.04985   0.05438   0.05977
  Beta virt. eigenvalues --    0.09535   0.09582   0.11312   0.12013   0.12183
  Beta virt. eigenvalues --    0.12800   0.13446   0.15489   0.17211   0.17351

 Mulliken charges and spin densities:
               1          2
     1  C   -0.144304  -0.274634
     2  Si   1.121867   0.887026
     3  N   -0.148297   0.298021
     4  Cl  -0.414675   0.044788
     5  Cl  -0.414590   0.044799
 Sum of Mulliken charges =  -0.00000   1.00000

 Dipole moment (field-independent basis, Debye):
    X=              2.0488    Y=              0.0162    Z=              1.4435  Tot=              2.5064
                          Isotropic Fermi Contact Couplings
        Atom                 a.u.       MegaHertz       Gauss      10(-4) cm-1
     1  C(13)              0.01496      16.81815       6.00113       5.60993
     2  Si(29)             1.02983    -915.23501    -326.57861    -305.28954
     3  N(14)              0.06431      20.77850       7.41429       6.93096
     4  Cl(35)             0.06509      28.54146      10.18430       9.52041
     5  Cl(35)             0.06509      28.54142      10.18429       9.52039
 --------------------------------------------------------
       Center         ----  Spin Dipole Couplings  ----
                      3XX-RR        3YY-RR        3ZZ-RR

 Normal termination of Gaussian 16 at Tue Apr  8 23:44:58 2025.
