 Gaussian 16, Revision C.01,

 ----------------------------------------------------------------------
 #t hf aug-cc-pvdz symm=none int=(grid=ultrafine) guess=(read,tcheck) s
 table=(opt,rrhf)
 ----------------------------------------------------------------------
 -----
 title
 -----
 Symbolic Z-matrix:
 Charge =  0 Multiplicity = 1

 SCF Done:  E(RHF) =  -849.162417607     A.U. after   11 cycles
 Normal termination of Gaussian 16 at Tue Apr  8 23:45:50 2025.
 Gaussian 16:  ES64L-G16RevC.01  3-Jul-2019

 ----------------------------------------------------------------------
 #t hf aug-cc-pvdz iop(5/13=1,5/36=2,99/5=2) pseudo=read geom=check gue
 ss=(read,tcheck) scf=(maxcycle=1)
 ----------------------------------------------------------------------
 -----
 title
 -----
 Structure from the checkpoint file:  "BDE49_nonexpt_1789_mol1.chk"
 Charge =  0 Multiplicity = 1

                         Standard orientation:
 ---------------------------------------------------------------------
 Center     Atomic      Atomic             Coordinates (Angstroms)
 Number     Number       Type             X           Y           Z
 ---------------------------------------------------------------------
      1         14           0        0.560102    0.513938    0.000014
      2          9           0        1.558447   -0.736619   -0.000005
      3         17           0       -1.377806   -0.183985   -0.000010
      4          1           0        0.777607    1.281078   -1.232700
      5          1           0        0.777636    1.281106    1.232706
 ---------------------------------------------------------------------

 SCF Done:  E(RHF) =  -849.251594437     A.U. after    2 cycles

 The electronic state is 1-A.
 Alpha  occ. eigenvalues -- -103.66764 -69.17244 -26.12885 -10.70273  -8.35961
 Alpha  occ. eigenvalues --   -8.35729  -8.35721  -6.91488  -4.02432  -4.02308
 Alpha  occ. eigenvalues --   -4.02167  -1.65671  -1.15423  -0.82330  -0.74311
 Alpha  occ. eigenvalues --   -0.74097  -0.67090  -0.54535  -0.54515  -0.49620
 Alpha  occ. eigenvalues --   -0.47452
 Alpha virt. eigenvalues --    0.04216   0.05232   0.05394   0.06157   0.08942
 Alpha virt. eigenvalues --    0.11014   0.14037   0.14478   0.15442   0.16269
 Alpha virt. eigenvalues --    0.16889   0.20610   0.21321   0.25209   0.25511

 Mulliken charges:
               1
     1  Si   1.380422
     2  F   -0.741218
     3  Cl  -0.459783
     4  H   -0.089709
     5  H   -0.089712
 Sum of Mulliken charges =  -0.00000

 Dipole moment (field-independent basis, Debye):
    X=              0.3544    Y=              1.8272    Z=              0.0001  Tot=              1.8612

 Test job not archived.
 1\1\GINC-SE058\SP\RHF\Aug-CC-pVDZ\Cl1F1H2Si1\OHZDE\08-Apr-2025\0\\#t h
 f aug-cc-pvdz iop(5/13=1,5/36=2,99/5=2) pseudo=read geom=check guess=(
 read,tcheck) scf=(maxcycle=1)\\title\\0,1\Si,0,-0.560102,0.513938,-0.0
 00014\F,0,-1.558447,-0.736619,0.000005\Cl,0,1.377806,-0.183985,0.00001
 \H,0,-0.777607,1.281078,1.2327\H,0,-0.777636,1.281106,-1.232706\\Versi
 on=ES64L-G16RevC.01\State=1-A\HF=-849.2515944\RMSD=5.577e-03\Dipole=-0
 .1394309,0.7188627,-0.0000446\Quadrupole=-1.3337509,0.5631471,0.770603
 8,-1.7196066,0.0000776,-0.0000505\PG=C01 [X(Cl1F1H2Si1)]\\@

 Normal termination of Gaussian 16 at Tue Apr  8 23:45:52 2025.
