 Gaussian 16, Revision C.01,

 ----------------------------------------------------------------------
 #t hf aug-cc-pvdz symm=none int=(grid=ultrafine) guess=(read,tcheck) s
 table=(opt,rrhf)
 ----------------------------------------------------------------------
 -----
 title
 -----
 Symbolic Z-matrix:
 Charge =  0 Multiplicity = 1

 SCF Done:  E(RHF) =  -709.616550732     A.U. after   15 cycles
 Normal termination of Gaussian 16 at Wed Apr  9 00:03:29 2025.
 Gaussian 16:  ES64L-G16RevC.01  3-Jul-2019

 ----------------------------------------------------------------------
 #t hf aug-cc-pvdz iop(5/13=1,5/36=2,99/5=2) pseudo=read geom=check gue
 ss=(read,tcheck) scf=(maxcycle=1)
 ----------------------------------------------------------------------
 -----
 title
 -----
 Structure from the checkpoint file:  "BDE49_nonexpt_2196_mol1.chk"
 Charge =  0 Multiplicity = 1

                         Standard orientation:
 ---------------------------------------------------------------------
 Center     Atomic      Atomic             Coordinates (Angstroms)
 Number     Number       Type             X           Y           Z
 ---------------------------------------------------------------------
      1          6           0        2.819643    0.137622    0.000261
      2          6           0        1.749091    1.035633    0.000155
      3          6           0        0.441066    0.559688   -0.000105
      4          6           0        2.581664   -1.230607    0.000103
      5          6           0        1.271084   -1.708961   -0.000142
      6          6           0        0.197465   -0.827164   -0.000222
      7          1           0        3.408294   -1.931053    0.000170
      8          1           0        1.055555   -2.770479   -0.000263
      9          8           0       -1.065392   -1.334917   -0.000476
     10         14           0       -2.606087   -0.702640    0.000297
     11          1           0        3.833710    0.519310    0.000459
     12          8           0       -0.684742    1.337492   -0.000306
     13          6           0       -0.544150    2.751243   -0.000063
     14          1           0       -1.556138    3.152377   -0.000225
     15          1           0       -0.015539    3.097355   -0.894511
     16          1           0       -0.015928    3.097089    0.894717
     17          1           0        1.941772    2.100334    0.000251
     18          1           0       -2.907247    0.082746   -1.214281
     19          1           0       -2.906303    0.082224    1.215453
     20          1           0       -3.447069   -1.918274    0.000413
 ---------------------------------------------------------------------

 SCF Done:  E(RHF) =  -709.778419484     A.U. after    2 cycles

 The electronic state is 1-A.
 Alpha  occ. eigenvalues --  -69.09333 -20.61057 -20.58055 -11.31313 -11.31197
 Alpha  occ. eigenvalues --  -11.30668 -11.24903 -11.24450 -11.24261 -11.24154
 Alpha  occ. eigenvalues --   -6.83978  -3.94903  -3.94747  -3.94723  -1.38348
 Alpha  occ. eigenvalues --   -1.33486  -1.13798  -1.02226  -1.01107  -0.95091
 Alpha  occ. eigenvalues --   -0.84403  -0.82977  -0.76881  -0.71863  -0.69582
 Alpha  occ. eigenvalues --   -0.67959  -0.65213  -0.63010  -0.62003  -0.61122
 Alpha  occ. eigenvalues --   -0.60608  -0.56056  -0.54818  -0.52858  -0.51580
 Alpha  occ. eigenvalues --   -0.50500  -0.48862  -0.45965  -0.45493  -0.33894
 Alpha  occ. eigenvalues --   -0.31158
 Alpha virt. eigenvalues --    0.02997   0.03956   0.04117   0.05244   0.05464
 Alpha virt. eigenvalues --    0.05480   0.06924   0.06989   0.07422   0.08175
 Alpha virt. eigenvalues --    0.09536   0.09753   0.10856   0.11517   0.12205

 Mulliken charges:
               1
     1  C    0.450971
     2  C    0.581651
     3  C    0.837863
     4  C    0.414063
     5  C    1.146986
     6  C   -0.709605
     7  H   -0.445732
     8  H   -0.596663
     9  O   -0.794668
    10  Si   0.277463
    11  H   -0.453401
    12  O   -0.517454
    13  C    0.897855
    14  H   -0.328186
    15  H   -0.101478
    16  H   -0.101383
    17  H   -0.750863
    18  H    0.082908
    19  H    0.082921
    20  H    0.026752
 Sum of Mulliken charges =   0.00000

 Dipole moment (field-independent basis, Debye):
    X=              0.9408    Y=              2.5443    Z=              0.0008  Tot=              2.7127

 Test job not archived.
 1\1\GINC-SE398\SP\RHF\Aug-CC-pVDZ\C7H10O2Si1\OHZDE\09-Apr-2025\0\\#t h
 f aug-cc-pvdz iop(5/13=1,5/36=2,99/5=2) pseudo=read geom=check guess=(
 read,tcheck) scf=(maxcycle=1)\\title\\0,1\C,0,2.819643,0.137623,0.0002
 61\C,0,1.749091,1.035634,0.000155\C,0,0.441066,0.559688,-0.000105\C,0,
 2.581665,-1.230606,0.000103\C,0,1.271085,-1.70896,-0.000142\C,0,0.1974
 65,-0.827164,-0.000222\H,0,3.408295,-1.931052,0.00017\H,0,1.055556,-2.
 770479,-0.000263\O,0,-1.065391,-1.334917,-0.000476\Si,0,-2.606087,-0.7
 02641,0.000297\H,0,3.83371,0.519312,0.000459\O,0,-0.684743,1.337492,-0

 Normal termination of Gaussian 16 at Wed Apr  9 00:03:40 2025.
