 Gaussian 16, Revision C.01,

 ----------------------------------------------------------------------
 #t hf aug-cc-pvdz symm=none int=(grid=ultrafine) guess=(read,tcheck) s
 table=(opt,rrhf)
 ----------------------------------------------------------------------
 -----
 title
 -----
 Symbolic Z-matrix:
 Charge =  0 Multiplicity = 1

 SCF Done:  E(RHF) =  -1180.06728977     A.U. after   17 cycles
 Normal termination of Gaussian 16 at Wed Apr  9 00:43:07 2025.
 Gaussian 16:  ES64L-G16RevC.01  3-Jul-2019

 ----------------------------------------------------------------------
 #t hf aug-cc-pvdz iop(5/13=1,5/36=2,99/5=2) pseudo=read geom=check gue
 ss=(read,tcheck) scf=(maxcycle=1)
 ----------------------------------------------------------------------
 -----
 title
 -----
 Structure from the checkpoint file:  "BDE49_nonexpt_768_mol1.chk"
 Charge =  0 Multiplicity = 1

                         Standard orientation:
 ---------------------------------------------------------------------
 Center     Atomic      Atomic             Coordinates (Angstroms)
 Number     Number       Type             X           Y           Z
 ---------------------------------------------------------------------
      1         15           0       -0.121576    0.309336    0.844820
      2          5           0        1.508057   -0.420766   -0.036885
      3          7           0       -1.316658   -0.837084   -0.042469
      4         17           0       -0.413323    2.068823   -0.203110
      5          8           0       -2.261541   -0.432495   -0.670735
      6          8           0        2.498035    0.478182   -0.215325
      7          8           0        1.632357   -1.730751   -0.313731
      8          8           0       -1.067810   -2.027383    0.198531
      9          1           0        0.817380   -2.233610   -0.146113
     10          1           0        3.300747    0.086583   -0.581531
 ---------------------------------------------------------------------

 SCF Done:  E(RHF) =  -1180.23205410     A.U. after    2 cycles

 The electronic state is 1-A.
 Alpha  occ. eigenvalues -- -103.69325 -81.37540 -20.65528 -20.63692 -20.62280
 Alpha  occ. eigenvalues --  -20.61645 -15.92587 -10.72632  -8.38340  -8.38039
 Alpha  occ. eigenvalues --   -8.38018  -7.87278  -7.72306  -5.01224  -5.00986
 Alpha  occ. eigenvalues --   -5.00650  -1.56842  -1.39237  -1.38281  -1.35078
 Alpha  occ. eigenvalues --   -1.17601  -0.97913  -0.84579  -0.82779  -0.79249
 Alpha  occ. eigenvalues --   -0.75969  -0.74405  -0.71536  -0.66309  -0.63193
 Alpha  occ. eigenvalues --   -0.62816  -0.56360  -0.55883  -0.54349  -0.52525
 Alpha  occ. eigenvalues --   -0.51685  -0.50189  -0.47995  -0.40266
 Alpha virt. eigenvalues --    0.03082   0.04053   0.04320   0.05732   0.06133
 Alpha virt. eigenvalues --    0.06630   0.07004   0.08087   0.08977   0.10344
 Alpha virt. eigenvalues --    0.11506   0.12463   0.13488   0.15372   0.16700

 Mulliken charges:
               1
     1  P    0.523030
     2  B    0.856009
     3  N    0.470587
     4  Cl  -0.383466
     5  O   -0.495813
     6  O   -0.401389
     7  O   -0.471870
     8  O   -0.621371
     9  H    0.305083
    10  H    0.219199
 Sum of Mulliken charges =  -0.00000

 Dipole moment (field-independent basis, Debye):
    X=              3.1510    Y=              0.4386    Z=              0.9765  Tot=              3.3278

 Test job not archived.
 1\1\GINC-SE165\SP\RHF\Aug-CC-pVDZ\B1Cl1H2N1O4P1\OHZDE\09-Apr-2025\0\\#
 t hf aug-cc-pvdz iop(5/13=1,5/36=2,99/5=2) pseudo=read geom=check gues
 s=(read,tcheck) scf=(maxcycle=1)\\title\\0,1\P,0,-0.121576,0.309336,0.
 84482\B,0,1.508057,-0.420767,-0.036885\N,0,-1.316658,-0.837084,-0.0424
 69\Cl,0,-0.413322,2.068823,-0.20311\O,0,-2.261541,-0.432494,-0.670735\
 O,0,2.498035,0.478181,-0.215325\O,0,1.632356,-1.730752,-0.313731\O,0,-
 1.067811,-2.027383,0.198531\H,0,0.817379,-2.23361,-0.146113\H,0,3.3007
 47,0.086582,-0.581531\\Version=ES64L-G16RevC.01\State=1-A\HF=-1180.232

 Normal termination of Gaussian 16 at Wed Apr  9 00:43:12 2025.
