 Gaussian 16, Revision C.01,

 ----------------------------------------------------------------------
 #t hf aug-cc-pvdz symm=none int=(grid=ultrafine) guess=(read,tcheck) s
 table=(opt,rrhf)
 ----------------------------------------------------------------------
 -----
 title
 -----
 Symbolic Z-matrix:
 Charge =  0 Multiplicity = 1

 SCF Done:  E(RHF) =  -383.000528183     A.U. after   11 cycles
 Normal termination of Gaussian 16 at Tue Apr  8 23:56:18 2025.
 Gaussian 16:  ES64L-G16RevC.01  3-Jul-2019

 ----------------------------------------------------------------------
 #t hf aug-cc-pvdz iop(5/13=1,5/36=2,99/5=2) pseudo=read geom=check gue
 ss=(read,tcheck) scf=(maxcycle=1)
 ----------------------------------------------------------------------
 -----
 title
 -----
 Structure from the checkpoint file:  "BDE49_nonexpt_2046_mol1.chk"
 Charge =  0 Multiplicity = 1

                         Standard orientation:
 ---------------------------------------------------------------------
 Center     Atomic      Atomic             Coordinates (Angstroms)
 Number     Number       Type             X           Y           Z
 ---------------------------------------------------------------------
      1         14           0       -1.028253    0.000001   -0.000003
      2          6           0        0.825377   -0.000004    0.000015
      3          7           0        1.980680    0.000001   -0.000005
      4          1           0       -1.473814   -0.975561   -1.011052
      5          1           0       -1.473812    1.363383   -0.339331
      6          1           0       -1.473860   -0.387823    1.350368
 ---------------------------------------------------------------------

 SCF Done:  E(RHF) =  -383.051722211     A.U. after    2 cycles

 The electronic state is 1-A.
 Alpha  occ. eigenvalues --  -69.11952 -15.65772 -11.27488  -6.87144  -3.98023
 Alpha  occ. eigenvalues --   -3.97887  -3.97887  -1.19634  -0.80247  -0.62960
 Alpha  occ. eigenvalues --   -0.54522  -0.53605  -0.53604  -0.47285  -0.47285
 Alpha virt. eigenvalues --    0.02854   0.04998   0.05056   0.05056   0.07978
 Alpha virt. eigenvalues --    0.07978   0.09917   0.11825   0.11825   0.13652
 Alpha virt. eigenvalues --    0.13652   0.14080   0.15258   0.18795   0.18795

 Mulliken charges:
               1
     1  Si   0.550955
     2  C   -0.216414
     3  N   -0.163157
     4  H   -0.057127
     5  H   -0.057126
     6  H   -0.057132
 Sum of Mulliken charges =   0.00000

 Dipole moment (field-independent basis, Debye):
    X=             -3.6182    Y=              0.0000    Z=              0.0000  Tot=              3.6182

 Test job not archived.
 1\1\GINC-SE344\SP\RHF\Aug-CC-pVDZ\C1H3N1Si1\OHZDE\08-Apr-2025\0\\#t hf
  aug-cc-pvdz iop(5/13=1,5/36=2,99/5=2) pseudo=read geom=check guess=(r
 ead,tcheck) scf=(maxcycle=1)\\title\\0,1\Si,0,1.028253,-0.000001,-0.00
 0003\C,0,-0.825377,0.000004,0.000015\N,0,-1.98068,-0.000001,-0.000005\
 H,0,1.473814,0.977351,-1.009322\H,0,1.473812,-1.362779,-0.341747\H,0,1
 .47386,0.38543,1.351053\\Version=ES64L-G16RevC.01\State=1-A\HF=-383.05
 17222\RMSD=4.881e-03\Dipole=1.4235053,-0.0000032,0.0000006\Quadrupole=
 -2.7618183,1.3809134,1.3809049,-0.0000192,-0.00004,-0.0000011\PG=C01 [

 Normal termination of Gaussian 16 at Tue Apr  8 23:56:20 2025.
