 Gaussian 16, Revision C.01,

 ----------------------------------------------------------------------
 #t hf aug-cc-pvdz symm=none int=(grid=ultrafine) guess=(read,tcheck) s
 table=(opt,rrhf)
 ----------------------------------------------------------------------
 -----
 title
 -----
 Symbolic Z-matrix:
 Charge =  0 Multiplicity = 1

 SCF Done:  E(RHF) =  -443.063347682     A.U. after   12 cycles
 Normal termination of Gaussian 16 at Wed Apr  9 00:01:27 2025.
 Gaussian 16:  ES64L-G16RevC.01  3-Jul-2019

 ----------------------------------------------------------------------
 #t hf aug-cc-pvdz iop(5/13=1,5/36=2,99/5=2) pseudo=read geom=check gue
 ss=(read,tcheck) scf=(maxcycle=1)
 ----------------------------------------------------------------------
 -----
 title
 -----
 Structure from the checkpoint file:  "BDE49_nonexpt_2181_mol1.chk"
 Charge =  0 Multiplicity = 1

                         Standard orientation:
 ---------------------------------------------------------------------
 Center     Atomic      Atomic             Coordinates (Angstroms)
 Number     Number       Type             X           Y           Z
 ---------------------------------------------------------------------
      1         14           0       -0.719049   -0.549125    0.000044
      2          8           0       -1.174559    1.042326   -0.000206
      3          1           0       -2.108384    1.259745    0.000897
      4          6           0        1.136639   -0.553487   -0.000061
      5          6           0        1.871532    0.560787    0.000035
      6          1           0        1.648069   -1.516073   -0.000248
      7          1           0        1.407479    1.542086    0.000196
      8          1           0        2.958161    0.537896   -0.000056
      9          1           0       -1.245606   -1.259401   -1.194474
     10          1           0       -1.245586   -1.258910    1.194870
 ---------------------------------------------------------------------

 SCF Done:  E(RHF) =  -443.146251537     A.U. after    2 cycles

 The electronic state is 1-A.
 Alpha  occ. eigenvalues --  -69.08934 -20.57111 -11.24929 -11.22784  -6.83754
 Alpha  occ. eigenvalues --   -3.94699  -3.94552  -3.94496  -1.30130  -1.02747
 Alpha  occ. eigenvalues --   -0.79683  -0.74703  -0.64450  -0.62927  -0.58433
 Alpha  occ. eigenvalues --   -0.56560  -0.53014  -0.46161  -0.45178  -0.37875
 Alpha virt. eigenvalues --    0.03162   0.04387   0.05003   0.06440   0.06664
 Alpha virt. eigenvalues --    0.07023   0.07929   0.09185   0.09588   0.10647
 Alpha virt. eigenvalues --    0.13268   0.14506   0.14831   0.15919   0.17499

 Mulliken charges:
               1
     1  Si   1.095848
     2  O   -0.766779
     3  H    0.123784
     4  C   -0.021832
     5  C    0.658212
     6  H   -0.437043
     7  H   -0.254976
     8  H   -0.277369
     9  H   -0.059960
    10  H   -0.059884
 Sum of Mulliken charges =   0.00000

 Dipole moment (field-independent basis, Debye):
    X=             -0.6665    Y=             -0.1700    Z=              0.0019  Tot=              0.6879

 Test job not archived.
 1\1\GINC-SE336\SP\RHF\Aug-CC-pVDZ\C2H6O1Si1\OHZDE\09-Apr-2025\0\\#t hf
  aug-cc-pvdz iop(5/13=1,5/36=2,99/5=2) pseudo=read geom=check guess=(r
 ead,tcheck) scf=(maxcycle=1)\\title\\0,1\Si,0,-0.719049,-0.549125,0.00
 0044\O,0,-1.174559,1.042326,-0.000206\H,0,-2.108384,1.259745,0.000897\
 C,0,1.136639,-0.553487,-0.000061\C,0,1.871532,0.560787,0.000035\H,0,1.
 648069,-1.516073,-0.000248\H,0,1.407479,1.542086,0.000196\H,0,2.958161
 ,0.537896,-0.000056\H,0,-1.245606,-1.259401,-1.194474\H,0,-1.245586,-1
 .25891,1.19487\\Version=ES64L-G16RevC.01\State=1-A\HF=-443.1462515\RMS

 Normal termination of Gaussian 16 at Wed Apr  9 00:01:29 2025.
