 Gaussian 16, Revision C.01,

 ----------------------------------------------------------------------
 #t hf aug-cc-pvdz symm=none int=(grid=ultrafine) guess=(read,tcheck) s
 table=(opt,rrhf)
 ----------------------------------------------------------------------
 -----
 title
 -----
 Symbolic Z-matrix:
 Charge =  0 Multiplicity = 1

 SCF Done:  E(RHF) =  -691.478134256     A.U. after   11 cycles

 1\1\GINC-SE366\Stability\RHF\Aug-CC-pVDZ\H8N2Si2\OHZDE\08-Apr-2025\0\\
 #t hf aug-cc-pvdz symm=none int=(grid=ultrafine) guess=(read,tcheck) s
 table=(opt,rrhf)\\title\\0,1\Si,0,-0.019402,-1.183256,-0.583452\Si,0,0
 .019402,1.183256,-0.583452\N,0,0.019402,-1.618285,1.096518\H,0,0.68468
 ,-1.144046,1.692323\H,0,-0.085757,-2.584227,1.375531\N,0,-0.019402,1.6
 18285,1.096518\H,0,-0.68468,1.144046,1.692323\H,0,0.085757,2.584227,1.
 375531\H,0,1.087405,-1.728973,-1.423093\H,0,-1.276076,-1.731735,-1.152
 055\H,0,-1.087405,1.728973,-1.423093\H,0,1.276076,1.731735,-1.152055\\

 Normal termination of Gaussian 16 at Tue Apr  8 23:59:26 2025.
 Gaussian 16:  ES64L-G16RevC.01  3-Jul-2019

 ----------------------------------------------------------------------
 #t hf aug-cc-pvdz iop(5/13=1,5/36=2,99/5=2) pseudo=read geom=check gue
 ss=(read,tcheck) scf=(maxcycle=1)
 ----------------------------------------------------------------------
 -----
 title
 -----
 Structure from the checkpoint file:  "BDE49_nonexpt_2134_mol1.chk"
 Charge =  0 Multiplicity = 1

                         Standard orientation:
 ---------------------------------------------------------------------
 Center     Atomic      Atomic             Coordinates (Angstroms)
 Number     Number       Type             X           Y           Z
 ---------------------------------------------------------------------
      1         14           0        0.019402    1.183256   -0.583452
      2         14           0       -0.019402   -1.183256   -0.583452
      3          7           0       -0.019402    1.618285    1.096518
      4          1           0       -0.684680    1.144046    1.692323
      5          1           0        0.085757    2.584227    1.375531
      6          7           0        0.019402   -1.618285    1.096518
      7          1           0        0.684680   -1.144046    1.692323
      8          1           0       -0.085757   -2.584227    1.375531
      9          1           0       -1.087405    1.728973   -1.423093
     10          1           0        1.276076    1.731735   -1.152055
     11          1           0        1.087405   -1.728973   -1.423093
     12          1           0       -1.276076   -1.731735   -1.152055
 ---------------------------------------------------------------------

 SCF Done:  E(RHF) =  -691.567602517     A.U. after    2 cycles

 The electronic state is 1-A.
 Alpha  occ. eigenvalues --  -69.06676 -69.06676 -15.60071 -15.60070  -6.81758
 Alpha  occ. eigenvalues --   -6.81757  -3.92618  -3.92611  -3.92537  -3.92504
 Alpha  occ. eigenvalues --   -3.92482  -3.92449  -1.10138  -1.09252  -0.72341
 Alpha  occ. eigenvalues --   -0.66632  -0.66133  -0.63946  -0.55238  -0.53281
 Alpha  occ. eigenvalues --   -0.49239  -0.47420  -0.40997  -0.39788  -0.37021
 Alpha virt. eigenvalues --    0.03391   0.03888   0.05033   0.05785   0.06488
 Alpha virt. eigenvalues --    0.06652   0.07484   0.07775   0.09054   0.09900
 Alpha virt. eigenvalues --    0.09962   0.10405   0.11702   0.11734   0.15027

 Mulliken charges:
               1
     1  Si   0.562405
     2  Si   0.562405
     3  N   -0.520223
     4  H    0.015877
     5  H   -0.066344
     6  N   -0.520223
     7  H    0.015877
     8  H   -0.066344
     9  H   -0.010554
    10  H    0.018839
    11  H   -0.010554
    12  H    0.018839
 Sum of Mulliken charges =  -0.00000

 Dipole moment (field-independent basis, Debye):
    X=              0.0000    Y=              0.0000    Z=              1.4963  Tot=              1.4963

 Test job not archived.
 1\1\GINC-SE366\SP\RHF\Aug-CC-pVDZ\H8N2Si2\OHZDE\08-Apr-2025\0\\#t hf a
 ug-cc-pvdz iop(5/13=1,5/36=2,99/5=2) pseudo=read geom=check guess=(rea
 d,tcheck) scf=(maxcycle=1)\\title\\0,1\Si,0,-0.019402,-1.183256,-0.583
 452\Si,0,0.019402,1.183256,-0.583452\N,0,0.019402,-1.618285,1.096518\H
 ,0,0.68468,-1.144046,1.692323\H,0,-0.085757,-2.584227,1.375531\N,0,-0.
 019402,1.618285,1.096518\H,0,-0.68468,1.144046,1.692323\H,0,0.085757,2
 .584227,1.375531\H,0,1.087405,-1.728973,-1.423093\H,0,-1.276076,-1.731
 735,-1.152055\H,0,-1.087405,1.728973,-1.423093\H,0,1.276076,1.731735,-

 Normal termination of Gaussian 16 at Tue Apr  8 23:59:28 2025.
