 Gaussian 16, Revision C.01,

 ----------------------------------------------------------------------
 #t hf aug-cc-pvdz symm=none int=(grid=ultrafine) guess=(read,tcheck) s
 table=(opt,rrhf)
 ----------------------------------------------------------------------
 -----
 title
 -----
 Symbolic Z-matrix:
 Charge =  0 Multiplicity = 1

 SCF Done:  E(RHF) =  -327.075235394     A.U. after   15 cycles
 Normal termination of Gaussian 16 at Wed Apr  9 00:36:23 2025.
 Gaussian 16:  ES64L-G16RevC.01  3-Jul-2019

 ----------------------------------------------------------------------
 #t hf aug-cc-pvdz iop(5/13=1,5/36=2,99/5=2) pseudo=read geom=check gue
 ss=(read,tcheck) scf=(maxcycle=1)
 ----------------------------------------------------------------------
 -----
 title
 -----
 Structure from the checkpoint file:  "BDE49_nonexpt_559_mol1.chk"
 Charge =  0 Multiplicity = 1

                         Standard orientation:
 ---------------------------------------------------------------------
 Center     Atomic      Atomic             Coordinates (Angstroms)
 Number     Number       Type             X           Y           Z
 ---------------------------------------------------------------------
      1          6           0        1.378784    1.294131    0.000000
      2          6           0        2.214467    0.176327    0.000002
      3          6           0        1.616405   -1.077479    0.000004
      4          7           0        0.293337   -1.264589    0.000003
      5          6           0       -0.496089   -0.188600    0.000001
      6          6           0        0.003769    1.121585   -0.000001
      7          1           0        3.292721    0.274822    0.000003
      8          1           0        2.220191   -1.980496    0.000006
      9          1           0       -0.668064    1.968650   -0.000002
     10          1           0        1.796974    2.294538   -0.000001
     11          5           0       -2.991391    0.359675   -0.000012
     12          7           0       -1.872882   -0.480818   -0.000001
     13          1           0       -2.862588    1.542100   -0.000007
     14          1           0       -4.066753   -0.149833    0.000004
     15          1           0       -2.002723   -1.486087    0.000005
 ---------------------------------------------------------------------

 SCF Done:  E(RHF) =  -327.173319478     A.U. after    2 cycles

 The electronic state is 1-A.
 Alpha  occ. eigenvalues --  -15.64144 -15.62817 -11.33409 -11.29109 -11.27310
 Alpha  occ. eigenvalues --  -11.24867 -11.24529  -7.61492  -1.25929  -1.16360
 Alpha  occ. eigenvalues --   -1.07922  -1.00935  -0.87084  -0.85186  -0.74619
 Alpha  occ. eigenvalues --   -0.71948  -0.68052  -0.64764  -0.62090  -0.58018
 Alpha  occ. eigenvalues --   -0.57426  -0.57215  -0.53027  -0.47939  -0.46876
 Alpha  occ. eigenvalues --   -0.42305  -0.38721  -0.32394
 Alpha virt. eigenvalues --    0.03139   0.03860   0.03921   0.04768   0.05607
 Alpha virt. eigenvalues --    0.05657   0.07107   0.08727   0.09093   0.10200
 Alpha virt. eigenvalues --    0.10262   0.11354   0.11919   0.12759   0.13391

 Mulliken charges:
               1
     1  C   -0.429524
     2  C    1.075461
     3  C    0.315296
     4  N   -0.302269
     5  C    0.267651
     6  C    1.346268
     7  H   -0.418425
     8  H   -0.386472
     9  H   -0.638858
    10  H   -0.409127
    11  B   -0.777636
    12  N   -0.366471
    13  H    0.265711
    14  H    0.474460
    15  H   -0.016063
 Sum of Mulliken charges =  -0.00000

 Dipole moment (field-independent basis, Debye):
    X=              1.1584    Y=              0.9928    Z=             -0.0000  Tot=              1.5256

 Test job not archived.
 1\1\GINC-SE457\SP\RHF\Aug-CC-pVDZ\C5H7B1N2\OHZDE\09-Apr-2025\0\\#t hf
 aug-cc-pvdz iop(5/13=1,5/36=2,99/5=2) pseudo=read geom=check guess=(re
 ad,tcheck) scf=(maxcycle=1)\\title\\0,1\C,0,-1.378784,1.294131,0.\C,0,
 -2.214467,0.176327,-0.000002\C,0,-1.616405,-1.077479,-0.000004\N,0,-0.
 293337,-1.264589,-0.000003\C,0,0.496089,-0.1886,-0.000001\C,0,-0.00376
 9,1.121585,0.000001\H,0,-3.292721,0.274822,-0.000003\H,0,-2.220191,-1.
 980496,-0.000006\H,0,0.668064,1.96865,0.000002\H,0,-1.796974,2.294538,
 0.000001\B,0,2.991391,0.359675,0.000012\N,0,1.872882,-0.480818,0.00000

 Normal termination of Gaussian 16 at Wed Apr  9 00:36:28 2025.
