 Gaussian 16, Revision C.01,

 ----------------------------------------------------------------------
 #t hf aug-cc-pvdz symm=none int=(grid=ultrafine) guess=(read,tcheck) s
 table=(opt,rrhf)
 ----------------------------------------------------------------------
 -----
 title
 -----
 Symbolic Z-matrix:
 Charge =  0 Multiplicity = 1

 SCF Done:  E(RHF) =  -191.978498641     A.U. after   12 cycles
 Normal termination of Gaussian 16 at Tue Apr  8 22:31:20 2025.
 Gaussian 16:  ES64L-G16RevC.01  3-Jul-2019

 ----------------------------------------------------------------------
 #t hf aug-cc-pvdz iop(5/13=1,5/36=2,99/5=2) pseudo=read geom=check gue
 ss=(read,tcheck) scf=(maxcycle=1)
 ----------------------------------------------------------------------
 -----
 title
 -----
 Structure from the checkpoint file:  "BDE49_expt_1081_mol1.chk"
 Charge =  0 Multiplicity = 1

                         Standard orientation:
 ---------------------------------------------------------------------
 Center     Atomic      Atomic             Coordinates (Angstroms)
 Number     Number       Type             X           Y           Z
 ---------------------------------------------------------------------
      1          6           0       -0.544919    0.730276    0.000013
      2          6           0        0.933197    0.420242    0.000016
      3          8           0        1.404146   -0.688511   -0.000027
      4          1           0        1.595308    1.315925   -0.000016
      5          6           0       -1.445147   -0.500933    0.000003
      6          1           0       -0.736476    1.374437   -0.869700
      7          1           0       -0.736479    1.374424    0.869735
      8          1           0       -1.257898   -1.120993   -0.878930
      9          1           0       -2.498510   -0.212213    0.000003
     10          1           0       -1.257902   -1.121006    0.878927
 ---------------------------------------------------------------------

 SCF Done:  E(RHF) =  -192.040977809     A.U. after    2 cycles

 The electronic state is 1-A.
 Alpha  occ. eigenvalues --  -20.57392 -11.34560 -11.25624 -11.23380  -1.36187
 Alpha  occ. eigenvalues --   -1.05351  -0.90909  -0.77633  -0.69091  -0.64197
 Alpha  occ. eigenvalues --   -0.63705  -0.54841  -0.54023  -0.52392  -0.49878
 Alpha  occ. eigenvalues --   -0.43356
 Alpha virt. eigenvalues --    0.03145   0.04362   0.04888   0.05487   0.07020
 Alpha virt. eigenvalues --    0.07863   0.10236   0.10772   0.12355   0.14030
 Alpha virt. eigenvalues --    0.14343   0.15365   0.16004   0.16484   0.17099

 Mulliken charges:
               1
     1  C   -0.193653
     2  C    0.497824
     3  O   -0.447114
     4  H   -0.124634
     5  C    0.453256
     6  H   -0.011557
     7  H   -0.011551
     8  H   -0.055553
     9  H   -0.051463
    10  H   -0.055556
 Sum of Mulliken charges =  -0.00000

 Dipole moment (field-independent basis, Debye):
    X=             -1.8138    Y=              2.7577    Z=              0.0001  Tot=              3.3007

 Test job not archived.
 1\1\GINC-SE364\SP\RHF\Aug-CC-pVDZ\C3H6O1\OHZDE\08-Apr-2025\0\\#t hf au
 g-cc-pvdz iop(5/13=1,5/36=2,99/5=2) pseudo=read geom=check guess=(read
 ,tcheck) scf=(maxcycle=1)\\title\\0,1\C,0,-0.544919,0.730276,0.000013\
 C,0,0.933197,0.420242,0.000016\O,0,1.404146,-0.68851,-0.000027\H,0,1.5
 95308,1.315926,-0.000016\C,0,-1.445147,-0.500933,0.000003\H,0,-0.73647
 6,1.374437,-0.8697\H,0,-0.736479,1.374424,0.869735\H,0,-1.257898,-1.12
 0993,-0.87893\H,0,-2.49851,-0.212214,0.000003\H,0,-1.257902,-1.121006,
 0.878927\\Version=ES64L-G16RevC.01\State=1-A\HF=-192.0409778\RMSD=3.88

 Normal termination of Gaussian 16 at Tue Apr  8 22:31:23 2025.
