 Gaussian 16, Revision C.01,

 ----------------------------------------------------------------------
 #t hf aug-cc-pvdz symm=none int=(grid=ultrafine) guess=(read,tcheck) s
 table=(opt,rrhf)
 ----------------------------------------------------------------------
 -----
 title
 -----
 Symbolic Z-matrix:
 Charge =  0 Multiplicity = 1

 SCF Done:  E(RHF) =  -1178.57916302     A.U. after   13 cycles
 Normal termination of Gaussian 16 at Tue Apr  8 23:29:37 2025.
 Gaussian 16:  ES64L-G16RevC.01  3-Jul-2019

 ----------------------------------------------------------------------
 #t hf aug-cc-pvdz iop(5/13=1,5/36=2,99/5=2) pseudo=read geom=check gue
 ss=(read,tcheck) scf=(maxcycle=1)
 ----------------------------------------------------------------------
 -----
 title
 -----
 Structure from the checkpoint file:  "BDE49_nonexpt_1351_mol1.chk"
 Charge =  0 Multiplicity = 1

                         Standard orientation:
 ---------------------------------------------------------------------
 Center     Atomic      Atomic             Coordinates (Angstroms)
 Number     Number       Type             X           Y           Z
 ---------------------------------------------------------------------
      1          9           0       -1.530133   -1.511993   -0.636519
      2          7           0       -0.330801    1.028122    0.523238
      3          7           0       -2.325146    1.343316   -0.990599
      4         15           0       -2.339311   -0.821920    0.614105
      5          6           0       -1.794290    0.950648    0.290629
      6          9           0        1.530134   -1.511993    0.636519
      7          7           0        0.330801    1.028121   -0.523239
      8          7           0        2.325144    1.343317    0.990599
      9         15           0        2.339312   -0.821919   -0.614105
     10          6           0        1.794289    0.950648   -0.290629
     11          1           0        2.157303    2.331299    1.155588
     12          1           0        1.836980    0.837509    1.723562
     13          1           0       -1.836982    0.837509   -1.723561
     14          1           0       -2.157305    2.331298   -1.155587
     15          1           0        1.361763   -1.074176   -1.614262
     16          1           0        2.257623    1.538155   -1.089769
     17          1           0       -1.361761   -1.074176    1.614262
     18          1           0       -2.257624    1.538154    1.089770
 ---------------------------------------------------------------------

 SCF Done:  E(RHF) =  -1178.78770339     A.U. after    2 cycles

 The electronic state is 1-A.
 Alpha  occ. eigenvalues --  -81.32992 -81.32992 -26.11643 -26.11643 -15.70418
 Alpha  occ. eigenvalues --  -15.70289 -15.62945 -15.62944 -11.32038 -11.32037
 Alpha  occ. eigenvalues --   -7.82520  -7.82520  -4.96615  -4.96612  -4.96347
 Alpha  occ. eigenvalues --   -4.96338  -4.96029  -4.96028  -1.63744  -1.63621
 Alpha  occ. eigenvalues --   -1.34151  -1.19366  -1.15552  -1.01796  -0.93216
 Alpha  occ. eigenvalues --   -0.85016  -0.82835  -0.77260  -0.74235  -0.73956
 Alpha  occ. eigenvalues --   -0.73899  -0.72620  -0.69112  -0.68765  -0.68313
 Alpha  occ. eigenvalues --   -0.67778  -0.64991  -0.62894  -0.57744  -0.57351
 Alpha  occ. eigenvalues --   -0.55091  -0.49884  -0.45758  -0.45127  -0.41719
 Alpha  occ. eigenvalues --   -0.39095  -0.38697  -0.35614
 Alpha virt. eigenvalues --    0.02641   0.02860   0.04468   0.04830   0.05808
 Alpha virt. eigenvalues --    0.06805   0.07748   0.07903   0.08850   0.08857
 Alpha virt. eigenvalues --    0.10017   0.10362   0.11107   0.11535   0.12130

 Mulliken charges:
               1
     1  F   -0.696510
     2  N   -0.481387
     3  N   -0.285441
     4  P    0.923423
     5  C    0.666028
     6  F   -0.696510
     7  N   -0.481385
     8  N   -0.285443
     9  P    0.923423
    10  C    0.666031
    11  H   -0.010798
    12  H    0.089742
    13  H    0.089741
    14  H   -0.010798
    15  H    0.106869
    16  H   -0.311927
    17  H    0.106869
    18  H   -0.311927
 Sum of Mulliken charges =  -0.00000

 Dipole moment (field-independent basis, Debye):
    X=             -0.0000    Y=              3.3544    Z=             -0.0000  Tot=              3.3544

 Test job not archived.
 1\1\GINC-SE222\SP\RHF\Aug-CC-pVDZ\C2H8F2N4P2\OHZDE\08-Apr-2025\0\\#t h
 f aug-cc-pvdz iop(5/13=1,5/36=2,99/5=2) pseudo=read geom=check guess=(
 read,tcheck) scf=(maxcycle=1)\\title\\0,1\F,0,-1.530133,-1.511993,-0.6
 36519\N,0,-0.330801,1.028122,0.523238\N,0,-2.325146,1.343316,-0.990599
 \P,0,-2.339311,-0.82192,0.614105\C,0,-1.79429,0.950648,0.290629\F,0,1.
 530134,-1.511993,0.636519\N,0,0.330801,1.028121,-0.523239\N,0,2.325144
 ,1.343317,0.990599\P,0,2.339312,-0.821919,-0.614105\C,0,1.794289,0.950
 648,-0.290629\H,0,2.157303,2.331299,1.155588\H,0,1.83698,0.837509,1.72

 Normal termination of Gaussian 16 at Tue Apr  8 23:29:50 2025.
