 Gaussian 16, Revision C.01,

 ----------------------------------------------------------------------
 #t hf aug-cc-pvdz symm=none int=(grid=ultrafine) guess=(read,tcheck) s
 table=(opt,rrhf)
 ----------------------------------------------------------------------
 -----
 title
 -----
 Symbolic Z-matrix:
 Charge =  0 Multiplicity = 1

 SCF Done:  E(RHF) =  -461.057646073     A.U. after   11 cycles
 Normal termination of Gaussian 16 at Wed Apr  9 00:28:41 2025.
 Gaussian 16:  ES64L-G16RevC.01  3-Jul-2019

 ----------------------------------------------------------------------
 #t hf aug-cc-pvdz iop(5/13=1,5/36=2,99/5=2) pseudo=read geom=check gue
 ss=(read,tcheck) scf=(maxcycle=1)
 ----------------------------------------------------------------------
 -----
 title
 -----
 Structure from the checkpoint file:  "BDE49_nonexpt_358_mol1.chk"
 Charge =  0 Multiplicity = 1

                         Standard orientation:
 ---------------------------------------------------------------------
 Center     Atomic      Atomic             Coordinates (Angstroms)
 Number     Number       Type             X           Y           Z
 ---------------------------------------------------------------------
      1          9           0        1.677458   -0.883714   -0.349639
      2          9           0        1.195842    1.171339    0.474916
      3          5           0        0.787235    0.046476   -0.065300
      4          6           0       -0.754757   -0.227099   -0.364940
      5          9           0       -1.227689   -1.015491    0.669730
      6          9           0       -1.472652    0.937670   -0.371201
      7          1           0       -0.964263   -0.758033   -1.298117
 ---------------------------------------------------------------------

 SCF Done:  E(RHF) =  -461.234373225     A.U. after    2 cycles

 The electronic state is 1-A.
 Alpha  occ. eigenvalues --  -26.17071 -26.16826 -26.15287 -26.15190 -11.42922
 Alpha  occ. eigenvalues --   -7.77736  -1.72432  -1.70916  -1.70220  -1.66782
 Alpha  occ. eigenvalues --   -1.02177  -0.90796  -0.85947  -0.84800  -0.82721
 Alpha  occ. eigenvalues --   -0.81799  -0.79591  -0.77882  -0.75090  -0.74926
 Alpha  occ. eigenvalues --   -0.74027  -0.71053  -0.66392  -0.55523
 Alpha virt. eigenvalues --    0.03275   0.04923   0.05420   0.05736   0.08266
 Alpha virt. eigenvalues --    0.09503   0.11280   0.13631   0.14783   0.19227
 Alpha virt. eigenvalues --    0.20136   0.22033   0.24315   0.24824   0.26038

 Mulliken charges:
               1
     1  F   -0.383785
     2  F   -0.337855
     3  B    0.931653
     4  C    0.842124
     5  F   -0.397678
     6  F   -0.389614
     7  H   -0.264844
 Sum of Mulliken charges =  -0.00000

 Dipole moment (field-independent basis, Debye):
    X=              0.4797    Y=             -0.7296    Z=             -1.8417  Tot=              2.0382

 Test job not archived.
 1\1\GINC-SE455\SP\RHF\Aug-CC-pVDZ\C1H1B1F4\OHZDE\09-Apr-2025\0\\#t hf
 aug-cc-pvdz iop(5/13=1,5/36=2,99/5=2) pseudo=read geom=check guess=(re
 ad,tcheck) scf=(maxcycle=1)\\title\\0,1\F,0,-1.677458,-0.883714,0.3496
 39\F,0,-1.195842,1.171339,-0.474916\B,0,-0.787235,0.046476,0.0653\C,0,
 0.754757,-0.227099,0.36494\F,0,1.227689,-1.015491,-0.66973\F,0,1.47265
 2,0.93767,0.371201\H,0,0.964263,-0.758033,1.298117\\Version=ES64L-G16R
 evC.01\State=1-A\HF=-461.2343732\RMSD=5.934e-03\Dipole=-0.1887157,-0.2
 870271,0.7245694\Quadrupole=-2.1714391,-1.1147185,3.2861575,-0.9596108

 Normal termination of Gaussian 16 at Wed Apr  9 00:28:44 2025.
