 Gaussian 16, Revision C.01,

 ----------------------------------------------------------------------
 #t hf aug-cc-pvdz symm=none int=(grid=ultrafine) guess=(read,tcheck) s
 table=(opt,rrhf)
 ----------------------------------------------------------------------
 -----
 title
 -----
 Symbolic Z-matrix:
 Charge =  0 Multiplicity = 1

 SCF Done:  E(RHF) =  -2215.58630622     A.U. after   15 cycles
 Normal termination of Gaussian 16 at Wed Apr  9 00:52:36 2025.
 Gaussian 16:  ES64L-G16RevC.01  3-Jul-2019

 ----------------------------------------------------------------------
 #t hf aug-cc-pvdz iop(5/13=1,5/36=2,99/5=2) pseudo=read geom=check gue
 ss=(read,tcheck) scf=(maxcycle=1)
 ----------------------------------------------------------------------
 -----
 title
 -----
 Structure from the checkpoint file:  "BDE49_nonexpt_927_mol1.chk"
 Charge =  0 Multiplicity = 1

                         Standard orientation:
 ---------------------------------------------------------------------
 Center     Atomic      Atomic             Coordinates (Angstroms)
 Number     Number       Type             X           Y           Z
 ---------------------------------------------------------------------
      1         17           0        2.349314   -1.867854    1.191561
      2         17           0        2.778681   -0.134547   -1.077816
      3          8           0        0.000306    3.378857    0.000085
      4          6           0       -0.623646    2.377598    0.827927
      5          1           0       -1.712453    2.443365    0.795547
      6          1           0       -0.287146    2.437069    1.868687
      7          6           0        0.000018    1.215999   -0.000050
      8          7           0        1.536905   -0.758345    0.054992
      9          6           0        0.962675    0.363249    0.836701
     10          1           0        0.397533   -0.129443    1.630267
     11          1           0        1.736801    0.986908    1.294928
     12          6           0        0.623805    2.377535   -0.828022
     13          1           0        1.712633    2.443038   -0.795915
     14          1           0        0.287048    2.437195   -1.868691
     15          6           0       -0.962684    0.363264   -0.836758
     16          7           0       -1.536978   -0.758256   -0.054988
     17         17           0       -2.349478   -1.867762   -1.191494
     18         17           0       -2.778695   -0.134314    1.077807
     19          1           0       -0.397571   -0.129504   -1.630297
     20          1           0       -1.736776    0.986940   -1.295018
 ---------------------------------------------------------------------

 SCF Done:  E(RHF) =  -2215.77049726     A.U. after    2 cycles

 The electronic state is 1-A.
 Alpha  occ. eigenvalues -- -103.70635-103.70634-103.70534-103.70534 -20.58100
 Alpha  occ. eigenvalues --  -15.77598 -15.77597 -11.31204 -11.31199 -11.30978
 Alpha  occ. eigenvalues --  -11.30974 -11.28836 -10.73634 -10.73634 -10.73504
 Alpha  occ. eigenvalues --  -10.73504  -8.39367  -8.39367  -8.39244  -8.39244
 Alpha  occ. eigenvalues --   -8.39018  -8.39017  -8.38983  -8.38981  -8.38872
 Alpha  occ. eigenvalues --   -8.38871  -8.38846  -8.38843  -1.36028  -1.29726
 Alpha  occ. eigenvalues --   -1.29096  -1.15576  -1.15561  -1.12607  -1.05910
 Alpha  occ. eigenvalues --   -1.00624  -0.95894  -0.89597  -0.86807  -0.77018
 Alpha  occ. eigenvalues --   -0.71572  -0.71250  -0.68368  -0.66985  -0.64823
 Alpha  occ. eigenvalues --   -0.64790  -0.62419  -0.61007  -0.59965  -0.58371
 Alpha  occ. eigenvalues --   -0.56283  -0.55159  -0.53104  -0.51563  -0.50837
 Alpha  occ. eigenvalues --   -0.49548  -0.49344  -0.47466  -0.47304  -0.47136
 Alpha  occ. eigenvalues --   -0.47060  -0.44292  -0.42583  -0.41575
 Alpha virt. eigenvalues --    0.03435   0.03973   0.04714   0.04898   0.05613
 Alpha virt. eigenvalues --    0.05678   0.06585   0.06961   0.07260   0.07834
 Alpha virt. eigenvalues --    0.08297   0.09642   0.10356   0.10749   0.12238

 Mulliken charges:
               1
     1  Cl   0.158630
     2  Cl   0.107227
     3  O   -0.789847
     4  C    1.312364
     5  H   -0.227972
     6  H   -0.193070
     7  C   -1.844003
     8  N   -0.807112
     9  C    1.239425
    10  H   -0.067361
    11  H   -0.205306
    12  C    1.312385
    13  H   -0.227904
    14  H   -0.193143
    15  C    1.239643
    16  N   -0.807129
    17  Cl   0.158639
    18  Cl   0.107229
    19  H   -0.067361
    20  H   -0.205333
 Sum of Mulliken charges =  -0.00000

 Dipole moment (field-independent basis, Debye):
    X=             -0.0004    Y=              0.7069    Z=             -0.0003  Tot=              0.7069

 Test job not archived.
 1\1\GINC-SE070\SP\RHF\Aug-CC-pVDZ\C5H8Cl4N2O1\OHZDE\09-Apr-2025\0\\#t
 hf aug-cc-pvdz iop(5/13=1,5/36=2,99/5=2) pseudo=read geom=check guess=
 (read,tcheck) scf=(maxcycle=1)\\title\\0,1\Cl,0,2.349314,-1.867854,1.1
 91561\Cl,0,2.778681,-0.134547,-1.077816\O,0,0.000306,3.378857,0.000085
 \C,0,-0.623646,2.377598,0.827927\H,0,-1.712453,2.443365,0.795547\H,0,-
 0.287146,2.437069,1.868687\C,0,0.000018,1.215999,-0.00005\N,0,1.536905
 ,-0.758345,0.054992\C,0,0.962675,0.363249,0.836701\H,0,0.397533,-0.129
 443,1.630267\H,0,1.736801,0.986908,1.294928\C,0,0.623805,2.377535,-0.8

 Normal termination of Gaussian 16 at Wed Apr  9 00:52:54 2025.
