 Gaussian 16, Revision C.01,

 ----------------------------------------------------------------------
 #t hf aug-cc-pvdz symm=none int=(grid=ultrafine) guess=(read,tcheck) s
 table=opt
 ----------------------------------------------------------------------
 -----
 title
 -----
 Symbolic Z-matrix:
 Charge =  0 Multiplicity = 2

 SCF Done:  E(UHF) =  -970.619718525     A.U. after   15 cycles
 Normal termination of Gaussian 16 at Wed Apr  9 00:13:10 2025.
 Gaussian 16:  ES64L-G16RevC.01  3-Jul-2019

 ----------------------------------------------------------------------
 #t hf aug-cc-pvdz iop(5/13=1,5/36=2,99/5=2) pseudo=read geom=check gue
 ss=(read,tcheck) scf=(maxcycle=1)
 ----------------------------------------------------------------------
 -----
 title
 -----
 Structure from the checkpoint file:  "BDE49_nonexpt_2449_mol2.chk"
 Charge =  0 Multiplicity = 2

                         Standard orientation:
 ---------------------------------------------------------------------
 Center     Atomic      Atomic             Coordinates (Angstroms)
 Number     Number       Type             X           Y           Z
 ---------------------------------------------------------------------
      1         14           0        2.417024    0.469825   -0.101607
      2         15           0       -0.457371   -0.486519    0.129720
      3          8           0       -0.661633    1.073552   -0.109944
      4          8           0       -0.948449   -1.124023   -1.257939
      5          1           0       -1.370065   -1.979116   -1.114116
      6          8           0       -1.095333   -1.083006    1.302024
      7          8           0        1.114436   -0.573128    0.066615
      8          1           0        2.341911    1.521490    0.944242
      9          1           0        3.610134   -0.391021    0.084916
     10          6           0       -1.986891    1.640721   -0.053015
     11          1           0       -1.858211    2.720743   -0.076582
     12          1           0       -2.485624    1.340472    0.869815
     13          1           0       -2.566739    1.316175   -0.919537
 ---------------------------------------------------------------------

 SCF Done:  E(UHF) =  -970.837255468     A.U. after    2 cycles

 The electronic state is 2-A.
 Alpha  occ. eigenvalues --  -81.44912 -69.12647 -20.61725 -20.61258 -20.60467
 Alpha  occ. eigenvalues --  -20.52719 -11.31333  -7.92767  -6.87384  -5.07474
 Alpha  occ. eigenvalues --   -5.07395  -5.07362  -3.98638  -3.97947  -3.97753
 Alpha  occ. eigenvalues --   -1.39653  -1.35216  -1.34091  -1.26275  -0.97321
 Alpha  occ. eigenvalues --   -0.85219  -0.78748  -0.73898  -0.69235  -0.67495
 Alpha  occ. eigenvalues --   -0.66453  -0.64508  -0.62788  -0.60406  -0.58150
 Alpha  occ. eigenvalues --   -0.57143  -0.54067  -0.51716  -0.49953  -0.49008
 Alpha  occ. eigenvalues --   -0.48738  -0.34812
 Alpha virt. eigenvalues --    0.03206   0.04265   0.04521   0.05957   0.06363
 Alpha virt. eigenvalues --    0.06496   0.07367   0.08032   0.09275   0.10973
 Alpha virt. eigenvalues --    0.12110   0.12897   0.13410   0.13538   0.14195

  Beta  occ. eigenvalues --  -81.44916 -69.12081 -20.61730 -20.61260 -20.60167
  Beta  occ. eigenvalues --  -20.52708 -11.31334  -7.92772  -6.86496  -5.07481
  Beta  occ. eigenvalues --   -5.07401  -5.07364  -3.97593  -3.97394  -3.96556
  Beta  occ. eigenvalues --   -1.39496  -1.35223  -1.33420  -1.26217  -0.97315
  Beta  occ. eigenvalues --   -0.84752  -0.77935  -0.73836  -0.68918  -0.66939
  Beta  occ. eigenvalues --   -0.66255  -0.63246  -0.60815  -0.59738  -0.57646
  Beta  occ. eigenvalues --   -0.56371  -0.53996  -0.51704  -0.49329  -0.48800
  Beta  occ. eigenvalues --   -0.47804
  Beta virt. eigenvalues --    0.02628   0.03577   0.04404   0.04672   0.06075
  Beta virt. eigenvalues --    0.06524   0.06736   0.08018   0.09233   0.10035
  Beta virt. eigenvalues --    0.11191   0.12237   0.13087   0.13645   0.14072

 Mulliken charges and spin densities:
               1          2
     1  Si   0.470391   0.939496
     2  P    2.461353   0.001194
     3  O   -0.885877  -0.016803
     4  O   -0.684743   0.006183
     5  H    0.168265   0.000832
     6  O   -0.834600  -0.000216
     7  O   -1.056866  -0.022141
     8  H    0.021101   0.052895
     9  H    0.003880   0.044195
    10  C    0.724425  -0.004723
    11  H   -0.233445  -0.000241
    12  H   -0.069666   0.000244
    13  H   -0.084219  -0.000915
 Sum of Mulliken charges =   0.00000   1.00000

 Dipole moment (field-independent basis, Debye):
    X=             -0.1867    Y=              1.7442    Z=             -2.2418  Tot=              2.8465
                          Isotropic Fermi Contact Couplings
        Atom                 a.u.       MegaHertz       Gauss      10(-4) cm-1
     1  Si(29)             0.66349    -589.65958    -210.40520    -196.68926
     2  P(31)             -0.00633     -11.46126      -4.08966      -3.82306
     3  O(17)             -0.00120       0.72500       0.25870       0.24183
     4  O(17)             -0.00118       0.71450       0.25495       0.23833
     5  H(1)               0.00000       0.00856       0.00306       0.00286
     6  O(17)              0.00123      -0.74577      -0.26611      -0.24876
     7  O(17)              0.04139     -25.09141      -8.95324      -8.36959
     8  H(1)               0.01530      68.40625      24.40905      22.81787

 1\1\GINC-SE184\SP\UHF\Aug-CC-pVDZ\C1H6O4P1Si1(2)\OHZDE\09-Apr-2025\0\\
 #t hf aug-cc-pvdz iop(5/13=1,5/36=2,99/5=2) pseudo=read geom=check gue
 ss=(read,tcheck) scf=(maxcycle=1)\\title\\0,2\Si,0,2.417024,0.469825,-
 0.101607\P,0,-0.457371,-0.486519,0.12972\O,0,-0.661633,1.073552,-0.109
 944\O,0,-0.948449,-1.124023,-1.257939\H,0,-1.370065,-1.979116,-1.11411
 6\O,0,-1.095333,-1.083006,1.302024\O,0,1.114436,-0.573128,0.066615\H,0
 ,2.341911,1.52149,0.944242\H,0,3.610134,-0.39102,0.084916\C,0,-1.98689
 1,1.640721,-0.053015\H,0,-1.858211,2.720743,-0.076582\H,0,-2.485624,1.

 Normal termination of Gaussian 16 at Wed Apr  9 00:13:16 2025.
