 Gaussian 16, Revision C.01,

 ----------------------------------------------------------------------
 #t hf aug-cc-pvdz symm=none int=(grid=ultrafine) guess=(read,tcheck) s
 table=(opt,rrhf)
 ----------------------------------------------------------------------
 -----
 title
 -----
 Symbolic Z-matrix:
 Charge =  0 Multiplicity = 1

 SCF Done:  E(RHF) =  -291.877219941     A.U. after   14 cycles
 Normal termination of Gaussian 16 at Tue Apr  8 23:18:54 2025.
 Gaussian 16:  ES64L-G16RevC.01  3-Jul-2019

 ----------------------------------------------------------------------
 #t hf aug-cc-pvdz iop(5/13=1,5/36=2,99/5=2) pseudo=read geom=check gue
 ss=(read,tcheck) scf=(maxcycle=1)
 ----------------------------------------------------------------------
 -----
 title
 -----
 Structure from the checkpoint file:  "BDE49_nonexpt_1125_mol1.chk"
 Charge =  0 Multiplicity = 1

                         Standard orientation:
 ---------------------------------------------------------------------
 Center     Atomic      Atomic             Coordinates (Angstroms)
 Number     Number       Type             X           Y           Z
 ---------------------------------------------------------------------
      1          9           0        1.701242   -0.663683    0.392214
      2          8           0        1.068594    0.054378   -0.701641
      3          6           0        0.168250    0.968175   -0.084849
      4          6           0       -1.004699    0.302914    0.625017
      5          1           0        0.729876    1.635592    0.576666
      6          6           0       -1.836508   -0.600290   -0.287889
      7          1           0       -1.627039    1.100353    1.047116
      8          1           0       -0.614607   -0.269038    1.471027
      9          1           0       -2.277395   -0.033655   -1.114248
     10          1           0       -2.652030   -1.070794    0.266270
     11          1           0       -0.162306    1.542577   -0.960472
     12          1           0       -1.218691   -1.391706   -0.716830
 ---------------------------------------------------------------------

 SCF Done:  E(RHF) =  -291.975187603     A.U. after    2 cycles

 The electronic state is 1-A.
 Alpha  occ. eigenvalues --  -26.14873 -20.69548 -11.31375 -11.24649 -11.23226
 Alpha  occ. eigenvalues --   -1.65219  -1.31846  -1.05571  -0.93707  -0.83152
 Alpha  occ. eigenvalues --   -0.76366  -0.75730  -0.71251  -0.64952  -0.63955
 Alpha  occ. eigenvalues --   -0.59734  -0.57026  -0.55617  -0.50603  -0.49719
 Alpha  occ. eigenvalues --   -0.48296
 Alpha virt. eigenvalues --    0.03305   0.04497   0.04659   0.05602   0.06923
 Alpha virt. eigenvalues --    0.07246   0.07880   0.10133   0.11854   0.13622
 Alpha virt. eigenvalues --    0.14123   0.14898   0.15163   0.16370   0.16886

 Mulliken charges:
               1
     1  F   -0.361107
     2  O   -0.246842
     3  C    0.823019
     4  C   -0.066440
     5  H   -0.102068
     6  C    0.327447
     7  H   -0.023514
     8  H   -0.061335
     9  H   -0.071622
    10  H   -0.064212
    11  H   -0.120780
    12  H   -0.032546
 Sum of Mulliken charges =  -0.00000

 Dipole moment (field-independent basis, Debye):
    X=             -2.3278    Y=              1.9839    Z=              0.1401  Tot=              3.0618

 Test job not archived.
 1\1\GINC-SE252\SP\RHF\Aug-CC-pVDZ\C3H7F1O1\OHZDE\08-Apr-2025\0\\#t hf
 aug-cc-pvdz iop(5/13=1,5/36=2,99/5=2) pseudo=read geom=check guess=(re
 ad,tcheck) scf=(maxcycle=1)\\title\\0,1\F,0,1.701242,-0.663683,0.39221
 4\O,0,1.068594,0.054378,-0.701641\C,0,0.16825,0.968175,-0.084849\C,0,-
 1.004699,0.302914,0.625017\H,0,0.729876,1.635592,0.576666\C,0,-1.83650
 8,-0.60029,-0.287889\H,0,-1.627039,1.100353,1.047116\H,0,-0.614607,-0.
 269038,1.471027\H,0,-2.277395,-0.033655,-1.114248\H,0,-2.65203,-1.0707
 94,0.26627\H,0,-0.162306,1.542577,-0.960472\H,0,-1.218691,-1.391706,-0

 Normal termination of Gaussian 16 at Tue Apr  8 23:18:58 2025.
