 Gaussian 16, Revision C.01,

 ----------------------------------------------------------------------
 #t hf aug-cc-pvdz symm=none int=(grid=ultrafine) guess=(read,tcheck) s
 table=(opt,rrhf)
 ----------------------------------------------------------------------
 -----
 title
 -----
 Symbolic Z-matrix:
 Charge =  0 Multiplicity = 1

 SCF Done:  E(RHF) =  -854.909322518     A.U. after   17 cycles
 Normal termination of Gaussian 16 at Tue Apr  8 23:14:49 2025.
 Gaussian 16:  ES64L-G16RevC.01  3-Jul-2019

 ----------------------------------------------------------------------
 #t hf aug-cc-pvdz iop(5/13=1,5/36=2,99/5=2) pseudo=read geom=check gue
 ss=(read,tcheck) scf=(maxcycle=1)
 ----------------------------------------------------------------------
 -----
 title
 -----
 Structure from the checkpoint file:  "BDE49_expt_848_mol1.chk"
 Charge =  0 Multiplicity = 1

                         Standard orientation:
 ---------------------------------------------------------------------
 Center     Atomic      Atomic             Coordinates (Angstroms)
 Number     Number       Type             X           Y           Z
 ---------------------------------------------------------------------
      1          6           0       -0.173611    1.229043    0.097706
      2          6           0       -1.541420    0.990888    0.126959
      3          6           0       -2.018908   -0.316075   -0.032782
      4          6           0       -1.109226   -1.366518   -0.223327
      5          6           0        0.250806   -1.117431   -0.235758
      6          6           0        0.744443    0.185428   -0.066157
      7          1           0        0.205629    2.237445    0.205873
      8          1           0       -2.220991    1.819860    0.269419
      9          1           0       -1.500251   -2.366017   -0.366777
     10          1           0        0.928058   -1.942454   -0.416202
     11          8           0       -3.327582   -0.665571   -0.025362
     12          6           0        2.184523    0.560395   -0.098981
     13          8           0        2.570716    1.681379   -0.318446
     14         16           0        3.470068   -0.691614    0.219615
     15          1           0        2.695773   -1.693736    0.663125
     16          6           0       -4.310137    0.351034    0.149516
     17          1           0       -4.196617    0.853064    1.115834
     18          1           0       -5.270385   -0.159962    0.118856
     19          1           0       -4.266188    1.090573   -0.656560
 ---------------------------------------------------------------------

 SCF Done:  E(RHF) =  -855.067775526     A.U. after    2 cycles

 The electronic state is 1-A.
 Alpha  occ. eigenvalues --  -93.55661 -20.62120 -20.57306 -11.38530 -11.34016
 Alpha  occ. eigenvalues --  -11.31315 -11.27834 -11.27418 -11.26559 -11.25952
 Alpha  occ. eigenvalues --  -11.25659  -8.85480  -6.19625  -6.19425  -6.19061
 Alpha  occ. eigenvalues --   -1.39222  -1.37314  -1.16595  -1.05658  -1.04050
 Alpha  occ. eigenvalues --   -0.99742  -0.96534  -0.86203  -0.85713  -0.77647
 Alpha  occ. eigenvalues --   -0.74829  -0.70301  -0.69597  -0.68425  -0.65354
 Alpha  occ. eigenvalues --   -0.63460  -0.61699  -0.60587  -0.58620  -0.58210
 Alpha  occ. eigenvalues --   -0.54917  -0.54742  -0.51195  -0.50692  -0.49150
 Alpha  occ. eigenvalues --   -0.42876  -0.38750  -0.36682  -0.33989
 Alpha virt. eigenvalues --    0.02726   0.03619   0.04203   0.05135   0.05516
 Alpha virt. eigenvalues --    0.05963   0.06349   0.07268   0.08433   0.08990
 Alpha virt. eigenvalues --    0.09109   0.09407   0.10420   0.11720   0.11956

 Mulliken charges:
               1
     1  C   -0.212898
     2  C    0.736653
     3  C    0.481430
     4  C    0.567890
     5  C    0.704963
     6  C    0.890212
     7  H   -0.615991
     8  H   -0.693575
     9  H   -0.574134
    10  H   -0.579430
    11  O   -0.669214
    12  C   -0.200889
    13  O   -0.527515
    14  S    0.280780
    15  H    0.042820
    16  C    0.837481
    17  H   -0.082276
    18  H   -0.305229
    19  H   -0.081077
 Sum of Mulliken charges =   0.00000

 Dipole moment (field-independent basis, Debye):
    X=             -4.6243    Y=             -1.5700    Z=              0.8457  Tot=              4.9563

 Test job not archived.
 1\1\GINC-SE029\SP\RHF\Aug-CC-pVDZ\C8H8O2S1\OHZDE\08-Apr-2025\0\\#t hf
 aug-cc-pvdz iop(5/13=1,5/36=2,99/5=2) pseudo=read geom=check guess=(re
 ad,tcheck) scf=(maxcycle=1)\\title\\0,1\C,0,-0.173611,1.229043,0.09770
 6\C,0,-1.54142,0.990888,0.126959\C,0,-2.018908,-0.316075,-0.032782\C,0
 ,-1.109226,-1.366518,-0.223327\C,0,0.250806,-1.117431,-0.235758\C,0,0.
 744443,0.185428,-0.066157\H,0,0.205629,2.237445,0.205873\H,0,-2.220991
 ,1.81986,0.269419\H,0,-1.500251,-2.366017,-0.366777\H,0,0.928058,-1.94
 2454,-0.416202\O,0,-3.327582,-0.665571,-0.025362\C,0,2.184523,0.560395

 Normal termination of Gaussian 16 at Tue Apr  8 23:15:01 2025.
