 Gaussian 16, Revision C.01,

 ----------------------------------------------------------------------
 #t hf aug-cc-pvdz symm=none int=(grid=ultrafine) guess=(read,tcheck) s
 table=(opt,rrhf)
 ----------------------------------------------------------------------
 -----
 title
 -----
 Symbolic Z-matrix:
 Charge =  0 Multiplicity = 1

 SCF Done:  E(RHF) =  -855.210517372     A.U. after   15 cycles
 Normal termination of Gaussian 16 at Tue Apr  8 23:23:42 2025.
 Gaussian 16:  ES64L-G16RevC.01  3-Jul-2019

 ----------------------------------------------------------------------
 #t hf aug-cc-pvdz iop(5/13=1,5/36=2,99/5=2) pseudo=read geom=check gue
 ss=(read,tcheck) scf=(maxcycle=1)
 ----------------------------------------------------------------------
 -----
 title
 -----
 Structure from the checkpoint file:  "BDE49_nonexpt_1227_mol1.chk"
 Charge =  0 Multiplicity = 1

                         Standard orientation:
 ---------------------------------------------------------------------
 Center     Atomic      Atomic             Coordinates (Angstroms)
 Number     Number       Type             X           Y           Z
 ---------------------------------------------------------------------
      1         16           0       -0.666102    1.370384   -0.063896
      2          8           0        0.807506    0.847784   -0.707902
      3          6           0        1.697409    0.197670    0.136770
      4          6           0       -1.542711   -0.204925   -0.014306
      5          8           0       -1.034474   -1.233319   -0.365059
      6          8           0        1.520903    0.054369    1.308318
      7          6           0        3.976396   -0.898763    0.182315
      8          6           0       -3.963332   -0.915766   -0.216491
      9          1           0       -4.942232   -0.861035    0.263887
     10          1           0       -3.638747   -1.956809   -0.230410
     11          1           0       -4.071034   -0.580955   -1.250824
     12          1           0        4.795379   -1.251812   -0.448155
     13          1           0        3.592420   -1.743898    0.755740
     14          1           0        4.377948   -0.173303    0.892509
     15          6           0       -2.947252   -0.053505    0.539143
     16          6           0        2.878127   -0.278643   -0.677658
     17          1           0       -2.890985   -0.360682    1.589938
     18          1           0       -3.239137    1.002542    0.537819
     19          1           0        3.246791    0.568134   -1.264209
     20          1           0        2.483931   -0.995402   -1.405452
 ---------------------------------------------------------------------

 SCF Done:  E(RHF) =  -855.379293602     A.U. after    2 cycles

 The electronic state is 1-A.
 Alpha  occ. eigenvalues --  -93.61338 -20.64188 -20.58586 -20.57349 -11.40331
 Alpha  occ. eigenvalues --  -11.38592 -11.27255 -11.25956 -11.24673 -11.23419
 Alpha  occ. eigenvalues --   -8.90509  -6.24748  -6.24347  -6.24012  -1.42354
 Alpha  occ. eigenvalues --   -1.38316  -1.33667  -1.07872  -1.06151  -0.99996
 Alpha  occ. eigenvalues --   -0.91549  -0.87558  -0.79405  -0.74614  -0.71412
 Alpha  occ. eigenvalues --   -0.70148  -0.68378  -0.66306  -0.65066  -0.62462
 Alpha  occ. eigenvalues --   -0.60298  -0.58509  -0.57162  -0.55293  -0.53454
 Alpha  occ. eigenvalues --   -0.53243  -0.52664  -0.51729  -0.51332  -0.50431
 Alpha  occ. eigenvalues --   -0.47029  -0.42158  -0.39212
 Alpha virt. eigenvalues --    0.03263   0.03825   0.04871   0.05072   0.05457
 Alpha virt. eigenvalues --    0.05706   0.05931   0.07333   0.07662   0.07924
 Alpha virt. eigenvalues --    0.09105   0.10383   0.10890   0.11879   0.12053

 Mulliken charges:
               1
     1  S    0.780517
     2  O   -0.823862
     3  C    0.304414
     4  C   -0.143813
     5  O   -0.518662
     6  O   -0.405395
     7  C    0.449926
     8  C    0.423787
     9  H   -0.049528
    10  H   -0.044118
    11  H   -0.065595
    12  H   -0.044917
    13  H   -0.047909
    14  H   -0.060964
    15  C    0.099649
    16  C    0.094235
    17  H    0.084474
    18  H   -0.033658
    19  H   -0.016275
    20  H    0.017695
 Sum of Mulliken charges =  -0.00000

 Dipole moment (field-independent basis, Debye):
    X=             -1.3447    Y=              1.1391    Z=             -0.8511  Tot=              1.9571

 Test job not archived.
 1\1\GINC-SE039\SP\RHF\Aug-CC-pVDZ\C6H10O3S1\OHZDE\08-Apr-2025\0\\#t hf
  aug-cc-pvdz iop(5/13=1,5/36=2,99/5=2) pseudo=read geom=check guess=(r
 ead,tcheck) scf=(maxcycle=1)\\title\\0,1\S,0,-0.666102,1.370384,-0.063
 896\O,0,0.807506,0.847784,-0.707902\C,0,1.697409,0.19767,0.13677\C,0,-
 1.542711,-0.204925,-0.014306\O,0,-1.034474,-1.233319,-0.365059\O,0,1.5
 20903,0.054369,1.308318\C,0,3.976396,-0.898763,0.182315\C,0,-3.963332,
 -0.915766,-0.216491\H,0,-4.942232,-0.861035,0.263887\H,0,-3.638747,-1.
 956809,-0.23041\H,0,-4.071034,-0.580955,-1.250824\H,0,4.795379,-1.2518

 Normal termination of Gaussian 16 at Tue Apr  8 23:23:56 2025.
