 Gaussian 16, Revision C.01,

 ----------------------------------------------------------------------
 #t hf aug-cc-pvdz symm=none int=(grid=ultrafine) guess=(read,tcheck) s
 table=(opt,rrhf)
 ----------------------------------------------------------------------
 -----
 title
 -----
 Symbolic Z-matrix:
 Charge =  0 Multiplicity = 1

 SCF Done:  E(RHF) =  -309.101226770     A.U. after   14 cycles

 1\1\GINC-SE336\Stability\RHF\Aug-CC-pVDZ\C6H12O1\OHZDE\08-Apr-2025\0\\
 #t hf aug-cc-pvdz symm=none int=(grid=ultrafine) guess=(read,tcheck) s
 table=(opt,rrhf)\\title\\0,1\C,0,-0.909061,0.321855,-0.016726\O,0,-1.2
 59262,1.480697,-0.028124\C,0,-1.948606,-0.789898,-0.005693\H,0,-1.6765
 24,-1.618341,0.651274\H,0,-2.05195,-1.197545,-1.016526\H,0,-2.907172,-
 0.370193,0.29693\C,0,0.587289,-0.065031,-0.006974\C,0,1.43436,1.169904
 ,-0.346551\H,0,1.23596,1.985047,0.350127\H,0,1.209741,1.537419,-1.3507
 1\H,0,2.498153,0.919532,-0.301656\C,0,0.865815,-1.190893,-1.023766\H,0

 Normal termination of Gaussian 16 at Tue Apr  8 23:00:32 2025.
 Gaussian 16:  ES64L-G16RevC.01  3-Jul-2019

 ----------------------------------------------------------------------
 #t hf aug-cc-pvdz iop(5/13=1,5/36=2,99/5=2) pseudo=read geom=check gue
 ss=(read,tcheck) scf=(maxcycle=1)
 ----------------------------------------------------------------------
 -----
 title
 -----
 Structure from the checkpoint file:  "BDE49_expt_224_mol1.chk"
 Charge =  0 Multiplicity = 1

                         Standard orientation:
 ---------------------------------------------------------------------
 Center     Atomic      Atomic             Coordinates (Angstroms)
 Number     Number       Type             X           Y           Z
 ---------------------------------------------------------------------
      1          6           0       -0.909061    0.321855   -0.016726
      2          8           0       -1.259262    1.480697   -0.028124
      3          6           0       -1.948606   -0.789897   -0.005693
      4          1           0       -1.676524   -1.618340    0.651274
      5          1           0       -2.051950   -1.197544   -1.016526
      6          1           0       -2.907172   -0.370192    0.296930
      7          6           0        0.587289   -0.065031   -0.006974
      8          6           0        1.434360    1.169904   -0.346551
      9          1           0        1.235960    1.985047    0.350127
     10          1           0        1.209741    1.537419   -1.350710
     11          1           0        2.498153    0.919531   -0.301656
     12          6           0        0.865815   -1.190893   -1.023766
     13          1           0        1.932395   -1.432878   -1.023573
     14          1           0        0.595950   -0.886122   -2.039235
     15          1           0        0.320612   -2.107565   -0.786847
     16          6           0        0.937515   -0.553878    1.418731
     17          1           0        2.001070   -0.804109    1.470723
     18          1           0        0.373686   -1.447097    1.699722
     19          1           0        0.738305    0.223916    2.160634
 ---------------------------------------------------------------------

 SCF Done:  E(RHF) =  -309.199006848     A.U. after    2 cycles

 The electronic state is 1-A.
 Alpha  occ. eigenvalues --  -20.55738 -11.33715 -11.25904 -11.24257 -11.23784
 Alpha  occ. eigenvalues --  -11.23765 -11.22126  -1.35035  -1.09885  -0.99699
 Alpha  occ. eigenvalues --   -0.94185  -0.93016  -0.83466  -0.71122  -0.66961
 Alpha  occ. eigenvalues --   -0.63927  -0.62275  -0.60252  -0.59417  -0.56678
 Alpha  occ. eigenvalues --   -0.54871  -0.54648  -0.52537  -0.51892  -0.50738
 Alpha  occ. eigenvalues --   -0.47649  -0.47275  -0.40972
 Alpha virt. eigenvalues --    0.03222   0.04118   0.04532   0.04897   0.06323
 Alpha virt. eigenvalues --    0.06477   0.06632   0.07083   0.07607   0.09236
 Alpha virt. eigenvalues --    0.09286   0.09426   0.11260   0.12818   0.13601

 Mulliken charges:
               1
     1  C    0.233894
     2  O   -0.518438
     3  C    0.378355
     4  H   -0.060627
     5  H    0.114321
     6  H   -0.113412
     7  C   -3.232790
     8  C    1.222846
     9  H    0.001589
    10  H   -0.032125
    11  H   -0.022779
    12  C    1.159642
    13  H   -0.007469
    14  H   -0.019215
    15  H   -0.080588
    16  C    1.136973
    17  H   -0.017030
    18  H   -0.094530
    19  H   -0.048617
 Sum of Mulliken charges =   0.00000

 Dipole moment (field-independent basis, Debye):
    X=              1.1139    Y=             -3.2216    Z=              0.0591  Tot=              3.4092

 Test job not archived.
 1\1\GINC-SE336\SP\RHF\Aug-CC-pVDZ\C6H12O1\OHZDE\08-Apr-2025\0\\#t hf a
 ug-cc-pvdz iop(5/13=1,5/36=2,99/5=2) pseudo=read geom=check guess=(rea
 d,tcheck) scf=(maxcycle=1)\\title\\0,1\C,0,-0.909061,0.321855,-0.01672
 6\O,0,-1.259262,1.480697,-0.028124\C,0,-1.948606,-0.789898,-0.005693\H
 ,0,-1.676524,-1.618341,0.651274\H,0,-2.05195,-1.197545,-1.016526\H,0,-
 2.907172,-0.370193,0.29693\C,0,0.587289,-0.065031,-0.006974\C,0,1.4343
 6,1.169904,-0.346551\H,0,1.23596,1.985047,0.350127\H,0,1.209741,1.5374
 19,-1.35071\H,0,2.498153,0.919532,-0.301656\C,0,0.865815,-1.190893,-1.

 Normal termination of Gaussian 16 at Tue Apr  8 23:00:40 2025.
