 Gaussian 16, Revision C.01,

 ----------------------------------------------------------------------
 #t hf aug-cc-pvdz symm=none int=(grid=ultrafine) guess=(read,tcheck) s
 table=(opt,rrhf)
 ----------------------------------------------------------------------
 -----
 title
 -----
 Symbolic Z-matrix:
 Charge =  0 Multiplicity = 1

 SCF Done:  E(RHF) =  -1008.96684416     A.U. after   15 cycles
 Normal termination of Gaussian 16 at Tue Apr  8 23:27:15 2025.
 Gaussian 16:  ES64L-G16RevC.01  3-Jul-2019

 ----------------------------------------------------------------------
 #t hf aug-cc-pvdz iop(5/13=1,5/36=2,99/5=2) pseudo=read geom=check gue
 ss=(read,tcheck) scf=(maxcycle=1)
 ----------------------------------------------------------------------
 -----
 title
 -----
 Structure from the checkpoint file:  "BDE49_nonexpt_1192_mol1.chk"
 Charge =  0 Multiplicity = 1

                         Standard orientation:
 ---------------------------------------------------------------------
 Center     Atomic      Atomic             Coordinates (Angstroms)
 Number     Number       Type             X           Y           Z
 ---------------------------------------------------------------------
      1          8           0        0.954349    1.259716   -0.687870
      2         16           0       -0.639918    1.713503   -0.350445
      3          6           0       -1.413693    0.092117   -0.277325
      4          6           0        1.722718    0.744010    0.350288
      5          8           0        1.361504    0.703383    1.488206
      6          8           0       -0.790708   -0.929449   -0.400082
      7          6           0        3.011958    0.223530   -0.218449
      8          6           0        4.294526   -1.527918   -0.130067
      9          6           0        2.945051   -1.216682   -0.831305
     10          1           0        2.902759   -1.276657   -1.918836
     11          1           0        2.112965   -1.786578   -0.415719
     12          6           0       -2.895705    0.184985   -0.022654
     13          6           0       -3.820152   -0.704486   -0.910216
     14          6           0       -3.433679   -0.591614    1.222413
     15          1           0       -3.224346    1.228935   -0.014028
     16          6           0        4.081155   -0.286235    0.778267
     17          1           0        5.143509   -1.401808   -0.805754
     18          1           0        3.622618   -0.541674    1.734486
     19          1           0        4.936957    0.366193    0.957500
     20          6           0       -4.626159   -1.080840    0.360133
     21          1           0       -3.260031   -1.553706   -1.304458
     22          1           0       -4.925729   -2.123919    0.469812
     23          1           0       -5.507372   -0.447922    0.486583
     24          1           0       -3.647044    0.001062    2.112385
     25          1           0        3.404466    0.936456   -0.945547
     26          1           0       -2.756232   -1.406101    1.482911
     27          1           0       -4.344763   -0.204604   -1.725303
     28          1           0        4.383640   -2.496115    0.364548
 ---------------------------------------------------------------------

 SCF Done:  E(RHF) =  -1009.17582675     A.U. after    2 cycles

 The electronic state is 1-A.
 Alpha  occ. eigenvalues --  -93.61110 -20.63911 -20.58174 -20.56984 -11.39804
 Alpha  occ. eigenvalues --  -11.38073 -11.26790 -11.25482 -11.24993 -11.24990
 Alpha  occ. eigenvalues --  -11.24411 -11.23971 -11.23434 -11.23383  -8.90273
 Alpha  occ. eigenvalues --   -6.24520  -6.24119  -6.23786  -1.41915  -1.37763
 Alpha  occ. eigenvalues --   -1.33243  -1.14120  -1.12987  -1.02889  -0.96203
 Alpha  occ. eigenvalues --   -0.91638  -0.91251  -0.90135  -0.82640  -0.78070
 Alpha  occ. eigenvalues --   -0.75609  -0.74381  -0.71534  -0.70501  -0.68638
 Alpha  occ. eigenvalues --   -0.66733  -0.66621  -0.65117  -0.61583  -0.59502
 Alpha  occ. eigenvalues --   -0.59202  -0.58082  -0.55852  -0.55766  -0.54805
 Alpha  occ. eigenvalues --   -0.52025  -0.50175  -0.49844  -0.49427  -0.48941
 Alpha  occ. eigenvalues --   -0.47403  -0.46294  -0.45887  -0.44986  -0.44207
 Alpha  occ. eigenvalues --   -0.41233  -0.38888
 Alpha virt. eigenvalues --    0.03300   0.03783   0.04432   0.04622   0.04873
 Alpha virt. eigenvalues --    0.05155   0.05316   0.06546   0.06662   0.07003
 Alpha virt. eigenvalues --    0.07765   0.07898   0.08498   0.09101   0.09592

 Mulliken charges:
               1
     1  O   -0.850366
     2  S    0.799375
     3  C   -0.204363
     4  C    0.511169
     5  O   -0.451127
     6  O   -0.522072
     7  C    0.121286
     8  C    0.628482
     9  C    0.454518
    10  H   -0.205574
    11  H   -0.244503
    12  C    0.564177
    13  C    0.370289
    14  C    0.344828
    15  H   -0.268300
    16  C    0.520590
    17  H   -0.221187
    18  H   -0.206907
    19  H   -0.145835
    20  C    0.637397
    21  H   -0.227118
    22  H   -0.175160
    23  H   -0.220359
    24  H   -0.181696
    25  H   -0.226667
    26  H   -0.233683
    27  H   -0.177867
    28  H   -0.189327
 Sum of Mulliken charges =  -0.00000

 Dipole moment (field-independent basis, Debye):
    X=             -1.5139    Y=              0.3882    Z=             -1.1859  Tot=              1.9619

 Test job not archived.
 1\1\GINC-SE166\SP\RHF\Aug-CC-pVDZ\C10H14O3S1\OHZDE\08-Apr-2025\0\\#t h
 f aug-cc-pvdz iop(5/13=1,5/36=2,99/5=2) pseudo=read geom=check guess=(
 read,tcheck) scf=(maxcycle=1)\\title\\0,1\O,0,0.954349,1.259716,-0.687
 87\S,0,-0.639918,1.713503,-0.350445\C,0,-1.413693,0.092117,-0.277325\C
 ,0,1.722718,0.74401,0.350288\O,0,1.361504,0.703383,1.488206\O,0,-0.790
 708,-0.929449,-0.400082\C,0,3.011958,0.22353,-0.218449\C,0,4.294526,-1
 .527918,-0.130067\C,0,2.945051,-1.216682,-0.831305\H,0,2.902759,-1.276
 657,-1.918836\H,0,2.112965,-1.786578,-0.415719\C,0,-2.895705,0.184985,

 Normal termination of Gaussian 16 at Tue Apr  8 23:27:42 2025.
