 Gaussian 16, Revision C.01,

 ----------------------------------------------------------------------
 #t hf aug-cc-pvdz symm=none int=(grid=ultrafine) guess=(read,tcheck) s
 table=(opt,rrhf)
 ----------------------------------------------------------------------
 -----
 title
 -----
 Symbolic Z-matrix:
 Charge =  0 Multiplicity = 1

 SCF Done:  E(RHF) =  -1000.68828555     A.U. after   15 cycles
 Normal termination of Gaussian 16 at Wed Apr  9 00:00:56 2025.
 Gaussian 16:  ES64L-G16RevC.01  3-Jul-2019

 ----------------------------------------------------------------------
 #t hf aug-cc-pvdz iop(5/13=1,5/36=2,99/5=2) pseudo=read geom=check gue
 ss=(read,tcheck) scf=(maxcycle=1)
 ----------------------------------------------------------------------
 -----
 title
 -----
 Structure from the checkpoint file:  "BDE49_nonexpt_2156_mol1.chk"
 Charge =  0 Multiplicity = 1

                         Standard orientation:
 ---------------------------------------------------------------------
 Center     Atomic      Atomic             Coordinates (Angstroms)
 Number     Number       Type             X           Y           Z
 ---------------------------------------------------------------------
      1         14           0        0.000014    0.000021    0.423197
      2          7           0       -1.306409   -1.114999   -0.219915
      3          7           0       -0.312372    1.688824   -0.220188
      4          7           0        1.618720   -0.573903   -0.220240
      5          9           0        0.000092    0.000099    1.987815
      6          8           0        2.122503    0.017665   -1.159757
      7          8           0        0.322707    2.561124    0.359201
      8          8           0       -1.045987   -1.847784   -1.158869
      9          8           0       -1.077352    1.829727   -1.158990
     10          8           0       -2.379288   -1.001410    0.359675
     11          8           0        2.057344   -1.559402    0.359655
 ---------------------------------------------------------------------

 SCF Done:  E(RHF) =  -1000.95017200     A.U. after    2 cycles

 The electronic state is 1-A.
 Alpha  occ. eigenvalues --  -69.33389 -26.23530 -20.69258 -20.69258 -20.69257
 Alpha  occ. eigenvalues --  -20.68969 -20.68968 -20.68968 -15.96481 -15.96480
 Alpha  occ. eigenvalues --  -15.96480  -7.07191  -4.18114  -4.18050  -4.18050
 Alpha  occ. eigenvalues --   -1.76567  -1.61383  -1.60608  -1.60608  -1.43517
 Alpha  occ. eigenvalues --   -1.43517  -1.43411  -1.06767  -0.99734  -0.99733
 Alpha  occ. eigenvalues --   -0.90914  -0.86365  -0.86150  -0.86150  -0.82498
 Alpha  occ. eigenvalues --   -0.82497  -0.79888  -0.79888  -0.79828  -0.77931
 Alpha  occ. eigenvalues --   -0.77931  -0.77568  -0.59379  -0.59378  -0.59253
 Alpha  occ. eigenvalues --   -0.58435  -0.54007  -0.54006  -0.53708  -0.52952
 Alpha  occ. eigenvalues --   -0.52952
 Alpha virt. eigenvalues --   -0.01311  -0.00786  -0.00785   0.03623   0.04992
 Alpha virt. eigenvalues --    0.04992   0.06574   0.10547   0.12731   0.12732
 Alpha virt. eigenvalues --    0.12977   0.13545   0.13545   0.15837   0.15838

 Mulliken charges:
               1
     1  Si   2.807241
     2  N    0.312667
     3  N    0.312733
     4  N    0.312585
     5  F   -0.774868
     6  O   -0.476730
     7  O   -0.513454
     8  O   -0.476704
     9  O   -0.476687
    10  O   -0.513427
    11  O   -0.513358
 Sum of Mulliken charges =  -0.00000

 Dipole moment (field-independent basis, Debye):
    X=             -0.0002    Y=             -0.0000    Z=              1.7578  Tot=              1.7578

 Test job not archived.
 1\1\GINC-SE345\SP\RHF\Aug-CC-pVDZ\F1N3O6Si1\OHZDE\09-Apr-2025\0\\#t hf
  aug-cc-pvdz iop(5/13=1,5/36=2,99/5=2) pseudo=read geom=check guess=(r
 ead,tcheck) scf=(maxcycle=1)\\title\\0,1\Si,0,0.000014,0.000021,0.4231
 97\N,0,-1.311023,-1.10957,-0.219915\N,0,-0.305364,1.690105,-0.220188\N
 ,0,1.616325,-0.580613,-0.22024\F,0,0.000092,0.000099,1.987815\O,0,2.12
 2558,0.00886,-1.159757\O,0,0.333328,2.559763,0.359201\O,0,-1.053643,-1
 .843429,-1.158869\O,0,-1.069753,1.83418,-1.15899\O,0,-2.383422,-0.9915
 32,0.359675\O,0,2.050858,-1.567923,0.359655\\Version=ES64L-G16RevC.01\

 Normal termination of Gaussian 16 at Wed Apr  9 00:01:03 2025.
