 Gaussian 16, Revision C.01,

 ----------------------------------------------------------------------
 #t hf aug-cc-pvdz symm=none int=(grid=ultrafine) guess=(read,tcheck) s
 table=(opt,rrhf)
 ----------------------------------------------------------------------
 -----
 title
 -----
 Symbolic Z-matrix:
 Charge =  0 Multiplicity = 1

 SCF Done:  E(RHF) =  -860.506480468     A.U. after   13 cycles
 Normal termination of Gaussian 16 at Tue Apr  8 23:41:38 2025.
 Gaussian 16:  ES64L-G16RevC.01  3-Jul-2019

 ----------------------------------------------------------------------
 #t hf aug-cc-pvdz iop(5/13=1,5/36=2,99/5=2) pseudo=read geom=check gue
 ss=(read,tcheck) scf=(maxcycle=1)
 ----------------------------------------------------------------------
 -----
 title
 -----
 Structure from the checkpoint file:  "BDE49_nonexpt_1676_mol1.chk"
 Charge =  0 Multiplicity = 1

                         Standard orientation:
 ---------------------------------------------------------------------
 Center     Atomic      Atomic             Coordinates (Angstroms)
 Number     Number       Type             X           Y           Z
 ---------------------------------------------------------------------
      1         14           0       -1.026457   -0.365614   -0.284417
      2         15           0        1.073749    0.391578   -0.613415
      3          6           0        1.307219    1.329985    0.984522
      4          1           0        0.696089    2.234744    0.959056
      5          1           0        2.353582    1.634048    1.066919
      6          1           0        1.029948    0.741496    1.860904
      7          6           0        2.009950   -1.184091   -0.240733
      8          1           0        3.080841   -0.967301   -0.255384
      9          1           0        1.810470   -1.918871   -1.024155
     10          1           0        1.748190   -1.616662    0.727282
     11          8           0       -1.192781   -0.903357    1.262434
     12          1           0       -2.078691   -0.999023    1.622010
     13          8           0       -2.150593    0.835739   -0.469169
     14          1           0       -2.231737    1.259465   -1.327063
     15          1           0       -1.300558   -1.457399   -1.255366
 ---------------------------------------------------------------------

 SCF Done:  E(RHF) =  -860.643273701     A.U. after    2 cycles

 The electronic state is 1-A.
 Alpha  occ. eigenvalues --  -81.23570 -69.11802 -20.57440 -20.57228 -11.23664
 Alpha  occ. eigenvalues --  -11.23333  -7.74048  -6.86167  -4.88020  -4.87970
 Alpha  occ. eigenvalues --   -4.87699  -3.97144  -3.97025  -3.96899  -1.31523
 Alpha  occ. eigenvalues --   -1.29327  -0.97559  -0.93033  -0.78110  -0.72374
 Alpha  occ. eigenvalues --   -0.69534  -0.62332  -0.59423  -0.58273  -0.57673
 Alpha  occ. eigenvalues --   -0.56393  -0.55662  -0.55060  -0.53842  -0.50159
 Alpha  occ. eigenvalues --   -0.45556  -0.40222  -0.31860
 Alpha virt. eigenvalues --    0.03276   0.04431   0.04998   0.05099   0.06669
 Alpha virt. eigenvalues --    0.06820   0.06992   0.07458   0.07759   0.09172
 Alpha virt. eigenvalues --    0.09945   0.10430   0.10800   0.12160   0.12849

 Mulliken charges:
               1
     1  Si   1.681137
     2  P    0.194038
     3  C    0.299445
     4  H   -0.209917
     5  H   -0.182768
     6  H   -0.160428
     7  C    0.293703
     8  H   -0.185836
     9  H   -0.200534
    10  H   -0.153242
    11  O   -0.830031
    12  H    0.137543
    13  O   -0.804059
    14  H    0.112668
    15  H    0.008281
 Sum of Mulliken charges =  -0.00000

 Dipole moment (field-independent basis, Debye):
    X=             -0.4740    Y=             -0.2395    Z=             -0.1780  Tot=              0.5601

 Test job not archived.
 1\1\GINC-SE105\SP\RHF\Aug-CC-pVDZ\C2H9O2P1Si1\OHZDE\08-Apr-2025\0\\#t
 hf aug-cc-pvdz iop(5/13=1,5/36=2,99/5=2) pseudo=read geom=check guess=
 (read,tcheck) scf=(maxcycle=1)\\title\\0,1\Si,0,-1.026457,-0.365614,-0
 .284417\P,0,1.073749,0.391578,-0.613415\C,0,1.307219,1.329985,0.984522
 \H,0,0.696089,2.234744,0.959056\H,0,2.353582,1.634048,1.066919\H,0,1.0
 29948,0.741496,1.860904\C,0,2.00995,-1.184091,-0.240733\H,0,3.080841,-
 0.967301,-0.255384\H,0,1.81047,-1.918871,-1.024155\H,0,1.74819,-1.6166
 62,0.727282\O,0,-1.192781,-0.903357,1.262434\H,0,-2.078691,-0.999023,1

 Normal termination of Gaussian 16 at Tue Apr  8 23:41:43 2025.
