 Gaussian 16, Revision C.01,

 ----------------------------------------------------------------------
 #t hf aug-cc-pvdz symm=none int=(grid=ultrafine) guess=(read,tcheck) s
 table=(opt,rrhf)
 ----------------------------------------------------------------------
 -----
 title
 -----
 Symbolic Z-matrix:
 Charge =  0 Multiplicity = 1

 SCF Done:  E(RHF) =  -862.142543455     A.U. after   15 cycles
 Normal termination of Gaussian 16 at Tue Apr  8 23:42:05 2025.
 Gaussian 16:  ES64L-G16RevC.01  3-Jul-2019

 ----------------------------------------------------------------------
 #t hf aug-cc-pvdz iop(5/13=1,5/36=2,99/5=2) pseudo=read geom=check gue
 ss=(read,tcheck) scf=(maxcycle=1)
 ----------------------------------------------------------------------
 -----
 title
 -----
 Structure from the checkpoint file:  "BDE49_nonexpt_1688_mol1.chk"
 Charge =  0 Multiplicity = 1

                         Standard orientation:
 ---------------------------------------------------------------------
 Center     Atomic      Atomic             Coordinates (Angstroms)
 Number     Number       Type             X           Y           Z
 ---------------------------------------------------------------------
      1         14           0        2.583758   -0.004931   -0.896692
      2         15           0        1.460163   -0.086065    1.087204
      3          6           0       -0.271789    0.000873    0.445609
      4          6           0       -0.956994   -1.203056    0.229591
      5          6           0       -0.944358    1.207111    0.205470
      6          6           0       -2.263927    1.206902   -0.239076
      7          6           0       -2.930146    0.003577   -0.463105
      8          6           0       -2.271575   -1.201535   -0.230077
      9          1           0       -3.956313    0.005618   -0.812521
     10          1           0       -2.783878   -2.142786   -0.395491
     11          1           0       -0.462021   -2.147874    0.429541
     12          1           0       -0.435740    2.150970    0.366517
     13          1           0       -2.770559    2.149488   -0.414844
     14          1           0        1.633226    1.295040    1.359947
     15          1           0        2.383741   -1.299872   -1.586922
     16          1           0        4.028049    0.174138   -0.611387
     17          1           0        2.121166    1.092054   -1.779689
 ---------------------------------------------------------------------

 SCF Done:  E(RHF) =  -862.249998511     A.U. after    2 cycles

 The electronic state is 1-A.
 Alpha  occ. eigenvalues --  -81.25304 -69.07231 -11.26203 -11.25361 -11.25309
 Alpha  occ. eigenvalues --  -11.25216 -11.25152 -11.25062  -7.75785  -6.82487
 Alpha  occ. eigenvalues --   -4.89862  -4.89678  -4.89478  -3.93239  -3.93225
 Alpha  occ. eigenvalues --   -3.93208  -1.14865  -1.02000  -1.01686  -0.84867
 Alpha  occ. eigenvalues --   -0.83493  -0.77796  -0.70831  -0.67554  -0.64018
 Alpha  occ. eigenvalues --   -0.63326  -0.59828  -0.56145  -0.52110  -0.50600
 Alpha  occ. eigenvalues --   -0.49867  -0.48979  -0.47205  -0.43336  -0.37618
 Alpha  occ. eigenvalues --   -0.34750  -0.31478
 Alpha virt. eigenvalues --    0.03166   0.04046   0.04218   0.04998   0.05753
 Alpha virt. eigenvalues --    0.05982   0.07424   0.07619   0.07761   0.08007
 Alpha virt. eigenvalues --    0.09347   0.09732   0.09891   0.09996   0.11223

 Mulliken charges:
               1
     1  Si   0.174437
     2  P   -0.430970
     3  C    0.047482
     4  C    0.319459
     5  C    0.559844
     6  C    0.565759
     7  C    0.467912
     8  C    0.562373
     9  H   -0.429639
    10  H   -0.452458
    11  H   -0.529709
    12  H   -0.566103
    13  H   -0.450107
    14  H    0.151069
    15  H   -0.005106
    16  H   -0.003973
    17  H    0.019729
 Sum of Mulliken charges =   0.00000

 Dipole moment (field-independent basis, Debye):
    X=             -0.8873    Y=              0.5014    Z=             -0.5906  Tot=              1.1779

 Test job not archived.
 1\1\GINC-SE455\SP\RHF\Aug-CC-pVDZ\C6H9P1Si1\OHZDE\08-Apr-2025\0\\#t hf
  aug-cc-pvdz iop(5/13=1,5/36=2,99/5=2) pseudo=read geom=check guess=(r
 ead,tcheck) scf=(maxcycle=1)\\title\\0,1\Si,0,2.583758,-0.004931,-0.89
 6692\P,0,1.460163,-0.086065,1.087204\C,0,-0.271789,0.000873,0.445609\C
 ,0,-0.956994,-1.203056,0.229591\C,0,-0.944358,1.207111,0.20547\C,0,-2.
 263927,1.206902,-0.239076\C,0,-2.930146,0.003577,-0.463105\C,0,-2.2715
 75,-1.201535,-0.230077\H,0,-3.956313,0.005618,-0.812521\H,0,-2.783878,
 -2.142786,-0.395491\H,0,-0.462021,-2.147874,0.429541\H,0,-0.43574,2.15

 Normal termination of Gaussian 16 at Tue Apr  8 23:42:14 2025.
