 Gaussian 16, Revision C.01,

 ----------------------------------------------------------------------
 #t hf aug-cc-pvdz symm=none int=(grid=ultrafine) guess=(read,tcheck) s
 table=(opt,rrhf)
 ----------------------------------------------------------------------
 -----
 title
 -----
 Symbolic Z-matrix:
 Charge =  0 Multiplicity = 1

 SCF Done:  E(RHF) =  -516.079294464     A.U. after   14 cycles
 Normal termination of Gaussian 16 at Tue Apr  8 23:50:37 2025.
 Gaussian 16:  ES64L-G16RevC.01  3-Jul-2019

 ----------------------------------------------------------------------
 #t hf aug-cc-pvdz iop(5/13=1,5/36=2,99/5=2) pseudo=read geom=check gue
 ss=(read,tcheck) scf=(maxcycle=1)
 ----------------------------------------------------------------------
 -----
 title
 -----
 Structure from the checkpoint file:  "BDE49_nonexpt_1904_mol1.chk"
 Charge =  0 Multiplicity = 1

                         Standard orientation:
 ---------------------------------------------------------------------
 Center     Atomic      Atomic             Coordinates (Angstroms)
 Number     Number       Type             X           Y           Z
 ---------------------------------------------------------------------
      1         14           0       -0.979095   -0.995310    0.102549
      2          6           0        0.846693   -1.026946   -0.429587
      3          6           0        1.746906   -0.132567    0.376589
      4          7           0        2.363935    0.912384   -0.001408
      5          1           0        1.867971   -0.415911    1.427975
      6          1           0        2.197643    1.090018   -0.997757
      7          6           0       -1.751521    0.736194   -0.057869
      8          1           0       -1.090256   -1.448471    1.510665
      9          1           0       -1.736250   -1.937147   -0.755752
     10          7           0       -1.172127    1.871770   -0.010453
     11          1           0       -2.840945    0.769838   -0.201745
     12          1           0       -0.162119    1.780221    0.132399
     13          1           0        0.911269   -0.783122   -1.495454
     14          1           0        1.164904   -2.070238   -0.307797
 ---------------------------------------------------------------------

 SCF Done:  E(RHF) =  -516.169285490     A.U. after    2 cycles

 The electronic state is 1-A.
 Alpha  occ. eigenvalues --  -69.08854 -15.63777 -15.62786 -11.31270 -11.28779
 Alpha  occ. eigenvalues --  -11.25747  -6.84152  -3.94938  -3.94915  -3.94905
 Alpha  occ. eigenvalues --   -1.19337  -1.17736  -0.99775  -0.83563  -0.81260
 Alpha  occ. eigenvalues --   -0.72067  -0.65266  -0.64320  -0.61132  -0.57485
 Alpha  occ. eigenvalues --   -0.56061  -0.52135  -0.50400  -0.44471  -0.43196
 Alpha  occ. eigenvalues --   -0.41962  -0.38889
 Alpha virt. eigenvalues --    0.02611   0.03899   0.04065   0.05156   0.06076
 Alpha virt. eigenvalues --    0.06532   0.06903   0.07299   0.08453   0.09272
 Alpha virt. eigenvalues --    0.09600   0.10469   0.12196   0.12541   0.12973

 Mulliken charges:
               1
     1  Si   0.684535
     2  C    0.023810
     3  C    0.535974
     4  N   -0.383013
     5  H   -0.260377
     6  H    0.022359
     7  C    0.205084
     8  H    0.050103
     9  H    0.002048
    10  N   -0.235440
    11  H   -0.375912
    12  H    0.045220
    13  H   -0.226144
    14  H   -0.088247
 Sum of Mulliken charges =  -0.00000

 Dipole moment (field-independent basis, Debye):
    X=             -0.6513    Y=             -3.7946    Z=             -0.9205  Tot=              3.9586

 Test job not archived.
 1\1\GINC-SE339\SP\RHF\Aug-CC-pVDZ\C3H8N2Si1\OHZDE\08-Apr-2025\0\\#t hf
  aug-cc-pvdz iop(5/13=1,5/36=2,99/5=2) pseudo=read geom=check guess=(r
 ead,tcheck) scf=(maxcycle=1)\\title\\0,1\Si,0,-0.979095,-0.99531,0.102
 549\C,0,0.846693,-1.026946,-0.429587\C,0,1.746906,-0.132567,0.376589\N
 ,0,2.363935,0.912384,-0.001408\H,0,1.867971,-0.415911,1.427975\H,0,2.1
 97643,1.090018,-0.997757\C,0,-1.751521,0.736194,-0.057869\H,0,-1.09025
 6,-1.448471,1.510665\H,0,-1.73625,-1.937147,-0.755752\N,0,-1.172127,1.
 87177,-0.010453\H,0,-2.840945,0.769839,-0.201745\H,0,-0.162119,1.78022

 Normal termination of Gaussian 16 at Tue Apr  8 23:50:42 2025.
