 Gaussian 16, Revision C.01,

 ----------------------------------------------------------------------
 #t hf aug-cc-pvdz symm=none int=(grid=ultrafine) guess=(read,tcheck) s
 table=opt
 ----------------------------------------------------------------------
 -----
 title
 -----
 Symbolic Z-matrix:
 Charge =  0 Multiplicity = 2

 SCF Done:  E(UHF) =  -710.401002155     A.U. after   54 cycles

 1\1\GINC-SE232\Stability\UHF\Aug-CC-pVDZ\C8H17S1\OHZDE\08-Apr-2025\0\\
 #t hf aug-cc-pvdz symm=none int=(grid=ultrafine) guess=(read,tcheck) s
 table=opt\\title\\0,2\C,0,-5.105129,0.453449,0.133683\C,0,-3.880928,-0
 .345067,-0.323209\H,0,-6.030321,0.032194,-0.26896\H,0,-5.043416,1.4951
 16,-0.196444\H,0,-5.189749,0.457935,1.224927\C,0,-2.558622,0.210462,0.
 218005\H,0,-3.843409,-0.360435,-1.419175\H,0,-3.988612,-1.390256,-0.00
 859\C,0,-1.327873,-0.582948,-0.234893\H,0,-2.596351,0.226364,1.315038\
 H,0,-2.450925,1.256366,-0.096887\C,0,-0.007127,-0.02474,0.306134\H,0,-

 Normal termination of Gaussian 16 at Tue Apr  8 23:20:12 2025.
 Gaussian 16:  ES64L-G16RevC.01  3-Jul-2019

 ----------------------------------------------------------------------
 #t hf aug-cc-pvdz iop(5/13=1,5/36=2,99/5=2) pseudo=read geom=check gue
 ss=(read,tcheck) scf=(maxcycle=1)
 ----------------------------------------------------------------------
 -----
 title
 -----
 Structure from the checkpoint file:  "BDE49_expt_832_mol2.chk"
 Charge =  0 Multiplicity = 2

                         Standard orientation:
 ---------------------------------------------------------------------
 Center     Atomic      Atomic             Coordinates (Angstroms)
 Number     Number       Type             X           Y           Z
 ---------------------------------------------------------------------
      1          6           0       -5.105129    0.453449    0.133683
      2          6           0       -3.880928   -0.345067   -0.323209
      3          1           0       -6.030321    0.032194   -0.268960
      4          1           0       -5.043416    1.495116   -0.196444
      5          1           0       -5.189749    0.457935    1.224927
      6          6           0       -2.558622    0.210462    0.218005
      7          1           0       -3.843409   -0.360435   -1.419175
      8          1           0       -3.988612   -1.390256   -0.008590
      9          6           0       -1.327873   -0.582948   -0.234893
     10          1           0       -2.596351    0.226364    1.315038
     11          1           0       -2.450925    1.256366   -0.096887
     12          6           0       -0.007127   -0.024740    0.306134
     13          1           0       -1.290347   -0.597968   -1.331518
     14          1           0       -1.436065   -1.629017    0.080167
     15          6           0        1.219346   -0.822455   -0.147365
     16          1           0       -0.042193   -0.006398    1.403286
     17          1           0        0.103847    1.017870   -0.016842
     18          6           0        2.551293   -0.293819    0.397910
     19          1           0        1.267776   -0.838673   -1.242104
     20          1           0        1.112654   -1.865184    0.181482
     21          6           0        3.738136   -1.195149    0.005437
     22          1           0        2.509271   -0.243188    1.491073
     23         16           0        2.941319    1.396138   -0.186261
     24          1           0        3.558755   -2.206909    0.381743
     25          1           0        4.676581   -0.833366    0.429339
     26          1           0        3.846829   -1.251061   -1.080570
 ---------------------------------------------------------------------

 SCF Done:  E(UHF) =  -710.515820782     A.U. after    2 cycles

 The electronic state is 2-A.
 Alpha  occ. eigenvalues --  -93.54258 -11.27763 -11.24217 -11.23740 -11.23032
 Alpha  occ. eigenvalues --  -11.22801 -11.22738 -11.22574 -11.22190  -8.83963
 Alpha  occ. eigenvalues --   -6.19367  -6.17644  -6.17210  -1.10248  -1.06926
 Alpha  occ. eigenvalues --   -1.02185  -0.95668  -0.93157  -0.88055  -0.81139
 Alpha  occ. eigenvalues --   -0.78897  -0.76958  -0.66019  -0.63436  -0.61118
 Alpha  occ. eigenvalues --   -0.60003  -0.58930  -0.57857  -0.55851  -0.54653
 Alpha  occ. eigenvalues --   -0.51628  -0.51415  -0.50605  -0.48702  -0.47561
 Alpha  occ. eigenvalues --   -0.46567  -0.46358  -0.45001  -0.44512  -0.41694
 Alpha  occ. eigenvalues --   -0.36270
 Alpha virt. eigenvalues --    0.03451   0.03640   0.04297   0.04672   0.05215
 Alpha virt. eigenvalues --    0.05534   0.05881   0.06754   0.07174   0.07630
 Alpha virt. eigenvalues --    0.07766   0.08611   0.09448   0.10160   0.10543

  Beta  occ. eigenvalues --  -93.53356 -11.27902 -11.24086 -11.23720 -11.23018
  Beta  occ. eigenvalues --  -11.22802 -11.22739 -11.22573 -11.22190  -8.82958
  Beta  occ. eigenvalues --   -6.17094  -6.16656  -6.15424  -1.09640  -1.06623
  Beta  occ. eigenvalues --   -1.01844  -0.95491  -0.89264  -0.86277  -0.80772
  Beta  occ. eigenvalues --   -0.78863  -0.74665  -0.65792  -0.63078  -0.60994
  Beta  occ. eigenvalues --   -0.58907  -0.58674  -0.57708  -0.55678  -0.54383
  Beta  occ. eigenvalues --   -0.51528  -0.51032  -0.50373  -0.48551  -0.47469
  Beta  occ. eigenvalues --   -0.46512  -0.46331  -0.44336  -0.43732  -0.34064
  Beta virt. eigenvalues --    0.02249   0.03506   0.03817   0.04418   0.04699
  Beta virt. eigenvalues --    0.05340   0.05621   0.05908   0.06776   0.07236
  Beta virt. eigenvalues --    0.07648   0.07865   0.08659   0.09484   0.10190

 Mulliken charges and spin densities:
               1          2
     1  C    0.654348  -0.000079
     2  C    0.510355   0.000286
     3  H   -0.066881  -0.000002
     4  H   -0.094443   0.000013
     5  H   -0.089665   0.000018
     6  C    0.215178  -0.014407
     7  H   -0.166261   0.000103
     8  H   -0.164335  -0.000039
     9  C    0.083157   0.016845
    10  H   -0.197383  -0.000894
    11  H   -0.177032  -0.001273
    12  C    0.110175   0.014931
    13  H   -0.186577  -0.001303
    14  H   -0.199581   0.000918
    15  C    0.150374  -0.020749
    16  H   -0.189074   0.000833
    17  H   -0.213305   0.002056
    18  C   -0.161868  -0.187332
    19  H   -0.181351  -0.005025
    20  H   -0.155433  -0.000930
    21  C    0.787176   0.064054
    22  H   -0.214636   0.003326
    23  S    0.162224   1.122158
    24  H   -0.055947   0.009759
    25  H   -0.078816  -0.007024
    26  H   -0.080399   0.003757
 Sum of Mulliken charges =   0.00000   1.00000

 Dipole moment (field-independent basis, Debye):
    X=             -0.5561    Y=             -1.8257    Z=              0.4823  Tot=              1.9685
                          Isotropic Fermi Contact Couplings
        Atom                 a.u.       MegaHertz       Gauss      10(-4) cm-1
     1  C(13)             -0.00000      -0.00421      -0.00150      -0.00141
     2  C(13)             -0.00003      -0.03062      -0.01093      -0.01021
     3  H(1)              -0.00000      -0.00015      -0.00005      -0.00005
     4  H(1)               0.00000       0.00170       0.00061       0.00057
     5  H(1)               0.00000       0.00044       0.00016       0.00015
     6  C(13)              0.00010       0.11585       0.04134       0.03864
     7  H(1)               0.00000       0.00424       0.00151       0.00142
     8  H(1)               0.00000       0.00474       0.00169       0.00158

 Normal termination of Gaussian 16 at Tue Apr  8 23:20:31 2025.
