 Gaussian 16, Revision C.01,

 ----------------------------------------------------------------------
 #t hf aug-cc-pvdz symm=none int=(grid=ultrafine) guess=(read,tcheck) s
 table=(opt,rrhf)
 ----------------------------------------------------------------------
 -----
 title
 -----
 Symbolic Z-matrix:
 Charge =  0 Multiplicity = 1

 SCF Done:  E(RHF) =  -486.451141214     A.U. after   12 cycles
 Normal termination of Gaussian 16 at Tue Apr  8 23:48:40 2025.
 Gaussian 16:  ES64L-G16RevC.01  3-Jul-2019

 ----------------------------------------------------------------------
 #t hf aug-cc-pvdz iop(5/13=1,5/36=2,99/5=2) pseudo=read geom=check gue
 ss=(read,tcheck) scf=(maxcycle=1)
 ----------------------------------------------------------------------
 -----
 title
 -----
 Structure from the checkpoint file:  "BDE49_nonexpt_1831_mol1.chk"
 Charge =  0 Multiplicity = 1

                         Standard orientation:
 ---------------------------------------------------------------------
 Center     Atomic      Atomic             Coordinates (Angstroms)
 Number     Number       Type             X           Y           Z
 ---------------------------------------------------------------------
      1          6           0       -0.876632   -0.469999   -0.605982
      2         14           0        0.810702   -1.099584   -0.032646
      3          6           0        1.923926    0.273408    0.636719
      4          1           0        1.489794   -1.759933   -1.179803
      5          1           0        0.615685   -2.121175    1.030979
      6          6           0       -1.742518    0.182942    0.487188
      7          6           0       -3.112873    0.644308   -0.020987
      8          1           0       -1.884031   -0.524453    1.312684
      9          1           0       -1.212360    1.041818    0.914997
     10          1           0       -3.687574   -0.197456   -0.419486
     11          1           0       -3.007393    1.381173   -0.823339
     12          1           0       -3.702583    1.102858    0.778192
     13          6           0        2.273926    1.377013   -0.377259
     14          1           0        2.842381   -0.198351    1.005698
     15          1           0        1.443783    0.712247    1.519415
     16          1           0        2.779574    0.966441   -1.256291
     17          1           0        2.937757    2.128252    0.060815
     18          1           0        1.380239    1.900203   -0.729961
     19          1           0       -1.415282   -1.320591   -1.043257
     20          1           0       -0.724790    0.237117   -1.431673
 ---------------------------------------------------------------------

 SCF Done:  E(RHF) =  -486.539873540     A.U. after    2 cycles

 The electronic state is 1-A.
 Alpha  occ. eigenvalues --  -69.04549 -11.23467 -11.22994 -11.22307 -11.21758
 Alpha  occ. eigenvalues --  -11.21517  -6.79869  -3.90644  -3.90627  -3.90617
 Alpha  occ. eigenvalues --   -1.04513  -1.00975  -0.91976  -0.84089  -0.80365
 Alpha  occ. eigenvalues --   -0.66383  -0.63208  -0.60547  -0.57879  -0.57053
 Alpha  occ. eigenvalues --   -0.53978  -0.53507  -0.51687  -0.49437  -0.48448
 Alpha  occ. eigenvalues --   -0.47445  -0.45062  -0.42625  -0.40969
 Alpha virt. eigenvalues --    0.03280   0.04297   0.04421   0.04586   0.06108
 Alpha virt. eigenvalues --    0.06158   0.06379   0.06895   0.07171   0.08457
 Alpha virt. eigenvalues --    0.08718   0.08976   0.09354   0.10197   0.10902

 Mulliken charges:
               1
     1  C    0.245707
     2  Si   0.270891
     3  C    0.217205
     4  H    0.130214
     5  H    0.141064
     6  C   -0.019696
     7  C    0.430392
     8  H   -0.138498
     9  H   -0.184332
    10  H   -0.068715
    11  H   -0.060651
    12  H   -0.074719
    13  C    0.250211
    14  H   -0.249190
    15  H   -0.145840
    16  H   -0.086327
    17  H   -0.093579
    18  H   -0.160424
    19  H   -0.252765
    20  H   -0.150949
 Sum of Mulliken charges =  -0.00000

 Dipole moment (field-independent basis, Debye):
    X=             -0.2050    Y=              0.7315    Z=              0.1094  Tot=              0.7675

 Test job not archived.
 1\1\GINC-SE092\SP\RHF\Aug-CC-pVDZ\C5H14Si1\OHZDE\08-Apr-2025\0\\#t hf
 aug-cc-pvdz iop(5/13=1,5/36=2,99/5=2) pseudo=read geom=check guess=(re
 ad,tcheck) scf=(maxcycle=1)\\title\\0,1\C,0,-0.876632,-0.469999,-0.605
 982\Si,0,0.810702,-1.099584,-0.032646\C,0,1.923926,0.273408,0.636719\H
 ,0,1.489794,-1.759933,-1.179803\H,0,0.615685,-2.121175,1.030979\C,0,-1
 .742518,0.182942,0.487188\C,0,-3.112873,0.644308,-0.020987\H,0,-1.8840
 31,-0.524453,1.312684\H,0,-1.21236,1.041818,0.914997\H,0,-3.687574,-0.
 197456,-0.419486\H,0,-3.007393,1.381173,-0.823339\H,0,-3.702583,1.1028

 Normal termination of Gaussian 16 at Tue Apr  8 23:48:48 2025.
