 Gaussian 16, Revision C.01,

 ----------------------------------------------------------------------
 #t hf aug-cc-pvdz symm=none int=(grid=ultrafine) guess=(read,tcheck) s
 table=(opt,rrhf)
 ----------------------------------------------------------------------
 -----
 title
 -----
 Symbolic Z-matrix:
 Charge =  0 Multiplicity = 1

 SCF Done:  E(RHF) =  -698.721371926     A.U. after   17 cycles
 Normal termination of Gaussian 16 at Wed Apr  9 00:47:05 2025.
 Gaussian 16:  ES64L-G16RevC.01  3-Jul-2019

 ----------------------------------------------------------------------
 #t hf aug-cc-pvdz iop(5/13=1,5/36=2,99/5=2) pseudo=read geom=check gue
 ss=(read,tcheck) scf=(maxcycle=1)
 ----------------------------------------------------------------------
 -----
 title
 -----
 Structure from the checkpoint file:  "BDE49_nonexpt_772_mol1.chk"
 Charge =  0 Multiplicity = 1

                         Standard orientation:
 ---------------------------------------------------------------------
 Center     Atomic      Atomic             Coordinates (Angstroms)
 Number     Number       Type             X           Y           Z
 ---------------------------------------------------------------------
      1          6           0       -0.481114   -1.554459   -0.246490
      2          6           0       -1.723411   -2.135949   -0.158560
      3          6           0       -2.872144   -1.340997    0.049559
      4          6           0       -2.750247    0.021740    0.163741
      5          6           0       -1.481800    0.652237    0.077946
      6          6           0       -0.311304   -0.148774   -0.131207
      7          1           0        0.387296   -2.181481   -0.412769
      8          1           0       -1.824321   -3.211425   -0.251265
      9          1           0       -3.847141   -1.810166    0.116837
     10          1           0       -3.627708    0.640360    0.321776
     11          6           0        0.972606    0.487672   -0.222320
     12          6           0        1.040657    1.865276   -0.097782
     13          6           0       -1.346317    2.059544    0.196634
     14          6           0       -0.113318    2.653736    0.110353
     15          1           0       -2.237314    2.658042    0.356386
     16          1           0       -0.016208    3.730108    0.198132
     17          1           0        2.001127    2.364934   -0.168802
     18          5           0        2.993746   -1.374572    1.298297
     19         14           0        2.593706   -0.464280   -0.457211
     20          1           0        2.480475   -1.439268   -1.573748
     21          1           0        3.620700    0.539176   -0.831518
     22          1           0        2.473142   -2.405841    1.593161
     23          1           0        3.707681   -0.871819    2.110026
 ---------------------------------------------------------------------

 SCF Done:  E(RHF) =  -698.859533112     A.U. after    2 cycles

 The electronic state is 1-A.
 Alpha  occ. eigenvalues --  -69.05025 -11.25989 -11.25618 -11.25282 -11.25246
 Alpha  occ. eigenvalues --  -11.25036 -11.24996 -11.24846 -11.24811 -11.24793
 Alpha  occ. eigenvalues --  -11.24026  -7.62356  -6.80526  -3.91270  -3.91250
 Alpha  occ. eigenvalues --   -3.91173  -1.16761  -1.10480  -1.04559  -1.00684
 Alpha  occ. eigenvalues --   -0.97993  -0.85735  -0.84241  -0.81807  -0.72860
 Alpha  occ. eigenvalues --   -0.71153  -0.69836  -0.68396  -0.64259  -0.62309
 Alpha  occ. eigenvalues --   -0.60768  -0.59236  -0.57329  -0.55457  -0.54050
 Alpha  occ. eigenvalues --   -0.51678  -0.50694  -0.49491  -0.46233  -0.46038
 Alpha  occ. eigenvalues --   -0.44757  -0.41761  -0.38188  -0.32625  -0.29541
 Alpha virt. eigenvalues --    0.03044   0.03156   0.03641   0.04107   0.04704
 Alpha virt. eigenvalues --    0.04930   0.05403   0.06187   0.06747   0.07048
 Alpha virt. eigenvalues --    0.07428   0.07653   0.08584   0.08850   0.09256

 Mulliken charges:
               1
     1  C    0.623341
     2  C    0.327783
     3  C    0.325793
     4  C    0.959124
     5  C   -0.050522
     6  C    0.817640
     7  H   -0.801393
     8  H   -0.457166
     9  H   -0.457412
    10  H   -0.580749
    11  C   -0.891828
    12  C    0.981056
    13  C    0.727071
    14  C    0.246848
    15  H   -0.599921
    16  H   -0.461369
    17  H   -0.675955
    18  B   -0.576998
    19  Si  -0.493678
    20  H    0.216130
    21  H   -0.001320
    22  H    0.417301
    23  H    0.406226
 Sum of Mulliken charges =   0.00000

 Dipole moment (field-independent basis, Debye):
    X=             -0.5828    Y=              0.1614    Z=              0.3130  Tot=              0.6810

 Test job not archived.
 1\1\GINC-SE249\SP\RHF\Aug-CC-pVDZ\C10H11B1Si1\OHZDE\09-Apr-2025\0\\#t
 hf aug-cc-pvdz iop(5/13=1,5/36=2,99/5=2) pseudo=read geom=check guess=
 (read,tcheck) scf=(maxcycle=1)\\title\\0,1\C,0,-0.481114,-1.554459,-0.
 24649\C,0,-1.723411,-2.135949,-0.15856\C,0,-2.872144,-1.340996,0.04955
 9\C,0,-2.750247,0.021741,0.163741\C,0,-1.4818,0.652237,0.077946\C,0,-0
 .311304,-0.148774,-0.131207\H,0,0.387296,-2.181481,-0.412769\H,0,-1.82
 4322,-3.211425,-0.251265\H,0,-3.847141,-1.810165,0.116837\H,0,-3.62770
 8,0.640361,0.321776\C,0,0.972606,0.487672,-0.22232\C,0,1.040657,1.8652

 Normal termination of Gaussian 16 at Wed Apr  9 00:47:25 2025.
