 Gaussian 16, Revision C.01,

 ----------------------------------------------------------------------
 #t hf aug-cc-pvdz symm=none int=(grid=ultrafine) guess=(read,tcheck) s
 table=(opt,rrhf)
 ----------------------------------------------------------------------
 -----
 title
 -----
 Symbolic Z-matrix:
 Charge =  0 Multiplicity = 1

 SCF Done:  E(RHF) =  -577.207380868     A.U. after   12 cycles

 1\1\GINC-SE118\Stability\RHF\Aug-CC-pVDZ\C3H7Cl1\OHZDE\08-Apr-2025\0\\
 #t hf aug-cc-pvdz symm=none int=(grid=ultrafine) guess=(read,tcheck) s
 table=(opt,rrhf)\\title\\0,1\C,0,-0.57656,-0.906656,1.274179\H,0,0.293
 487,-1.566345,1.308265\H,0,-1.48,-1.52483,1.304179\H,0,-0.564656,-0.27
 1581,2.161066\C,0,-0.57656,-0.076762,0.\C,0,-0.57656,-0.906656,-1.2741
 79\Cl,0,0.89966,1.026152,0.\H,0,-0.564656,-0.271581,-2.161066\H,0,0.29
 3487,-1.566345,-1.308265\H,0,-1.413807,0.621382,0.\H,0,-1.48,-1.52483,
 -1.304179\\Version=ES64L-G16RevC.01\HF=-577.2073809\RMSD=3.025e-09\Dip

 Normal termination of Gaussian 16 at Tue Apr  8 22:29:20 2025.
 Gaussian 16:  ES64L-G16RevC.01  3-Jul-2019

 ----------------------------------------------------------------------
 #t hf aug-cc-pvdz iop(5/13=1,5/36=2,99/5=2) pseudo=read geom=check gue
 ss=(read,tcheck) scf=(maxcycle=1)
 ----------------------------------------------------------------------
 -----
 title
 -----
 Structure from the checkpoint file:  "BDE49_expt_1027_mol1.chk"
 Charge =  0 Multiplicity = 1

                         Standard orientation:
 ---------------------------------------------------------------------
 Center     Atomic      Atomic             Coordinates (Angstroms)
 Number     Number       Type             X           Y           Z
 ---------------------------------------------------------------------
      1          6           0       -0.576560   -0.906656    1.274179
      2          1           0        0.293487   -1.566345    1.308265
      3          1           0       -1.480000   -1.524830    1.304179
      4          1           0       -0.564656   -0.271581    2.161066
      5          6           0       -0.576560   -0.076762    0.000000
      6          6           0       -0.576560   -0.906656   -1.274179
      7         17           0        0.899660    1.026152   -0.000000
      8          1           0       -0.564656   -0.271581   -2.161066
      9          1           0        0.293487   -1.566345   -1.308265
     10          1           0       -1.413807    0.621382    0.000000
     11          1           0       -1.480000   -1.524830   -1.304179
 ---------------------------------------------------------------------

 SCF Done:  E(RHF) =  -577.264138260     A.U. after    2 cycles

 The electronic state is 1-A'.
 Alpha  occ. eigenvalues -- -103.63778 -11.31281 -11.24348 -11.24339 -10.67061
 Alpha  occ. eigenvalues --   -8.32767  -8.32500  -8.32494  -1.15730  -1.03245
 Alpha  occ. eigenvalues --   -0.95102  -0.80451  -0.65222  -0.61915  -0.59395
 Alpha  occ. eigenvalues --   -0.55908  -0.52215  -0.51682  -0.49233  -0.43867
 Alpha  occ. eigenvalues --   -0.43813
 Alpha virt. eigenvalues --    0.03339   0.04731   0.04797   0.05672   0.07365
 Alpha virt. eigenvalues --    0.07384   0.07737   0.09888   0.12667   0.13429
 Alpha virt. eigenvalues --    0.15041   0.15072   0.16179   0.16759   0.17441

 Mulliken charges:
               1
     1  C    0.567191
     2  H   -0.014954
     3  H   -0.013997
     4  H   -0.065836
     5  C   -0.674739
     6  C    0.567191
     7  Cl  -0.217279
     8  H   -0.065836
     9  H   -0.014954
    10  H   -0.052789
    11  H   -0.013997
 Sum of Mulliken charges =   0.00000

 Dipole moment (field-independent basis, Debye):
    X=             -2.0648    Y=             -1.7224    Z=             -0.0000  Tot=              2.6889

 Test job not archived.
 1\1\GINC-SE118\SP\RHF\Aug-CC-pVDZ\C3H7Cl1\OHZDE\08-Apr-2025\0\\#t hf a
 ug-cc-pvdz iop(5/13=1,5/36=2,99/5=2) pseudo=read geom=check guess=(rea
 d,tcheck) scf=(maxcycle=1)\\title\\0,1\C,0,-0.57656,-0.906656,1.274179
 \H,0,0.293487,-1.566345,1.308265\H,0,-1.48,-1.52483,1.304179\H,0,-0.56
 4656,-0.271581,2.161066\C,0,-0.57656,-0.076762,0.\C,0,-0.57656,-0.9066
 56,-1.274179\Cl,0,0.89966,1.026152,0.\H,0,-0.564656,-0.271581,-2.16106
 6\H,0,0.293487,-1.566345,-1.308265\H,0,-1.413807,0.621382,0.\H,0,-1.48
 ,-1.52483,-1.304179\\Version=ES64L-G16RevC.01\State=1-A'\HF=-577.26413

 Normal termination of Gaussian 16 at Tue Apr  8 22:29:23 2025.
