 Gaussian 16, Revision C.01,

 ----------------------------------------------------------------------
 #t hf aug-cc-pvdz symm=none int=(grid=ultrafine) guess=(read,tcheck) s
 table=(opt,rrhf)
 ----------------------------------------------------------------------
 -----
 title
 -----
 Symbolic Z-matrix:
 Charge =  0 Multiplicity = 1

 SCF Done:  E(RHF) =  -173.230451792     A.U. after   13 cycles
 Normal termination of Gaussian 16 at Wed Apr  9 00:36:18 2025.
 Gaussian 16:  ES64L-G16RevC.01  3-Jul-2019

 ----------------------------------------------------------------------
 #t hf aug-cc-pvdz iop(5/13=1,5/36=2,99/5=2) pseudo=read geom=check gue
 ss=(read,tcheck) scf=(maxcycle=1)
 ----------------------------------------------------------------------
 -----
 title
 -----
 Structure from the checkpoint file:  "BDE49_nonexpt_571_mol1.chk"
 Charge =  0 Multiplicity = 1

                         Standard orientation:
 ---------------------------------------------------------------------
 Center     Atomic      Atomic             Coordinates (Angstroms)
 Number     Number       Type             X           Y           Z
 ---------------------------------------------------------------------
      1          5           0       -1.678377    0.409888    0.000002
      2          6           0        0.730582   -0.081559   -0.000018
      3          7           0        1.840861    0.236800    0.000017
      4          7           0       -0.563185   -0.462746   -0.000005
      5          1           0       -1.485522    1.578378   -0.000003
      6          1           0       -2.754702   -0.089389    0.000015
      7          1           0       -0.695108   -1.467448    0.000004
 ---------------------------------------------------------------------

 SCF Done:  E(RHF) =  -173.285134624     A.U. after    2 cycles

 The electronic state is 1-A.
 Alpha  occ. eigenvalues --  -15.70246 -15.64165 -11.33042  -7.65650  -1.25704
 Alpha  occ. eigenvalues --   -1.17188  -0.82311  -0.77828  -0.61175  -0.58452
 Alpha  occ. eigenvalues --   -0.55489  -0.51886  -0.47156  -0.42406
 Alpha virt. eigenvalues --    0.02500   0.03757   0.04492   0.04902   0.07832
 Alpha virt. eigenvalues --    0.10106   0.10459   0.10614   0.12402   0.12445
 Alpha virt. eigenvalues --    0.13345   0.14741   0.16461   0.18082   0.19632

 Mulliken charges:
               1
     1  B   -0.193853
     2  C   -0.175566
     3  N   -0.075631
     4  N    0.031816
     5  H    0.160881
     6  H    0.203530
     7  H    0.048824
 Sum of Mulliken charges =  -0.00000

 Dipole moment (field-independent basis, Debye):
    X=             -3.5854    Y=             -1.8686    Z=             -0.0000  Tot=              4.0431

 Test job not archived.
 1\1\GINC-SE229\SP\RHF\Aug-CC-pVDZ\C1H3B1N2\OHZDE\09-Apr-2025\0\\#t hf
 aug-cc-pvdz iop(5/13=1,5/36=2,99/5=2) pseudo=read geom=check guess=(re
 ad,tcheck) scf=(maxcycle=1)\\title\\0,1\B,0,-1.678377,0.409888,0.00000
 2\C,0,0.730582,-0.081559,-0.000018\N,0,1.840861,0.2368,0.000017\N,0,-0
 .563185,-0.462746,-0.000005\H,0,-1.485522,1.578378,-0.000003\H,0,-2.75
 4702,-0.089389,0.000015\H,0,-0.695108,-1.467448,0.000004\\Version=ES64
 L-G16RevC.01\State=1-A\HF=-173.2851346\RMSD=3.393e-03\Dipole=-1.410586
 2,-0.7351508,-0.0000154\Quadrupole=-4.1367333,2.9076937,1.2290396,-0.2

 Normal termination of Gaussian 16 at Wed Apr  9 00:36:21 2025.
