 Gaussian 16, Revision C.01,

 ----------------------------------------------------------------------
 #t hf aug-cc-pvdz symm=none int=(grid=ultrafine) guess=(read,tcheck) s
 table=(opt,rrhf)
 ----------------------------------------------------------------------
 -----
 title
 -----
 Symbolic Z-matrix:
 Charge =  0 Multiplicity = 1

 SCF Done:  E(RHF) =  -271.976322593     A.U. after   15 cycles
 Normal termination of Gaussian 16 at Wed Apr  9 00:24:33 2025.
 Gaussian 16:  ES64L-G16RevC.01  3-Jul-2019

 ----------------------------------------------------------------------
 #t hf aug-cc-pvdz iop(5/13=1,5/36=2,99/5=2) pseudo=read geom=check gue
 ss=(read,tcheck) scf=(maxcycle=1)
 ----------------------------------------------------------------------
 -----
 title
 -----
 Structure from the checkpoint file:  "BDE49_nonexpt_279_mol1.chk"
 Charge =  0 Multiplicity = 1

                         Standard orientation:
 ---------------------------------------------------------------------
 Center     Atomic      Atomic             Coordinates (Angstroms)
 Number     Number       Type             X           Y           Z
 ---------------------------------------------------------------------
      1          6           0        1.171116   -1.145775    0.000000
      2          6           0       -0.066781   -1.773490    0.000000
      3          6           0       -1.221561   -0.980699    0.000000
      4          7           0       -1.206120    0.346081    0.000000
      5          6           0       -0.000000    0.978386    0.000000
      6          6           0        1.201007    0.246532    0.000000
      7          1           0       -0.149947   -2.854438    0.000000
      8          1           0       -2.202212   -1.450355    0.000000
      9          1           0        2.145705    0.777966    0.000000
     10          1           0        2.088419   -1.723950    0.000000
     11          5           0        0.005814    2.527578    0.000000
     12          1           0       -1.018292    3.130228    0.000000
     13          1           0        1.047410    3.110374    0.000000
 ---------------------------------------------------------------------

 SCF Done:  E(RHF) =  -272.054995116     A.U. after    2 cycles

 The electronic state is 1-A'.
 Alpha  occ. eigenvalues --  -15.63825 -11.28793 -11.27210 -11.26605 -11.26421
 Alpha  occ. eigenvalues --  -11.26235  -7.61106  -1.22881  -1.08214  -1.03008
 Alpha  occ. eigenvalues --   -0.86310  -0.85797  -0.73629  -0.67618  -0.67067
 Alpha  occ. eigenvalues --   -0.63334  -0.59021  -0.56060  -0.54388  -0.49315
 Alpha  occ. eigenvalues --   -0.48240  -0.41033  -0.38785  -0.35614
 Alpha virt. eigenvalues --    0.02906   0.03422   0.03851   0.04533   0.05736
 Alpha virt. eigenvalues --    0.06049   0.06586   0.07429   0.08933   0.09237
 Alpha virt. eigenvalues --    0.10340   0.11655   0.12880   0.13307   0.13561

 Mulliken charges:
               1
     1  C   -0.137696
     2  C    0.775689
     3  C    0.614662
     4  N   -0.287954
     5  C    0.098578
     6  C    0.753011
     7  H   -0.397877
     8  H   -0.379985
     9  H   -0.497589
    10  H   -0.391786
    11  B   -0.869809
    12  H    0.412720
    13  H    0.308035
 Sum of Mulliken charges =  -0.00000

 Dipole moment (field-independent basis, Debye):
    X=              1.8306    Y=             -2.1910    Z=              0.0000  Tot=              2.8551

 Test job not archived.
 1\1\GINC-SE127\SP\RHF\Aug-CC-pVDZ\C5H6B1N1\OHZDE\09-Apr-2025\0\\#t hf
 aug-cc-pvdz iop(5/13=1,5/36=2,99/5=2) pseudo=read geom=check guess=(re
 ad,tcheck) scf=(maxcycle=1)\\title\\0,1\C,0,1.171116,-1.145775,0.\C,0,
 -0.066781,-1.77349,0.\C,0,-1.221561,-0.980699,0.\N,0,-1.20612,0.346081
 ,0.\C,0,0.,0.978386,0.\C,0,1.201007,0.246532,0.\H,0,-0.149947,-2.85443
 8,0.\H,0,-2.202212,-1.450355,0.\H,0,2.145705,0.777966,0.\H,0,2.088419,
 -1.72395,0.\B,0,0.005814,2.527578,0.\H,0,-1.018292,3.130228,0.\H,0,1.0
 4741,3.110374,0.\\Version=ES64L-G16RevC.01\State=1-A'\HF=-272.0549951\

 Normal termination of Gaussian 16 at Wed Apr  9 00:24:38 2025.
