 Gaussian 16, Revision C.01,

 ----------------------------------------------------------------------
 #t hf aug-cc-pvdz symm=none int=(grid=ultrafine) guess=(read,tcheck) s
 table=(opt,rrhf)
 ----------------------------------------------------------------------
 -----
 title
 -----
 Symbolic Z-matrix:
 Charge =  0 Multiplicity = 1

 SCF Done:  E(RHF) =  -647.133991866     A.U. after   16 cycles
 Normal termination of Gaussian 16 at Wed Apr  9 00:20:35 2025.
 Gaussian 16:  ES64L-G16RevC.01  3-Jul-2019

 ----------------------------------------------------------------------
 #t hf aug-cc-pvdz iop(5/13=1,5/36=2,99/5=2) pseudo=read geom=check gue
 ss=(read,tcheck) scf=(maxcycle=1)
 ----------------------------------------------------------------------
 -----
 title
 -----
 Structure from the checkpoint file:  "BDE49_nonexpt_2650_mol1.chk"
 Charge =  0 Multiplicity = 1

                         Standard orientation:
 ---------------------------------------------------------------------
 Center     Atomic      Atomic             Coordinates (Angstroms)
 Number     Number       Type             X           Y           Z
 ---------------------------------------------------------------------
      1          9           0       -1.462459    0.839509    0.076143
      2         16           0       -0.597849   -0.558557   -0.179647
      3          8           0        0.751759   -0.334942    0.562646
      4          8           0        1.820910    0.382123   -0.331300
      5          1           0        2.146361    1.003879    0.338303
 ---------------------------------------------------------------------

 SCF Done:  E(RHF) =  -647.251575336     A.U. after    2 cycles

 The electronic state is 1-A.
 Alpha  occ. eigenvalues --  -93.68952 -26.14198 -20.71850 -20.68497  -8.97268
 Alpha  occ. eigenvalues --   -6.31513  -6.31128  -6.30560  -1.65689  -1.45501
 Alpha  occ. eigenvalues --   -1.28713  -0.95038  -0.77330  -0.76332  -0.75029
 Alpha  occ. eigenvalues --   -0.73551  -0.67619  -0.62878  -0.57216  -0.55859
 Alpha  occ. eigenvalues --   -0.39697
 Alpha virt. eigenvalues --    0.03462   0.06436   0.06746   0.09184   0.10585
 Alpha virt. eigenvalues --    0.13991   0.15416   0.17520   0.19331   0.21332
 Alpha virt. eigenvalues --    0.22068   0.22815   0.23492   0.27518   0.29074

 Mulliken charges:
               1
     1  F   -0.589012
     2  S    1.096009
     3  O   -0.540418
     4  O   -0.208258
     5  H    0.241679
 Sum of Mulliken charges =   0.00000

 Dipole moment (field-independent basis, Debye):
    X=              1.3089    Y=             -0.2796    Z=              0.3790  Tot=              1.3911

 Test job not archived.
 1\1\GINC-SE038\SP\RHF\Aug-CC-pVDZ\F1H1O2S1\OHZDE\09-Apr-2025\0\\#t hf
 aug-cc-pvdz iop(5/13=1,5/36=2,99/5=2) pseudo=read geom=check guess=(re
 ad,tcheck) scf=(maxcycle=1)\\title\\0,1\F,0,-1.462459,0.839509,0.07614
 3\S,0,-0.597849,-0.558557,-0.179647\O,0,0.751759,-0.334942,0.562646\O,
 0,1.82091,0.382123,-0.3313\H,0,2.146361,1.00388,0.338303\\Version=ES64
 L-G16RevC.01\State=1-A\HF=-647.2515753\RMSD=3.804e-03\Dipole=0.5149683
 ,-0.1100215,0.1491034\Quadrupole=0.4367866,0.7198711,-1.1566577,3.9323
 919,2.1295442,1.3470164\PG=C01 [X(F1H1O2S1)]\\@

 Normal termination of Gaussian 16 at Wed Apr  9 00:20:38 2025.
