 Gaussian 16, Revision C.01,

 ----------------------------------------------------------------------
 #t hf aug-cc-pvdz symm=none int=(grid=ultrafine) guess=(read,tcheck) s
 table=(opt,rrhf)
 ----------------------------------------------------------------------
 -----
 title
 -----
 Symbolic Z-matrix:
 Charge =  0 Multiplicity = 1

 SCF Done:  E(RHF) =  -705.573859013     A.U. after   14 cycles
 Normal termination of Gaussian 16 at Tue Apr  8 23:49:49 2025.
 Gaussian 16:  ES64L-G16RevC.01  3-Jul-2019

 ----------------------------------------------------------------------
 #t hf aug-cc-pvdz iop(5/13=1,5/36=2,99/5=2) pseudo=read geom=check gue
 ss=(read,tcheck) scf=(maxcycle=1)
 ----------------------------------------------------------------------
 -----
 title
 -----
 Structure from the checkpoint file:  "BDE49_nonexpt_1879_mol1.chk"
 Charge =  0 Multiplicity = 1

                         Standard orientation:
 ---------------------------------------------------------------------
 Center     Atomic      Atomic             Coordinates (Angstroms)
 Number     Number       Type             X           Y           Z
 ---------------------------------------------------------------------
      1          6           0        1.058359   -0.867983    0.694642
      2         14           0       -0.623089   -1.198386   -0.163197
      3          6           0        1.791813    0.288615    0.068677
      4          8           0        1.305778    1.392923   -0.041950
      5          8           0        3.030308    0.071803   -0.408788
      6          6           0       -1.850929    0.280014   -0.031987
      7          1           0       -1.243279   -2.355752    0.507040
      8          1           0       -0.379600   -1.493754   -1.591890
      9          8           0       -3.019790    0.005019   -0.154017
     10          8           0       -1.437872    1.536928    0.178371
     11          1           0        3.307386   -0.834133   -0.230911
     12          1           0       -0.457215    1.587629    0.172193
     13          1           0        1.645658   -1.790247    0.722463
     14          1           0        0.827451   -0.593597    1.728940
 ---------------------------------------------------------------------

 SCF Done:  E(RHF) =  -705.728841920     A.U. after    2 cycles

 The electronic state is 1-A.
 Alpha  occ. eigenvalues --  -69.10991 -20.66402 -20.60884 -20.59880 -20.56373
 Alpha  occ. eigenvalues --  -11.44615 -11.38487 -11.28990  -6.86224  -3.97022
 Alpha  occ. eigenvalues --   -3.96977  -3.96963  -1.46173  -1.40825  -1.36960
 Alpha  occ. eigenvalues --   -1.32291  -1.04945  -0.88875  -0.84607  -0.79299
 Alpha  occ. eigenvalues --   -0.76150  -0.72550  -0.69870  -0.67019  -0.66751
 Alpha  occ. eigenvalues --   -0.63991  -0.63331  -0.60610  -0.56887  -0.54543
 Alpha  occ. eigenvalues --   -0.52435  -0.50706  -0.49444  -0.48564  -0.43010
 Alpha virt. eigenvalues --    0.01220   0.03652   0.04011   0.04844   0.06445
 Alpha virt. eigenvalues --    0.07041   0.07142   0.07735   0.08509   0.10747
 Alpha virt. eigenvalues --    0.11325   0.11674   0.11840   0.12334   0.12887

 Mulliken charges:
               1
     1  C    0.050505
     2  Si   0.530316
     3  C    0.599789
     4  O   -0.532171
     5  O   -0.459787
     6  C    0.414695
     7  H    0.075292
     8  H    0.074082
     9  O   -0.483736
    10  O   -0.419604
    11  H    0.194038
    12  H    0.247971
    13  H   -0.297000
    14  H    0.005610
 Sum of Mulliken charges =  -0.00000

 Dipole moment (field-independent basis, Debye):
    X=              5.8505    Y=             -5.3041    Z=              1.5430  Tot=              8.0462

 Test job not archived.
 1\1\GINC-SE334\SP\RHF\Aug-CC-pVDZ\C3H6O4Si1\OHZDE\08-Apr-2025\0\\#t hf
  aug-cc-pvdz iop(5/13=1,5/36=2,99/5=2) pseudo=read geom=check guess=(r
 ead,tcheck) scf=(maxcycle=1)\\title\\0,1\C,0,1.058359,-0.867983,0.6946
 42\Si,0,-0.623089,-1.198386,-0.163197\C,0,1.791813,0.288615,0.068677\O
 ,0,1.305778,1.392923,-0.04195\O,0,3.030308,0.071803,-0.408788\C,0,-1.8
 50929,0.280014,-0.031987\H,0,-1.243279,-2.355752,0.50704\H,0,-0.3796,-
 1.493754,-1.59189\O,0,-3.01979,0.005019,-0.154017\O,0,-1.437872,1.5369
 28,0.178371\H,0,3.307386,-0.834133,-0.230911\H,0,-0.457215,1.587629,0.

 Normal termination of Gaussian 16 at Tue Apr  8 23:49:54 2025.
