 Gaussian 16, Revision C.01,

 ----------------------------------------------------------------------
 #t hf aug-cc-pvdz symm=none int=(grid=ultrafine) guess=(read,tcheck) s
 table=(opt,rrhf)
 ----------------------------------------------------------------------
 -----
 title
 -----
 Symbolic Z-matrix:
 Charge =  0 Multiplicity = 1

 SCF Done:  E(RHF) =  -504.747707358     A.U. after   15 cycles
 Normal termination of Gaussian 16 at Wed Apr  9 00:38:45 2025.
 Gaussian 16:  ES64L-G16RevC.01  3-Jul-2019

 ----------------------------------------------------------------------
 #t hf aug-cc-pvdz iop(5/13=1,5/36=2,99/5=2) pseudo=read geom=check gue
 ss=(read,tcheck) scf=(maxcycle=1)
 ----------------------------------------------------------------------
 -----
 title
 -----
 Structure from the checkpoint file:  "BDE49_nonexpt_631_mol1.chk"
 Charge =  0 Multiplicity = 1

                         Standard orientation:
 ---------------------------------------------------------------------
 Center     Atomic      Atomic             Coordinates (Angstroms)
 Number     Number       Type             X           Y           Z
 ---------------------------------------------------------------------
      1          9           0        0.070495    2.121833   -0.000002
      2          8           0        2.535241    0.836466    0.000002
      3          8           0        2.356158   -1.501737    0.000001
      4          6           0       -0.556708   -1.455476    0.000000
      5          1           0       -0.005235   -2.388046    0.000001
      6          6           0       -1.964140    0.948522   -0.000001
      7          1           0       -2.476985    1.902082   -0.000002
      8          6           0       -2.651525   -0.262274   -0.000001
      9          1           0       -3.735421   -0.261157   -0.000001
     10          6           0        0.175844   -0.255398    0.000000
     11          6           0       -1.947448   -1.466226    0.000000
     12          1           0       -2.483417   -2.408029    0.000000
     13          6           0       -0.580324    0.914332   -0.000001
     14          5           0        1.748464   -0.278684    0.000000
     15          1           0        3.315540   -1.418230    0.000002
     16          1           0        2.023360    1.651592    0.000003
 ---------------------------------------------------------------------

 SCF Done:  E(RHF) =  -504.910099277     A.U. after    2 cycles

 The electronic state is 1-A.
 Alpha  occ. eigenvalues --  -26.14910 -20.57966 -20.57938 -11.35179 -11.26965
 Alpha  occ. eigenvalues --  -11.26329 -11.25978 -11.25299 -11.23996  -7.66401
 Alpha  occ. eigenvalues --   -1.68395  -1.34492  -1.30759  -1.16189  -1.03178
 Alpha  occ. eigenvalues --   -1.03048  -0.87296  -0.86819  -0.79726  -0.77267
 Alpha  occ. eigenvalues --   -0.76198  -0.74536  -0.74126  -0.69272  -0.63916
 Alpha  occ. eigenvalues --   -0.62678  -0.62145  -0.59231  -0.58464  -0.57394
 Alpha  occ. eigenvalues --   -0.52894  -0.52194  -0.51842  -0.49436  -0.35947
 Alpha  occ. eigenvalues --   -0.35374
 Alpha virt. eigenvalues --    0.03174   0.04104   0.04231   0.05650   0.05889
 Alpha virt. eigenvalues --    0.06127   0.07140   0.07756   0.08022   0.09256
 Alpha virt. eigenvalues --    0.10413   0.10430   0.12600   0.12867   0.13862

 Mulliken charges:
               1
     1  F   -0.406989
     2  O   -0.516793
     3  O   -0.506864
     4  C    0.324183
     5  H   -0.636819
     6  C    0.800291
     7  H   -0.462299
     8  C    0.686963
     9  H   -0.429521
    10  C    0.008634
    11  C    0.601594
    12  H   -0.429820
    13  C   -0.148951
    14  B    0.666965
    15  H    0.198575
    16  H    0.250850
 Sum of Mulliken charges =  -0.00000

 Dipole moment (field-independent basis, Debye):
    X=             -1.7486    Y=             -0.4884    Z=              0.0000  Tot=              1.8155

 Test job not archived.
 1\1\GINC-SE457\SP\RHF\Aug-CC-pVDZ\C6H6B1F1O2\OHZDE\09-Apr-2025\0\\#t h
 f aug-cc-pvdz iop(5/13=1,5/36=2,99/5=2) pseudo=read geom=check guess=(
 read,tcheck) scf=(maxcycle=1)\\title\\0,1\F,0,-0.070495,2.121833,0.000
 002\O,0,-2.535241,0.836466,-0.000002\O,0,-2.356158,-1.501737,-0.000001
 \C,0,0.556708,-1.455476,0.\H,0,0.005235,-2.388046,-0.000001\C,0,1.9641
 4,0.948522,0.000001\H,0,2.476985,1.902082,0.000002\C,0,2.651525,-0.262
 274,0.000001\H,0,3.735421,-0.261156,0.000001\C,0,-0.175844,-0.255398,0
 .\C,0,1.947448,-1.466226,0.\H,0,2.483417,-2.408029,0.\C,0,0.580324,0.9

 Normal termination of Gaussian 16 at Wed Apr  9 00:38:52 2025.
