 Gaussian 16, Revision C.01,

 ----------------------------------------------------------------------
 #t hf aug-cc-pvdz symm=none int=(grid=ultrafine) guess=(read,tcheck) s
 table=(opt,rrhf)
 ----------------------------------------------------------------------
 -----
 title
 -----
 Symbolic Z-matrix:
 Charge =  0 Multiplicity = 1

 SCF Done:  E(RHF) =  -808.006903874     A.U. after   14 cycles
 Normal termination of Gaussian 16 at Wed Apr  9 00:09:19 2025.
 Gaussian 16:  ES64L-G16RevC.01  3-Jul-2019

 ----------------------------------------------------------------------
 #t hf aug-cc-pvdz iop(5/13=1,5/36=2,99/5=2) pseudo=read geom=check gue
 ss=(read,tcheck) scf=(maxcycle=1)
 ----------------------------------------------------------------------
 -----
 title
 -----
 Structure from the checkpoint file:  "BDE49_nonexpt_2356_mol1.chk"
 Charge =  0 Multiplicity = 1

                         Standard orientation:
 ---------------------------------------------------------------------
 Center     Atomic      Atomic             Coordinates (Angstroms)
 Number     Number       Type             X           Y           Z
 ---------------------------------------------------------------------
      1         14           0        0.829316    0.856571   -0.550437
      2         14           0        2.411705   -0.700036    0.246309
      3          6           0       -0.900520    0.421178    0.174300
      4          8           0       -1.304248    0.815755    1.241071
      5          1           0        0.789957    0.836847   -2.030511
      6          1           0        1.153720    2.217760   -0.071819
      7          8           0       -1.598758   -0.418082   -0.625222
      8          1           0        3.759089   -0.331866   -0.251765
      9          1           0        2.078722   -2.060628   -0.237827
     10          1           0        2.430107   -0.703642    1.727499
     11          6           0       -2.890633   -0.837264   -0.131070
     12          1           0       -3.288738   -1.505238   -0.890912
     13          1           0       -3.543252    0.026200    0.004336
     14          1           0       -2.782932   -1.355788    0.822612
 ---------------------------------------------------------------------

 SCF Done:  E(RHF) =  -808.122700923     A.U. after    2 cycles

 The electronic state is 1-A.
 Alpha  occ. eigenvalues --  -69.07943 -69.07061 -20.62140 -20.57023 -11.38329
 Alpha  occ. eigenvalues --  -11.30089  -6.83360  -6.82480  -3.94146  -3.94101
 Alpha  occ. eigenvalues --   -3.94072  -3.93235  -3.93230  -3.93217  -1.41799
 Alpha  occ. eigenvalues --   -1.32710  -0.98333  -0.81196  -0.75974  -0.70969
 Alpha  occ. eigenvalues --   -0.69195  -0.68156  -0.64091  -0.57599  -0.56198
 Alpha  occ. eigenvalues --   -0.53848  -0.50520  -0.49278  -0.48492  -0.47879
 Alpha  occ. eigenvalues --   -0.44387  -0.40498
 Alpha virt. eigenvalues --    0.03395   0.04013   0.04502   0.05632   0.06017
 Alpha virt. eigenvalues --    0.06611   0.06824   0.07483   0.08086   0.08626
 Alpha virt. eigenvalues --    0.09137   0.09385   0.09556   0.10502   0.11710

 Mulliken charges:
               1
     1  Si   0.020532
     2  Si  -0.175281
     3  C    0.456155
     4  O   -0.480723
     5  H    0.103810
     6  H    0.062509
     7  O   -0.500296
     8  H    0.021636
     9  H    0.048784
    10  H    0.070821
    11  C    0.773396
    12  H   -0.243188
    13  H   -0.078794
    14  H   -0.079361
 Sum of Mulliken charges =  -0.00000

 Dipole moment (field-independent basis, Debye):
    X=              0.0463    Y=             -1.1177    Z=             -1.5840  Tot=              1.9392

 Test job not archived.
 1\1\GINC-SE095\SP\RHF\Aug-CC-pVDZ\C2H8O2Si2\OHZDE\09-Apr-2025\0\\#t hf
  aug-cc-pvdz iop(5/13=1,5/36=2,99/5=2) pseudo=read geom=check guess=(r
 ead,tcheck) scf=(maxcycle=1)\\title\\0,1\Si,0,0.829316,0.856571,-0.550
 437\Si,0,2.411705,-0.700036,0.246309\C,0,-0.90052,0.421178,0.1743\O,0,
 -1.304248,0.815755,1.241071\H,0,0.789957,0.836847,-2.030511\H,0,1.1537
 2,2.21776,-0.071819\O,0,-1.598758,-0.418082,-0.625222\H,0,3.759089,-0.
 331866,-0.251765\H,0,2.078722,-2.060628,-0.237827\H,0,2.430107,-0.7036
 42,1.727499\C,0,-2.890633,-0.837264,-0.13107\H,0,-3.288738,-1.505238,-

 Normal termination of Gaussian 16 at Wed Apr  9 00:09:24 2025.
