 Gaussian 16, Revision C.01,

 ----------------------------------------------------------------------
 #t hf aug-cc-pvdz symm=none int=(grid=ultrafine) guess=(read,tcheck) s
 table=(opt,rrhf)
 ----------------------------------------------------------------------
 -----
 title
 -----
 Symbolic Z-matrix:
 Charge =  0 Multiplicity = 1

 SCF Done:  E(RHF) =  -612.048999805     A.U. after   13 cycles
 Normal termination of Gaussian 16 at Tue Apr  8 23:58:31 2025.
 Gaussian 16:  ES64L-G16RevC.01  3-Jul-2019

 ----------------------------------------------------------------------
 #t hf aug-cc-pvdz iop(5/13=1,5/36=2,99/5=2) pseudo=read geom=check gue
 ss=(read,tcheck) scf=(maxcycle=1)
 ----------------------------------------------------------------------
 -----
 title
 -----
 Structure from the checkpoint file:  "BDE49_nonexpt_2079_mol1.chk"
 Charge =  0 Multiplicity = 1

                         Standard orientation:
 ---------------------------------------------------------------------
 Center     Atomic      Atomic             Coordinates (Angstroms)
 Number     Number       Type             X           Y           Z
 ---------------------------------------------------------------------
      1         14           0        2.427219    0.117617    0.000000
      2          8           0        0.807115    0.611546   -0.000004
      3          6           0       -0.146395   -0.361151   -0.000006
      4          8           0        0.158573   -1.541380    0.000001
      5          7           0       -1.413955    0.125410   -0.000005
      6          6           0       -1.744585    1.542789    0.000001
      7          1           0       -0.835194    2.134601   -0.000021
      8          1           0       -2.335921    1.794264    0.887657
      9          1           0       -2.335960    1.794258   -0.887630
     10          6           0       -2.528225   -0.810848    0.000007
     11          1           0       -3.151449   -0.662892    0.888695
     12          1           0       -2.135900   -1.824205    0.000000
     13          1           0       -3.151468   -0.662888   -0.888667
     14          1           0        3.146609    1.406538    0.000002
     15          1           0        2.752820   -0.645125   -1.218568
     16          1           0        2.752813   -0.645125    1.218570
 ---------------------------------------------------------------------

 SCF Done:  E(RHF) =  -612.184043889     A.U. after    2 cycles

 The electronic state is 1-A.
 Alpha  occ. eigenvalues --  -69.10121 -20.60150 -20.54118 -15.65973 -11.42196
 Alpha  occ. eigenvalues --  -11.27893 -11.27259  -6.84896  -3.95807  -3.95645
 Alpha  occ. eigenvalues --   -3.95618  -1.41126  -1.30463  -1.22261  -0.97647
 Alpha  occ. eigenvalues --   -0.95024  -0.80741  -0.72910  -0.71080  -0.68255
 Alpha  occ. eigenvalues --   -0.66529  -0.61974  -0.61190  -0.57990  -0.56615
 Alpha  occ. eigenvalues --   -0.56561  -0.53933  -0.51680  -0.47942  -0.47326
 Alpha  occ. eigenvalues --   -0.47221  -0.38515
 Alpha virt. eigenvalues --    0.03087   0.04085   0.04573   0.04709   0.05990
 Alpha virt. eigenvalues --    0.06668   0.07082   0.07882   0.07944   0.09074
 Alpha virt. eigenvalues --    0.10175   0.10223   0.11502   0.12329   0.13921

 Mulliken charges:
               1
     1  Si   0.320596
     2  O   -0.780421
     3  C    0.378229
     4  O   -0.442221
     5  N   -0.373143
     6  C    0.848950
     7  H   -0.258569
     8  H   -0.111566
     9  H   -0.111573
    10  C    0.817942
    11  H   -0.086542
    12  H   -0.232923
    13  H   -0.086546
    14  H    0.025170
    15  H    0.046308
    16  H    0.046309
 Sum of Mulliken charges =  -0.00000

 Dipole moment (field-independent basis, Debye):
    X=             -1.8589    Y=              2.4214    Z=             -0.0000  Tot=              3.0527

 Test job not archived.
 1\1\GINC-SE109\SP\RHF\Aug-CC-pVDZ\C3H9N1O2Si1\OHZDE\08-Apr-2025\0\\#t
 hf aug-cc-pvdz iop(5/13=1,5/36=2,99/5=2) pseudo=read geom=check guess=
 (read,tcheck) scf=(maxcycle=1)\\title\\0,1\Si,0,2.427219,0.117617,0.\O
 ,0,0.807115,0.611546,-0.000004\C,0,-0.146395,-0.361151,-0.000006\O,0,0
 .158573,-1.54138,0.000001\N,0,-1.413955,0.12541,-0.000005\C,0,-1.74458
 5,1.542789,0.000001\H,0,-0.835194,2.134601,-0.000021\H,0,-2.335921,1.7
 94264,0.887657\H,0,-2.33596,1.794258,-0.88763\C,0,-2.528225,-0.810848,
 0.000007\H,0,-3.151449,-0.662892,0.888695\H,0,-2.1359,-1.824205,0.\H,0

 Normal termination of Gaussian 16 at Tue Apr  8 23:58:37 2025.
