 Gaussian 16, Revision C.01,

 ----------------------------------------------------------------------
 #t hf aug-cc-pvdz symm=none int=(grid=ultrafine) guess=(read,tcheck) s
 table=(opt,rrhf)
 ----------------------------------------------------------------------
 -----
 title
 -----
 Symbolic Z-matrix:
 Charge =  0 Multiplicity = 1

 SCF Done:  E(RHF) =  -722.258888293     A.U. after   12 cycles
 Normal termination of Gaussian 16 at Wed Apr  9 00:29:12 2025.
 Gaussian 16:  ES64L-G16RevC.01  3-Jul-2019

 ----------------------------------------------------------------------
 #t hf aug-cc-pvdz iop(5/13=1,5/36=2,99/5=2) pseudo=read geom=check gue
 ss=(read,tcheck) scf=(maxcycle=1)
 ----------------------------------------------------------------------
 -----
 title
 -----
 Structure from the checkpoint file:  "BDE49_nonexpt_363_mol1.chk"
 Charge =  0 Multiplicity = 1

                         Standard orientation:
 ---------------------------------------------------------------------
 Center     Atomic      Atomic             Coordinates (Angstroms)
 Number     Number       Type             X           Y           Z
 ---------------------------------------------------------------------
      1          9           0        1.005358    1.330841   -0.000018
      2          9           0        2.175370   -0.601876    0.000032
      3          5           0        1.000842    0.014551   -0.000010
      4          6           0       -0.300325   -0.859722    0.000005
      5         17           0       -1.834890    0.091078   -0.000008
      6          1           0       -0.317845   -1.511706    0.876100
      7          1           0       -0.317846   -1.511730   -0.876073
 ---------------------------------------------------------------------

 SCF Done:  E(RHF) =  -722.382026930     A.U. after    2 cycles

 The electronic state is 1-A.
 Alpha  occ. eigenvalues -- -103.66488 -26.15479 -26.15263 -11.31094 -10.69726
 Alpha  occ. eigenvalues --   -8.35450  -8.35144  -8.35143  -7.76072  -1.70780
 Alpha  occ. eigenvalues --   -1.68556  -1.17105  -0.95972  -0.88668  -0.83699
 Alpha  occ. eigenvalues --   -0.79050  -0.78556  -0.73624  -0.73142  -0.63637
 Alpha  occ. eigenvalues --   -0.60376  -0.56547  -0.46127  -0.45702
 Alpha virt. eigenvalues --    0.03070   0.04577   0.05566   0.05818   0.07398
 Alpha virt. eigenvalues --    0.09201   0.09589   0.13580   0.13749   0.15072
 Alpha virt. eigenvalues --    0.16012   0.16728   0.17477   0.18601   0.19446

 Mulliken charges:
               1
     1  F   -0.385495
     2  F   -0.453244
     3  B    1.064031
     4  C    0.005382
     5  Cl  -0.233448
     6  H    0.001384
     7  H    0.001390
 Sum of Mulliken charges =  -0.00000

 Dipole moment (field-independent basis, Debye):
    X=              0.2930    Y=             -1.9951    Z=             -0.0001  Tot=              2.0165

 Test job not archived.
 1\1\GINC-SE247\SP\RHF\Aug-CC-pVDZ\C1H2B1Cl1F2\OHZDE\09-Apr-2025\0\\#t
 hf aug-cc-pvdz iop(5/13=1,5/36=2,99/5=2) pseudo=read geom=check guess=
 (read,tcheck) scf=(maxcycle=1)\\title\\0,1\F,0,1.005358,1.330841,-0.00
 0018\F,0,2.17537,-0.601876,0.000032\B,0,1.000842,0.014551,-0.00001\C,0
 ,-0.300325,-0.859722,0.000005\Cl,0,-1.83489,0.091078,-0.000008\H,0,-0.
 317845,-1.511706,0.8761\H,0,-0.317846,-1.51173,-0.876073\\Version=ES64
 L-G16RevC.01\State=1-A\HF=-722.3820269\RMSD=5.186e-03\Dipole=0.1152774
 ,-0.7849519,-0.0000215\Quadrupole=-3.8546563,0.8747308,2.9799256,0.242

 Normal termination of Gaussian 16 at Wed Apr  9 00:29:14 2025.
