 Gaussian 16, Revision C.01,

 ----------------------------------------------------------------------
 #t hf aug-cc-pvdz symm=none int=(grid=ultrafine) guess=(read,tcheck) s
 table=(opt,rrhf)
 ----------------------------------------------------------------------
 -----
 title
 -----
 Symbolic Z-matrix:
 Charge =  0 Multiplicity = 1

 SCF Done:  E(RHF) =  -1123.91008051     A.U. after   16 cycles
 Normal termination of Gaussian 16 at Tue Apr  8 23:23:22 2025.
 Gaussian 16:  ES64L-G16RevC.01  3-Jul-2019

 ----------------------------------------------------------------------
 #t hf aug-cc-pvdz iop(5/13=1,5/36=2,99/5=2) pseudo=read geom=check gue
 ss=(read,tcheck) scf=(maxcycle=1)
 ----------------------------------------------------------------------
 -----
 title
 -----
 Structure from the checkpoint file:  "BDE49_nonexpt_1245_mol1.chk"
 Charge =  0 Multiplicity = 1

                         Standard orientation:
 ---------------------------------------------------------------------
 Center     Atomic      Atomic             Coordinates (Angstroms)
 Number     Number       Type             X           Y           Z
 ---------------------------------------------------------------------
      1         17           0        2.308175   -0.901339   -0.939266
      2         15           0        1.368951   -0.259507    0.891689
      3          6           0        1.313678    1.586555    0.577958
      4          7           0        0.144743    1.850112   -0.251642
      5          1           0       -0.150492    2.809242   -0.360547
      6          6           0       -0.381928   -0.333592    0.431260
      7          6           0       -1.257306   -1.412905    0.568684
      8          1           0       -0.905356   -2.341613    1.004553
      9          6           0       -3.010897   -0.087704   -0.420832
     10          1           0       -4.040433    0.005107   -0.749133
     11          6           0       -0.827380    0.877736   -0.142179
     12          6           0       -2.575554   -1.292366    0.145123
     13          1           0       -3.263075   -2.122329    0.251996
     14          6           0       -2.156836    0.997658   -0.570515
     15          1           0       -2.511139    1.921167   -1.015286
     16          1           0        1.223402    2.050848    1.572428
     17          1           0        2.237997    1.929874    0.112660
 ---------------------------------------------------------------------

 SCF Done:  E(RHF) =  -1124.04272029     A.U. after    2 cycles

 The electronic state is 1-A.
 Alpha  occ. eigenvalues -- -103.63479 -81.31291 -15.65194 -11.30914 -11.29410
 Alpha  occ. eigenvalues --  -11.26617 -11.26546 -11.24892 -11.24747 -11.24188
 Alpha  occ. eigenvalues --  -10.66783  -8.32473  -8.32216  -8.32202  -7.81143
 Alpha  occ. eigenvalues --   -4.95069  -4.94969  -4.94723  -1.24273  -1.13612
 Alpha  occ. eigenvalues --   -1.11206  -1.02930  -1.00687  -0.94706  -0.85624
 Alpha  occ. eigenvalues --   -0.81683  -0.75688  -0.71275  -0.67302  -0.65279
 Alpha  occ. eigenvalues --   -0.64588  -0.61571  -0.60523  -0.55667  -0.53570
 Alpha  occ. eigenvalues --   -0.52516  -0.51149  -0.49274  -0.47096  -0.44676
 Alpha  occ. eigenvalues --   -0.43502  -0.37357  -0.34927  -0.30323
 Alpha virt. eigenvalues --    0.02800   0.03537   0.04064   0.05266   0.05431
 Alpha virt. eigenvalues --    0.06119   0.06620   0.07568   0.08809   0.09490
 Alpha virt. eigenvalues --    0.10457   0.11212   0.11868   0.12212   0.13133

 Mulliken charges:
               1
     1  Cl  -0.460863
     2  P    0.406141
     3  C    0.487803
     4  N   -0.556062
     5  H   -0.095097
     6  C   -0.433145
     7  C    0.590319
     8  H   -0.506141
     9  C    0.354883
    10  H   -0.434681
    11  C   -0.078683
    12  C    0.641505
    13  H   -0.463092
    14  C    1.470905
    15  H   -0.560639
    16  H   -0.122393
    17  H   -0.240758
 Sum of Mulliken charges =  -0.00000

 Dipole moment (field-independent basis, Debye):
    X=             -2.3197    Y=              2.8731    Z=              1.4242  Tot=              3.9577

 Test job not archived.
 1\1\GINC-SE333\SP\RHF\Aug-CC-pVDZ\C7H7Cl1N1P1\OHZDE\08-Apr-2025\0\\#t
 hf aug-cc-pvdz iop(5/13=1,5/36=2,99/5=2) pseudo=read geom=check guess=
 (read,tcheck) scf=(maxcycle=1)\\title\\0,1\Cl,0,2.308175,-0.901339,-0.
 939266\P,0,1.368951,-0.259507,0.891689\C,0,1.313678,1.586555,0.577958\
 N,0,0.144743,1.850112,-0.251642\H,0,-0.150492,2.809242,-0.360547\C,0,-
 0.381928,-0.333592,0.43126\C,0,-1.257306,-1.412905,0.568684\H,0,-0.905
 356,-2.341613,1.004553\C,0,-3.010897,-0.087704,-0.420832\H,0,-4.040433
 ,0.005107,-0.749133\C,0,-0.82738,0.877736,-0.142179\C,0,-2.575554,-1.2

 Normal termination of Gaussian 16 at Tue Apr  8 23:23:32 2025.
