 Gaussian 16, Revision C.01,

 ----------------------------------------------------------------------
 #t hf aug-cc-pvdz symm=none int=(grid=ultrafine) guess=(read,tcheck) s
 table=(opt,rrhf)
 ----------------------------------------------------------------------
 -----
 title
 -----
 Symbolic Z-matrix:
 Charge =  0 Multiplicity = 1

 SCF Done:  E(RHF) =  -554.847615253     A.U. after   13 cycles

 1\1\GINC-SE453\Stability\RHF\Aug-CC-pVDZ\C4H10S1\OHZDE\08-Apr-2025\0\\
 #t hf aug-cc-pvdz symm=none int=(grid=ultrafine) guess=(read,tcheck) s
 table=(opt,rrhf)\\title\\0,1\S,0,1.032759,-1.168519,-0.106747\C,0,0.23
 6444,0.443241,0.362209\C,0,1.237885,1.545265,0.007047\H,0,0.138511,-1.
 986067,0.472363\H,0,0.834162,2.5211,0.291636\H,0,1.435139,1.564642,-1.
 068819\C,0,-1.122587,0.670173,-0.312369\H,0,0.105598,0.419098,1.447622
 \C,0,-2.226736,-0.307633,0.094016\H,0,-1.440586,1.689594,-0.057411\H,0
 ,-0.985001,0.647044,-1.39862\H,0,-2.361829,-0.325702,1.180415\H,0,-2.0

 Normal termination of Gaussian 16 at Tue Apr  8 22:44:42 2025.
 Gaussian 16:  ES64L-G16RevC.01  3-Jul-2019

 ----------------------------------------------------------------------
 #t hf aug-cc-pvdz iop(5/13=1,5/36=2,99/5=2) pseudo=read geom=check gue
 ss=(read,tcheck) scf=(maxcycle=1)
 ----------------------------------------------------------------------
 -----
 title
 -----
 Structure from the checkpoint file:  "BDE49_expt_1550_mol1.chk"
 Charge =  0 Multiplicity = 1

                         Standard orientation:
 ---------------------------------------------------------------------
 Center     Atomic      Atomic             Coordinates (Angstroms)
 Number     Number       Type             X           Y           Z
 ---------------------------------------------------------------------
      1         16           0        1.032759   -1.168519   -0.106747
      2          6           0        0.236444    0.443241    0.362209
      3          6           0        1.237885    1.545265    0.007047
      4          1           0        0.138511   -1.986067    0.472363
      5          1           0        0.834162    2.521100    0.291636
      6          1           0        1.435139    1.564642   -1.068819
      7          6           0       -1.122587    0.670173   -0.312369
      8          1           0        0.105598    0.419098    1.447622
      9          6           0       -2.226736   -0.307633    0.094016
     10          1           0       -1.440586    1.689594   -0.057411
     11          1           0       -0.985001    0.647044   -1.398620
     12          1           0       -2.361829   -0.325702    1.180415
     13          1           0       -2.006894   -1.325158   -0.237921
     14          1           0       -3.181477   -0.018614   -0.352563
     15          1           0        2.188194    1.404095    0.525828
 ---------------------------------------------------------------------

 SCF Done:  E(RHF) =  -554.917840680     A.U. after    2 cycles

 The electronic state is 1-A.
 Alpha  occ. eigenvalues --  -93.52600 -11.27763 -11.23939 -11.23584 -11.22976
 Alpha  occ. eigenvalues --   -8.82346  -6.16530  -6.16298  -6.15969  -1.09137
 Alpha  occ. eigenvalues --   -0.99649  -0.93080  -0.86542  -0.77269  -0.64522
 Alpha  occ. eigenvalues --   -0.61185  -0.59689  -0.58314  -0.53180  -0.51583
 Alpha  occ. eigenvalues --   -0.49731  -0.48481  -0.47776  -0.43200  -0.35108
 Alpha virt. eigenvalues --    0.03450   0.04435   0.04718   0.05244   0.06627
 Alpha virt. eigenvalues --    0.06880   0.06934   0.07379   0.09294   0.09634
 Alpha virt. eigenvalues --    0.10784   0.12700   0.13486   0.14167   0.15258

 Mulliken charges:
               1
     1  S    0.241088
     2  C   -0.661246
     3  C    0.593809
     4  H    0.042493
     5  H   -0.048585
     6  H   -0.041392
     7  C    0.172515
     8  H   -0.213927
     9  C    0.437955
    10  H   -0.085506
    11  H   -0.131344
    12  H   -0.074128
    13  H   -0.088222
    14  H   -0.064140
    15  H   -0.079367
 Sum of Mulliken charges =   0.00000

 Dipole moment (field-independent basis, Debye):
    X=             -1.3267    Y=              1.1843    Z=              0.6698  Tot=              1.9003

 Test job not archived.
 1\1\GINC-SE453\SP\RHF\Aug-CC-pVDZ\C4H10S1\OHZDE\08-Apr-2025\0\\#t hf a
 ug-cc-pvdz iop(5/13=1,5/36=2,99/5=2) pseudo=read geom=check guess=(rea
 d,tcheck) scf=(maxcycle=1)\\title\\0,1\S,0,1.032759,-1.168519,-0.10674
 7\C,0,0.236444,0.443241,0.362209\C,0,1.237885,1.545265,0.007047\H,0,0.
 138511,-1.986067,0.472363\H,0,0.834162,2.5211,0.291636\H,0,1.435139,1.
 564642,-1.068819\C,0,-1.122587,0.670173,-0.312369\H,0,0.105598,0.41909
 8,1.447622\C,0,-2.226736,-0.307633,0.094016\H,0,-1.440586,1.689594,-0.
 057411\H,0,-0.985001,0.647044,-1.39862\H,0,-2.361829,-0.325702,1.18041

 Normal termination of Gaussian 16 at Tue Apr  8 22:44:46 2025.
