 Gaussian 16, Revision C.01,

 ----------------------------------------------------------------------
 #t hf aug-cc-pvdz symm=none int=(grid=ultrafine) guess=(read,tcheck) s
 table=(opt,rrhf)
 ----------------------------------------------------------------------
 -----
 title
 -----
 Symbolic Z-matrix:
 Charge =  0 Multiplicity = 1

 SCF Done:  E(RHF) =  -597.982535775     A.U. after   12 cycles
 Normal termination of Gaussian 16 at Tue Apr  8 22:43:26 2025.
 Gaussian 16:  ES64L-G16RevC.01  3-Jul-2019

 ----------------------------------------------------------------------
 #t hf aug-cc-pvdz iop(5/13=1,5/36=2,99/5=2) pseudo=read geom=check gue
 ss=(read,tcheck) scf=(maxcycle=1)
 ----------------------------------------------------------------------
 -----
 title
 -----
 Structure from the checkpoint file:  "BDE49_expt_1505_mol1.chk"
 Charge =  0 Multiplicity = 1

                         Standard orientation:
 ---------------------------------------------------------------------
 Center     Atomic      Atomic             Coordinates (Angstroms)
 Number     Number       Type             X           Y           Z
 ---------------------------------------------------------------------
      1          6           0        0.577808    0.575129    0.000005
      2          1           0        0.678746    1.166567    0.907444
      3          9           0        1.506397   -0.422153   -0.000003
      4          1           0        0.678745    1.166583   -0.907424
      5         17           0       -1.081289   -0.116738   -0.000001
 ---------------------------------------------------------------------

 SCF Done:  E(RHF) =  -598.051877236     A.U. after    2 cycles

 The electronic state is 1-A.
 Alpha  occ. eigenvalues -- -103.67044 -26.14538 -11.40604 -10.70377  -8.36092
 Alpha  occ. eigenvalues --   -8.35790  -8.35777  -1.68439  -1.17909  -0.96555
 Alpha  occ. eigenvalues --   -0.79254  -0.77962  -0.74731  -0.61687  -0.56047
 Alpha  occ. eigenvalues --   -0.48366  -0.46797
 Alpha virt. eigenvalues --    0.03376   0.05194   0.07547   0.09210   0.12891
 Alpha virt. eigenvalues --    0.15345   0.15614   0.15999   0.16311   0.21408
 Alpha virt. eigenvalues --    0.23367   0.26089   0.27051   0.29291   0.32369

 Mulliken charges:
               1
     1  C    0.514966
     2  H   -0.000836
     3  F   -0.352807
     4  H   -0.000835
     5  Cl  -0.160489
 Sum of Mulliken charges =  -0.00000

 Dipole moment (field-independent basis, Debye):
    X=              0.3716    Y=              2.2326    Z=              0.0000  Tot=              2.2633

 Test job not archived.
 1\1\GINC-SE038\SP\RHF\Aug-CC-pVDZ\C1H2Cl1F1\OHZDE\08-Apr-2025\0\\#t hf
  aug-cc-pvdz iop(5/13=1,5/36=2,99/5=2) pseudo=read geom=check guess=(r
 ead,tcheck) scf=(maxcycle=1)\\title\\0,1\C,0,0.577808,0.575129,0.00000
 5\H,0,0.678746,1.166567,0.907444\F,0,1.506397,-0.422153,-0.000003\H,0,
 0.678745,1.166583,-0.907424\Cl,0,-1.081289,-0.116738,-0.000001\\Versio
 n=ES64L-G16RevC.01\State=1-A\HF=-598.0518772\RMSD=4.257e-03\Dipole=0.1
 462018,0.8783851,0.0000072\Quadrupole=-1.6747257,0.9680178,0.706708,1.
 8665595,0.000016,0.0000017\PG=C01 [X(C1H2Cl1F1)]\\@

 Normal termination of Gaussian 16 at Tue Apr  8 22:43:27 2025.
