 Gaussian 16, Revision C.01,

 ----------------------------------------------------------------------
 #t hf aug-cc-pvdz symm=none int=(grid=ultrafine) guess=(read,tcheck) s
 table=opt
 ----------------------------------------------------------------------
 -----
 title
 -----
 Symbolic Z-matrix:
 Charge =  0 Multiplicity = 2

 SCF Done:  E(UHF) =  -300.900925818     A.U. after   25 cycles
 Normal termination of Gaussian 16 at Tue Apr  8 22:59:41 2025.
 Gaussian 16:  ES64L-G16RevC.01  3-Jul-2019

 ----------------------------------------------------------------------
 #t hf aug-cc-pvdz iop(5/13=1,5/36=2,99/5=2) pseudo=read geom=check gue
 ss=(read,tcheck) scf=(maxcycle=1)
 ----------------------------------------------------------------------
 -----
 title
 -----
 Structure from the checkpoint file:  "BDE49_expt_254_mol2.chk"
 Charge =  0 Multiplicity = 2

                         Standard orientation:
 ---------------------------------------------------------------------
 Center     Atomic      Atomic             Coordinates (Angstroms)
 Number     Number       Type             X           Y           Z
 ---------------------------------------------------------------------
      1          6           0        0.953662   -0.166818    0.406811
      2          6           0       -0.500793    0.131085    0.021793
      3          8           0       -0.909960    1.250479   -0.027532
      4          8           0        1.942609   -0.044090   -0.212994
      5          8           0       -1.278042   -0.959198   -0.085694
      6          1           0       -0.754073   -1.763132    0.038141
 ---------------------------------------------------------------------

 SCF Done:  E(UHF) =  -300.996964533     A.U. after    2 cycles

 The electronic state is 2-A.
 Alpha  occ. eigenvalues --  -20.67465 -20.67459 -20.61258 -11.46039 -11.40670
 Alpha  occ. eigenvalues --   -1.47999  -1.45908  -1.38679  -0.98536  -0.88114
 Alpha  occ. eigenvalues --   -0.78910  -0.73475  -0.72580  -0.68556  -0.65895
 Alpha  occ. eigenvalues --   -0.62626  -0.56379  -0.54112  -0.41940
 Alpha virt. eigenvalues --    0.02176   0.06157   0.07112   0.08280   0.09302
 Alpha virt. eigenvalues --    0.11671   0.11875   0.12206   0.13165   0.14607
 Alpha virt. eigenvalues --    0.18098   0.20278   0.20569   0.24145   0.24815

  Beta  occ. eigenvalues --  -20.67411 -20.66179 -20.60943 -11.45456 -11.38912
  Beta  occ. eigenvalues --   -1.46949  -1.43407  -1.38058  -0.93986  -0.86982
  Beta  occ. eigenvalues --   -0.75799  -0.72084  -0.69059  -0.66018  -0.62396
  Beta  occ. eigenvalues --   -0.58226  -0.53448  -0.52438
  Beta virt. eigenvalues --    0.01548   0.03767   0.07452   0.07798   0.08569
  Beta virt. eigenvalues --    0.09857   0.11875   0.12000   0.12447   0.13931
  Beta virt. eigenvalues --    0.17022   0.18511   0.20683   0.22439   0.24323

 Mulliken charges and spin densities:
               1          2
     1  C    0.106077   0.626332
     2  C    0.714183   0.105986
     3  O   -0.350553   0.060122
     4  O   -0.251171   0.197972
     5  O   -0.433579   0.008451
     6  H    0.215043   0.001137
 Sum of Mulliken charges =  -0.00000   1.00000

 Dipole moment (field-independent basis, Debye):
    X=              0.2930    Y=             -3.4646    Z=              0.8101  Tot=              3.5701
                          Isotropic Fermi Contact Couplings
        Atom                 a.u.       MegaHertz       Gauss      10(-4) cm-1
     1  C(13)              0.32291     363.00750     129.53010     121.08627
     2  C(13)              0.15364     172.72292      61.63183      57.61416
     3  O(17)              0.02917     -17.67990      -6.30863      -5.89738
     4  O(17)              0.12238     -74.18391     -26.47066     -24.74509
     5  O(17)              0.00261      -1.58111      -0.56418      -0.52740
     6  H(1)              -0.00001      -0.04440      -0.01584      -0.01481
 --------------------------------------------------------
       Center         ----  Spin Dipole Couplings  ----

 Normal termination of Gaussian 16 at Tue Apr  8 22:59:43 2025.
