 Gaussian 16, Revision C.01,

 ----------------------------------------------------------------------
 #t hf aug-cc-pvdz symm=none int=(grid=ultrafine) guess=(read,tcheck) s
 table=opt
 ----------------------------------------------------------------------
 -----
 title
 -----
 Symbolic Z-matrix:
 Charge =  0 Multiplicity = 2

 SCF Done:  E(UHF) =  -460.350937477     A.U. after   15 cycles
 Normal termination of Gaussian 16 at Wed Apr  9 00:33:18 2025.
 Gaussian 16:  ES64L-G16RevC.01  3-Jul-2019

 ----------------------------------------------------------------------
 #t hf aug-cc-pvdz iop(5/13=1,5/36=2,99/5=2) pseudo=read geom=check gue
 ss=(read,tcheck) scf=(maxcycle=1)
 ----------------------------------------------------------------------
 -----
 title
 -----
 Structure from the checkpoint file:  "BDE49_nonexpt_447_mol2.chk"
 Charge =  0 Multiplicity = 2

                         Standard orientation:
 ---------------------------------------------------------------------
 Center     Atomic      Atomic             Coordinates (Angstroms)
 Number     Number       Type             X           Y           Z
 ---------------------------------------------------------------------
      1          9           0        2.152345   -0.010516    0.042135
      2          9           0       -0.820421    1.100534   -0.637010
      3          9           0       -0.373511   -1.030730   -0.809919
      4          9           0       -1.294941   -0.261143    1.002899
      5          6           0       -0.386446    0.013910    0.048367
      6          5           0        1.069485    0.346648    0.665371
 ---------------------------------------------------------------------

 SCF Done:  E(UHF) =  -460.523853101     A.U. after    2 cycles

 The electronic state is 2-A.
 Alpha  occ. eigenvalues --  -26.18951 -26.17781 -26.17665 -26.17502 -11.52646
 Alpha  occ. eigenvalues --   -7.76329  -1.76874  -1.73516  -1.70025  -1.69907
 Alpha  occ. eigenvalues --   -1.04715  -0.91809  -0.88657  -0.88599  -0.87665
 Alpha  occ. eigenvalues --   -0.81350  -0.79030  -0.78030  -0.77847  -0.73884
 Alpha  occ. eigenvalues --   -0.73760  -0.72701  -0.63447  -0.42309
 Alpha virt. eigenvalues --    0.02700   0.05009   0.05422   0.05682   0.07439
 Alpha virt. eigenvalues --    0.11350   0.12381   0.12928   0.19190   0.20414
 Alpha virt. eigenvalues --    0.22247   0.22786   0.24795   0.25800   0.26775

  Beta  occ. eigenvalues --  -26.18655 -26.17794 -26.17710 -26.17374 -11.52281
  Beta  occ. eigenvalues --   -7.74233  -1.76762  -1.72665  -1.70103  -1.69659
  Beta  occ. eigenvalues --   -1.03917  -0.90714  -0.88528  -0.88414  -0.86539
  Beta  occ. eigenvalues --   -0.79265  -0.78824  -0.78110  -0.77269  -0.73903
  Beta  occ. eigenvalues --   -0.73704  -0.72650  -0.60261
  Beta virt. eigenvalues --    0.02245   0.04139   0.05421   0.05589   0.08780
  Beta virt. eigenvalues --    0.09331   0.11996   0.13292   0.13582   0.19417
  Beta virt. eigenvalues --    0.21135   0.22531   0.23931   0.25649   0.26825

 Mulliken charges and spin densities:
               1          2
     1  F   -0.194793  -0.060022
     2  F   -0.340002  -0.000085
     3  F   -0.356286   0.014589
     4  F   -0.315407  -0.009606
     5  C    0.873431   0.044848
     6  B    0.333056   1.010274
 Sum of Mulliken charges =  -0.00000   1.00000

 Dipole moment (field-independent basis, Debye):
    X=              1.1454    Y=              0.4307    Z=              1.0575  Tot=              1.6173
                          Isotropic Fermi Contact Couplings
        Atom                 a.u.       MegaHertz       Gauss      10(-4) cm-1
     1  F(19)              0.06302     265.16967      94.61913      88.45108
     2  F(19)             -0.00338     -14.22539      -5.07597      -4.74508
     3  F(19)              0.02183      91.85743      32.77702      30.64034
     4  F(19)             -0.00806     -33.92128     -12.10396     -11.31492
     5  C(13)              0.09309     104.65605      37.34388      34.90950
     6  B(11)              0.40896     586.59617     209.31210     195.66742
 --------------------------------------------------------
       Center         ----  Spin Dipole Couplings  ----

 Normal termination of Gaussian 16 at Wed Apr  9 00:33:21 2025.
