 Gaussian 16, Revision C.01,

 ----------------------------------------------------------------------
 #t hf aug-cc-pvdz symm=none int=(grid=ultrafine) guess=(read,tcheck) s
 table=(opt,rrhf)
 ----------------------------------------------------------------------
 -----
 title
 -----
 Symbolic Z-matrix:
 Charge =  0 Multiplicity = 1

 SCF Done:  E(RHF) =  -544.475317983     A.U. after   12 cycles
 Normal termination of Gaussian 16 at Wed Apr  9 00:43:44 2025.
 Gaussian 16:  ES64L-G16RevC.01  3-Jul-2019

 ----------------------------------------------------------------------
 #t hf aug-cc-pvdz iop(5/13=1,5/36=2,99/5=2) pseudo=read geom=check gue
 ss=(read,tcheck) scf=(maxcycle=1)
 ----------------------------------------------------------------------
 -----
 title
 -----
 Structure from the checkpoint file:  "BDE49_nonexpt_784_mol1.chk"
 Charge =  0 Multiplicity = 1

                         Standard orientation:
 ---------------------------------------------------------------------
 Center     Atomic      Atomic             Coordinates (Angstroms)
 Number     Number       Type             X           Y           Z
 ---------------------------------------------------------------------
      1         14           0        0.751101   -0.000002   -0.446623
      2          5           0       -1.234006   -0.000011    0.022176
      3          8           0       -2.257714   -0.000007   -0.892102
      4          8           0       -1.575603    0.000007    1.342901
      5          6           0        1.603872   -1.547970    0.219572
      6          1           0        1.166994   -2.456971   -0.203185
      7          1           0        1.499557   -1.603492    1.306945
      8          6           0        1.603858    1.547979    0.219559
      9          1           0        1.499543    1.603509    1.306932
     10          1           0        1.166972    2.456972   -0.203205
     11          1           0        2.671378    1.546012   -0.019448
     12          1           0        2.671391   -1.545995   -0.019435
     13          1           0       -1.951459   -0.000007   -1.802601
     14          1           0       -2.533643    0.000010    1.470674
     15          1           0        0.884041   -0.000008   -1.936011
 ---------------------------------------------------------------------

 SCF Done:  E(RHF) =  -544.588085951     A.U. after    2 cycles

 The electronic state is 1-A.
 Alpha  occ. eigenvalues --  -69.03956 -20.58735 -20.58013 -11.21093 -11.21088
 Alpha  occ. eigenvalues --   -7.65452  -6.79339  -3.90125  -3.90100  -3.90061
 Alpha  occ. eigenvalues --   -1.34607  -1.30755  -0.94591  -0.91726  -0.78443
 Alpha  occ. eigenvalues --   -0.75083  -0.66333  -0.60932  -0.59048  -0.58406
 Alpha  occ. eigenvalues --   -0.56360  -0.56269  -0.54312  -0.54281  -0.52181
 Alpha  occ. eigenvalues --   -0.44498  -0.43445  -0.39999
 Alpha virt. eigenvalues --    0.02953   0.04459   0.04752   0.04914   0.06487
 Alpha virt. eigenvalues --    0.06530   0.06787   0.07056   0.07218   0.09458
 Alpha virt. eigenvalues --    0.09687   0.09887   0.09918   0.11496   0.11676

 Mulliken charges:
               1
     1  Si   0.454275
     2  B    0.905216
     3  O   -0.504430
     4  O   -0.521777
     5  C    0.333051
     6  H   -0.322644
     7  H   -0.135502
     8  C    0.333048
     9  H   -0.135501
    10  H   -0.322647
    11  H   -0.268775
    12  H   -0.268778
    13  H    0.182278
    14  H    0.172540
    15  H    0.099643
 Sum of Mulliken charges =  -0.00000

 Dipole moment (field-independent basis, Debye):
    X=             -0.1434    Y=             -0.0000    Z=             -0.8357  Tot=              0.8480

 Test job not archived.
 1\1\GINC-SE179\SP\RHF\Aug-CC-pVDZ\C2H9B1O2Si1\OHZDE\09-Apr-2025\0\\#t
 hf aug-cc-pvdz iop(5/13=1,5/36=2,99/5=2) pseudo=read geom=check guess=
 (read,tcheck) scf=(maxcycle=1)\\title\\0,1\Si,0,0.751101,-0.000002,-0.
 446623\B,0,-1.234006,-0.000011,0.022176\O,0,-2.257714,-0.000007,-0.892
 102\O,0,-1.575603,0.000007,1.342901\C,0,1.603872,-1.54797,0.219572\H,0
 ,1.166994,-2.456971,-0.203185\H,0,1.499557,-1.603492,1.306945\C,0,1.60
 3858,1.547979,0.219559\H,0,1.499543,1.603509,1.306932\H,0,1.166972,2.4
 56972,-0.203205\H,0,2.671378,1.546012,-0.019448\H,0,2.671391,-1.545995

 Normal termination of Gaussian 16 at Wed Apr  9 00:43:50 2025.
