 Gaussian 16, Revision C.01,

 ----------------------------------------------------------------------
 #t hf aug-cc-pvdz symm=none int=(grid=ultrafine) guess=(read,tcheck) s
 table=(opt,rrhf)
 ----------------------------------------------------------------------
 -----
 title
 -----
 Symbolic Z-matrix:
 Charge =  0 Multiplicity = 1

 SCF Done:  E(RHF) =  -1440.37497190     A.U. after   16 cycles
 Normal termination of Gaussian 16 at Tue Apr  8 23:25:10 2025.
 Gaussian 16:  ES64L-G16RevC.01  3-Jul-2019

 ----------------------------------------------------------------------
 #t hf aug-cc-pvdz iop(5/13=1,5/36=2,99/5=2) pseudo=read geom=check gue
 ss=(read,tcheck) scf=(maxcycle=1)
 ----------------------------------------------------------------------
 -----
 title
 -----
 Structure from the checkpoint file:  "BDE49_nonexpt_1253_mol1.chk"
 Charge =  0 Multiplicity = 1

                         Standard orientation:
 ---------------------------------------------------------------------
 Center     Atomic      Atomic             Coordinates (Angstroms)
 Number     Number       Type             X           Y           Z
 ---------------------------------------------------------------------
      1         17           0        3.398956    0.215534    0.041325
      2         15           0        1.494716    0.102946   -0.899251
      3          6           0        0.511954   -0.197078    0.696783
      4          7           0        0.695892   -1.529486    1.251842
      5          1           0        1.670470   -1.802873    1.202968
      6          1           0        0.413653   -1.560770    2.226851
      7          6           0       -0.985124   -0.011989    0.486225
      8          9           0       -1.670640   -0.197939    1.625576
      9          7           0       -1.363708    1.418894    0.003195
     10          8           0       -2.182814    1.513689   -0.883198
     11          8           0       -0.822685    2.316058    0.617780
     12          7           0       -1.538184   -0.990914   -0.566751
     13          8           0       -2.527677   -1.617296   -0.295338
     14          8           0       -0.890891   -1.020994   -1.602564
     15          1           0        1.614067   -1.261467   -1.236183
     16          1           0        0.808128    0.631590    1.352918
 ---------------------------------------------------------------------

 SCF Done:  E(RHF) =  -1440.61107395     A.U. after    2 cycles

 The electronic state is 1-A.
 Alpha  occ. eigenvalues -- -103.67540 -81.34981 -26.22316 -20.67921 -20.67764
 Alpha  occ. eigenvalues --  -20.67302 -20.66615 -15.97298 -15.96932 -15.66763
 Alpha  occ. eigenvalues --  -11.51865 -11.35419 -10.70844  -8.36542  -8.36280
 Alpha  occ. eigenvalues --   -8.36262  -7.84753  -4.98643  -4.98544  -4.98254
 Alpha  occ. eigenvalues --   -1.77050  -1.61358  -1.60138  -1.43090  -1.42772
 Alpha  occ. eigenvalues --   -1.23719  -1.16293  -1.15287  -1.00760  -0.99094
 Alpha  occ. eigenvalues --   -0.92254  -0.87490  -0.86869  -0.84196  -0.79860
 Alpha  occ. eigenvalues --   -0.79104  -0.78966  -0.77931  -0.76650  -0.76281
 Alpha  occ. eigenvalues --   -0.70054  -0.69720  -0.66308  -0.58613  -0.58158
 Alpha  occ. eigenvalues --   -0.56425  -0.56340  -0.54779  -0.53884  -0.52682
 Alpha  occ. eigenvalues --   -0.51465  -0.50767  -0.48026  -0.45463  -0.39919
 Alpha virt. eigenvalues --    0.02332   0.02914   0.03350   0.04320   0.05145
 Alpha virt. eigenvalues --    0.06062   0.07560   0.07708   0.09087   0.10122
 Alpha virt. eigenvalues --    0.10911   0.12101   0.12122   0.13109   0.13296

 Mulliken charges:
               1
     1  Cl  -0.491384
     2  P    0.328527
     3  C    0.356521
     4  N   -0.337955
     5  H   -0.005829
     6  H    0.034754
     7  C    1.703944
     8  F   -0.268830
     9  N    0.204682
    10  O   -0.505651
    11  O   -0.541664
    12  N    0.200399
    13  O   -0.481938
    14  O   -0.538527
    15  H    0.363921
    16  H   -0.020969
 Sum of Mulliken charges =  -0.00000

 Dipole moment (field-independent basis, Debye):
    X=              2.0935    Y=             -1.3296    Z=              2.3366  Tot=              3.4074

 Test job not archived.
 1\1\GINC-SE086\SP\RHF\Aug-CC-pVDZ\C2H4Cl1F1N3O4P1\OHZDE\08-Apr-2025\0\
 \#t hf aug-cc-pvdz iop(5/13=1,5/36=2,99/5=2) pseudo=read geom=check gu
 ess=(read,tcheck) scf=(maxcycle=1)\\title\\0,1\Cl,0,3.398956,0.215533,
 0.041325\P,0,1.494716,0.102946,-0.899251\C,0,0.511954,-0.197078,0.6967
 83\N,0,0.695892,-1.529486,1.251842\H,0,1.67047,-1.802873,1.202968\H,0,
 0.413653,-1.56077,2.226851\C,0,-0.985124,-0.011989,0.486225\F,0,-1.670
 64,-0.197939,1.625576\N,0,-1.363708,1.418894,0.003195\O,0,-2.182814,1.
 513689,-0.883198\O,0,-0.822685,2.316058,0.61778\N,0,-1.538184,-0.99091

 Normal termination of Gaussian 16 at Tue Apr  8 23:25:21 2025.
