 Gaussian 16, Revision C.01,

 ----------------------------------------------------------------------
 #t hf aug-cc-pvdz symm=none int=(grid=ultrafine) guess=(read,tcheck) s
 table=opt
 ----------------------------------------------------------------------
 -----
 title
 -----
 Symbolic Z-matrix:
 Charge =  0 Multiplicity = 2

 SCF Done:  E(UHF) =  -479.527326470     A.U. after   15 cycles
 Normal termination of Gaussian 16 at Tue Apr  8 23:41:13 2025.
 Gaussian 16:  ES64L-G16RevC.01  3-Jul-2019

 ----------------------------------------------------------------------
 #t hf aug-cc-pvdz iop(5/13=1,5/36=2,99/5=2) pseudo=read geom=check gue
 ss=(read,tcheck) scf=(maxcycle=1)
 ----------------------------------------------------------------------
 -----
 title
 -----
 Structure from the checkpoint file:  "BDE49_nonexpt_1677_mol2.chk"
 Charge =  0 Multiplicity = 2

                         Standard orientation:
 ---------------------------------------------------------------------
 Center     Atomic      Atomic             Coordinates (Angstroms)
 Number     Number       Type             X           Y           Z
 ---------------------------------------------------------------------
      1         14           0       -0.065488   -0.013760   -0.402501
      2          8           0       -0.530884    1.458431    0.187750
      3          6           0        1.716164   -0.215793    0.163399
      4          1           0        2.122889   -1.180423   -0.148993
      5          1           0        1.753954   -0.151971    1.256117
      6          1           0        2.340894    0.576544   -0.255398
      7          1           0       -1.472143    1.650693    0.203762
      8          8           0       -1.082355   -1.139426    0.286361
      9          1           0       -1.219830   -1.959489   -0.193764
 ---------------------------------------------------------------------

 SCF Done:  E(UHF) =  -479.628422340     A.U. after    2 cycles

 The electronic state is 2-A.
 Alpha  occ. eigenvalues --  -69.11670 -20.57626 -20.57122 -11.22126  -6.86139
 Alpha  occ. eigenvalues --   -3.97338  -3.96794  -3.96620  -1.31653  -1.29512
 Alpha  occ. eigenvalues --   -0.94637  -0.76386  -0.71684  -0.62167  -0.58991
 Alpha  occ. eigenvalues --   -0.56507  -0.56237  -0.54737  -0.54063  -0.49248
 Alpha  occ. eigenvalues --   -0.32134
 Alpha virt. eigenvalues --    0.03325   0.04750   0.04980   0.05890   0.06933
 Alpha virt. eigenvalues --    0.07537   0.08579   0.09502   0.12799   0.14971
 Alpha virt. eigenvalues --    0.16018   0.16339   0.17196   0.18178   0.20338

  Beta  occ. eigenvalues --  -69.11177 -20.57229 -20.56771 -11.21771  -6.85344
  Beta  occ. eigenvalues --   -3.96494  -3.96356  -3.95531  -1.30505  -1.28403
  Beta  occ. eigenvalues --   -0.93540  -0.75487  -0.71260  -0.58948  -0.57990
  Beta  occ. eigenvalues --   -0.55961  -0.55297  -0.53129  -0.52704  -0.46641
  Beta virt. eigenvalues --    0.02291   0.04880   0.05071   0.05739   0.06917
  Beta virt. eigenvalues --    0.07211   0.07782   0.09213   0.10048   0.14289
  Beta virt. eigenvalues --    0.15788   0.16118   0.17506   0.18696   0.18993

 Mulliken charges and spin densities:
               1          2
     1  Si   1.631562   0.886320
     2  O   -0.771295   0.029390
     3  C    0.223885   0.103695
     4  H   -0.197709  -0.015321
     5  H   -0.164859   0.008228
     6  H   -0.180476  -0.009891
     7  H    0.129523  -0.005752
     8  O   -0.808994   0.029870
     9  H    0.138363  -0.026540
 Sum of Mulliken charges =  -0.00000   1.00000

 Dipole moment (field-independent basis, Debye):
    X=             -0.3642    Y=             -1.2778    Z=             -1.1699  Tot=              1.7703
                          Isotropic Fermi Contact Couplings
        Atom                 a.u.       MegaHertz       Gauss      10(-4) cm-1
     1  Si(29)             0.64898    -576.76486    -205.80405    -192.38805
     2  O(17)              0.04605     -27.91732      -9.96159      -9.31222
     3  C(13)              0.07730      86.90388      31.00947      28.98802
     4  H(1)              -0.00210      -9.37465      -3.34511      -3.12705
     5  H(1)               0.00508      22.69471       8.09804       7.57014
     6  H(1)              -0.00215      -9.61042      -3.42924      -3.20569
     7  H(1)              -0.00187      -8.37112      -2.98702      -2.79230
     8  O(17)              0.05144     -31.18112     -11.12620     -10.40090

 Normal termination of Gaussian 16 at Tue Apr  8 23:41:16 2025.
