 Gaussian 16, Revision C.01,

 ----------------------------------------------------------------------
 #t hf aug-cc-pvdz symm=none int=(grid=ultrafine) guess=(read,tcheck) s
 table=(opt,rrhf)
 ----------------------------------------------------------------------
 -----
 title
 -----
 Symbolic Z-matrix:
 Charge =  0 Multiplicity = 1

 SCF Done:  E(RHF) =  -879.656754918     A.U. after   14 cycles
 Normal termination of Gaussian 16 at Wed Apr  9 00:14:59 2025.
 Gaussian 16:  ES64L-G16RevC.01  3-Jul-2019

 ----------------------------------------------------------------------
 #t hf aug-cc-pvdz iop(5/13=1,5/36=2,99/5=2) pseudo=read geom=check gue
 ss=(read,tcheck) scf=(maxcycle=1)
 ----------------------------------------------------------------------
 -----
 title
 -----
 Structure from the checkpoint file:  "BDE49_nonexpt_2515_mol1.chk"
 Charge =  0 Multiplicity = 1

                         Standard orientation:
 ---------------------------------------------------------------------
 Center     Atomic      Atomic             Coordinates (Angstroms)
 Number     Number       Type             X           Y           Z
 ---------------------------------------------------------------------
      1         14           0       -1.592131   -0.356089   -0.415120
      2         16           0        0.351594   -1.132658    0.225477
      3          6           0        1.338325    0.360360   -0.090963
      4          6           0        2.812630    0.187761    0.198121
      5          6           0       -2.242867    1.001936    0.692996
      6          1           0       -2.325040    0.657129    1.726488
      7          1           0       -3.237461    1.309079    0.354178
      8          1           0       -1.581941    1.868991    0.659884
      9          8           0        0.847767    1.382153   -0.498676
     10          1           0        3.233757   -0.572779   -0.464279
     11          1           0        2.962119   -0.151294    1.225748
     12          1           0        3.319987    1.138780    0.038852
     13          1           0       -2.440863   -1.566746   -0.321930
     14          1           0       -1.496904    0.067042   -1.826402
 ---------------------------------------------------------------------

 SCF Done:  E(RHF) =  -879.760304028     A.U. after    2 cycles

 The electronic state is 1-A.
 Alpha  occ. eigenvalues --  -93.53491 -69.08909 -20.58353 -11.38708 -11.26017
 Alpha  occ. eigenvalues --  -11.22238  -8.83525  -6.83907  -6.17647  -6.17425
 Alpha  occ. eigenvalues --   -6.17185  -3.94739  -3.94638  -3.94605  -1.38090
 Alpha  occ. eigenvalues --   -1.03876  -0.96509  -0.93872  -0.75908  -0.68393
 Alpha  occ. eigenvalues --   -0.65738  -0.63265  -0.62548  -0.57502  -0.56639
 Alpha  occ. eigenvalues --   -0.55743  -0.54030  -0.47842  -0.47025  -0.44161
 Alpha  occ. eigenvalues --   -0.41894  -0.37847
 Alpha virt. eigenvalues --    0.03338   0.04209   0.04973   0.05213   0.06259
 Alpha virt. eigenvalues --    0.06459   0.06827   0.08282   0.08513   0.09127
 Alpha virt. eigenvalues --    0.10484   0.11133   0.11659   0.12799   0.13335

 Mulliken charges:
               1
     1  Si   0.852440
     2  S   -0.272482
     3  C   -0.152677
     4  C    0.296141
     5  C    0.221918
     6  H   -0.177501
     7  H   -0.209914
     8  H   -0.161029
     9  O   -0.441976
    10  H    0.065297
    11  H    0.055410
    12  H   -0.060091
    13  H   -0.053472
    14  H    0.037936
 Sum of Mulliken charges =  -0.00000

 Dipole moment (field-independent basis, Debye):
    X=              0.7065    Y=             -0.6866    Z=              0.9261  Tot=              1.3521

 Test job not archived.
 1\1\GINC-SE150\SP\RHF\Aug-CC-pVDZ\C3H8O1S1Si1\OHZDE\09-Apr-2025\0\\#t
 hf aug-cc-pvdz iop(5/13=1,5/36=2,99/5=2) pseudo=read geom=check guess=
 (read,tcheck) scf=(maxcycle=1)\\title\\0,1\Si,0,-1.592131,-0.356089,-0
 .41512\S,0,0.351594,-1.132658,0.225477\C,0,1.338325,0.36036,-0.090963\
 C,0,2.81263,0.187761,0.198121\C,0,-2.242867,1.001936,0.692996\H,0,-2.3
 2504,0.657129,1.726488\H,0,-3.237461,1.309079,0.354178\H,0,-1.581941,1
 .868991,0.659884\O,0,0.847767,1.382153,-0.498676\H,0,3.233757,-0.57277
 9,-0.464279\H,0,2.962119,-0.151294,1.225748\H,0,3.319987,1.13878,0.038

 Normal termination of Gaussian 16 at Wed Apr  9 00:15:05 2025.
