 Gaussian 16, Revision C.01,

 ----------------------------------------------------------------------
 #t hf aug-cc-pvdz symm=none int=(grid=ultrafine) guess=(read,tcheck) s
 table=(opt,rrhf)
 ----------------------------------------------------------------------
 -----
 title
 -----
 Symbolic Z-matrix:
 Charge =  0 Multiplicity = 1

 SCF Done:  E(RHF) =  -695.953737785     A.U. after   15 cycles
 Normal termination of Gaussian 16 at Wed Apr  9 00:46:19 2025.
 Gaussian 16:  ES64L-G16RevC.01  3-Jul-2019

 ----------------------------------------------------------------------
 #t hf aug-cc-pvdz iop(5/13=1,5/36=2,99/5=2) pseudo=read geom=check gue
 ss=(read,tcheck) scf=(maxcycle=1)
 ----------------------------------------------------------------------
 -----
 title
 -----
 Structure from the checkpoint file:  "BDE49_nonexpt_828_mol1.chk"
 Charge =  0 Multiplicity = 1

                         Standard orientation:
 ---------------------------------------------------------------------
 Center     Atomic      Atomic             Coordinates (Angstroms)
 Number     Number       Type             X           Y           Z
 ---------------------------------------------------------------------
      1          6           0        2.318241    1.270464    0.600367
      2          6           0        1.035555    0.764646    0.802736
      3          6           0        3.232898    0.558640   -0.173553
      4          6           0        2.858783   -0.657965   -0.739733
      5          6           0        1.574904   -1.160132   -0.533720
      6          6           0        0.635850   -0.462126    0.242102
      7          1           0        1.301409   -2.110275   -0.981025
      8          1           0        4.231679    0.949562   -0.332693
      9          1           0        3.567337   -1.217085   -1.341136
     10          1           0        2.604367    2.215881    1.048315
     11          1           0        0.342058    1.330405    1.419512
     12          5           0       -2.428343    0.297868   -0.213437
     13          8           0       -3.766431    0.087137   -0.089255
     14          8           0       -2.003905    1.453187   -0.812318
     15          1           0       -1.045232    1.519907   -0.872457
     16          1           0       -4.285935    0.810649   -0.463961
     17         14           0       -1.124175   -1.102105    0.493603
     18          1           0       -1.248550   -2.392030   -0.232097
     19          1           0       -1.361667   -1.370633    1.935676
 ---------------------------------------------------------------------

 SCF Done:  E(RHF) =  -696.103434992     A.U. after    2 cycles

 The electronic state is 1-A.
 Alpha  occ. eigenvalues --  -69.05025 -20.58843 -20.58312 -11.25705 -11.25554
 Alpha  occ. eigenvalues --  -11.25477 -11.25393 -11.25249 -11.24088  -7.66132
 Alpha  occ. eigenvalues --   -6.80522  -3.91286  -3.91257  -3.91189  -1.34824
 Alpha  occ. eigenvalues --   -1.31090  -1.14739  -1.01743  -1.01439  -0.83397
 Alpha  occ. eigenvalues --   -0.83159  -0.78757  -0.75651  -0.72633  -0.67881
 Alpha  occ. eigenvalues --   -0.63945  -0.63586  -0.62167  -0.59908  -0.59236
 Alpha  occ. eigenvalues --   -0.58683  -0.55625  -0.52443  -0.51659  -0.50356
 Alpha  occ. eigenvalues --   -0.47219  -0.45485  -0.41970  -0.34932  -0.34405
 Alpha virt. eigenvalues --    0.02971   0.03745   0.04030   0.04793   0.05584
 Alpha virt. eigenvalues --    0.05832   0.06816   0.07069   0.07213   0.07429
 Alpha virt. eigenvalues --    0.08381   0.08862   0.09557   0.09618   0.10202

 Mulliken charges:
               1
     1  C    0.515048
     2  C    0.807118
     3  C    0.663076
     4  C    0.627135
     5  C    0.500850
     6  C   -0.544243
     7  H   -0.597454
     8  H   -0.437314
     9  H   -0.447554
    10  H   -0.454375
    11  H   -0.649131
    12  B    1.032243
    13  O   -0.485194
    14  O   -0.531112
    15  H    0.225659
    16  H    0.191757
    17  Si  -0.635017
    18  H    0.045242
    19  H    0.173265
 Sum of Mulliken charges =  -0.00000

 Dipole moment (field-independent basis, Debye):
    X=              1.6768    Y=              1.1052    Z=             -0.6236  Tot=              2.1028

 Test job not archived.
 1\1\GINC-SE339\SP\RHF\Aug-CC-pVDZ\C6H9B1O2Si1\OHZDE\09-Apr-2025\0\\#t
 hf aug-cc-pvdz iop(5/13=1,5/36=2,99/5=2) pseudo=read geom=check guess=
 (read,tcheck) scf=(maxcycle=1)\\title\\0,1\C,0,-2.318241,-1.270464,0.6
 00367\C,0,-1.035555,-0.764646,0.802736\C,0,-3.232898,-0.55864,-0.17355
 3\C,0,-2.858783,0.657965,-0.739733\C,0,-1.574904,1.160132,-0.53372\C,0
 ,-0.63585,0.462126,0.242102\H,0,-1.301409,2.110275,-0.981025\H,0,-4.23
 1679,-0.949562,-0.332693\H,0,-3.567337,1.217085,-1.341136\H,0,-2.60436
 7,-2.215881,1.048315\H,0,-0.342058,-1.330405,1.419512\B,0,2.428343,-0.

 Normal termination of Gaussian 16 at Wed Apr  9 00:46:30 2025.
