 Gaussian 16, Revision C.01,

 ----------------------------------------------------------------------
 #t hf aug-cc-pvdz symm=none int=(grid=ultrafine) guess=(read,tcheck) s
 table=(opt,rrhf)
 ----------------------------------------------------------------------
 -----
 title
 -----
 Symbolic Z-matrix:
 Charge =  0 Multiplicity = 1

 SCF Done:  E(RHF) =  -572.039554015     A.U. after   16 cycles
 Normal termination of Gaussian 16 at Tue Apr  8 23:25:22 2025.
 Gaussian 16:  ES64L-G16RevC.01  3-Jul-2019

 ----------------------------------------------------------------------
 #t hf aug-cc-pvdz iop(5/13=1,5/36=2,99/5=2) pseudo=read geom=check gue
 ss=(read,tcheck) scf=(maxcycle=1)
 ----------------------------------------------------------------------
 -----
 title
 -----
 Structure from the checkpoint file:  "BDE49_nonexpt_1292_mol1.chk"
 Charge =  0 Multiplicity = 1

                         Standard orientation:
 ---------------------------------------------------------------------
 Center     Atomic      Atomic             Coordinates (Angstroms)
 Number     Number       Type             X           Y           Z
 ---------------------------------------------------------------------
      1          6           0       -1.630600   -1.196658    0.000291
      2          6           0       -0.235474   -1.205629   -0.001550
      3          6           0        0.488295   -0.008243   -0.001212
      4          6           0       -2.318308    0.012538    0.001171
      5          6           0       -1.608034    1.213683    0.000443
      6          6           0       -0.216975    1.203489   -0.000505
      7          1           0       -2.175737   -2.133937    0.000316
      8          1           0        0.295577   -2.151496   -0.003706
      9          1           0        0.324415    2.143003   -0.000622
     10          1           0       -3.402496    0.022747    0.001985
     11          1           0       -2.140009    2.158709    0.000742
     12         15           0        2.336213   -0.120013   -0.002873
     13          1           0        2.590315    0.791532    1.055938
     14          1           0        2.591309    0.854542   -1.003393
 ---------------------------------------------------------------------

 SCF Done:  E(RHF) =  -572.128116388     A.U. after    2 cycles

 The electronic state is 1-A.
 Alpha  occ. eigenvalues --  -81.25882 -11.25624 -11.25379 -11.25345 -11.25296
 Alpha  occ. eigenvalues --  -11.25093 -11.25008  -7.76225  -4.90271  -4.90130
 Alpha  occ. eigenvalues --   -4.89947  -1.14814  -1.01898  -1.01635  -0.84729
 Alpha  occ. eigenvalues --   -0.83428  -0.77279  -0.70021  -0.63896  -0.63446
 Alpha  occ. eigenvalues --   -0.59770  -0.56371  -0.53716  -0.50436  -0.49471
 Alpha  occ. eigenvalues --   -0.47414  -0.35968  -0.34676  -0.34438
 Alpha virt. eigenvalues --    0.03280   0.04063   0.04361   0.05737   0.06209
 Alpha virt. eigenvalues --    0.06827   0.07553   0.08829   0.09041   0.09982
 Alpha virt. eigenvalues --    0.11417   0.11548   0.12946   0.13204   0.14406

 Mulliken charges:
               1
     1  C    0.614392
     2  C    0.183524
     3  C   -0.163043
     4  C    0.398243
     5  C    0.596616
     6  C    0.562529
     7  H   -0.432703
     8  H   -0.470431
     9  H   -0.483802
    10  H   -0.426398
    11  H   -0.439333
    12  P   -0.182238
    13  H    0.123989
    14  H    0.118656
 Sum of Mulliken charges =  -0.00000

 Dipole moment (field-independent basis, Debye):
    X=             -1.1055    Y=              0.6161    Z=              0.0175  Tot=              1.2657

 Test job not archived.
 1\1\GINC-SE102\SP\RHF\Aug-CC-pVDZ\C6H7P1\OHZDE\08-Apr-2025\0\\#t hf au
 g-cc-pvdz iop(5/13=1,5/36=2,99/5=2) pseudo=read geom=check guess=(read
 ,tcheck) scf=(maxcycle=1)\\title\\0,1\C,0,-1.6306,-1.196658,0.000291\C
 ,0,-0.235474,-1.205629,-0.00155\C,0,0.488295,-0.008243,-0.001212\C,0,-
 2.318308,0.012538,0.001171\C,0,-1.608034,1.213683,0.000443\C,0,-0.2169
 75,1.203489,-0.000505\H,0,-2.175737,-2.133937,0.000316\H,0,0.295577,-2
 .151496,-0.003706\H,0,0.324415,2.143003,-0.000622\H,0,-3.402496,0.0227
 47,0.001985\H,0,-2.140009,2.158709,0.000742\P,0,2.336213,-0.120013,-0.

 Normal termination of Gaussian 16 at Tue Apr  8 23:25:27 2025.
