 Gaussian 16, Revision C.01,

 ----------------------------------------------------------------------
 #t hf aug-cc-pvdz symm=none int=(grid=ultrafine) guess=(read,tcheck) s
 table=(opt,rrhf)
 ----------------------------------------------------------------------
 -----
 title
 -----
 Symbolic Z-matrix:
 Charge =  0 Multiplicity = 1

 SCF Done:  E(RHF) =  -271.207996446     A.U. after   12 cycles

 1\1\GINC-SE016\Stability\RHF\Aug-CC-pVDZ\C5H12O1\OHZDE\08-Apr-2025\0\\
 #t hf aug-cc-pvdz symm=none int=(grid=ultrafine) guess=(read,tcheck) s
 table=(opt,rrhf)\\title\\0,1\C,0,2.928052,-0.378828,-0.122899\C,0,1.46
 9162,-0.384006,0.340667\H,0,3.476719,-1.235146,0.278633\H,0,3.446756,0
 .529228,0.201489\H,0,2.995264,-0.424803,-1.214382\C,0,0.664842,0.80344
 5,-0.199902\H,0,1.432381,-0.372035,1.437227\H,0,0.980248,-1.310006,0.0
 26182\C,0,-0.798495,0.791449,0.217472\H,0,0.710346,0.813088,-1.294988\
 H,0,1.111662,1.744825,0.143005\O,0,-1.423899,-0.356623,-0.333222\H,0,-

 Normal termination of Gaussian 16 at Tue Apr  8 22:40:55 2025.
 Gaussian 16:  ES64L-G16RevC.01  3-Jul-2019

 ----------------------------------------------------------------------
 #t hf aug-cc-pvdz iop(5/13=1,5/36=2,99/5=2) pseudo=read geom=check gue
 ss=(read,tcheck) scf=(maxcycle=1)
 ----------------------------------------------------------------------
 -----
 title
 -----
 Structure from the checkpoint file:  "BDE49_expt_1375_mol1.chk"
 Charge =  0 Multiplicity = 1

                         Standard orientation:
 ---------------------------------------------------------------------
 Center     Atomic      Atomic             Coordinates (Angstroms)
 Number     Number       Type             X           Y           Z
 ---------------------------------------------------------------------
      1          6           0        2.928052   -0.378828   -0.122899
      2          6           0        1.469162   -0.384006    0.340667
      3          1           0        3.476719   -1.235146    0.278633
      4          1           0        3.446756    0.529228    0.201489
      5          1           0        2.995264   -0.424803   -1.214382
      6          6           0        0.664842    0.803445   -0.199902
      7          1           0        1.432381   -0.372035    1.437227
      8          1           0        0.980248   -1.310006    0.026182
      9          6           0       -0.798495    0.791449    0.217472
     10          1           0        0.710346    0.813088   -1.294988
     11          1           0        1.111662    1.744825    0.143005
     12          8           0       -1.423899   -0.356623   -0.333222
     13          1           0       -1.305936    1.701954   -0.138687
     14          1           0       -0.884303    0.776093    1.316936
     15          6           0       -2.783753   -0.470642    0.025746
     16          1           0       -2.910798   -0.555965    1.115156
     17          1           0       -3.169969   -1.374653   -0.446541
     18          1           0       -3.370032    0.391897   -0.324752
 ---------------------------------------------------------------------

 SCF Done:  E(RHF) =  -271.297471602     A.U. after    2 cycles

 The electronic state is 1-A.
 Alpha  occ. eigenvalues --  -20.56642 -11.28153 -11.28037 -11.22525 -11.22133
 Alpha  occ. eigenvalues --  -11.21852  -1.32977  -1.05935  -0.98268  -0.90916
 Alpha  occ. eigenvalues --   -0.84798  -0.78645  -0.67215  -0.66494  -0.63832
 Alpha  occ. eigenvalues --   -0.61294  -0.57621  -0.56230  -0.52804  -0.51784
 Alpha  occ. eigenvalues --   -0.49713  -0.47307  -0.46515  -0.46126  -0.42985
 Alpha virt. eigenvalues --    0.03602   0.04345   0.04679   0.04931   0.06188
 Alpha virt. eigenvalues --    0.06425   0.06547   0.07247   0.07888   0.08886
 Alpha virt. eigenvalues --    0.09143   0.09992   0.12727   0.13612   0.14319

 Mulliken charges:
               1
     1  C    0.404674
     2  C    0.178985
     3  H   -0.061672
     4  H   -0.079045
     5  H   -0.065848
     6  C    0.061386
     7  H   -0.157458
     8  H   -0.107360
     9  C    0.728703
    10  H   -0.129058
    11  H   -0.095461
    12  O   -0.641517
    13  H   -0.133141
    14  H   -0.178126
    15  C    0.718907
    16  H   -0.090055
    17  H   -0.268929
    18  H   -0.084984
 Sum of Mulliken charges =   0.00000

 Dipole moment (field-independent basis, Debye):
    X=             -0.6997    Y=              0.8703    Z=              0.8177  Tot=              1.3840

 Test job not archived.
 1\1\GINC-SE016\SP\RHF\Aug-CC-pVDZ\C5H12O1\OHZDE\08-Apr-2025\0\\#t hf a
 ug-cc-pvdz iop(5/13=1,5/36=2,99/5=2) pseudo=read geom=check guess=(rea
 d,tcheck) scf=(maxcycle=1)\\title\\0,1\C,0,2.928052,-0.378828,-0.12289
 9\C,0,1.469162,-0.384006,0.340667\H,0,3.476719,-1.235146,0.278633\H,0,
 3.446756,0.529228,0.201489\H,0,2.995264,-0.424803,-1.214382\C,0,0.6648
 42,0.803445,-0.199902\H,0,1.432381,-0.372035,1.437227\H,0,0.980248,-1.
 310006,0.026182\C,0,-0.798495,0.791449,0.217472\H,0,0.710346,0.813088,
 -1.294988\H,0,1.111662,1.744825,0.143005\O,0,-1.423899,-0.356623,-0.33

 Normal termination of Gaussian 16 at Tue Apr  8 22:41:01 2025.
