 Gaussian 16, Revision C.01,

 ----------------------------------------------------------------------
 #t hf aug-cc-pvdz symm=none int=(grid=ultrafine) guess=(read,tcheck) s
 table=opt
 ----------------------------------------------------------------------
 -----
 title
 -----
 Symbolic Z-matrix:
 Charge =  0 Multiplicity = 2

 SCF Done:  E(UHF) =  -153.482432489     A.U. after   22 cycles
 Normal termination of Gaussian 16 at Tue Apr  8 22:39:25 2025.
 Gaussian 16:  ES64L-G16RevC.01  3-Jul-2019

 ----------------------------------------------------------------------
 #t hf aug-cc-pvdz iop(5/13=1,5/36=2,99/5=2) pseudo=read geom=check gue
 ss=(read,tcheck) scf=(maxcycle=1)
 ----------------------------------------------------------------------
 -----
 title
 -----
 Structure from the checkpoint file:  "BDE49_expt_1364_mol2.chk"
 Charge =  0 Multiplicity = 2

                         Standard orientation:
 ---------------------------------------------------------------------
 Center     Atomic      Atomic             Coordinates (Angstroms)
 Number     Number       Type             X           Y           Z
 ---------------------------------------------------------------------
      1          6           0        0.181169    0.478537   -0.000011
      2          8           0        1.255267   -0.365230   -0.000013
      3          6           0       -1.188986   -0.194599   -0.000001
      4          1           0        0.301375    1.160988   -0.865718
      5          1           0        0.301455    1.160721    0.865910
      6          1           0       -1.302770   -0.825673   -0.884614
      7          1           0       -1.992626    0.548031    0.000113
      8          1           0       -1.302669   -0.825862    0.884489
 ---------------------------------------------------------------------

 SCF Done:  E(UHF) =  -153.533084394     A.U. after    2 cycles

 The electronic state is 2-A.
 Alpha  occ. eigenvalues --  -20.63137 -11.29583 -11.23414  -1.37242  -1.00720
 Alpha  occ. eigenvalues --   -0.84780  -0.72661  -0.66645  -0.62264  -0.58197
 Alpha  occ. eigenvalues --   -0.54587  -0.48912  -0.47864
 Alpha virt. eigenvalues --    0.03513   0.04895   0.05076   0.05940   0.07815
 Alpha virt. eigenvalues --    0.11123   0.11984   0.14185   0.14276   0.16081
 Alpha virt. eigenvalues --    0.16982   0.17192   0.19924   0.22185   0.26958

  Beta  occ. eigenvalues --  -20.59093 -11.29898 -11.23420  -1.24523  -0.99053
  Beta  occ. eigenvalues --   -0.82598  -0.63974  -0.62636  -0.59741  -0.53883
  Beta  occ. eigenvalues --   -0.51206  -0.45044
  Beta virt. eigenvalues --    0.03526   0.04902   0.05078   0.05953   0.06910
  Beta virt. eigenvalues --    0.08924   0.11227   0.12006   0.14197   0.15078
  Beta virt. eigenvalues --    0.16096   0.17049   0.17263   0.19958   0.22244

 Mulliken charges and spin densities:
               1          2
     1  C    0.491209  -0.168467
     2  O   -0.429508   1.037201
     3  C    0.203884  -0.007098
     4  H   -0.087521   0.068792
     5  H   -0.087484   0.068910
     6  H   -0.035130   0.000434
     7  H   -0.020332  -0.000196
     8  H   -0.035118   0.000424
 Sum of Mulliken charges =  -0.00000   1.00000

 Dipole moment (field-independent basis, Debye):
    X=             -1.6275    Y=              1.2434    Z=              0.0002  Tot=              2.0481
                          Isotropic Fermi Contact Couplings
        Atom                 a.u.       MegaHertz       Gauss      10(-4) cm-1
     1  C(13)             -0.05514     -61.99143     -22.12008     -20.67812
     2  O(17)              0.28574    -173.21511     -61.80746     -57.77834
     3  C(13)             -0.00234      -2.63241      -0.93931      -0.87808
     4  H(1)               0.02703     120.80958      43.10786      40.29774
     5  H(1)               0.02707     121.02100      43.18330      40.36826
     6  H(1)              -0.00040      -1.80241      -0.64314      -0.60122
     7  H(1)              -0.00095      -4.24952      -1.51633      -1.41749
     8  H(1)              -0.00040      -1.80149      -0.64282      -0.60091

 Normal termination of Gaussian 16 at Tue Apr  8 22:39:26 2025.
