 Gaussian 16, Revision C.01,

 ----------------------------------------------------------------------
 #t hf aug-cc-pvdz symm=none int=(grid=ultrafine) guess=(read,tcheck) s
 table=opt
 ----------------------------------------------------------------------
 -----
 title
 -----
 Symbolic Z-matrix:
 Charge =  0 Multiplicity = 2

 SCF Done:  E(UHF) =  -100.699916209     A.U. after   14 cycles
 Normal termination of Gaussian 16 at Tue Apr  8 23:58:20 2025.
 Gaussian 16:  ES64L-G16RevC.01  3-Jul-2019

 ----------------------------------------------------------------------
 #t hf aug-cc-pvdz iop(5/13=1,5/36=2,99/5=2) pseudo=read geom=check gue
 ss=(read,tcheck) scf=(maxcycle=1)
 ----------------------------------------------------------------------
 -----
 title
 -----
 Structure from the checkpoint file:  "BDE49_nonexpt_20_mol2.chk"
 Charge =  0 Multiplicity = 2

                         Standard orientation:
 ---------------------------------------------------------------------
 Center     Atomic      Atomic             Coordinates (Angstroms)
 Number     Number       Type             X           Y           Z
 ---------------------------------------------------------------------
      1          5           0        0.767248   -0.186605   -0.000001
      2          8           0       -0.558816   -0.077088    0.000000
      3          1           0       -0.914833    0.823671    0.000001
      4          1           0        1.549122    0.726062   -0.000001
 ---------------------------------------------------------------------

 SCF Done:  E(UHF) =  -100.737419051     A.U. after    2 cycles

 The electronic state is 2-A.
 Alpha  occ. eigenvalues --  -20.60972  -7.66617  -1.35345  -0.80212  -0.67301
 Alpha  occ. eigenvalues --   -0.57566  -0.57116  -0.33442
 Alpha virt. eigenvalues --    0.03465   0.04928   0.05817   0.06070   0.08772
 Alpha virt. eigenvalues --    0.12195   0.13286   0.18340   0.21623   0.21817
 Alpha virt. eigenvalues --    0.24382   0.26226   0.27269   0.32848   0.34865

  Beta  occ. eigenvalues --  -20.60952  -7.64695  -1.35135  -0.78338  -0.65450
  Beta  occ. eigenvalues --   -0.58109  -0.53647
  Beta virt. eigenvalues --    0.03432   0.05096   0.05303   0.06136   0.08520
  Beta virt. eigenvalues --    0.09854   0.16045   0.17172   0.19111   0.21791
  Beta virt. eigenvalues --    0.21841   0.25431   0.27626   0.28047   0.34203

 Mulliken charges and spin densities:
               1          2
     1  B   -0.021458   1.008155
     2  O   -0.350657  -0.089586
     3  H    0.181597   0.030696
     4  H    0.190517   0.050734
 Sum of Mulliken charges =  -0.00000   1.00000

 Dipole moment (field-independent basis, Debye):
    X=             -0.4344    Y=              2.0720    Z=              0.0000  Tot=              2.1170
                          Isotropic Fermi Contact Couplings
        Atom                 a.u.       MegaHertz       Gauss      10(-4) cm-1
     1  B(11)              0.33173     475.82374     169.78574     158.71772
     2  O(17)              0.10496     -63.62333     -22.70239     -21.22246
     3  H(1)               0.01709      76.38927      27.25759      25.48072
     4  H(1)               0.02706     120.97033      43.16522      40.35136
 --------------------------------------------------------
       Center         ----  Spin Dipole Couplings  ----
                      3XX-RR        3YY-RR        3ZZ-RR
 --------------------------------------------------------

 Normal termination of Gaussian 16 at Tue Apr  8 23:58:21 2025.
