 Gaussian 16, Revision C.01,

 ----------------------------------------------------------------------
 #t hf aug-cc-pvdz symm=none int=(grid=ultrafine) guess=(read,tcheck) s
 table=(opt,rrhf)
 ----------------------------------------------------------------------
 -----
 title
 -----
 Symbolic Z-matrix:
 Charge =  0 Multiplicity = 1

 SCF Done:  E(RHF) =  -724.345611961     A.U. after   17 cycles
 Normal termination of Gaussian 16 at Wed Apr  9 00:01:39 2025.
 Gaussian 16:  ES64L-G16RevC.01  3-Jul-2019

 ----------------------------------------------------------------------
 #t hf aug-cc-pvdz iop(5/13=1,5/36=2,99/5=2) pseudo=read geom=check gue
 ss=(read,tcheck) scf=(maxcycle=1)
 ----------------------------------------------------------------------
 -----
 title
 -----
 Structure from the checkpoint file:  "BDE49_nonexpt_2152_mol1.chk"
 Charge =  0 Multiplicity = 1

                         Standard orientation:
 ---------------------------------------------------------------------
 Center     Atomic      Atomic             Coordinates (Angstroms)
 Number     Number       Type             X           Y           Z
 ---------------------------------------------------------------------
      1          6           0       -2.518763    1.208019   -0.276431
      2          6           0       -1.215010    1.208650    0.210432
      3          6           0       -3.170113    0.000117   -0.520328
      4          6           0       -2.518872   -1.207895   -0.276698
      5          6           0       -1.215116   -1.208748    0.210164
      6          6           0       -0.543498   -0.000108    0.458880
      7          1           0       -0.717619    2.154525    0.397377
      8          7           0        2.336069    0.000080   -0.401053
      9          8           0        2.661202   -1.087589   -0.869793
     10          8           0        2.660924    1.087981   -0.869465
     11          1           0       -3.026141    2.147216   -0.464806
     12          1           0       -3.026332   -2.147006   -0.465279
     13          1           0       -4.186148    0.000205   -0.898756
     14          1           0       -0.717812   -2.154710    0.396901
     15         14           0        1.197348   -0.000240    1.091160
     16          1           0        1.534959   -1.232614    1.821577
     17          1           0        1.534959    1.231838    1.822072
 ---------------------------------------------------------------------

 SCF Done:  E(RHF) =  -724.499825930     A.U. after    2 cycles

 The electronic state is 1-A.
 Alpha  occ. eigenvalues --  -69.12993 -20.61266 -20.61256 -15.87612 -11.27639
 Alpha  occ. eigenvalues --  -11.27634 -11.27327 -11.26585 -11.26578 -11.26253
 Alpha  occ. eigenvalues --   -6.88085  -3.98892  -3.98761  -3.98754  -1.52530
 Alpha  occ. eigenvalues --   -1.34894  -1.16513  -1.03439  -1.03412  -0.93364
 Alpha  occ. eigenvalues --   -0.85095  -0.84843  -0.78868  -0.73530  -0.72371
 Alpha  occ. eigenvalues --   -0.70080  -0.67513  -0.65430  -0.64670  -0.61607
 Alpha  occ. eigenvalues --   -0.57612  -0.53931  -0.53096  -0.52069  -0.49903
 Alpha  occ. eigenvalues --   -0.48834  -0.46914  -0.46378  -0.36856  -0.36307
 Alpha virt. eigenvalues --    0.02631   0.03542   0.03668   0.05096   0.05286
 Alpha virt. eigenvalues --    0.05688   0.05866   0.06932   0.08150   0.08193
 Alpha virt. eigenvalues --    0.08498   0.09958   0.10101   0.10824   0.12200

 Mulliken charges:
               1
     1  C    0.793918
     2  C    0.318062
     3  C    0.564369
     4  C    0.793942
     5  C    0.318104
     6  C   -0.514231
     7  H   -0.600610
     8  N    0.353588
     9  O   -0.576811
    10  O   -0.576817
    11  H   -0.434546
    12  H   -0.434546
    13  H   -0.433636
    14  H   -0.600602
    15  Si   1.025935
    16  H    0.001938
    17  H    0.001943
 Sum of Mulliken charges =  -0.00000

 Dipole moment (field-independent basis, Debye):
    X=             -4.5606    Y=             -0.0007    Z=              3.0547  Tot=              5.4891

 Test job not archived.
 1\1\GINC-SE402\SP\RHF\Aug-CC-pVDZ\C6H7N1O2Si1\OHZDE\09-Apr-2025\0\\#t
 hf aug-cc-pvdz iop(5/13=1,5/36=2,99/5=2) pseudo=read geom=check guess=
 (read,tcheck) scf=(maxcycle=1)\\title\\0,1\C,0,2.518763,-1.208019,-0.2
 76431\C,0,1.21501,-1.20865,0.210432\C,0,3.170113,-0.000117,-0.520328\C
 ,0,2.518872,1.207895,-0.276698\C,0,1.215116,1.208748,0.210164\C,0,0.54
 3498,0.000108,0.45888\H,0,0.717619,-2.154525,0.397377\N,0,-2.336069,-0
 .00008,-0.401053\O,0,-2.661202,1.087589,-0.869793\O,0,-2.660924,-1.087
 981,-0.869465\H,0,3.026141,-2.147216,-0.464806\H,0,3.026332,2.147006,-

 Normal termination of Gaussian 16 at Wed Apr  9 00:01:48 2025.
