 Gaussian 16, Revision C.01,

 ----------------------------------------------------------------------
 #t hf aug-cc-pvdz symm=none int=(grid=ultrafine) guess=(read,tcheck) s
 table=opt
 ----------------------------------------------------------------------
 -----
 title
 -----
 Symbolic Z-matrix:
 Charge =  0 Multiplicity = 2

 SCF Done:  E(UHF) =  -697.442751912     a.u. after    9 cycles
 Normal termination of Gaussian 16 at Tue Apr  8 23:16:07 2025.
 Gaussian 16:  ES64L-G16RevC.01  3-Jul-2019

 ----------------------------------------------------------------------
 #t hf aug-cc-pvdz iop(5/13=1,5/36=2,99/5=2) pseudo=read geom=check gue
 ss=(read,tcheck) scf=(maxcycle=1)
 ----------------------------------------------------------------------
 -----
 title
 -----
 Structure from the checkpoint file:  "BDE49_nonexpt_1041_mol2.chk"
 Charge =  0 Multiplicity = 2

                         Standard orientation:
 ---------------------------------------------------------------------
 Center     Atomic      Atomic             Coordinates (Angstroms)
 Number     Number       Type             X           Y           Z
 ---------------------------------------------------------------------
      1          8           0        0.704337   -0.609975    1.147306
      2         16           0        0.077543    0.082222   -0.000002
      3          8           0        0.109043    1.507119   -0.000014
      4          8           0        0.704329   -0.609998   -1.147298
      5          8           0       -1.475844   -0.294232    0.000008
      6          1           0       -1.575600   -1.258863    0.000014
 ---------------------------------------------------------------------

 SCF Done:  E(UHF) =  -697.637004069     A.U. after    2 cycles

 The electronic state is 2-A.
 Alpha  occ. eigenvalues --  -93.90403 -20.76198 -20.68731 -20.63219 -20.61474
 Alpha  occ. eigenvalues --   -9.16089  -6.50833  -6.50703  -6.50627  -1.59639
 Alpha  occ. eigenvalues --   -1.45543  -1.39866  -1.36957  -0.94575  -0.86808
 Alpha  occ. eigenvalues --   -0.82566  -0.78721  -0.75865  -0.69112  -0.67158
 Alpha  occ. eigenvalues --   -0.64517  -0.61673  -0.58361  -0.57281  -0.54841
 Alpha virt. eigenvalues --    0.02462   0.08230   0.09146   0.09486   0.12094
 Alpha virt. eigenvalues --    0.16086   0.17927   0.19208   0.19663   0.19971
 Alpha virt. eigenvalues --    0.23814   0.25324   0.25624   0.26714   0.27343

  Beta  occ. eigenvalues --  -93.90511 -20.72456 -20.68772 -20.61868 -20.61325
  Beta  occ. eigenvalues --   -9.16238  -6.51057  -6.50859  -6.50785  -1.55105
  Beta  occ. eigenvalues --   -1.40855  -1.37431  -1.32905  -0.92751  -0.83040
  Beta  occ. eigenvalues --   -0.77246  -0.75744  -0.68935  -0.66292  -0.62737
  Beta  occ. eigenvalues --   -0.58410  -0.57067  -0.53881  -0.52459
  Beta virt. eigenvalues --   -0.07149   0.02488   0.08510   0.09419   0.09609
  Beta virt. eigenvalues --    0.12146   0.16086   0.17923   0.19308   0.19811
  Beta virt. eigenvalues --    0.20281   0.24141   0.25753   0.26486   0.26949

 Mulliken charges and spin densities:
               1          2
     1  O   -0.457715   0.938137
     2  S    2.459637  -0.231602
     3  O   -0.754928   0.027551
     4  O   -0.774149   0.271662
     5  O   -0.645870  -0.005924
     6  H    0.173026   0.000174
 Sum of Mulliken charges =  -0.00000   1.00000

 Dipole moment (field-independent basis, Debye):
    X=             -1.7575    Y=             -2.8251    Z=              1.8469  Tot=              3.8054
                          Isotropic Fermi Contact Couplings
        Atom                 a.u.       MegaHertz       Gauss      10(-4) cm-1
     1  O(17)              0.22411    -135.85651     -48.47698     -45.31685
     2  S(33)             -0.13941     -47.88376     -17.08612     -15.97230
     3  O(17)              0.00659      -3.99209      -1.42448      -1.33162
     4  O(17)              0.07526     -45.62330     -16.27953     -15.21830
     5  O(17)             -0.00591       3.58375       1.27877       1.19541
     6  H(1)               0.00009       0.39665       0.14154       0.13231
 --------------------------------------------------------
       Center         ----  Spin Dipole Couplings  ----

 Normal termination of Gaussian 16 at Tue Apr  8 23:16:09 2025.
