 Gaussian 16, Revision C.01,

 ----------------------------------------------------------------------
 #t hf aug-cc-pvdz symm=none int=(grid=ultrafine) guess=(read,tcheck) s
 table=(opt,rrhf)
 ----------------------------------------------------------------------
 -----
 title
 -----
 Symbolic Z-matrix:
 Charge =  0 Multiplicity = 1

 SCF Done:  E(RHF) =  -1207.93150570     A.U. after   16 cycles
 Normal termination of Gaussian 16 at Tue Apr  8 23:28:21 2025.
 Gaussian 16:  ES64L-G16RevC.01  3-Jul-2019

 ----------------------------------------------------------------------
 #t hf aug-cc-pvdz iop(5/13=1,5/36=2,99/5=2) pseudo=read geom=check gue
 ss=(read,tcheck) scf=(maxcycle=1)
 ----------------------------------------------------------------------
 -----
 title
 -----
 Structure from the checkpoint file:  "BDE49_nonexpt_1314_mol1.chk"
 Charge =  0 Multiplicity = 1

                         Standard orientation:
 ---------------------------------------------------------------------
 Center     Atomic      Atomic             Coordinates (Angstroms)
 Number     Number       Type             X           Y           Z
 ---------------------------------------------------------------------
      1         15           0       -1.173598   -0.537749   -0.414368
      2          6           0       -0.014230    0.647237    0.438851
      3          7           0       -2.757475    0.476372   -0.139861
      4          8           0       -2.693542    1.698081   -0.109740
      5          8           0       -3.792511   -0.171097   -0.111806
      6          6           0       -1.511383   -1.780341    0.901475
      7          1           0       -0.653588   -2.453016    0.934515
      8          1           0       -2.400650   -2.342774    0.618659
      9          1           0       -1.664678   -1.325220    1.881576
     10         15           0        1.554575    0.903735   -0.498760
     11          1           0        0.164571    0.368718    1.480201
     12          1           0       -0.530848    1.614335    0.414191
     13          7           0        2.276169   -0.803972   -0.212778
     14          8           0        1.489993   -1.748715   -0.203490
     15          8           0        3.487385   -0.903648   -0.137525
     16          6           0        2.591684    1.794600    0.734444
     17          1           0        2.272003    2.839983    0.740669
     18          1           0        3.630483    1.753110    0.405940
     19          1           0        2.510173    1.382325    1.741517
 ---------------------------------------------------------------------

 SCF Done:  E(RHF) =  -1208.14118176     A.U. after    2 cycles

 The electronic state is 1-A.
 Alpha  occ. eigenvalues --  -81.34780 -81.33896 -20.64082 -20.63602 -20.62078
 Alpha  occ. eigenvalues --  -20.62065 -15.91466 -15.89671 -11.29363 -11.28277
 Alpha  occ. eigenvalues --  -11.26696  -7.84726  -7.83728  -4.98774  -4.98548
 Alpha  occ. eigenvalues --   -4.98220  -4.97762  -4.97538  -4.97213  -1.55837
 Alpha  occ. eigenvalues --   -1.54096  -1.38108  -1.36374  -1.06073  -1.01842
 Alpha  occ. eigenvalues --   -0.97549  -0.95020  -0.93035  -0.82134  -0.80004
 Alpha  occ. eigenvalues --   -0.75383  -0.73540  -0.73395  -0.71681  -0.70961
 Alpha  occ. eigenvalues --   -0.68070  -0.63862  -0.62061  -0.61259  -0.60244
 Alpha  occ. eigenvalues --   -0.59648  -0.56780  -0.53001  -0.52155  -0.49756
 Alpha  occ. eigenvalues --   -0.49431  -0.48852  -0.47682  -0.47584  -0.40319
 Alpha  occ. eigenvalues --   -0.38976
 Alpha virt. eigenvalues --    0.02388   0.03520   0.04515   0.04806   0.05516
 Alpha virt. eigenvalues --    0.06170   0.06350   0.07026   0.07313   0.07871
 Alpha virt. eigenvalues --    0.08383   0.08811   0.08965   0.10462   0.11371

 Mulliken charges:
               1
     1  P    1.081315
     2  C   -0.050629
     3  N    0.441039
     4  O   -0.597957
     5  O   -0.592016
     6  C    0.212001
     7  H   -0.079274
     8  H   -0.107567
     9  H   -0.130865
    10  P    1.015899
    11  H   -0.301657
    12  H   -0.038493
    13  N    0.377967
    14  O   -0.552298
    15  O   -0.579407
    16  C    0.193369
    17  H   -0.089643
    18  H   -0.085001
    19  H   -0.116784
 Sum of Mulliken charges =   0.00000

 Dipole moment (field-independent basis, Debye):
    X=              2.8904    Y=              1.8037    Z=              2.3399  Tot=              4.1331

 Test job not archived.
 1\1\GINC-SE187\SP\RHF\Aug-CC-pVDZ\C3H8N2O4P2\OHZDE\08-Apr-2025\0\\#t h
 f aug-cc-pvdz iop(5/13=1,5/36=2,99/5=2) pseudo=read geom=check guess=(
 read,tcheck) scf=(maxcycle=1)\\title\\0,1\P,0,-1.173598,-0.537749,-0.4
 14368\C,0,-0.01423,0.647237,0.438851\N,0,-2.757475,0.476372,-0.139861\
 O,0,-2.693542,1.698081,-0.10974\O,0,-3.792511,-0.171097,-0.111806\C,0,
 -1.511383,-1.780341,0.901475\H,0,-0.653588,-2.453016,0.934515\H,0,-2.4
 0065,-2.342774,0.618659\H,0,-1.664678,-1.32522,1.881576\P,0,1.554575,0
 .903735,-0.49876\H,0,0.164571,0.368718,1.480201\H,0,-0.530848,1.614335

 Normal termination of Gaussian 16 at Tue Apr  8 23:28:34 2025.
