 Gaussian 16, Revision C.01,

 ----------------------------------------------------------------------
 #t hf aug-cc-pvdz symm=none int=(grid=ultrafine) guess=(read,tcheck) s
 table=opt
 ----------------------------------------------------------------------
 -----
 title
 -----
 Symbolic Z-matrix:
 Charge =  0 Multiplicity = 2

 SCF Done:  E(UHF) =  -543.802946486     A.U. after   16 cycles
 Normal termination of Gaussian 16 at Wed Apr  9 00:13:05 2025.
 Gaussian 16:  ES64L-G16RevC.01  3-Jul-2019

 ----------------------------------------------------------------------
 #t hf aug-cc-pvdz iop(5/13=1,5/36=2,99/5=2) pseudo=read geom=check gue
 ss=(read,tcheck) scf=(maxcycle=1)
 ----------------------------------------------------------------------
 -----
 title
 -----
 Structure from the checkpoint file:  "BDE49_nonexpt_2454_mol2.chk"
 Charge =  0 Multiplicity = 2

                         Standard orientation:
 ---------------------------------------------------------------------
 Center     Atomic      Atomic             Coordinates (Angstroms)
 Number     Number       Type             X           Y           Z
 ---------------------------------------------------------------------
      1         14           0        1.633797   -1.154249   -0.069855
      2          5           0       -0.102632   -0.132888    0.012499
      3          1           0        2.864702   -0.520279    0.465503
      4          1           0        1.584600   -2.582477    0.318546
      5          8           0       -1.221110   -0.905967    0.007584
      6          8           0       -0.237852    1.224170    0.006619
      7          6           0       -2.528291   -0.321633    0.005119
      8          1           0       -3.244901   -1.138363   -0.076722
      9          1           0       -2.649786    0.361919   -0.838763
     10          1           0       -2.708024    0.230927    0.930950
     11          6           0        0.866468    2.123665   -0.001910
     12          1           0        0.471684    3.124829   -0.176317
     13          1           0        1.575119    1.879339   -0.799250
     14          1           0        1.389253    2.110219    0.958640
 ---------------------------------------------------------------------

 SCF Done:  E(UHF) =  -543.910943444     A.U. after    2 cycles

 The electronic state is 2-A.
 Alpha  occ. eigenvalues --  -69.05110 -20.58173 -20.57407 -11.30003 -11.28749
 Alpha  occ. eigenvalues --   -7.66242  -6.80723  -3.92136  -3.91221  -3.91153
 Alpha  occ. eigenvalues --   -1.34914  -1.31439  -0.95315  -0.93849  -0.74892
 Alpha  occ. eigenvalues --   -0.70392  -0.69433  -0.66208  -0.63945  -0.63014
 Alpha  occ. eigenvalues --   -0.60783  -0.52824  -0.50797  -0.50630  -0.47573
 Alpha  occ. eigenvalues --   -0.47076  -0.42750  -0.30105
 Alpha virt. eigenvalues --    0.03235   0.04519   0.04771   0.05490   0.06246
 Alpha virt. eigenvalues --    0.06771   0.07020   0.07652   0.08419   0.09473
 Alpha virt. eigenvalues --    0.09583   0.10326   0.10739   0.11354   0.11652

  Beta  occ. eigenvalues --  -69.04578 -20.58141 -20.57321 -11.30002 -11.28755
  Beta  occ. eigenvalues --   -7.66288  -6.79971  -3.90824  -3.90783  -3.89951
  Beta  occ. eigenvalues --   -1.34795  -1.31274  -0.95305  -0.93821  -0.74305
  Beta  occ. eigenvalues --   -0.69573  -0.67996  -0.65929  -0.62791  -0.62114
  Beta  occ. eigenvalues --   -0.60728  -0.52791  -0.50762  -0.50356  -0.47322
  Beta  occ. eigenvalues --   -0.46643  -0.41952
  Beta virt. eigenvalues --    0.03026   0.03397   0.04556   0.04869   0.06047
  Beta virt. eigenvalues --    0.06286   0.06820   0.07243   0.07789   0.09600
  Beta virt. eigenvalues --    0.10008   0.10458   0.10536   0.11028   0.11495

 Mulliken charges and spin densities:
               1          2
     1  Si  -0.455421   1.087380
     2  B    0.630774  -0.049860
     3  H    0.036566  -0.061145
     4  H    0.017758  -0.046304
     5  O   -0.450090   0.054072
     6  O   -0.534851   0.012799
     7  C    0.897515   0.004424
     8  H   -0.282301   0.000363
     9  H   -0.134947   0.001048
    10  H   -0.130569  -0.001581
    11  C    0.976075   0.011510
    12  H   -0.262407   0.000649
    13  H   -0.145434  -0.007884
    14  H   -0.162668  -0.005471
 Sum of Mulliken charges =  -0.00000   1.00000

 Dipole moment (field-independent basis, Debye):
    X=             -0.2514    Y=              1.9262    Z=              0.1148  Tot=              1.9460
                          Isotropic Fermi Contact Couplings
        Atom                 a.u.       MegaHertz       Gauss      10(-4) cm-1
     1  Si(29)             0.35567    -316.09175    -112.78940    -105.43686
     2  B(11)             -0.00917     -13.15100      -4.69260      -4.38670
     3  H(1)              -0.00968     -43.25006     -15.43270     -14.42667
     4  H(1)              -0.00911     -40.70660     -14.52513     -13.57826
     5  O(17)              0.00862      -5.22513      -1.86446      -1.74292
     6  O(17)              0.00303      -1.83833      -0.65596      -0.61320
     7  C(13)             -0.00103      -1.15287      -0.41137      -0.38456
     8  H(1)               0.00003       0.13023       0.04647       0.04344

 1\1\GINC-SE250\SP\UHF\Aug-CC-pVDZ\C2H8B1O2Si1(2)\OHZDE\09-Apr-2025\0\\
 #t hf aug-cc-pvdz iop(5/13=1,5/36=2,99/5=2) pseudo=read geom=check gue
 ss=(read,tcheck) scf=(maxcycle=1)\\title\\0,2\Si,0,1.633797,-1.154249,
 -0.069855\B,0,-0.102632,-0.132888,0.012499\H,0,2.864702,-0.520278,0.46
 5503\H,0,1.584601,-2.582477,0.318546\O,0,-1.22111,-0.905967,0.007584\O
 ,0,-0.237853,1.22417,0.006619\C,0,-2.528291,-0.321634,0.005119\H,0,-3.
 244901,-1.138364,-0.076722\H,0,-2.649786,0.361918,-0.838763\H,0,-2.708
 024,0.230926,0.93095\C,0,0.866467,2.123665,-0.00191\H,0,0.471683,3.124

 Normal termination of Gaussian 16 at Wed Apr  9 00:13:10 2025.
