 Gaussian 16, Revision C.01,

 ----------------------------------------------------------------------
 #t hf aug-cc-pvdz symm=none int=(grid=ultrafine) guess=(read,tcheck) s
 table=(opt,rrhf)
 ----------------------------------------------------------------------
 -----
 title
 -----
 Symbolic Z-matrix:
 Charge =  0 Multiplicity = 1

 SCF Done:  E(RHF) =  -252.536550922     A.U. after   12 cycles
 Normal termination of Gaussian 16 at Wed Apr  9 00:35:39 2025.
 Gaussian 16:  ES64L-G16RevC.01  3-Jul-2019

 ----------------------------------------------------------------------
 #t hf aug-cc-pvdz iop(5/13=1,5/36=2,99/5=2) pseudo=read geom=check gue
 ss=(read,tcheck) scf=(maxcycle=1)
 ----------------------------------------------------------------------
 -----
 title
 -----
 Structure from the checkpoint file:  "BDE49_nonexpt_538_mol1.chk"
 Charge =  0 Multiplicity = 1

                         Standard orientation:
 ---------------------------------------------------------------------
 Center     Atomic      Atomic             Coordinates (Angstroms)
 Number     Number       Type             X           Y           Z
 ---------------------------------------------------------------------
      1          1           0       -0.132742    2.682918    0.000000
      2          7           0       -0.109070    0.770275    1.218708
      3          7           0       -0.109070    0.770275   -1.218708
      4          6           0       -0.109070   -0.688081    1.271308
      5          6           0        0.530350   -1.259465    0.000000
      6          6           0       -0.109070   -0.688081   -1.271308
      7          5           0       -0.120233    1.489153    0.000000
      8          1           0       -0.150125    1.246768    2.103535
      9          1           0       -0.150125    1.246768   -2.103535
     10          1           0        0.455014   -1.032332   -2.144953
     11          1           0       -1.130689   -1.082882   -1.378085
     12          1           0        0.442302   -2.350039    0.000000
     13          1           0        1.596920   -1.011841    0.000000
     14          1           0       -1.130689   -1.082882    1.378085
     15          1           0        0.455014   -1.032332    2.144953
 ---------------------------------------------------------------------

 SCF Done:  E(RHF) =  -252.616734710     A.U. after    2 cycles

 The electronic state is 1-A'.
 Alpha  occ. eigenvalues --  -15.59098 -15.59096 -11.26148 -11.26143 -11.23040
 Alpha  occ. eigenvalues --   -7.58856  -1.17162  -1.11293  -1.00434  -0.88154
 Alpha  occ. eigenvalues --   -0.80230  -0.72126  -0.65867  -0.61018  -0.60596
 Alpha  occ. eigenvalues --   -0.58766  -0.57996  -0.53277  -0.50489  -0.46378
 Alpha  occ. eigenvalues --   -0.46366  -0.40752  -0.34149
 Alpha virt. eigenvalues --    0.03168   0.04072   0.04186   0.04448   0.06421
 Alpha virt. eigenvalues --    0.06674   0.07362   0.07409   0.07765   0.09030
 Alpha virt. eigenvalues --    0.09765   0.12149   0.13265   0.13826   0.14243

 Mulliken charges:
               1
     1  H    0.358837
     2  N   -0.304655
     3  N   -0.304655
     4  C    0.765641
     5  C    0.001085
     6  C    0.765641
     7  B   -0.220503
     8  H   -0.140384
     9  H   -0.140384
    10  H   -0.165317
    11  H   -0.135920
    12  H   -0.063180
    13  H   -0.114972
    14  H   -0.135920
    15  H   -0.165317
 Sum of Mulliken charges =  -0.00000

 Dipole moment (field-independent basis, Debye):
    X=             -0.0153    Y=             -1.1861    Z=              0.0000  Tot=              1.1862

 Test job not archived.
 1\1\GINC-SE150\SP\RHF\Aug-CC-pVDZ\C3H9B1N2\OHZDE\09-Apr-2025\0\\#t hf
 aug-cc-pvdz iop(5/13=1,5/36=2,99/5=2) pseudo=read geom=check guess=(re
 ad,tcheck) scf=(maxcycle=1)\\title\\0,1\H,0,0.,2.674516,-0.250271\N,0,
 1.218708,0.777957,-0.001616\N,0,-1.218708,0.777957,-0.001616\C,0,1.271
 308,-0.665567,0.205845\C,0,0.,-1.322102,-0.345789\C,0,-1.271308,-0.665
 567,0.205845\B,0,0.,1.491112,-0.092832\H,0,2.103535,1.255444,-0.028763
 \H,0,-2.103535,1.255444,-0.028763\H,0,-2.144953,-1.086562,-0.30353\H,0
 ,-1.378085,-0.911021,1.273237\H,0,0.,-2.389059,-0.103495\H,0,0.,-1.228

 Normal termination of Gaussian 16 at Wed Apr  9 00:35:42 2025.
