 Gaussian 16, Revision C.01,

 ----------------------------------------------------------------------
 #t hf aug-cc-pvdz symm=none int=(grid=ultrafine) guess=(read,tcheck) s
 table=(opt,rrhf)
 ----------------------------------------------------------------------
 -----
 title
 -----
 Symbolic Z-matrix:
 Charge =  0 Multiplicity = 1

 SCF Done:  E(RHF) =  -439.584242118     A.U. after   15 cycles
 Normal termination of Gaussian 16 at Tue Apr  8 22:38:44 2025.
 Gaussian 16:  ES64L-G16RevC.01  3-Jul-2019

 ----------------------------------------------------------------------
 #t hf aug-cc-pvdz iop(5/13=1,5/36=2,99/5=2) pseudo=read geom=check gue
 ss=(read,tcheck) scf=(maxcycle=1)
 ----------------------------------------------------------------------
 -----
 title
 -----
 Structure from the checkpoint file:  "BDE49_expt_1173_mol1.chk"
 Charge =  0 Multiplicity = 1

                         Standard orientation:
 ---------------------------------------------------------------------
 Center     Atomic      Atomic             Coordinates (Angstroms)
 Number     Number       Type             X           Y           Z
 ---------------------------------------------------------------------
      1          6           0        0.238300   -0.089332    0.000000
      2          6           0       -2.019893    0.930655    0.000000
      3          7           0       -2.629290    1.909589   -0.000006
      4          6           0        1.114213   -1.182580    0.000002
      5          6           0        0.781977    1.197047   -0.000003
      6          6           0        2.163749    1.387021   -0.000004
      7          6           0        3.024111    0.294540   -0.000003
      8          6           0        2.492365   -0.993811    0.000000
      9          1           0        0.725008   -2.194447    0.000004
     10          1           0        3.151202   -1.854939    0.000001
     11          1           0        2.562729    2.395076   -0.000007
     12          1           0        4.097947    0.442467   -0.000004
     13          1           0        0.127099    2.060150   -0.000004
     14          6           0       -1.281244   -0.344003    0.000002
     15          6           0       -1.706697   -1.124612   -1.271909
     16          1           0       -1.426166   -0.578092   -2.173618
     17          1           0       -2.787541   -1.281247   -1.280329
     18          1           0       -1.216336   -2.099344   -1.292455
     19          6           0       -1.706694   -1.124606    1.271918
     20          1           0       -1.216333   -2.099338    1.292467
     21          1           0       -2.787539   -1.281241    1.280341
     22          1           0       -1.426161   -0.578082    2.173624
 ---------------------------------------------------------------------

 SCF Done:  E(RHF) =  -439.713065902     A.U. after    2 cycles

 The electronic state is 1-A.
 Alpha  occ. eigenvalues --  -15.63638 -11.30979 -11.28369 -11.27055 -11.25705
 Alpha  occ. eigenvalues --  -11.25592 -11.25444 -11.25387 -11.25382 -11.25283
 Alpha  occ. eigenvalues --  -11.25202  -1.19926  -1.16130  -1.10651  -1.02126
 Alpha  occ. eigenvalues --   -1.00965  -0.95735  -0.88840  -0.84234  -0.81785
 Alpha  occ. eigenvalues --   -0.73053  -0.68403  -0.65279  -0.62938  -0.62463
 Alpha  occ. eigenvalues --   -0.61142  -0.60171  -0.57336  -0.56954  -0.55431
 Alpha  occ. eigenvalues --   -0.53235  -0.52860  -0.50644  -0.50564  -0.50053
 Alpha  occ. eigenvalues --   -0.45478  -0.45429  -0.35077  -0.34594
 Alpha virt. eigenvalues --    0.02775   0.03490   0.04270   0.04660   0.05149
 Alpha virt. eigenvalues --    0.05839   0.06667   0.07076   0.07610   0.08043
 Alpha virt. eigenvalues --    0.08533   0.09742   0.10188   0.10511   0.11922

 Mulliken charges:
               1
     1  C    0.706173
     2  C   -1.065306
     3  N   -0.060057
     4  C    0.639010
     5  C    0.761503
     6  C    0.358079
     7  C    0.709857
     8  C    0.238078
     9  H   -0.710959
    10  H   -0.448685
    11  H   -0.450392
    12  H   -0.448189
    13  H   -0.640119
    14  C   -1.003059
    15  C    0.891594
    16  H   -0.053699
    17  H   -0.058425
    18  H   -0.072434
    19  C    0.891587
    20  H   -0.072434
    21  H   -0.058422
    22  H   -0.053699
 Sum of Mulliken charges =  -0.00000

 Dipole moment (field-independent basis, Debye):
    X=              2.2020    Y=             -3.4770    Z=              0.0000  Tot=              4.1157

 Test job not archived.
 1\1\GINC-SE093\SP\RHF\Aug-CC-pVDZ\C10H11N1\OHZDE\08-Apr-2025\0\\#t hf
 aug-cc-pvdz iop(5/13=1,5/36=2,99/5=2) pseudo=read geom=check guess=(re
 ad,tcheck) scf=(maxcycle=1)\\title\\0,1\C,0,0.2383,-0.089332,0.\C,0,-2
 .019893,0.930655,0.\N,0,-2.62929,1.909589,-0.000006\C,0,1.114213,-1.18
 258,0.000002\C,0,0.781977,1.197047,-0.000003\C,0,2.163749,1.387021,-0.
 000004\C,0,3.024111,0.29454,-0.000003\C,0,2.492365,-0.993811,0.\H,0,0.
 725008,-2.194447,0.000004\H,0,3.151202,-1.854939,0.000001\H,0,2.562729
 ,2.395076,-0.000007\H,0,4.097947,0.442467,-0.000004\H,0,0.127099,2.060

 Normal termination of Gaussian 16 at Tue Apr  8 22:39:00 2025.
