 Gaussian 16, Revision C.01,

 ----------------------------------------------------------------------
 #t hf aug-cc-pvdz symm=none int=(grid=ultrafine) guess=(read,tcheck) s
 table=opt
 ----------------------------------------------------------------------
 -----
 title
 -----
 Symbolic Z-matrix:
 Charge =  0 Multiplicity = 2

 SCF Done:  E(UHF) =  -517.349705849     A.U. after   17 cycles
 Normal termination of Gaussian 16 at Wed Apr  9 00:09:41 2025.
 Gaussian 16:  ES64L-G16RevC.01  3-Jul-2019

 ----------------------------------------------------------------------
 #t hf aug-cc-pvdz iop(5/13=1,5/36=2,99/5=2) pseudo=read geom=check gue
 ss=(read,tcheck) scf=(maxcycle=1)
 ----------------------------------------------------------------------
 -----
 title
 -----
 Structure from the checkpoint file:  "BDE49_nonexpt_2362_mol2.chk"
 Charge =  0 Multiplicity = 2

                         Standard orientation:
 ---------------------------------------------------------------------
 Center     Atomic      Atomic             Coordinates (Angstroms)
 Number     Number       Type             X           Y           Z
 ---------------------------------------------------------------------
      1         14           0       -1.815464   -0.176871    0.000071
      2          8           0       -0.198722   -0.683119   -0.000068
      3          1           0       -2.113104    0.596055    1.230482
      4          1           0       -2.113330    0.595993   -1.230324
      5          6           0        0.853965    0.185706   -0.000195
      6          8           0        0.699125    1.377836    0.000024
      7          6           0        2.174385   -0.535642    0.000026
      8          1           0        2.240495   -1.180019    0.879517
      9          1           0        2.988346    0.186039    0.000166
     10          1           0        2.240770   -1.179999   -0.879456
 ---------------------------------------------------------------------

 SCF Done:  E(UHF) =  -517.451109099     A.U. after    2 cycles

 The electronic state is 2-A.
 Alpha  occ. eigenvalues --  -69.11800 -20.60701 -20.57113 -11.40863 -11.25895
 Alpha  occ. eigenvalues --   -6.86617  -3.97907  -3.97177  -3.96983  -1.41417
 Alpha  occ. eigenvalues --   -1.31913  -1.02261  -0.84058  -0.72095  -0.70110
 Alpha  occ. eigenvalues --   -0.66691  -0.65339  -0.58879  -0.57612  -0.54810
 Alpha  occ. eigenvalues --   -0.51692  -0.48241  -0.47688  -0.34576
 Alpha virt. eigenvalues --    0.03221   0.04351   0.05287   0.05560   0.06741
 Alpha virt. eigenvalues --    0.07087   0.07465   0.09433   0.11168   0.13263
 Alpha virt. eigenvalues --    0.13375   0.14249   0.14803   0.15347   0.15584

  Beta  occ. eigenvalues --  -69.11217 -20.60589 -20.57141 -11.40776 -11.25895
  Beta  occ. eigenvalues --   -6.85710  -3.96789  -3.96602  -3.95757  -1.41291
  Beta  occ. eigenvalues --   -1.31736  -1.02161  -0.82819  -0.71450  -0.69646
  Beta  occ. eigenvalues --   -0.66591  -0.62798  -0.58676  -0.57470  -0.54140
  Beta  occ. eigenvalues --   -0.51491  -0.47677  -0.47166
  Beta virt. eigenvalues --    0.02648   0.03760   0.05005   0.05343   0.05842
  Beta virt. eigenvalues --    0.06882   0.07196   0.09368   0.09701   0.11286
  Beta virt. eigenvalues --    0.13420   0.13494   0.14741   0.15395   0.15640

 Mulliken charges and spin densities:
               1          2
     1  Si   0.508165   1.019100
     2  O   -0.754699  -0.123629
     3  H   -0.005182   0.042909
     4  H   -0.005199   0.042904
     5  C    0.385258   0.026486
     6  O   -0.423331  -0.006227
     7  C    0.240493  -0.002457
     8  H    0.037911   0.000111
     9  H   -0.021324   0.000694
    10  H    0.037907   0.000110
 Sum of Mulliken charges =  -0.00000   1.00000

 Dipole moment (field-independent basis, Debye):
    X=              0.5301    Y=             -2.2109    Z=             -0.0003  Tot=              2.2736
                          Isotropic Fermi Contact Couplings
        Atom                 a.u.       MegaHertz       Gauss      10(-4) cm-1
     1  Si(29)             0.64399    -572.33278    -204.22257    -190.90967
     2  O(17)              0.07507     -45.50840     -16.23853     -15.17997
     3  H(1)               0.01281      57.27784      20.43816      19.10583
     4  H(1)               0.01281      57.27039      20.43550      19.10335
     5  C(13)              0.01558      17.51666       6.25038       5.84293
     6  O(17)             -0.00144       0.87251       0.31134       0.29104
     7  C(13)             -0.00009      -0.09696      -0.03460      -0.03234
     8  H(1)               0.00004       0.17053       0.06085       0.05688

 Normal termination of Gaussian 16 at Wed Apr  9 00:09:44 2025.
