 Gaussian 16, Revision C.01,

 ----------------------------------------------------------------------
 #t hf aug-cc-pvdz symm=none int=(grid=ultrafine) guess=(read,tcheck) s
 table=(opt,rrhf)
 ----------------------------------------------------------------------
 -----
 title
 -----
 Symbolic Z-matrix:
 Charge =  0 Multiplicity = 1

 SCF Done:  E(RHF) =  -605.419649698     A.U. after   17 cycles
 Normal termination of Gaussian 16 at Wed Apr  9 00:51:34 2025.
 Gaussian 16:  ES64L-G16RevC.01  3-Jul-2019

 ----------------------------------------------------------------------
 #t hf aug-cc-pvdz iop(5/13=1,5/36=2,99/5=2) pseudo=read geom=check gue
 ss=(read,tcheck) scf=(maxcycle=1)
 ----------------------------------------------------------------------
 -----
 title
 -----
 Structure from the checkpoint file:  "BDE49_nonexpt_986_mol1.chk"
 Charge =  0 Multiplicity = 1

                         Standard orientation:
 ---------------------------------------------------------------------
 Center     Atomic      Atomic             Coordinates (Angstroms)
 Number     Number       Type             X           Y           Z
 ---------------------------------------------------------------------
      1         16           0        0.203385   -1.048612   -0.062003
      2          7           0        1.682879    0.074065   -0.250988
      3          8           0        1.548696    1.192846    0.092803
      4          6           0       -1.034718    0.085427    0.631434
      5          6           0       -2.051989    0.591524   -0.391468
      6          1           0       -0.455214    0.917718    1.047599
      7          1           0       -1.513897   -0.438220    1.460742
      8          1           0       -1.556018    1.135610   -1.197644
      9          1           0       -2.761401    1.270450    0.091352
     10          1           0       -2.617117   -0.230694   -0.835298
 ---------------------------------------------------------------------

 SCF Done:  E(RHF) =  -605.505208548     A.U. after    2 cycles

 The electronic state is 1-A.
 Alpha  occ. eigenvalues --  -93.56774 -20.67783 -15.82269 -11.28281 -11.24544
 Alpha  occ. eigenvalues --   -8.86401  -6.20473  -6.20234  -6.19927  -1.52031
 Alpha  occ. eigenvalues --   -1.08104  -0.99692  -0.90002  -0.81053  -0.71922
 Alpha  occ. eigenvalues --   -0.69127  -0.64987  -0.62926  -0.58752  -0.55081
 Alpha  occ. eigenvalues --   -0.52097  -0.46478  -0.39318  -0.37624
 Alpha virt. eigenvalues --    0.03382   0.04752   0.05204   0.06410   0.07187
 Alpha virt. eigenvalues --    0.07481   0.08328   0.09211   0.12104   0.12296
 Alpha virt. eigenvalues --    0.14170   0.15048   0.15867   0.16635   0.16910

 Mulliken charges:
               1
     1  S    0.628851
     2  N   -0.162764
     3  O   -0.361415
     4  C   -0.124077
     5  C    0.225838
     6  H    0.029381
     7  H   -0.065521
     8  H   -0.074378
     9  H   -0.046565
    10  H   -0.049351
 Sum of Mulliken charges =  -0.00000

 Dipole moment (field-independent basis, Debye):
    X=             -2.1597    Y=             -0.0172    Z=              0.5446  Tot=              2.2274

 Test job not archived.
 1\1\GINC-SE083\SP\RHF\Aug-CC-pVDZ\C2H5N1O1S1\OHZDE\09-Apr-2025\0\\#t h
 f aug-cc-pvdz iop(5/13=1,5/36=2,99/5=2) pseudo=read geom=check guess=(
 read,tcheck) scf=(maxcycle=1)\\title\\0,1\S,0,0.203385,-1.048612,-0.06
 2003\N,0,1.682879,0.074065,-0.250988\O,0,1.548696,1.192846,0.092803\C,
 0,-1.034718,0.085427,0.631434\C,0,-2.051989,0.591523,-0.391468\H,0,-0.
 455214,0.917718,1.047599\H,0,-1.513897,-0.43822,1.460742\H,0,-1.556018
 ,1.13561,-1.197644\H,0,-2.761401,1.270449,0.091352\H,0,-2.617117,-0.23
 0695,-0.835298\\Version=ES64L-G16RevC.01\State=1-A\HF=-605.5052085\RMS

 Normal termination of Gaussian 16 at Wed Apr  9 00:51:39 2025.
