 Gaussian 16, Revision C.01,

 ----------------------------------------------------------------------
 #t hf aug-cc-pvdz symm=none int=(grid=ultrafine) guess=(read,tcheck) s
 table=opt
 ----------------------------------------------------------------------
 -----
 title
 -----
 Symbolic Z-matrix:
 Charge =  0 Multiplicity = 2

 SCF Done:  E(UHF) =  -165.006578634     A.U. after   16 cycles
 Normal termination of Gaussian 16 at Tue Apr  8 23:33:04 2025.
 Gaussian 16:  ES64L-G16RevC.01  3-Jul-2019

 ----------------------------------------------------------------------
 #t hf aug-cc-pvdz iop(5/13=1,5/36=2,99/5=2) pseudo=read geom=check gue
 ss=(read,tcheck) scf=(maxcycle=1)
 ----------------------------------------------------------------------
 -----
 title
 -----
 Structure from the checkpoint file:  "BDE49_nonexpt_147_mol2.chk"
 Charge =  0 Multiplicity = 2

                         Standard orientation:
 ---------------------------------------------------------------------
 Center     Atomic      Atomic             Coordinates (Angstroms)
 Number     Number       Type             X           Y           Z
 ---------------------------------------------------------------------
      1          5           0        1.470838   -0.943737   -0.000121
      2          5           0        0.176561    0.016856   -0.000096
      3          8           0        0.301318    1.388871    0.000043
      4          6           0       -1.256585   -0.678413    0.000031
      5          1           0       -0.549650    1.838617    0.000131
      6          1           0       -1.237222   -1.771773    0.000007
      7          1           0       -1.830610   -0.367762   -0.882905
      8          1           0       -1.830443   -0.367800    0.883089
      9          1           0        2.339891   -1.737367    0.000230
 ---------------------------------------------------------------------

 SCF Done:  E(UHF) =  -165.061141728     A.U. after    2 cycles

 The electronic state is 2-A.
 Alpha  occ. eigenvalues --  -20.57637 -11.21042  -7.63106  -7.61908  -1.31702
 Alpha  occ. eigenvalues --   -0.94289  -0.76939  -0.67399  -0.62727  -0.57639
 Alpha  occ. eigenvalues --   -0.56997  -0.53425  -0.52590  -0.44355  -0.30120
 Alpha virt. eigenvalues --    0.03153   0.03982   0.04006   0.05578   0.06228
 Alpha virt. eigenvalues --    0.06947   0.07648   0.08382   0.09210   0.09318
 Alpha virt. eigenvalues --    0.10205   0.11657   0.13763   0.14812   0.16024

  Beta  occ. eigenvalues --  -20.57425 -11.21086  -7.61968  -7.61834  -1.31158
  Beta  occ. eigenvalues --   -0.94183  -0.75931  -0.62841  -0.62564  -0.56543
  Beta  occ. eigenvalues --   -0.56447  -0.52332  -0.52221  -0.43430
  Beta virt. eigenvalues --    0.03224   0.04007   0.04511   0.04589   0.06299
  Beta virt. eigenvalues --    0.06357   0.06988   0.08621   0.08893   0.09461
  Beta virt. eigenvalues --    0.10964   0.11037   0.11747   0.13953   0.15035

 Mulliken charges and spin densities:
               1          2
     1  B   -0.673976   0.847848
     2  B    1.028767   0.110709
     3  O   -0.642182   0.072096
     4  C    0.377704  -0.024448
     5  H    0.193983  -0.001863
     6  H   -0.334567  -0.010771
     7  H   -0.173470   0.008757
     8  H   -0.173512   0.008754
     9  H    0.397253  -0.011081
 Sum of Mulliken charges =  -0.00000   1.00000

 Dipole moment (field-independent basis, Debye):
    X=             -1.1841    Y=             -0.4537    Z=              0.0003  Tot=              1.2681
                          Isotropic Fermi Contact Couplings
        Atom                 a.u.       MegaHertz       Gauss      10(-4) cm-1
     1  B(11)              0.07782     111.62771      39.83154      37.23500
     2  B(11)             -0.02461     -35.29505     -12.59415     -11.77316
     3  O(17)              0.01653     -10.02329      -3.57656      -3.34341
     4  C(13)             -0.00921     -10.35053      -3.69333      -3.45256
     5  H(1)              -0.00202      -9.05145      -3.22978      -3.01924
     6  H(1)              -0.00011      -0.50822      -0.18134      -0.16952
     7  H(1)               0.00277      12.36891       4.41353       4.12582
     8  H(1)               0.00276      12.35919       4.41007       4.12258

 Normal termination of Gaussian 16 at Tue Apr  8 23:33:06 2025.
