 Gaussian 16, Revision C.01,

 ----------------------------------------------------------------------
 #t hf aug-cc-pvdz symm=none int=(grid=ultrafine) guess=(read,tcheck) s
 table=(opt,rrhf)
 ----------------------------------------------------------------------
 -----
 title
 -----
 Symbolic Z-matrix:
 Charge =  0 Multiplicity = 1

 SCF Done:  E(RHF) =  -213.794556625     A.U. after   13 cycles
 Normal termination of Gaussian 16 at Tue Apr  8 22:54:38 2025.
 Gaussian 16:  ES64L-G16RevC.01  3-Jul-2019

 ----------------------------------------------------------------------
 #t hf aug-cc-pvdz iop(5/13=1,5/36=2,99/5=2) pseudo=read geom=check gue
 ss=(read,tcheck) scf=(maxcycle=1)
 ----------------------------------------------------------------------
 -----
 title
 -----
 Structure from the checkpoint file:  "BDE49_expt_1904_mol1.chk"
 Charge =  0 Multiplicity = 1

                         Standard orientation:
 ---------------------------------------------------------------------
 Center     Atomic      Atomic             Coordinates (Angstroms)
 Number     Number       Type             X           Y           Z
 ---------------------------------------------------------------------
      1          8           0        0.000000    0.626387    0.000000
      2          9           0        1.180668   -0.211367    0.000000
      3          6           0       -1.083950   -0.281348    0.000000
      4          1           0       -1.082840   -0.899745    0.901369
      5          1           0       -1.956637    0.378790    0.000000
      6          1           0       -1.082840   -0.899745   -0.901369
 ---------------------------------------------------------------------

 SCF Done:  E(RHF) =  -213.869375503     A.U. after    2 cycles

 The electronic state is 1-A'.
 Alpha  occ. eigenvalues --  -26.15499 -20.70126 -11.31738  -1.65966  -1.32345
 Alpha  occ. eigenvalues --   -0.95303  -0.77025  -0.76104  -0.73550  -0.64982
 Alpha  occ. eigenvalues --   -0.62092  -0.57907  -0.51506
 Alpha virt. eigenvalues --    0.03260   0.05464   0.05671   0.08686   0.11433
 Alpha virt. eigenvalues --    0.14121   0.14670   0.16731   0.20539   0.21823
 Alpha virt. eigenvalues --    0.24400   0.25605   0.26316   0.28588   0.31345

 Mulliken charges:
               1
     1  O   -0.193410
     2  F   -0.341463
     3  C    0.774038
     4  H   -0.059419
     5  H   -0.120326
     6  H   -0.059419
 Sum of Mulliken charges =   0.00000

 Dipole moment (field-independent basis, Debye):
    X=             -2.9467    Y=             -0.7375    Z=              0.0000  Tot=              3.0376

 Test job not archived.
 1\1\GINC-SE015\SP\RHF\Aug-CC-pVDZ\C1H3F1O1\OHZDE\08-Apr-2025\0\\#t hf
 aug-cc-pvdz iop(5/13=1,5/36=2,99/5=2) pseudo=read geom=check guess=(re
 ad,tcheck) scf=(maxcycle=1)\\title\\0,1\O,0,0.,0.626387,0.\F,0,1.18066
 8,-0.211368,0.\C,0,-1.08395,-0.281348,0.\H,0,-1.08284,-0.899745,0.9013
 69\H,0,-1.956637,0.37879,0.\H,0,-1.08284,-0.899745,-0.901369\\Version=
 ES64L-G16RevC.01\State=1-A'\HF=-213.8693755\RMSD=4.027e-03\Dipole=-1.1
 593372,-0.2901472,0.\Quadrupole=0.4953377,-0.3593092,-0.1360285,0.1800
 805,0.,0.\PG=CS [SG(C1H1F1O1),X(H2)]\\@

 Normal termination of Gaussian 16 at Tue Apr  8 22:54:40 2025.
