 Gaussian 16, Revision C.01,

 ----------------------------------------------------------------------
 #t hf aug-cc-pvdz symm=none int=(grid=ultrafine) guess=(read,tcheck) s
 table=(opt,rrhf)
 ----------------------------------------------------------------------
 -----
 title
 -----
 Symbolic Z-matrix:
 Charge =  0 Multiplicity = 1

 SCF Done:  E(RHF) =  -279.388935395     A.U. after   11 cycles
 Normal termination of Gaussian 16 at Wed Apr  9 00:28:39 2025.
 Gaussian 16:  ES64L-G16RevC.01  3-Jul-2019

 ----------------------------------------------------------------------
 #t hf aug-cc-pvdz iop(5/13=1,5/36=2,99/5=2) pseudo=read geom=check gue
 ss=(read,tcheck) scf=(maxcycle=1)
 ----------------------------------------------------------------------
 -----
 title
 -----
 Structure from the checkpoint file:  "BDE49_nonexpt_351_mol1.chk"
 Charge =  0 Multiplicity = 1

                         Standard orientation:
 ---------------------------------------------------------------------
 Center     Atomic      Atomic             Coordinates (Angstroms)
 Number     Number       Type             X           Y           Z
 ---------------------------------------------------------------------
      1          9           0        0.729248    1.142028    0.000012
      2          9           0        0.729251   -1.142027    0.000007
      3          7           0       -1.358348   -0.000001   -0.000003
      4          5           0        0.035049   -0.000000   -0.000035
      5          1           0       -1.896650    0.849610    0.000016
      6          1           0       -1.896648   -0.849614    0.000012
 ---------------------------------------------------------------------

 SCF Done:  E(RHF) =  -279.500068018     A.U. after    2 cycles

 The electronic state is 1-A.
 Alpha  occ. eigenvalues --  -26.12483 -26.12475 -15.63577  -7.73604  -1.67596
 Alpha  occ. eigenvalues --   -1.65474  -1.15034  -0.86122  -0.81300  -0.77812
 Alpha  occ. eigenvalues --   -0.75838  -0.71265  -0.71085  -0.67572  -0.65091
 Alpha  occ. eigenvalues --   -0.45379
 Alpha virt. eigenvalues --    0.03192   0.04774   0.05665   0.06268   0.08302
 Alpha virt. eigenvalues --    0.09015   0.16724   0.16932   0.19068   0.21070
 Alpha virt. eigenvalues --    0.22104   0.24105   0.25316   0.27638   0.28584

 Mulliken charges:
               1
     1  F   -0.429982
     2  F   -0.429982
     3  N   -0.129509
     4  B    0.983038
     5  H    0.003218
     6  H    0.003218
 Sum of Mulliken charges =  -0.00000

 Dipole moment (field-independent basis, Debye):
    X=             -2.9926    Y=             -0.0000    Z=             -0.0001  Tot=              2.9926

 Test job not archived.
 1\1\GINC-SE105\SP\RHF\Aug-CC-pVDZ\B1F2H2N1\OHZDE\09-Apr-2025\0\\#t hf
 aug-cc-pvdz iop(5/13=1,5/36=2,99/5=2) pseudo=read geom=check guess=(re
 ad,tcheck) scf=(maxcycle=1)\\title\\0,1\F,0,-0.729249,-1.142028,0.0000
 12\F,0,-0.72925,1.142027,0.000007\N,0,1.358348,0.,-0.000003\B,0,-0.035
 049,0.,-0.000035\H,0,1.896649,-0.849612,0.000016\H,0,1.896649,0.849612
 ,0.000012\\Version=ES64L-G16RevC.01\State=1-A\HF=-279.500068\RMSD=5.46
 3e-03\Dipole=1.1773819,0.0000011,-0.000056\Quadrupole=1.7921742,-1.471
 8204,-0.3203539,0.,0.0001557,0.0000021\PG=C01 [X(B1F2H2N1)]\\@

 Normal termination of Gaussian 16 at Wed Apr  9 00:28:40 2025.
