 Gaussian 16, Revision C.01,

 ----------------------------------------------------------------------
 #t hf aug-cc-pvdz symm=none int=(grid=ultrafine) guess=(read,tcheck) s
 table=(opt,rrhf)
 ----------------------------------------------------------------------
 -----
 title
 -----
 Symbolic Z-matrix:
 Charge =  0 Multiplicity = 1

 SCF Done:  E(RHF) =  -401.431609961     A.U. after   14 cycles
 Normal termination of Gaussian 16 at Tue Apr  8 23:18:58 2025.
 Gaussian 16:  ES64L-G16RevC.01  3-Jul-2019

 ----------------------------------------------------------------------
 #t hf aug-cc-pvdz iop(5/13=1,5/36=2,99/5=2) pseudo=read geom=check gue
 ss=(read,tcheck) scf=(maxcycle=1)
 ----------------------------------------------------------------------
 -----
 title
 -----
 Structure from the checkpoint file:  "BDE49_nonexpt_1129_mol1.chk"
 Charge =  0 Multiplicity = 1

                         Standard orientation:
 ---------------------------------------------------------------------
 Center     Atomic      Atomic             Coordinates (Angstroms)
 Number     Number       Type             X           Y           Z
 ---------------------------------------------------------------------
      1          9           0       -2.279799    0.022362    0.000127
      2          8           0       -1.098592   -0.761825   -0.000008
      3          6           0       -0.021626    0.115589   -0.000116
      4          8           0       -0.070696    1.302366   -0.000012
      5          8           0        1.032752   -0.690239   -0.000060
      6          6           0        2.311869   -0.015543    0.000015
      7          1           0        3.050583   -0.812165    0.000051
      8          1           0        2.409171    0.604104    0.891515
      9          1           0        2.409267    0.604113   -0.891468
 ---------------------------------------------------------------------

 SCF Done:  E(RHF) =  -401.567943314     A.U. after    2 cycles

 The electronic state is 1-A.
 Alpha  occ. eigenvalues --  -26.19874 -20.74427 -20.66001 -20.60085 -11.48506
 Alpha  occ. eigenvalues --  -11.32915  -1.70791  -1.48680  -1.38089  -1.34640
 Alpha  occ. eigenvalues --   -1.01363  -0.87515  -0.81810  -0.81220  -0.77521
 Alpha  occ. eigenvalues --   -0.72959  -0.72883  -0.68185  -0.64682  -0.63575
 Alpha  occ. eigenvalues --   -0.58117  -0.56050  -0.53189  -0.52149
 Alpha virt. eigenvalues --    0.02961   0.05215   0.05462   0.07367   0.09142
 Alpha virt. eigenvalues --    0.11075   0.11361   0.12950   0.13345   0.14775
 Alpha virt. eigenvalues --    0.16216   0.17483   0.18041   0.20148   0.23217

 Mulliken charges:
               1
     1  F   -0.295616
     2  O   -0.126848
     3  C    0.741891
     4  O   -0.291804
     5  O   -0.471646
     6  C    0.745935
     7  H   -0.214092
     8  H   -0.043910
     9  H   -0.043909
 Sum of Mulliken charges =  -0.00000

 Dipole moment (field-independent basis, Debye):
    X=              3.6817    Y=             -0.9587    Z=             -0.0003  Tot=              3.8045

 Test job not archived.
 1\1\GINC-SE454\SP\RHF\Aug-CC-pVDZ\C2H3F1O3\OHZDE\08-Apr-2025\0\\#t hf
 aug-cc-pvdz iop(5/13=1,5/36=2,99/5=2) pseudo=read geom=check guess=(re
 ad,tcheck) scf=(maxcycle=1)\\title\\0,1\F,0,-2.279799,0.022362,0.00012
 7\O,0,-1.098592,-0.761825,-0.000008\C,0,-0.021626,0.115589,-0.000116\O
 ,0,-0.070696,1.302366,-0.000012\O,0,1.032752,-0.690239,-0.00006\C,0,2.
 311869,-0.015542,0.000015\H,0,3.050583,-0.812164,0.000051\H,0,2.409171
 ,0.604105,0.891515\H,0,2.409267,0.604114,-0.891468\\Version=ES64L-G16R
 evC.01\State=1-A\HF=-401.5679433\RMSD=3.213e-03\Dipole=1.4484923,-0.37

 Normal termination of Gaussian 16 at Tue Apr  8 23:19:01 2025.
