 Gaussian 16, Revision C.01,

 ----------------------------------------------------------------------
 #t hf aug-cc-pvdz symm=none int=(grid=ultrafine) guess=(read,tcheck) s
 table=(opt,rrhf)
 ----------------------------------------------------------------------
 -----
 title
 -----
 Symbolic Z-matrix:
 Charge =  0 Multiplicity = 1

 SCF Done:  E(RHF) =  -533.110245046     A.U. after   14 cycles
 Normal termination of Gaussian 16 at Wed Apr  9 00:50:35 2025.
 Gaussian 16:  ES64L-G16RevC.01  3-Jul-2019

 ----------------------------------------------------------------------
 #t hf aug-cc-pvdz iop(5/13=1,5/36=2,99/5=2) pseudo=read geom=check gue
 ss=(read,tcheck) scf=(maxcycle=1)
 ----------------------------------------------------------------------
 -----
 title
 -----
 Structure from the checkpoint file:  "BDE49_nonexpt_958_mol1.chk"
 Charge =  0 Multiplicity = 1

                         Standard orientation:
 ---------------------------------------------------------------------
 Center     Atomic      Atomic             Coordinates (Angstroms)
 Number     Number       Type             X           Y           Z
 ---------------------------------------------------------------------
      1          9           0        0.601806    0.236168    2.134109
      2          7           0        0.464612    0.419183    0.774702
      3          6           0        0.822565   -0.607210   -0.164756
      4          8           0        1.757131   -1.297117   -0.351954
      5          6           0       -0.822565    0.607210    0.164756
      6          7           0       -0.464612   -0.419183   -0.774702
      7          8           0       -1.757131    1.297117    0.351954
      8          9           0       -0.601806   -0.236168   -2.134109
 ---------------------------------------------------------------------

 SCF Done:  E(RHF) =  -533.282998913     A.U. after    2 cycles

 The electronic state is 1-AG.
 Alpha  occ. eigenvalues --  -26.22607 -26.22607 -20.65083 -20.65083 -15.82522
 Alpha  occ. eigenvalues --  -15.82507 -11.49380 -11.49340  -1.74503  -1.74267
 Alpha  occ. eigenvalues --   -1.48276  -1.46049  -1.37634  -1.15979  -0.94917
 Alpha  occ. eigenvalues --   -0.91725  -0.87422  -0.84556  -0.82461  -0.81210
 Alpha  occ. eigenvalues --   -0.79635  -0.77049  -0.74561  -0.71457  -0.69383
 Alpha  occ. eigenvalues --   -0.63854  -0.60422  -0.53386  -0.52291  -0.50560
 Alpha virt. eigenvalues --    0.05128   0.06180   0.06424   0.06771   0.08651
 Alpha virt. eigenvalues --    0.10134   0.10742   0.11454   0.12385   0.12578
 Alpha virt. eigenvalues --    0.16690   0.17945   0.19743   0.20067   0.20999

 Mulliken charges:
               1
     1  F   -0.353751
     2  N   -0.219344
     3  C    0.843884
     4  O   -0.270789
     5  C    0.843884
     6  N   -0.219344
     7  O   -0.270789
     8  F   -0.353751
 Sum of Mulliken charges =  -0.00000

 Dipole moment (field-independent basis, Debye):
    X=             -0.0000    Y=              0.0000    Z=              0.0000  Tot=              0.0000

 Test job not archived.
 1\1\GINC-SE038\SP\RHF\Aug-CC-pVDZ\C2F2N2O2\OHZDE\09-Apr-2025\0\\#t hf
 aug-cc-pvdz iop(5/13=1,5/36=2,99/5=2) pseudo=read geom=check guess=(re
 ad,tcheck) scf=(maxcycle=1)\\title\\0,1\F,0,0.601806,0.236168,2.134109
 \N,0,0.464612,0.419183,0.774702\C,0,0.822565,-0.60721,-0.164756\O,0,1.
 757131,-1.297117,-0.351954\C,0,-0.822565,0.60721,0.164756\N,0,-0.46461
 2,-0.419183,-0.774702\O,0,-1.757131,1.297117,0.351954\F,0,-0.601806,-0
 .236168,-2.134109\\Version=ES64L-G16RevC.01\State=1-AG\HF=-533.2829989
 \RMSD=4.115e-03\Dipole=0.,0.,0.\Quadrupole=-2.0545357,1.0646051,0.9899

 Normal termination of Gaussian 16 at Wed Apr  9 00:50:38 2025.
