 Gaussian 16, Revision C.01,

 ----------------------------------------------------------------------
 #t hf aug-cc-pvdz symm=none int=(grid=ultrafine) guess=(read,tcheck) s
 table=(opt,rrhf)
 ----------------------------------------------------------------------
 -----
 title
 -----
 Symbolic Z-matrix:
 Charge =  0 Multiplicity = 1

 SCF Done:  E(RHF) =  -795.176075391     A.U. after   15 cycles
 Normal termination of Gaussian 16 at Wed Apr  9 00:42:58 2025.
 Gaussian 16:  ES64L-G16RevC.01  3-Jul-2019

 ----------------------------------------------------------------------
 #t hf aug-cc-pvdz iop(5/13=1,5/36=2,99/5=2) pseudo=read geom=check gue
 ss=(read,tcheck) scf=(maxcycle=1)
 ----------------------------------------------------------------------
 -----
 title
 -----
 Structure from the checkpoint file:  "BDE49_nonexpt_734_mol1.chk"
 Charge =  0 Multiplicity = 1

                         Standard orientation:
 ---------------------------------------------------------------------
 Center     Atomic      Atomic             Coordinates (Angstroms)
 Number     Number       Type             X           Y           Z
 ---------------------------------------------------------------------
      1          6           0       -0.540897   -0.343263    0.343909
      2          5           0        2.258266    0.259180   -0.250250
      3          9           0        3.415550   -0.210128   -0.699316
      4          9           0        1.965667    1.519811   -0.538781
      5          6           0       -1.074272    0.903578    0.694481
      6          6           0       -1.339122   -1.242493   -0.373375
      7          6           0       -2.368253    1.250308    0.316413
      8          6           0       -3.155770    0.350120   -0.398402
      9          6           0       -2.638669   -0.897801   -0.737874
     10          1           0       -3.244244   -1.605111   -1.293526
     11          1           0       -0.946235   -2.213484   -0.653590
     12          1           0       -2.763257    2.222823    0.587869
     13          1           0       -4.165716    0.618419   -0.686352
     14          1           0       -0.477683    1.609210    1.262350
     15         15           0        1.150494   -0.788205    0.924215
     16          1           0        1.319352   -2.014522    0.243222
 ---------------------------------------------------------------------

 SCF Done:  E(RHF) =  -795.353758882     A.U. after    2 cycles

 The electronic state is 1-A.
 Alpha  occ. eigenvalues --  -81.26411 -26.14454 -26.14417 -11.26950 -11.25905
 Alpha  occ. eigenvalues --  -11.25762 -11.25634 -11.25570 -11.25447  -7.77008
 Alpha  occ. eigenvalues --   -7.75493  -4.91138  -4.91026  -4.90744  -1.69731
 Alpha  occ. eigenvalues --   -1.67491  -1.15404  -1.02616  -1.02181  -0.88890
 Alpha  occ. eigenvalues --   -0.85715  -0.84061  -0.82569  -0.80747  -0.77385
 Alpha  occ. eigenvalues --   -0.75461  -0.72702  -0.72216  -0.70154  -0.64537
 Alpha  occ. eigenvalues --   -0.64020  -0.60317  -0.56944  -0.52902  -0.51324
 Alpha  occ. eigenvalues --   -0.50367  -0.47858  -0.39657  -0.35193  -0.32487
 Alpha virt. eigenvalues --    0.02995   0.03950   0.04111   0.05596   0.05730
 Alpha virt. eigenvalues --    0.05762   0.07008   0.07412   0.08521   0.08654
 Alpha virt. eigenvalues --    0.09404   0.09442   0.10249   0.11233   0.12482

 Mulliken charges:
               1
     1  C   -0.156308
     2  B    1.145638
     3  F   -0.470674
     4  F   -0.462188
     5  C    0.485367
     6  C    0.465588
     7  C    0.503957
     8  C    0.561262
     9  C    0.566813
    10  H   -0.442714
    11  H   -0.544175
    12  H   -0.449294
    13  H   -0.428778
    14  H   -0.567980
    15  P   -0.287950
    16  H    0.081435
 Sum of Mulliken charges =  -0.00000

 Dipole moment (field-independent basis, Debye):
    X=             -2.0243    Y=             -0.7423    Z=              0.0149  Tot=              2.1561

 Test job not archived.
 1\1\GINC-SE016\SP\RHF\Aug-CC-pVDZ\C6H6B1F2P1\OHZDE\09-Apr-2025\0\\#t h
 f aug-cc-pvdz iop(5/13=1,5/36=2,99/5=2) pseudo=read geom=check guess=(
 read,tcheck) scf=(maxcycle=1)\\title\\0,1\C,0,-0.540897,-0.343263,0.34
 3909\B,0,2.258266,0.25918,-0.25025\F,0,3.41555,-0.210128,-0.699316\F,0
 ,1.965667,1.519811,-0.538781\C,0,-1.074272,0.903578,0.694481\C,0,-1.33
 9122,-1.242493,-0.373375\C,0,-2.368253,1.250308,0.316413\C,0,-3.15577,
 0.35012,-0.398402\C,0,-2.638669,-0.897801,-0.737874\H,0,-3.244244,-1.6
 05111,-1.293526\H,0,-0.946235,-2.213484,-0.65359\H,0,-2.763257,2.22282

 Normal termination of Gaussian 16 at Wed Apr  9 00:43:07 2025.
