 Gaussian 16, Revision C.01,

 ----------------------------------------------------------------------
 #t hf aug-cc-pvdz symm=none int=(grid=ultrafine) guess=(read,tcheck) s
 table=(opt,rrhf)
 ----------------------------------------------------------------------
 -----
 title
 -----
 Symbolic Z-matrix:
 Charge =  0 Multiplicity = 1

 SCF Done:  E(RHF) =  -515.810279434     A.U. after   12 cycles
 Normal termination of Gaussian 16 at Tue Apr  8 22:44:30 2025.
 Gaussian 16:  ES64L-G16RevC.01  3-Jul-2019

 ----------------------------------------------------------------------
 #t hf aug-cc-pvdz iop(5/13=1,5/36=2,99/5=2) pseudo=read geom=check gue
 ss=(read,tcheck) scf=(maxcycle=1)
 ----------------------------------------------------------------------
 -----
 title
 -----
 Structure from the checkpoint file:  "BDE49_expt_1548_mol1.chk"
 Charge =  0 Multiplicity = 1

                         Standard orientation:
 ---------------------------------------------------------------------
 Center     Atomic      Atomic             Coordinates (Angstroms)
 Number     Number       Type             X           Y           Z
 ---------------------------------------------------------------------
      1         16           0       -1.370010   -0.080548   -0.092025
      2          6           0        0.416663    0.016680    0.402021
      3          6           0        1.091751   -1.265272   -0.089743
      4          1           0       -1.748929    1.095556    0.437133
      5          1           0        1.056808   -1.332591   -1.180885
      6          1           0        0.613037   -2.155587    0.324018
      7          6           0        1.093014    1.273438   -0.142253
      8          1           0        0.437027    0.030066    1.494247
      9          1           0        2.143562    1.299147    0.167954
     10          1           0        0.612933    2.182174    0.228635
     11          1           0        1.055099    1.292583   -1.234278
     12          1           0        2.142051   -1.271646    0.215433
 ---------------------------------------------------------------------

 SCF Done:  E(RHF) =  -515.868764035     A.U. after    2 cycles

 The electronic state is 1-A.
 Alpha  occ. eigenvalues --  -93.52699 -11.28006 -11.23690 -11.23601  -8.82448
 Alpha  occ. eigenvalues --   -6.16623  -6.16392  -6.16059  -1.08357  -0.94063
 Alpha  occ. eigenvalues --   -0.92981  -0.78157  -0.64207  -0.60894  -0.58236
 Alpha  occ. eigenvalues --   -0.55087  -0.51341  -0.50340  -0.48930  -0.43343
 Alpha  occ. eigenvalues --   -0.35173
 Alpha virt. eigenvalues --    0.03415   0.04667   0.05018   0.05331   0.07088
 Alpha virt. eigenvalues --    0.07351   0.07623   0.07868   0.11235   0.12380
 Alpha virt. eigenvalues --    0.13555   0.14705   0.15368   0.16296   0.16352

 Mulliken charges:
               1
     1  S    0.260739
     2  C   -0.856456
     3  C    0.564063
     4  H    0.028822
     5  H   -0.041428
     6  H   -0.095674
     7  C    0.485500
     8  H   -0.123463
     9  H   -0.044920
    10  H   -0.113735
    11  H   -0.017295
    12  H   -0.046154
 Sum of Mulliken charges =  -0.00000

 Dipole moment (field-independent basis, Debye):
    X=              1.5845    Y=              0.7009    Z=              0.7174  Tot=              1.8752

 Test job not archived.
 1\1\GINC-SE393\SP\RHF\Aug-CC-pVDZ\C3H8S1\OHZDE\08-Apr-2025\0\\#t hf au
 g-cc-pvdz iop(5/13=1,5/36=2,99/5=2) pseudo=read geom=check guess=(read
 ,tcheck) scf=(maxcycle=1)\\title\\0,1\S,0,-1.37001,-0.080549,-0.092025
 \C,0,0.416663,0.01668,0.402021\C,0,1.091752,-1.265272,-0.089743\H,0,-1
 .74893,1.095555,0.437133\H,0,1.056809,-1.332591,-1.180885\H,0,0.613038
 ,-2.155587,0.324018\C,0,1.093013,1.273438,-0.142253\H,0,0.437027,0.030
 066,1.494247\H,0,2.143561,1.299148,0.167954\H,0,0.612932,2.182174,0.22
 8635\H,0,1.055098,1.292583,-1.234278\H,0,2.142052,-1.271645,0.215433\\

 Normal termination of Gaussian 16 at Tue Apr  8 22:44:34 2025.
