 Gaussian 16, Revision C.01,

 ----------------------------------------------------------------------
 #t hf aug-cc-pvdz symm=none int=(grid=ultrafine) guess=(read,tcheck) s
 table=(opt,rrhf)
 ----------------------------------------------------------------------
 -----
 title
 -----
 Symbolic Z-matrix:
 Charge =  0 Multiplicity = 1

 SCF Done:  E(RHF) =  -1707.03846969     A.U. after   12 cycles
 Normal termination of Gaussian 16 at Tue Apr  8 23:55:22 2025.
 Gaussian 16:  ES64L-G16RevC.01  3-Jul-2019

 ----------------------------------------------------------------------
 #t hf aug-cc-pvdz iop(5/13=1,5/36=2,99/5=2) pseudo=read geom=check gue
 ss=(read,tcheck) scf=(maxcycle=1)
 ----------------------------------------------------------------------
 -----
 title
 -----
 Structure from the checkpoint file:  "BDE49_nonexpt_2026_mol1.chk"
 Charge =  0 Multiplicity = 1

                         Standard orientation:
 ---------------------------------------------------------------------
 Center     Atomic      Atomic             Coordinates (Angstroms)
 Number     Number       Type             X           Y           Z
 ---------------------------------------------------------------------
      1         14           0       -1.878092    0.000110   -0.000150
      2          6           0        0.041784    0.000019   -0.000021
      3         17           0        0.646671   -0.339821    1.663166
      4         17           0        0.647004    1.610184   -0.537250
      5         17           0        0.646865   -1.270481   -1.125754
      6          1           0       -2.315545    1.054507    0.933705
      7          1           0       -2.315601   -1.335826    0.446012
      8          1           0       -2.315444    0.281682   -1.380235
 ---------------------------------------------------------------------

 SCF Done:  E(RHF) =  -1707.12731287     A.U. after    2 cycles

 The electronic state is 1-A.
 Alpha  occ. eigenvalues -- -103.69068-103.69068-103.69067 -69.10286 -11.43122
 Alpha  occ. eigenvalues --  -10.72346 -10.72345 -10.72326  -8.38055  -8.38055
 Alpha  occ. eigenvalues --   -8.38048  -8.37726  -8.37726  -8.37725  -8.37723
 Alpha  occ. eigenvalues --   -8.37721  -8.37721  -6.85520  -3.96322  -3.96257
 Alpha  occ. eigenvalues --   -3.96257  -1.25272  -1.15609  -1.15608  -0.87501
 Alpha  occ. eigenvalues --   -0.73129  -0.63367  -0.63366  -0.60128  -0.52450
 Alpha  occ. eigenvalues --   -0.52450  -0.50563  -0.50563  -0.47423  -0.47423
 Alpha  occ. eigenvalues --   -0.46496  -0.44130
 Alpha virt. eigenvalues --    0.03327   0.05778   0.05778   0.05876   0.07450
 Alpha virt. eigenvalues --    0.08240   0.08240   0.10304   0.10305   0.11096
 Alpha virt. eigenvalues --    0.14150   0.14151   0.14249   0.16445   0.17567

 Mulliken charges:
               1
     1  Si   0.559456
     2  C   -0.596526
     3  Cl  -0.005098
     4  Cl  -0.005098
     5  Cl  -0.005100
     6  H    0.017455
     7  H    0.017460
     8  H    0.017451
 Sum of Mulliken charges =  -0.00000

 Dipole moment (field-independent basis, Debye):
    X=             -1.8639    Y=              0.0002    Z=             -0.0002  Tot=              1.8639

 Test job not archived.
 1\1\GINC-SE069\SP\RHF\Aug-CC-pVDZ\C1H3Cl3Si1\OHZDE\08-Apr-2025\0\\#t h
 f aug-cc-pvdz iop(5/13=1,5/36=2,99/5=2) pseudo=read geom=check guess=(
 read,tcheck) scf=(maxcycle=1)\\title\\0,1\Si,0,1.878092,0.000111,0.000
 155\C,0,-0.041784,0.000019,0.000021\Cl,0,-0.646666,-0.341761,-1.66277\
 Cl,0,-0.647006,1.610809,0.53537\Cl,0,-0.646867,-1.269168,1.127233\H,0,
 2.315547,1.053419,-0.934928\H,0,2.315603,-1.336344,-0.444448\H,0,2.315
 44,0.283293,1.379911\\Version=ES64L-G16RevC.01\State=1-A\HF=-1707.1273
 129\RMSD=4.449e-03\Dipole=0.7333309,0.000074,0.0000837\Quadrupole=1.61

 Normal termination of Gaussian 16 at Tue Apr  8 23:55:25 2025.
