 Gaussian 16, Revision C.01,

 ----------------------------------------------------------------------
 #t hf aug-cc-pvdz symm=none int=(grid=ultrafine) guess=(read,tcheck) s
 table=(opt,rrhf)
 ----------------------------------------------------------------------
 -----
 title
 -----
 Symbolic Z-matrix:
 Charge =  0 Multiplicity = 1

 SCF Done:  E(RHF) =  -270.025883173     A.U. after   13 cycles

 1\1\GINC-SE195\Stability\RHF\Aug-CC-pVDZ\C5H10O1\OHZDE\08-Apr-2025\0\\
 #t hf aug-cc-pvdz symm=none int=(grid=ultrafine) guess=(read,tcheck) s
 table=(opt,rrhf)\\title\\0,1\C,0,-1.767132,-0.60231,-0.160531\O,0,-0.4
 34257,-0.519058,-0.38715\C,0,0.225303,0.69821,-0.029146\C,0,1.703388,0
 .552433,-0.356907\H,0,-0.221256,1.529678,-0.588328\C,0,-2.581265,0.316
 649,0.361309\C,0,2.403785,-0.543504,0.450455\H,0,2.181521,1.52112,-0.1
 73045\H,0,1.801889,0.35157,-1.428657\H,0,2.350945,-0.336888,1.524101\H
 ,0,3.459194,-0.618952,0.176856\H,0,1.93615,-1.513575,0.272457\H,0,0.07

 Normal termination of Gaussian 16 at Tue Apr  8 22:40:03 2025.
 Gaussian 16:  ES64L-G16RevC.01  3-Jul-2019

 ----------------------------------------------------------------------
 #t hf aug-cc-pvdz iop(5/13=1,5/36=2,99/5=2) pseudo=read geom=check gue
 ss=(read,tcheck) scf=(maxcycle=1)
 ----------------------------------------------------------------------
 -----
 title
 -----
 Structure from the checkpoint file:  "BDE49_expt_1372_mol1.chk"
 Charge =  0 Multiplicity = 1

                         Standard orientation:
 ---------------------------------------------------------------------
 Center     Atomic      Atomic             Coordinates (Angstroms)
 Number     Number       Type             X           Y           Z
 ---------------------------------------------------------------------
      1          6           0       -1.767132   -0.602310   -0.160531
      2          8           0       -0.434257   -0.519058   -0.387150
      3          6           0        0.225303    0.698210   -0.029146
      4          6           0        1.703388    0.552433   -0.356907
      5          1           0       -0.221256    1.529678   -0.588328
      6          6           0       -2.581265    0.316649    0.361309
      7          6           0        2.403785   -0.543504    0.450455
      8          1           0        2.181521    1.521120   -0.173045
      9          1           0        1.801889    0.351570   -1.428657
     10          1           0        2.350945   -0.336888    1.524101
     11          1           0        3.459194   -0.618952    0.176856
     12          1           0        1.936150   -1.513575    0.272457
     13          1           0        0.076866    0.889996    1.042016
     14          1           0       -2.131094   -1.574564   -0.475470
     15          1           0       -2.253876    1.294888    0.684747
     16          1           0       -3.630757    0.080321    0.471450
 ---------------------------------------------------------------------

 SCF Done:  E(RHF) =  -270.114545424     A.U. after    2 cycles

 The electronic state is 1-A.
 Alpha  occ. eigenvalues --  -20.59587 -11.30504 -11.29303 -11.23609 -11.22317
 Alpha  occ. eigenvalues --  -11.22148  -1.36524  -1.06292  -1.00775  -0.93557
 Alpha  occ. eigenvalues --   -0.83164  -0.76958  -0.69820  -0.67208  -0.65736
 Alpha  occ. eigenvalues --   -0.59849  -0.58475  -0.54617  -0.53744  -0.51974
 Alpha  occ. eigenvalues --   -0.49123  -0.48128  -0.47705  -0.34968
 Alpha virt. eigenvalues --    0.03526   0.04279   0.04419   0.05021   0.05858
 Alpha virt. eigenvalues --    0.06344   0.07321   0.07609   0.08619   0.09911
 Alpha virt. eigenvalues --    0.11362   0.12576   0.13389   0.14266   0.14928

 Mulliken charges:
               1
     1  C    0.566590
     2  O   -0.538005
     3  C    0.677378
     4  C    0.011251
     5  H   -0.238706
     6  C    0.668078
     7  C    0.385782
     8  H   -0.022930
     9  H   -0.042297
    10  H   -0.071896
    11  H   -0.088951
    12  H   -0.036533
    13  H   -0.244426
    14  H   -0.432891
    15  H   -0.318689
    16  H   -0.273756
 Sum of Mulliken charges =  -0.00000

 Dipole moment (field-independent basis, Debye):
    X=              0.3789    Y=              0.9258    Z=              0.2832  Tot=              1.0397

 Test job not archived.
 1\1\GINC-SE195\SP\RHF\Aug-CC-pVDZ\C5H10O1\OHZDE\08-Apr-2025\0\\#t hf a
 ug-cc-pvdz iop(5/13=1,5/36=2,99/5=2) pseudo=read geom=check guess=(rea
 d,tcheck) scf=(maxcycle=1)\\title\\0,1\C,0,-1.767132,-0.60231,-0.16053
 1\O,0,-0.434257,-0.519058,-0.38715\C,0,0.225303,0.69821,-0.029146\C,0,
 1.703388,0.552433,-0.356907\H,0,-0.221256,1.529678,-0.588328\C,0,-2.58
 1265,0.316649,0.361309\C,0,2.403785,-0.543504,0.450455\H,0,2.181521,1.
 52112,-0.173045\H,0,1.801889,0.35157,-1.428657\H,0,2.350945,-0.336888,
 1.524101\H,0,3.459194,-0.618952,0.176856\H,0,1.93615,-1.513575,0.27245

 Normal termination of Gaussian 16 at Tue Apr  8 22:40:08 2025.
