 Gaussian 16, Revision C.01,

 ----------------------------------------------------------------------
 #t hf aug-cc-pvdz symm=none int=(grid=ultrafine) guess=(read,tcheck) s
 table=(opt,rrhf)
 ----------------------------------------------------------------------
 -----
 title
 -----
 Symbolic Z-matrix:
 Charge =  0 Multiplicity = 1

 SCF Done:  E(RHF) =  -482.095399960     A.U. after   13 cycles
 Normal termination of Gaussian 16 at Wed Apr  9 00:04:39 2025.
 Gaussian 16:  ES64L-G16RevC.01  3-Jul-2019

 ----------------------------------------------------------------------
 #t hf aug-cc-pvdz iop(5/13=1,5/36=2,99/5=2) pseudo=read geom=check gue
 ss=(read,tcheck) scf=(maxcycle=1)
 ----------------------------------------------------------------------
 -----
 title
 -----
 Structure from the checkpoint file:  "BDE49_nonexpt_2245_mol1.chk"
 Charge =  0 Multiplicity = 1

                         Standard orientation:
 ---------------------------------------------------------------------
 Center     Atomic      Atomic             Coordinates (Angstroms)
 Number     Number       Type             X           Y           Z
 ---------------------------------------------------------------------
      1          6           0        1.703778   -0.638532   -0.000000
      2          8           0        0.344493   -0.716654   -0.000001
      3         14           0       -0.786206    0.512325   -0.000000
      4          6           0       -2.453572   -0.316293    0.000001
      5          6           0        2.443936    0.467355   -0.000000
      6          1           0        2.152230   -1.627111    0.000001
      7          1           0        2.017021    1.463310   -0.000001
      8          1           0        3.522387    0.384781    0.000001
      9          1           0       -2.578157   -0.944407   -0.885643
     10          1           0       -3.249756    0.434400    0.000002
     11          1           0       -2.578155   -0.944408    0.885644
     12          1           0       -0.599745    1.359464   -1.202521
     13          1           0       -0.599743    1.359464    1.202521
 ---------------------------------------------------------------------

 SCF Done:  E(RHF) =  -482.192243685     A.U. after    2 cycles

 The electronic state is 1-A.
 Alpha  occ. eigenvalues --  -69.09339 -20.58230 -11.31176 -11.22641 -11.22222
 Alpha  occ. eigenvalues --   -6.84150  -3.95077  -3.94916  -3.94895  -1.33843
 Alpha  occ. eigenvalues --   -1.01870  -0.94826  -0.83278  -0.69396  -0.68347
 Alpha  occ. eigenvalues --   -0.62596  -0.61053  -0.56369  -0.56233  -0.54738
 Alpha  occ. eigenvalues --   -0.51470  -0.46514  -0.45768  -0.35601
 Alpha virt. eigenvalues --    0.03358   0.04446   0.04679   0.05780   0.06201
 Alpha virt. eigenvalues --    0.06294   0.07976   0.08720   0.09139   0.10058
 Alpha virt. eigenvalues --    0.10267   0.12275   0.13249   0.14788   0.15254

 Mulliken charges:
               1
     1  C    0.490545
     2  O   -0.684820
     3  Si   0.935957
     4  C    0.220480
     5  C    0.632542
     6  H   -0.414157
     7  H   -0.324690
     8  H   -0.279291
     9  H   -0.190468
    10  H   -0.268474
    11  H   -0.190469
    12  H    0.036422
    13  H    0.036422
 Sum of Mulliken charges =  -0.00000

 Dipole moment (field-independent basis, Debye):
    X=             -0.5359    Y=              0.1883    Z=              0.0000  Tot=              0.5680

 Test job not archived.
 1\1\GINC-SE069\SP\RHF\Aug-CC-pVDZ\C3H8O1Si1\OHZDE\09-Apr-2025\0\\#t hf
  aug-cc-pvdz iop(5/13=1,5/36=2,99/5=2) pseudo=read geom=check guess=(r
 ead,tcheck) scf=(maxcycle=1)\\title\\0,1\C,0,-1.703778,0.638532,0.\O,0
 ,-0.344493,0.716654,-0.000001\Si,0,0.786206,-0.512325,0.\C,0,2.453572,
 0.316293,0.000001\C,0,-2.443936,-0.467355,0.\H,0,-2.15223,1.627111,0.0
 00001\H,0,-2.017021,-1.46331,-0.000001\H,0,-3.522387,-0.384781,0.00000
 1\H,0,2.578157,0.944407,-0.885643\H,0,3.249756,-0.4344,0.000002\H,0,2.
 578155,0.944408,0.885644\H,0,0.599745,-1.359464,-1.202521\H,0,0.599743

 Normal termination of Gaussian 16 at Wed Apr  9 00:04:42 2025.
