 Gaussian 16, Revision C.01,

 ----------------------------------------------------------------------
 #t hf aug-cc-pvdz symm=none int=(grid=ultrafine) guess=(read,tcheck) s
 table=(opt,rrhf)
 ----------------------------------------------------------------------
 -----
 title
 -----
 Symbolic Z-matrix:
 Charge =  0 Multiplicity = 1

 SCF Done:  E(RHF) =  -970.343988005     A.U. after   14 cycles
 Normal termination of Gaussian 16 at Wed Apr  9 00:15:32 2025.
 Gaussian 16:  ES64L-G16RevC.01  3-Jul-2019

 ----------------------------------------------------------------------
 #t hf aug-cc-pvdz iop(5/13=1,5/36=2,99/5=2) pseudo=read geom=check gue
 ss=(read,tcheck) scf=(maxcycle=1)
 ----------------------------------------------------------------------
 -----
 title
 -----
 Structure from the checkpoint file:  "BDE49_nonexpt_2554_mol1.chk"
 Charge =  0 Multiplicity = 1

                         Standard orientation:
 ---------------------------------------------------------------------
 Center     Atomic      Atomic             Coordinates (Angstroms)
 Number     Number       Type             X           Y           Z
 ---------------------------------------------------------------------
      1         17           0        1.700857   -0.335855   -0.000003
      2         16           0       -0.046183    0.776316    0.000003
      3          6           0       -1.288970   -0.529813    0.000002
      4          8           0       -2.448326   -0.248422   -0.000003
      5          1           0       -0.855206   -1.545268    0.000006
 ---------------------------------------------------------------------

 SCF Done:  E(RHF) =  -970.420833172     A.U. after    2 cycles

 The electronic state is 1-A.
 Alpha  occ. eigenvalues -- -103.70636 -93.62755 -20.61945 -11.41305 -10.73785
 Alpha  occ. eigenvalues --   -8.92248  -8.39518  -8.39166  -8.39128  -6.26283
 Alpha  occ. eigenvalues --   -6.26020  -6.25631  -1.41458  -1.19661  -1.00197
 Alpha  occ. eigenvalues --   -0.83506  -0.71963  -0.67250  -0.61012  -0.55214
 Alpha  occ. eigenvalues --   -0.53968  -0.51862  -0.45140  -0.40300
 Alpha virt. eigenvalues --    0.02933   0.03984   0.07039   0.07060   0.10143
 Alpha virt. eigenvalues --    0.11282   0.11547   0.12801   0.13822   0.14478
 Alpha virt. eigenvalues --    0.15269   0.15927   0.17669   0.21657   0.23191

 Mulliken charges:
               1
     1  Cl  -0.286187
     2  S    0.458317
     3  C    0.235807
     4  O   -0.366115
     5  H   -0.041822
 Sum of Mulliken charges =  -0.00000

 Dipole moment (field-independent basis, Debye):
    X=              1.4565    Y=             -0.7987    Z=              0.0000  Tot=              1.6611

 Test job not archived.
 1\1\GINC-SE333\SP\RHF\Aug-CC-pVDZ\C1H1Cl1O1S1\OHZDE\09-Apr-2025\0\\#t
 hf aug-cc-pvdz iop(5/13=1,5/36=2,99/5=2) pseudo=read geom=check guess=
 (read,tcheck) scf=(maxcycle=1)\\title\\0,1\Cl,0,1.700857,-0.335855,-0.
 000003\S,0,-0.046183,0.776316,0.000003\C,0,-1.28897,-0.529813,0.000002
 \O,0,-2.448326,-0.248422,-0.000003\H,0,-0.855206,-1.545268,0.000006\\V
 ersion=ES64L-G16RevC.01\State=1-A\HF=-970.4208332\RMSD=3.849e-03\Dipol
 e=0.5730241,-0.314241,0.0000053\Quadrupole=-4.5786844,3.60893,0.969754
 4,0.1702828,-0.0000224,-0.0000013\PG=C01 [X(C1H1Cl1O1S1)]\\@

 Normal termination of Gaussian 16 at Wed Apr  9 00:15:34 2025.
