 Gaussian 16, Revision C.01,

 ----------------------------------------------------------------------
 #t hf aug-cc-pvdz symm=none int=(grid=ultrafine) guess=(read,tcheck) s
 table=(opt,rrhf)
 ----------------------------------------------------------------------
 -----
 title
 -----
 Symbolic Z-matrix:
 Charge =  0 Multiplicity = 1

 SCF Done:  E(RHF) =  -558.090888627     A.U. after   13 cycles
 Normal termination of Gaussian 16 at Tue Apr  8 23:57:50 2025.
 Gaussian 16:  ES64L-G16RevC.01  3-Jul-2019

 ----------------------------------------------------------------------
 #t hf aug-cc-pvdz iop(5/13=1,5/36=2,99/5=2) pseudo=read geom=check gue
 ss=(read,tcheck) scf=(maxcycle=1)
 ----------------------------------------------------------------------
 -----
 title
 -----
 Structure from the checkpoint file:  "BDE49_nonexpt_2071_mol1.chk"
 Charge =  0 Multiplicity = 1

                         Standard orientation:
 ---------------------------------------------------------------------
 Center     Atomic      Atomic             Coordinates (Angstroms)
 Number     Number       Type             X           Y           Z
 ---------------------------------------------------------------------
      1         14           0       -1.787562   -0.446302   -0.169318
      2          6           0       -0.012825    0.248201    0.073734
      3          8           0        0.816927   -0.864429   -0.245399
      4          8           0        0.172436    0.645830    1.435463
      5          6           0        2.230121   -0.659046   -0.173374
      6          1           0        2.599128   -0.079286   -1.026276
      7          1           0        2.681635   -1.650510   -0.200224
      8          1           0        2.510002   -0.157322    0.756935
      9          6           0        0.283059    1.490310   -0.760818
     10          1           0        0.254717    1.250242   -1.825898
     11          1           0        1.267130    1.895076   -0.511414
     12          1           0       -0.455572    2.266503   -0.553244
     13          1           0        0.000227   -0.125084    1.989185
     14          1           0       -1.996431   -1.492843    0.860490
     15          1           0       -1.977291   -1.024731   -1.518606
     16          1           0       -2.774706    0.638189    0.041746
 ---------------------------------------------------------------------

 SCF Done:  E(RHF) =  -558.199803134     A.U. after    2 cycles

 The electronic state is 1-A.
 Alpha  occ. eigenvalues --  -69.06157 -20.58244 -20.57899 -11.33874 -11.28331
 Alpha  occ. eigenvalues --  -11.23363  -6.81548  -3.92311  -3.92309  -3.92300
 Alpha  occ. eigenvalues --   -1.36690  -1.29784  -1.01130  -0.94290  -0.81248
 Alpha  occ. eigenvalues --   -0.74269  -0.70924  -0.66281  -0.63524  -0.60923
 Alpha  occ. eigenvalues --   -0.59090  -0.56352  -0.54656  -0.53742  -0.49504
 Alpha  occ. eigenvalues --   -0.47976  -0.47750  -0.45848  -0.41201
 Alpha virt. eigenvalues --    0.03264   0.04510   0.04812   0.05161   0.06051
 Alpha virt. eigenvalues --    0.06424   0.06871   0.06956   0.08739   0.09394
 Alpha virt. eigenvalues --    0.09722   0.09993   0.10637   0.13232   0.13957

 Mulliken charges:
               1
     1  Si  -0.076486
     2  C    0.461086
     3  O   -0.619457
     4  O   -0.611342
     5  C    0.830282
     6  H   -0.140487
     7  H   -0.279795
     8  H   -0.064187
     9  C    0.399971
    10  H    0.000519
    11  H   -0.088469
    12  H   -0.082911
    13  H    0.115799
    14  H    0.005608
    15  H    0.054882
    16  H    0.094988
 Sum of Mulliken charges =   0.00000

 Dipole moment (field-independent basis, Debye):
    X=              0.7480    Y=             -0.0390    Z=             -0.3132  Tot=              0.8119

 Test job not archived.
 1\1\GINC-SE344\SP\RHF\Aug-CC-pVDZ\C3H10O2Si1\OHZDE\08-Apr-2025\0\\#t h
 f aug-cc-pvdz iop(5/13=1,5/36=2,99/5=2) pseudo=read geom=check guess=(
 read,tcheck) scf=(maxcycle=1)\\title\\0,1\Si,0,-1.787562,-0.446302,-0.
 169318\C,0,-0.012825,0.248201,0.073734\O,0,0.816927,-0.864429,-0.24539
 9\O,0,0.172436,0.64583,1.435463\C,0,2.230121,-0.659046,-0.173374\H,0,2
 .599128,-0.079286,-1.026276\H,0,2.681635,-1.65051,-0.200224\H,0,2.5100
 02,-0.157322,0.756935\C,0,0.283059,1.49031,-0.760818\H,0,0.254717,1.25
 0242,-1.825898\H,0,1.26713,1.895076,-0.511414\H,0,-0.455572,2.266503,-

 Normal termination of Gaussian 16 at Tue Apr  8 23:57:56 2025.
