 Gaussian 16, Revision C.01,

 ----------------------------------------------------------------------
 #t hf aug-cc-pvdz symm=none int=(grid=ultrafine) guess=(read,tcheck) s
 table=(opt,rrhf)
 ----------------------------------------------------------------------
 -----
 title
 -----
 Symbolic Z-matrix:
 Charge =  0 Multiplicity = 1

 SCF Done:  E(RHF) =  -887.806191007     A.U. after   15 cycles
 Normal termination of Gaussian 16 at Tue Apr  8 23:25:24 2025.
 Gaussian 16:  ES64L-G16RevC.01  3-Jul-2019

 ----------------------------------------------------------------------
 #t hf aug-cc-pvdz iop(5/13=1,5/36=2,99/5=2) pseudo=read geom=check gue
 ss=(read,tcheck) scf=(maxcycle=1)
 ----------------------------------------------------------------------
 -----
 title
 -----
 Structure from the checkpoint file:  "BDE49_nonexpt_1286_mol1.chk"
 Charge =  0 Multiplicity = 1

                         Standard orientation:
 ---------------------------------------------------------------------
 Center     Atomic      Atomic             Coordinates (Angstroms)
 Number     Number       Type             X           Y           Z
 ---------------------------------------------------------------------
      1          6           0        0.672999    0.936860    1.713954
      2          6           0        0.502202    0.607919    0.222282
      3          1           0        0.541815    0.053542    2.337535
      4          1           0       -0.079199    1.674709    1.996705
      5          1           0        1.664708    1.359467    1.890883
      6          6           0        0.729894    1.821155   -0.673875
      7          1           0        0.681208    1.549052   -1.727588
      8          1           0        1.703816    2.268261   -0.472941
      9          1           0       -0.051857    2.552878   -0.464914
     10         15           0       -1.204304   -0.069465   -0.070590
     11          7           0        1.540805   -0.488861   -0.113706
     12          8           0        1.360884   -1.603836    0.381914
     13          8           0        2.489276   -0.195675   -0.805546
     14          8           0       -2.263635    0.920349    0.128196
     15          8           0       -1.334291   -1.348756    0.862906
     16          8           0       -1.033377   -0.614614   -1.573084
     17          1           0       -1.853536   -0.579636   -2.080897
     18          1           0       -0.509443   -1.869616    0.846757
 ---------------------------------------------------------------------

 SCF Done:  E(RHF) =  -888.041138401     A.U. after    2 cycles

 The electronic state is 1-A.
 Alpha  occ. eigenvalues --  -81.43689 -20.65321 -20.63863 -20.63347 -20.62188
 Alpha  occ. eigenvalues --  -20.54246 -15.93733 -11.35160 -11.27617 -11.26572
 Alpha  occ. eigenvalues --   -7.92054  -5.06732  -5.06638  -5.06386  -1.57588
 Alpha  occ. eigenvalues --   -1.39843  -1.38879  -1.36058  -1.27768  -1.14881
 Alpha  occ. eigenvalues --   -0.98173  -0.97103  -0.87395  -0.84055  -0.79020
 Alpha  occ. eigenvalues --   -0.76918  -0.76113  -0.74522  -0.68510  -0.68165
 Alpha  occ. eigenvalues --   -0.66547  -0.61610  -0.61071  -0.60827  -0.59233
 Alpha  occ. eigenvalues --   -0.58918  -0.56621  -0.54626  -0.53961  -0.53184
 Alpha  occ. eigenvalues --   -0.51842  -0.50617  -0.50132  -0.47839
 Alpha virt. eigenvalues --    0.03075   0.03595   0.04302   0.05404   0.06107
 Alpha virt. eigenvalues --    0.06253   0.06751   0.07756   0.08368   0.09420
 Alpha virt. eigenvalues --    0.10878   0.12170   0.12594   0.13288   0.13894

 Mulliken charges:
               1
     1  C    0.941539
     2  C   -2.016045
     3  H   -0.009039
     4  H    0.057412
     5  H   -0.010584
     6  C    0.957845
     7  H    0.038512
     8  H    0.080323
     9  H    0.085695
    10  P    2.604458
    11  N    0.453809
    12  O   -0.645972
    13  O   -0.537315
    14  O   -0.878367
    15  O   -0.739512
    16  O   -0.754572
    17  H    0.168917
    18  H    0.202896
 Sum of Mulliken charges =  -0.00000

 Dipole moment (field-independent basis, Debye):
    X=              0.8339    Y=              1.2459    Z=             -0.2780  Tot=              1.5248

 Test job not archived.
 1\1\GINC-SE363\SP\RHF\Aug-CC-pVDZ\C3H8N1O5P1\OHZDE\08-Apr-2025\0\\#t h
 f aug-cc-pvdz iop(5/13=1,5/36=2,99/5=2) pseudo=read geom=check guess=(
 read,tcheck) scf=(maxcycle=1)\\title\\0,1\C,0,0.672999,0.93686,1.71395
 4\C,0,0.502202,0.607919,0.222282\H,0,0.541815,0.053542,2.337535\H,0,-0
 .079199,1.674709,1.996705\H,0,1.664708,1.359467,1.890883\C,0,0.729894,
 1.821155,-0.673875\H,0,0.681208,1.549052,-1.727588\H,0,1.703816,2.2682
 61,-0.472941\H,0,-0.051857,2.552878,-0.464914\P,0,-1.204304,-0.069465,
 -0.07059\N,0,1.540805,-0.488861,-0.113706\O,0,1.360884,-1.603836,0.381

 Normal termination of Gaussian 16 at Tue Apr  8 23:25:34 2025.
