 Gaussian 16, Revision C.01,

 ----------------------------------------------------------------------
 #t hf aug-cc-pvdz symm=none int=(grid=ultrafine) guess=(read,tcheck) s
 table=(opt,rrhf)
 ----------------------------------------------------------------------
 -----
 title
 -----
 Symbolic Z-matrix:
 Charge =  0 Multiplicity = 1

 SCF Done:  E(RHF) =  -760.416185420     A.U. after   15 cycles
 Normal termination of Gaussian 16 at Tue Apr  8 22:53:04 2025.
 Gaussian 16:  ES64L-G16RevC.01  3-Jul-2019

 ----------------------------------------------------------------------
 #t hf aug-cc-pvdz iop(5/13=1,5/36=2,99/5=2) pseudo=read geom=check gue
 ss=(read,tcheck) scf=(maxcycle=1)
 ----------------------------------------------------------------------
 -----
 title
 -----
 Structure from the checkpoint file:  "BDE49_expt_1822_mol1.chk"
 Charge =  0 Multiplicity = 1

                         Standard orientation:
 ---------------------------------------------------------------------
 Center     Atomic      Atomic             Coordinates (Angstroms)
 Number     Number       Type             X           Y           Z
 ---------------------------------------------------------------------
      1          7           0       -2.908287    0.264272    0.260251
      2          8           0       -2.482080    1.039956    1.042210
      3         16           0       -1.674641   -0.774026   -0.654983
      4          6           0       -0.085322   -0.192089    0.034165
      5          6           0        0.515793    0.953679   -0.796824
      6          6           0        1.851257    1.424980   -0.198238
      7          1           0       -0.193386    1.783816   -0.848947
      8          1           0        0.674044    0.605808   -1.824380
      9          6           0        2.841062    0.263251   -0.037333
     10          1           0        1.666116    1.882918    0.781514
     11          1           0        2.280145    2.207985   -0.831159
     12          6           0        2.231775   -0.878217    0.788218
     13          1           0        3.764936    0.615744    0.431510
     14          1           0        3.118871   -0.115899   -1.029167
     15          6           0        0.898594   -1.363521    0.194137
     16          1           0        2.062606   -0.532514    1.815760
     17          1           0        2.929937   -1.718464    0.853090
     18          1           0        1.084659   -1.820967   -0.784981
     19          1           0        0.457038   -2.137781    0.827184
     20          1           0       -0.355019    0.195714    1.025126
 ---------------------------------------------------------------------

 SCF Done:  E(RHF) =  -760.544020332     A.U. after    2 cycles

 The electronic state is 1-A.
 Alpha  occ. eigenvalues --  -93.56355 -20.67101 -15.81679 -11.28000 -11.24640
 Alpha  occ. eigenvalues --  -11.24126 -11.23944 -11.23695 -11.23585  -8.85968
 Alpha  occ. eigenvalues --   -6.20076  -6.19824  -6.19534  -1.51182  -1.12784
 Alpha  occ. eigenvalues --   -1.05032  -1.01065  -0.98676  -0.88083  -0.84699
 Alpha  occ. eigenvalues --   -0.80621  -0.76666  -0.70875  -0.69056  -0.65453
 Alpha  occ. eigenvalues --   -0.64341  -0.61776  -0.61565  -0.58872  -0.54464
 Alpha  occ. eigenvalues --   -0.54260  -0.51829  -0.50049  -0.49379  -0.46759
 Alpha  occ. eigenvalues --   -0.45226  -0.43317  -0.38885  -0.37093
 Alpha virt. eigenvalues --    0.03272   0.03978   0.04339   0.04981   0.06283
 Alpha virt. eigenvalues --    0.06450   0.06663   0.06976   0.07446   0.07583
 Alpha virt. eigenvalues --    0.08867   0.09035   0.09246   0.11057   0.12644

 Mulliken charges:
               1
     1  N   -0.212893
     2  O   -0.355024
     3  S    0.736133
     4  C   -0.305069
     5  C    0.166758
     6  C    0.170064
     7  H   -0.135785
     8  H   -0.065776
     9  C    0.275303
    10  H   -0.087698
    11  H   -0.098865
    12  C    0.257647
    13  H   -0.103051
    14  H   -0.095534
    15  C    0.414521
    16  H   -0.090822
    17  H   -0.106378
    18  H   -0.065309
    19  H   -0.161950
    20  H   -0.136273
 Sum of Mulliken charges =  -0.00000

 Dipole moment (field-independent basis, Debye):
    X=              2.7058    Y=             -0.3940    Z=             -0.2349  Tot=              2.7444

 Test job not archived.
 1\1\GINC-SE073\SP\RHF\Aug-CC-pVDZ\C6H11N1O1S1\OHZDE\08-Apr-2025\0\\#t
 hf aug-cc-pvdz iop(5/13=1,5/36=2,99/5=2) pseudo=read geom=check guess=
 (read,tcheck) scf=(maxcycle=1)\\title\\0,1\N,0,-2.908287,0.264272,0.26
 0251\O,0,-2.48208,1.039956,1.04221\S,0,-1.674641,-0.774026,-0.654983\C
 ,0,-0.085322,-0.192089,0.034165\C,0,0.515793,0.953679,-0.796824\C,0,1.
 851257,1.42498,-0.198238\H,0,-0.193386,1.783816,-0.848947\H,0,0.674044
 ,0.605808,-1.82438\C,0,2.841062,0.263251,-0.037333\H,0,1.666116,1.8829
 18,0.781514\H,0,2.280145,2.207985,-0.831159\C,0,2.231775,-0.878217,0.7

 Normal termination of Gaussian 16 at Tue Apr  8 22:53:15 2025.
