 Gaussian 16, Revision C.01,

 ----------------------------------------------------------------------
 #t hf aug-cc-pvdz symm=none int=(grid=ultrafine) guess=(read,tcheck) s
 table=opt
 ----------------------------------------------------------------------
 -----
 title
 -----
 Symbolic Z-matrix:
 Charge =  0 Multiplicity = 2

 SCF Done:  E(UHF) =  -305.276769930     a.u. after   13 cycles
 Normal termination of Gaussian 16 at Tue Apr  8 22:56:39 2025.
 Gaussian 16:  ES64L-G16RevC.01  3-Jul-2019

 ----------------------------------------------------------------------
 #t hf aug-cc-pvdz iop(5/13=1,5/36=2,99/5=2) pseudo=read geom=check gue
 ss=(read,tcheck) scf=(maxcycle=1)
 ----------------------------------------------------------------------
 -----
 title
 -----
 Structure from the checkpoint file:  "BDE49_expt_1877_mol2.chk"
 Charge =  0 Multiplicity = 2

                         Standard orientation:
 ---------------------------------------------------------------------
 Center     Atomic      Atomic             Coordinates (Angstroms)
 Number     Number       Type             X           Y           Z
 ---------------------------------------------------------------------
      1          8           0       -2.075090    0.267687    0.625417
      2          6           0       -1.032627    0.019006   -0.036662
      3          8           0       -1.081577   -1.120552   -0.561542
      4          6           0        1.446415    0.313273   -0.529738
      5          6           0        0.104665    0.984165   -0.197940
      6          1           0        0.163975    1.583872    0.715959
      7          1           0       -0.190997    1.670812   -1.000272
      8          6           0        2.027218   -0.496574    0.632867
      9          1           0        2.150587    1.096676   -0.824883
     10          1           0        1.316434   -0.331255   -1.403786
     11          1           0        2.188953    0.133719    1.512686
     12          1           0        2.989016   -0.935992    0.357969
     13          1           0        1.361343   -1.314132    0.920161
 ---------------------------------------------------------------------

 SCF Done:  E(UHF) =  -305.374646723     A.U. after    2 cycles

 The electronic state is 2-A.
 Alpha  occ. eigenvalues --  -20.71092 -20.56131 -11.40895 -11.28164 -11.25457
 Alpha  occ. eigenvalues --  -11.23458  -1.50926  -1.31384  -1.09136  -0.98523
 Alpha  occ. eigenvalues --   -0.86394  -0.82067  -0.77102  -0.71567  -0.71295
 Alpha  occ. eigenvalues --   -0.63493  -0.62708  -0.58902  -0.57503  -0.51592
 Alpha  occ. eigenvalues --   -0.50868  -0.49973  -0.49020  -0.48149
 Alpha virt. eigenvalues --    0.02927   0.04272   0.04498   0.05470   0.06789
 Alpha virt. eigenvalues --    0.07241   0.07831   0.09257   0.11271   0.12756
 Alpha virt. eigenvalues --    0.13727   0.14228   0.14531   0.14814   0.15136

  Beta  occ. eigenvalues --  -20.66916 -20.55623 -11.41191 -11.28083 -11.25441
  Beta  occ. eigenvalues --  -11.23459  -1.41194  -1.26028  -1.08672  -0.97816
  Beta  occ. eigenvalues --   -0.85052  -0.77539  -0.70794  -0.69042  -0.64326
  Beta  occ. eigenvalues --   -0.62052  -0.60485  -0.57417  -0.51219  -0.50941
  Beta  occ. eigenvalues --   -0.49903  -0.47869  -0.45917
  Beta virt. eigenvalues --    0.02304   0.03023   0.04294   0.04798   0.05484
  Beta virt. eigenvalues --    0.06818   0.07399   0.07885   0.09331   0.11475
  Beta virt. eigenvalues --    0.13195   0.13791   0.14378   0.14520   0.14910

 Mulliken charges and spin densities:
               1          2
     1  O   -0.222834   1.065511
     2  C    0.473536  -0.209165
     3  O   -0.580153   0.078838
     4  C    0.303537   0.003585
     5  C   -0.005480   0.052844
     6  H   -0.020359   0.009333
     7  H    0.056033  -0.001898
     8  C    0.359318  -0.001186
     9  H   -0.067716   0.001837
    10  H   -0.076563  -0.000341
    11  H   -0.068693   0.000215
    12  H   -0.068518  -0.000289
    13  H   -0.082107   0.000716
 Sum of Mulliken charges =   0.00000   1.00000

 Dipole moment (field-independent basis, Debye):
    X=              2.1959    Y=              3.4194    Z=              0.6136  Tot=              4.1099
                          Isotropic Fermi Contact Couplings
        Atom                 a.u.       MegaHertz       Gauss      10(-4) cm-1
     1  O(17)              0.28791    -174.52864     -62.27616     -58.21649
     2  C(13)             -0.05552     -62.41056     -22.26964     -20.81792
     3  O(17)              0.04615     -27.97549      -9.98235      -9.33162
     4  C(13)              0.00274       3.07467       1.09712       1.02560
     5  C(13)              0.01073      12.06594       4.30543       4.02476
     6  H(1)              -0.00034      -1.49838      -0.53466      -0.49981
     7  H(1)              -0.00091      -4.06109      -1.44910      -1.35464
     8  C(13)             -0.00015      -0.16331      -0.05827      -0.05448

 Normal termination of Gaussian 16 at Tue Apr  8 22:56:44 2025.
