 Gaussian 16, Revision C.01,

 ----------------------------------------------------------------------
 #t hf aug-cc-pvdz symm=none int=(grid=ultrafine) guess=(read,tcheck) s
 table=(opt,rrhf)
 ----------------------------------------------------------------------
 -----
 title
 -----
 Symbolic Z-matrix:
 Charge =  0 Multiplicity = 1

 SCF Done:  E(RHF) =  -324.802472782     A.U. after   15 cycles
 Normal termination of Gaussian 16 at Tue Apr  8 22:37:09 2025.
 Gaussian 16:  ES64L-G16RevC.01  3-Jul-2019

 ----------------------------------------------------------------------
 #t hf aug-cc-pvdz iop(5/13=1,5/36=2,99/5=2) pseudo=read geom=check gue
 ss=(read,tcheck) scf=(maxcycle=1)
 ----------------------------------------------------------------------
 -----
 title
 -----
 Structure from the checkpoint file:  "BDE49_expt_1192_mol1.chk"
 Charge =  0 Multiplicity = 1

                         Standard orientation:
 ---------------------------------------------------------------------
 Center     Atomic      Atomic             Coordinates (Angstroms)
 Number     Number       Type             X           Y           Z
 ---------------------------------------------------------------------
      1          6           0       -0.426814    0.254489    0.128674
      2          6           0       -1.903687    0.564606    0.285901
      3          7           0       -2.750100   -0.478449   -0.303586
      4          1           0       -2.092832    1.573907   -0.112070
      5          1           0       -2.142517    0.607391    1.355604
      6          1           0       -2.665439   -0.467052   -1.315680
      7          1           0       -3.725157   -0.308043   -0.081778
      8          6           0        0.500727    1.288793   -0.022242
      9          6           0        1.863512    1.017121   -0.124967
     10          6           0        2.317033   -0.299324   -0.085614
     11          6           0        1.398476   -1.338271    0.056101
     12          6           0        0.037360   -1.064177    0.163680
     13          1           0       -0.685074   -1.865235    0.262962
     14          1           0        0.153090    2.316860   -0.063150
     15          1           0        2.568909    1.832466   -0.243068
     16          1           0        3.376494   -0.514282   -0.170316
     17          1           0        1.743584   -2.366291    0.083408
 ---------------------------------------------------------------------

 SCF Done:  E(RHF) =  -324.898601291     A.U. after    2 cycles

 The electronic state is 1-A.
 Alpha  occ. eigenvalues --  -15.61109 -11.26905 -11.24479 -11.24119 -11.23979
 Alpha  occ. eigenvalues --  -11.23831 -11.23789 -11.23274  -1.16232  -1.12770
 Alpha  occ. eigenvalues --   -1.01651  -1.00313  -0.89854  -0.82429  -0.79260
 Alpha  occ. eigenvalues --   -0.70045  -0.66354  -0.64698  -0.62647  -0.58882
 Alpha  occ. eigenvalues --   -0.57772  -0.57306  -0.54846  -0.49234  -0.48960
 Alpha  occ. eigenvalues --   -0.48426  -0.39471  -0.33502  -0.32612
 Alpha virt. eigenvalues --    0.03339   0.03780   0.04266   0.04973   0.05513
 Alpha virt. eigenvalues --    0.05756   0.07323   0.08053   0.08359   0.10715
 Alpha virt. eigenvalues --    0.11287   0.12294   0.12525   0.13676   0.14305

 Mulliken charges:
               1
     1  C    0.227915
     2  C    0.859089
     3  N   -0.341352
     4  H   -0.143453
     5  H   -0.024506
     6  H    0.017985
     7  H    0.004947
     8  C    0.605687
     9  C    0.249162
    10  C    0.522357
    11  C    0.236884
    12  C    0.218184
    13  H   -0.530545
    14  H   -0.568311
    15  H   -0.447285
    16  H   -0.438174
    17  H   -0.448584
 Sum of Mulliken charges =  -0.00000

 Dipole moment (field-independent basis, Debye):
    X=             -0.9283    Y=              1.0112    Z=             -0.4332  Tot=              1.4394

 Test job not archived.
 1\1\GINC-SE339\SP\RHF\Aug-CC-pVDZ\C7H9N1\OHZDE\08-Apr-2025\0\\#t hf au
 g-cc-pvdz iop(5/13=1,5/36=2,99/5=2) pseudo=read geom=check guess=(read
 ,tcheck) scf=(maxcycle=1)\\title\\0,1\C,0,-0.426814,0.254489,0.128674\
 C,0,-1.903687,0.564606,0.285901\N,0,-2.7501,-0.478449,-0.303586\H,0,-2
 .092832,1.573907,-0.11207\H,0,-2.142517,0.607391,1.355604\H,0,-2.66543
 9,-0.467052,-1.31568\H,0,-3.725157,-0.308043,-0.081778\C,0,0.500727,1.
 288793,-0.022242\C,0,1.863512,1.017121,-0.124967\C,0,2.317033,-0.29932
 4,-0.085614\C,0,1.398476,-1.338271,0.056101\C,0,0.03736,-1.064177,0.16

 Normal termination of Gaussian 16 at Tue Apr  8 22:37:16 2025.
