 Gaussian 16, Revision C.01,

 ----------------------------------------------------------------------
 #t hf aug-cc-pvdz symm=none int=(grid=ultrafine) guess=(read,tcheck) s
 table=opt
 ----------------------------------------------------------------------
 -----
 title
 -----
 Symbolic Z-matrix:
 Charge =  0 Multiplicity = 2

 SCF Done:  E(UHF) =  -645.085004868     A.U. after   24 cycles
 Normal termination of Gaussian 16 at Wed Apr  9 00:17:14 2025.
 Gaussian 16:  ES64L-G16RevC.01  3-Jul-2019

 ----------------------------------------------------------------------
 #t hf aug-cc-pvdz iop(5/13=1,5/36=2,99/5=2) pseudo=read geom=check gue
 ss=(read,tcheck) scf=(maxcycle=1)
 ----------------------------------------------------------------------
 -----
 title
 -----
 Structure from the checkpoint file:  "BDE49_nonexpt_2567_mol2.chk"
 Charge =  0 Multiplicity = 2

                         Standard orientation:
 ---------------------------------------------------------------------
 Center     Atomic      Atomic             Coordinates (Angstroms)
 Number     Number       Type             X           Y           Z
 ---------------------------------------------------------------------
      1         16           0        1.549988   -0.788595    0.388381
      2          6           0        0.423213    0.193174   -0.642321
      3          8           0        0.717202    1.559688   -0.715653
      4          7           0       -0.823312   -0.107999    0.038940
      5          6           0       -1.798485   -0.957365   -0.614720
      6          1           0       -1.293472   -1.656635   -1.280710
      7          1           0       -2.518271   -0.365408   -1.200689
      8          1           0       -2.352529   -1.534767    0.129244
      9          6           0       -1.295885    0.755450    1.103831
     10          1           0       -0.451988    1.216491    1.612002
     11          1           0       -1.858576    0.167504    1.832507
     12          1           0       -1.946291    1.549733    0.712132
     13          1           0        0.359544   -0.184933   -1.662831
     14          1           0        1.314277    1.756471    0.016153
 ---------------------------------------------------------------------

 SCF Done:  E(UHF) =  -645.182473808     A.U. after    2 cycles

 The electronic state is 2-A.
 Alpha  occ. eigenvalues --  -93.54471 -20.59322 -15.63342 -11.36560 -11.27138
 Alpha  occ. eigenvalues --  -11.26700  -8.84236  -6.19551  -6.17925  -6.17499
 Alpha  occ. eigenvalues --   -1.35891  -1.21003  -1.01323  -0.96928  -0.89273
 Alpha  occ. eigenvalues --   -0.81628  -0.70266  -0.68571  -0.65471  -0.63858
 Alpha  occ. eigenvalues --   -0.58779  -0.56686  -0.55679  -0.53718  -0.52330
 Alpha  occ. eigenvalues --   -0.47630  -0.43383  -0.37688  -0.34623
 Alpha virt. eigenvalues --    0.03477   0.04267   0.04751   0.05417   0.06704
 Alpha virt. eigenvalues --    0.07360   0.07656   0.08412   0.09333   0.11762
 Alpha virt. eigenvalues --    0.13080   0.13713   0.14017   0.15024   0.15545

  Beta  occ. eigenvalues --  -93.53598 -20.59331 -15.62605 -11.36664 -11.27172
  Beta  occ. eigenvalues --  -11.26733  -8.83264  -6.17425  -6.16954  -6.15726
  Beta  occ. eigenvalues --   -1.35873  -1.19791  -0.98805  -0.96813  -0.84599
  Beta  occ. eigenvalues --   -0.80904  -0.69117  -0.68432  -0.64208  -0.62703
  Beta  occ. eigenvalues --   -0.58544  -0.56496  -0.55584  -0.53554  -0.51375
  Beta  occ. eigenvalues --   -0.46567  -0.35702  -0.33015
  Beta virt. eigenvalues --    0.02413   0.03495   0.04281   0.05243   0.05459
  Beta virt. eigenvalues --    0.06720   0.07478   0.07664   0.08612   0.09349
  Beta virt. eigenvalues --    0.12295   0.13207   0.13804   0.14120   0.15582

 Mulliken charges and spin densities:
               1          2
     1  S    0.174159   1.028537
     2  C    0.300413  -0.100510
     3  O   -0.559607   0.001661
     4  N   -0.356204   0.116187
     5  C    0.693149  -0.030994
     6  H   -0.246581   0.002247
     7  H   -0.077243   0.006328
     8  H   -0.177787   0.001937
     9  C    0.794156  -0.026396
    10  H   -0.257358   0.002012
    11  H   -0.166638   0.000984
    12  H   -0.076807   0.003373
    13  H   -0.265575   0.000052
    14  H    0.221923  -0.005417
 Sum of Mulliken charges =  -0.00000   1.00000

 Dipole moment (field-independent basis, Debye):
    X=             -1.4269    Y=             -0.0341    Z=              0.2594  Tot=              1.4506
                          Isotropic Fermi Contact Couplings
        Atom                 a.u.       MegaHertz       Gauss      10(-4) cm-1
     1  S(33)              0.19718      67.72525      24.16605      22.59071
     2  C(13)             -0.02014     -22.64476      -8.08021      -7.55348
     3  O(17)             -0.00547       3.31541       1.18302       1.10590
     4  N(14)              0.14501      46.85322      16.71840      15.62855
     5  C(13)             -0.00696      -7.82021      -2.79044      -2.60854
     6  H(1)               0.00050       2.25056       0.80306       0.75071
     7  H(1)               0.00237      10.58349       3.77645       3.53027
     8  H(1)               0.00010       0.45329       0.16175       0.15120

 Normal termination of Gaussian 16 at Wed Apr  9 00:17:18 2025.
