 Gaussian 16, Revision C.01,

 ----------------------------------------------------------------------
 #t hf aug-cc-pvdz symm=none int=(grid=ultrafine) guess=(read,tcheck) s
 table=(opt,rrhf)
 ----------------------------------------------------------------------
 -----
 title
 -----
 Symbolic Z-matrix:
 Charge =  0 Multiplicity = 1

 SCF Done:  E(RHF) =  -588.832663565     A.U. after   15 cycles
 Normal termination of Gaussian 16 at Tue Apr  8 23:59:31 2025.
 Gaussian 16:  ES64L-G16RevC.01  3-Jul-2019

 ----------------------------------------------------------------------
 #t hf aug-cc-pvdz iop(5/13=1,5/36=2,99/5=2) pseudo=read geom=check gue
 ss=(read,tcheck) scf=(maxcycle=1)
 ----------------------------------------------------------------------
 -----
 title
 -----
 Structure from the checkpoint file:  "BDE49_nonexpt_2131_mol1.chk"
 Charge =  0 Multiplicity = 1

                         Standard orientation:
 ---------------------------------------------------------------------
 Center     Atomic      Atomic             Coordinates (Angstroms)
 Number     Number       Type             X           Y           Z
 ---------------------------------------------------------------------
      1          7           0       -0.050248    0.478763    0.000080
      2         14           0       -1.717926   -0.152357    0.000037
      3          7           0        0.908492   -0.501386    0.000153
      4          8           0        0.457219   -1.653635   -0.000190
      5          8           0        2.085917   -0.187799   -0.000123
      6          6           0        0.430264    1.857070    0.000035
      7          1           0       -0.442731    2.507628   -0.000022
      8          1           0        1.034366    2.058568   -0.887028
      9          1           0        1.034308    2.058640    0.887121
     10          1           0       -2.000829   -0.921907   -1.222874
     11          1           0       -2.507590    1.099268   -0.000057
     12          1           0       -2.000939   -0.921792    1.222995
 ---------------------------------------------------------------------

 SCF Done:  E(RHF) =  -588.952627914     A.U. after    2 cycles

 The electronic state is 1-A.
 Alpha  occ. eigenvalues --  -69.11192 -20.62449 -20.61444 -15.95324 -15.70362
 Alpha  occ. eigenvalues --  -11.30070  -6.86111  -3.97013  -3.96871  -3.96807
 Alpha  occ. eigenvalues --   -1.56952  -1.37620  -1.24369  -1.00265  -0.86474
 Alpha  occ. eigenvalues --   -0.79385  -0.75862  -0.75432  -0.70859  -0.62198
 Alpha  occ. eigenvalues --   -0.61657  -0.57692  -0.53061  -0.52792  -0.52061
 Alpha  occ. eigenvalues --   -0.48833  -0.48549  -0.42879
 Alpha virt. eigenvalues --    0.02706   0.03918   0.04271   0.05595   0.06707
 Alpha virt. eigenvalues --    0.07404   0.07669   0.08991   0.09451   0.09865
 Alpha virt. eigenvalues --    0.12335   0.13619   0.14698   0.15324   0.15747

 Mulliken charges:
               1
     1  N   -0.242516
     2  Si   0.114915
     3  N    0.469952
     4  O   -0.577104
     5  O   -0.521980
     6  C    0.847873
     7  H   -0.248392
     8  H   -0.068572
     9  H   -0.068595
    10  H    0.131276
    11  H    0.031904
    12  H    0.131238
 Sum of Mulliken charges =  -0.00000

 Dipole moment (field-independent basis, Debye):
    X=             -2.6926    Y=              3.5431    Z=              0.0009  Tot=              4.4502

 Test job not archived.
 1\1\GINC-SE361\SP\RHF\Aug-CC-pVDZ\C1H6N2O2Si1\OHZDE\08-Apr-2025\0\\#t
 hf aug-cc-pvdz iop(5/13=1,5/36=2,99/5=2) pseudo=read geom=check guess=
 (read,tcheck) scf=(maxcycle=1)\\title\\0,1\N,0,0.050248,0.478763,-0.00
 008\Si,0,1.717926,-0.152356,-0.000037\N,0,-0.908492,-0.501386,-0.00015
 3\O,0,-0.457219,-1.653635,0.00019\O,0,-2.085917,-0.1878,0.000123\C,0,-
 0.430265,1.85707,-0.000035\H,0,0.44273,2.507628,0.000022\H,0,-1.034367
 ,2.058568,0.887028\H,0,-1.034309,2.05864,-0.887121\H,0,2.000829,-0.921
 906,1.222874\H,0,2.50759,1.099269,0.000057\H,0,2.000939,-0.921791,-1.2

 Normal termination of Gaussian 16 at Tue Apr  8 23:59:34 2025.
