 Gaussian 16, Revision C.01,

 ----------------------------------------------------------------------
 #t hf aug-cc-pvdz symm=none int=(grid=ultrafine) guess=(read,tcheck) s
 table=(opt,rrhf)
 ----------------------------------------------------------------------
 -----
 title
 -----
 Symbolic Z-matrix:
 Charge =  0 Multiplicity = 1

 SCF Done:  E(RHF) =  -721.183322636     A.U. after   16 cycles
 Normal termination of Gaussian 16 at Wed Apr  9 00:28:35 2025.
 Gaussian 16:  ES64L-G16RevC.01  3-Jul-2019

 ----------------------------------------------------------------------
 #t hf aug-cc-pvdz iop(5/13=1,5/36=2,99/5=2) pseudo=read geom=check gue
 ss=(read,tcheck) scf=(maxcycle=1)
 ----------------------------------------------------------------------
 -----
 title
 -----
 Structure from the checkpoint file:  "BDE49_nonexpt_343_mol1.chk"
 Charge =  0 Multiplicity = 1

                         Standard orientation:
 ---------------------------------------------------------------------
 Center     Atomic      Atomic             Coordinates (Angstroms)
 Number     Number       Type             X           Y           Z
 ---------------------------------------------------------------------
      1          6           0        0.063515    0.098927    0.408462
      2          7           0        0.993240   -1.100660    0.064980
      3          5           0       -1.519800   -0.209080    0.167297
      4          7           0        0.540386    1.212480   -0.580178
      5          9           0        0.372697    0.496357    1.637916
      6          8           0        1.366963    1.987249   -0.165874
      7          8           0       -2.329204    0.547278    0.933824
      8          8           0        0.744009   -1.675417   -0.988083
      9          8           0       -1.959189   -1.134704   -0.699284
     10          8           0        1.867291   -1.364006    0.849803
     11          8           0        0.015098    1.184536   -1.677553
     12          1           0       -1.246376   -1.544983   -1.210862
     13          1           0       -3.265121    0.387383    0.766080
 ---------------------------------------------------------------------

 SCF Done:  E(RHF) =  -721.415242533     A.U. after    2 cycles

 The electronic state is 1-A.
 Alpha  occ. eigenvalues --  -26.21204 -20.68480 -20.67323 -20.67043 -20.66720
 Alpha  occ. eigenvalues --  -20.63412 -20.62773 -15.97355 -15.96719 -11.49364
 Alpha  occ. eigenvalues --   -7.73631  -1.76256  -1.61283  -1.60038  -1.43217
 Alpha  occ. eigenvalues --   -1.42451  -1.39677  -1.36350  -1.15886  -0.99641
 Alpha  occ. eigenvalues --   -0.93089  -0.87997  -0.86578  -0.85959  -0.82410
 Alpha  occ. eigenvalues --   -0.79826  -0.78987  -0.78907  -0.77965  -0.77307
 Alpha  occ. eigenvalues --   -0.75382  -0.70184  -0.64431  -0.63720  -0.62712
 Alpha  occ. eigenvalues --   -0.57874  -0.57284  -0.56624  -0.54747  -0.53588
 Alpha  occ. eigenvalues --   -0.52933  -0.51452
 Alpha virt. eigenvalues --    0.01300   0.02642   0.04359   0.04807   0.05001
 Alpha virt. eigenvalues --    0.05935   0.07488   0.08333   0.10314   0.10963
 Alpha virt. eigenvalues --    0.12706   0.13521   0.14018   0.15677   0.16624

 Mulliken charges:
               1
     1  C    1.409906
     2  N    0.233007
     3  B    0.734020
     4  N    0.244655
     5  F   -0.199810
     6  O   -0.494960
     7  O   -0.436902
     8  O   -0.561438
     9  O   -0.462771
    10  O   -0.458697
    11  O   -0.533310
    12  H    0.300201
    13  H    0.226099
 Sum of Mulliken charges =   0.00000

 Dipole moment (field-independent basis, Debye):
    X=             -3.4023    Y=             -1.1006    Z=              0.5050  Tot=              3.6114

 Test job not archived.
 1\1\GINC-SE435\SP\RHF\Aug-CC-pVDZ\C1H2B1F1N2O6\OHZDE\09-Apr-2025\0\\#t
  hf aug-cc-pvdz iop(5/13=1,5/36=2,99/5=2) pseudo=read geom=check guess
 =(read,tcheck) scf=(maxcycle=1)\\title\\0,1\C,0,0.063515,0.098927,0.40
 8462\N,0,0.99324,-1.10066,0.06498\B,0,-1.5198,-0.20908,0.167297\N,0,0.
 540386,1.21248,-0.580178\F,0,0.372697,0.496357,1.637916\O,0,1.366963,1
 .987249,-0.165874\O,0,-2.329204,0.547278,0.933824\O,0,0.744009,-1.6754
 17,-0.988083\O,0,-1.959189,-1.134704,-0.699284\O,0,1.867291,-1.364006,
 0.849803\O,0,0.015098,1.184536,-1.677553\H,0,-1.246376,-1.544983,-1.21

 Normal termination of Gaussian 16 at Wed Apr  9 00:28:41 2025.
