 Gaussian 16, Revision C.01,

 ----------------------------------------------------------------------
 #t hf aug-cc-pvdz symm=none int=(grid=ultrafine) guess=(read,tcheck) s
 table=(opt,rrhf)
 ----------------------------------------------------------------------
 -----
 title
 -----
 Symbolic Z-matrix:
 Charge =  0 Multiplicity = 1

 SCF Done:  E(RHF) =  -409.947812650     A.U. after   13 cycles
 Normal termination of Gaussian 16 at Tue Apr  8 22:39:00 2025.
 Gaussian 16:  ES64L-G16RevC.01  3-Jul-2019

 ----------------------------------------------------------------------
 #t hf aug-cc-pvdz iop(5/13=1,5/36=2,99/5=2) pseudo=read geom=check gue
 ss=(read,tcheck) scf=(maxcycle=1)
 ----------------------------------------------------------------------
 -----
 title
 -----
 Structure from the checkpoint file:  "BDE49_expt_1276_mol1.chk"
 Charge =  0 Multiplicity = 1

                         Standard orientation:
 ---------------------------------------------------------------------
 Center     Atomic      Atomic             Coordinates (Angstroms)
 Number     Number       Type             X           Y           Z
 ---------------------------------------------------------------------
      1          6           0        0.583909    0.000000    0.030603
      2          7           0       -0.773088   -0.000000   -0.625460
      3          9           0       -1.475099   -1.094429   -0.066201
      4          9           0       -1.475099    1.094429   -0.066201
      5          6           0        0.491719   -0.000004    1.560339
      6          1           0       -0.032714    0.885457    1.920498
      7          1           0        1.499429   -0.000004    1.982559
      8          1           0       -0.032713   -0.885466    1.920494
      9          6           0        1.277509    1.262186   -0.501168
     10          1           0        0.787131    2.164710   -0.135326
     11          1           0        1.269305    1.279549   -1.593504
     12          1           0        2.316313    1.269034   -0.163815
     13          6           0        1.277512   -1.262182   -0.501174
     14          1           0        0.787139   -2.164708   -0.135334
     15          1           0        2.316317   -1.269026   -0.163822
     16          1           0        1.269306   -1.279541   -1.593510
 ---------------------------------------------------------------------

 SCF Done:  E(RHF) =  -410.082209301     A.U. after    2 cycles

 The electronic state is 1-A.
 Alpha  occ. eigenvalues --  -26.15002 -26.14997 -15.82710 -11.30844 -11.24436
 Alpha  occ. eigenvalues --  -11.24429 -11.23876  -1.69779  -1.64144  -1.17919
 Alpha  occ. eigenvalues --   -1.03836  -0.95506  -0.95430  -0.83372  -0.79185
 Alpha  occ. eigenvalues --   -0.78777  -0.74298  -0.73311  -0.68760  -0.66605
 Alpha  occ. eigenvalues --   -0.61901  -0.61206  -0.56515  -0.56105  -0.55257
 Alpha  occ. eigenvalues --   -0.53608  -0.50512  -0.49799  -0.46868
 Alpha virt. eigenvalues --    0.03228   0.04345   0.04371   0.05558   0.07018
 Alpha virt. eigenvalues --    0.07162   0.07376   0.07451   0.09351   0.11279
 Alpha virt. eigenvalues --    0.13423   0.13645   0.13806   0.15464   0.15663

 Mulliken charges:
               1
     1  C   -2.795040
     2  N    0.078534
     3  F   -0.376161
     4  F   -0.376161
     5  C    1.160234
     6  H    0.011971
     7  H    0.072388
     8  H    0.011967
     9  C    1.036429
    10  H    0.009981
    11  H    0.022171
    12  H    0.037553
    13  C    1.036428
    14  H    0.009978
    15  H    0.037556
    16  H    0.022172
 Sum of Mulliken charges =  -0.00000

 Dipole moment (field-independent basis, Debye):
    X=              3.4152    Y=              0.0000    Z=              0.3683  Tot=              3.4350

 Test job not archived.
 1\1\GINC-SE092\SP\RHF\Aug-CC-pVDZ\C4H9F2N1\OHZDE\08-Apr-2025\0\\#t hf
 aug-cc-pvdz iop(5/13=1,5/36=2,99/5=2) pseudo=read geom=check guess=(re
 ad,tcheck) scf=(maxcycle=1)\\title\\0,1\C,0,-0.583909,0.,0.030603\N,0,
 0.773088,0.,-0.62546\F,0,1.475099,1.094429,-0.066201\F,0,1.475099,-1.0
 94429,-0.066201\C,0,-0.491719,0.000004,1.560339\H,0,0.032714,-0.885457
 ,1.920498\H,0,-1.499429,0.000004,1.982559\H,0,0.032713,0.885466,1.9204
 94\C,0,-1.277509,-1.262186,-0.501168\H,0,-0.787132,-2.16471,-0.135326\
 H,0,-1.269305,-1.279549,-1.593504\H,0,-2.316313,-1.269033,-0.163815\C,

 Normal termination of Gaussian 16 at Tue Apr  8 22:39:06 2025.
