 Gaussian 16, Revision C.01,

 ----------------------------------------------------------------------
 #t hf aug-cc-pvdz symm=none int=(grid=ultrafine) guess=(read,tcheck) s
 table=opt
 ----------------------------------------------------------------------
 -----
 title
 -----
 Symbolic Z-matrix:
 Charge =  0 Multiplicity = 2

 SCF Done:  E(UHF) =  -367.494020878     A.U. after   15 cycles

 1\1\GINC-SE344\Stability\UHF\Aug-CC-pVDZ\C2H5Si1\OHZDE\08-Apr-2025\0\\
 #t hf aug-cc-pvdz symm=none int=(grid=ultrafine) guess=(read,tcheck) s
 table=opt\\title\\0,2\Si,0,0.888836,0.,-0.128566\C,0,-0.795944,-0.7796
 79,0.036292\C,0,-0.795944,0.779679,0.036292\H,0,-1.265029,1.243094,-0.
 826386\H,0,-1.059674,1.27508,0.966666\H,0,-1.059676,-1.27508,0.966666\
 H,0,-1.265028,-1.243094,-0.826386\H,0,1.757024,0.000001,1.083867\\Vers
 ion=ES64L-G16RevC.01\HF=-367.4940209\S2=0.757124\S2-1=0.\S2A=0.750033\
 RMSD=7.206e-09\Dipole=0.000092,0.,-0.024213\Quadrupole=-0.1582026,-0.5

 Normal termination of Gaussian 16 at Tue Apr  8 23:40:10 2025.
 Gaussian 16:  ES64L-G16RevC.01  3-Jul-2019

 ----------------------------------------------------------------------
 #t hf aug-cc-pvdz iop(5/13=1,5/36=2,99/5=2) pseudo=read geom=check gue
 ss=(read,tcheck) scf=(maxcycle=1)
 ----------------------------------------------------------------------
 -----
 title
 -----
 Structure from the checkpoint file:  "BDE49_nonexpt_1658_mol2.chk"
 Charge =  0 Multiplicity = 2

                         Standard orientation:
 ---------------------------------------------------------------------
 Center     Atomic      Atomic             Coordinates (Angstroms)
 Number     Number       Type             X           Y           Z
 ---------------------------------------------------------------------
      1         14           0        0.888836   -0.000000   -0.128566
      2          6           0       -0.795944   -0.779679    0.036292
      3          6           0       -0.795944    0.779679    0.036292
      4          1           0       -1.265028    1.243094   -0.826386
      5          1           0       -1.059673    1.275080    0.966666
      6          1           0       -1.059676   -1.275080    0.966666
      7          1           0       -1.265028   -1.243094   -0.826386
      8          1           0        1.757024    0.000001    1.083867
 ---------------------------------------------------------------------

 SCF Done:  E(UHF) =  -367.541603708     A.U. after    2 cycles

 The electronic state is 2-A.
 Alpha  occ. eigenvalues --  -69.07134 -11.23049 -11.23012  -6.82554  -3.93805
 Alpha  occ. eigenvalues --   -3.93000  -3.92939  -1.02680  -0.81089  -0.67230
 Alpha  occ. eigenvalues --   -0.62460  -0.56588  -0.51322  -0.43872  -0.35257
 Alpha  occ. eigenvalues --   -0.34081
 Alpha virt. eigenvalues --    0.03650   0.04575   0.05002   0.05059   0.07348
 Alpha virt. eigenvalues --    0.07431   0.08032   0.08868   0.12150   0.14185
 Alpha virt. eigenvalues --    0.14815   0.15402   0.15882   0.17487   0.17663

  Beta  occ. eigenvalues --  -69.06541 -11.23010 -11.22976  -6.81610  -3.92655
  Beta  occ. eigenvalues --   -3.92416  -3.91766  -1.02202  -0.80851  -0.64386
  Beta  occ. eigenvalues --   -0.61851  -0.54371  -0.51085  -0.41802  -0.34598
  Beta virt. eigenvalues --    0.02200   0.04224   0.04745   0.05130   0.05775
  Beta virt. eigenvalues --    0.07431   0.07477   0.08381   0.09835   0.12273
  Beta virt. eigenvalues --    0.14666   0.15609   0.16259   0.16940   0.17790

 Mulliken charges and spin densities:
               1          2
     1  Si   0.292266   0.870116
     2  C    0.474329   0.003706
     3  C    0.474329   0.003706
     4  H   -0.289997   0.005120
     5  H   -0.320793  -0.000955
     6  H   -0.320792  -0.000955
     7  H   -0.289998   0.005121
     8  H   -0.019344   0.114142
 Sum of Mulliken charges =  -0.00000   1.00000

 Dipole moment (field-independent basis, Debye):
    X=              0.1199    Y=              0.0000    Z=             -0.1299  Tot=              0.1768
                          Isotropic Fermi Contact Couplings
        Atom                 a.u.       MegaHertz       Gauss      10(-4) cm-1
     1  Si(29)             0.70911    -630.20641    -224.87332    -210.21423
     2  C(13)             -0.00020      -0.21960      -0.07836      -0.07325
     3  C(13)             -0.00020      -0.21964      -0.07837      -0.07327
     4  H(1)               0.00198       8.86921       3.16475       2.95845
     5  H(1)               0.00031       1.38784       0.49522       0.46293
     6  H(1)               0.00031       1.38781       0.49521       0.46292
     7  H(1)               0.00198       8.86918       3.16475       2.95844
     8  H(1)               0.02780     124.27266      44.34358      41.45290

 Normal termination of Gaussian 16 at Tue Apr  8 23:40:13 2025.
