 Gaussian 16, Revision C.01,

 ----------------------------------------------------------------------
 #t hf aug-cc-pvdz symm=none int=(grid=ultrafine) guess=(read,tcheck) s
 table=(opt,rrhf)
 ----------------------------------------------------------------------
 -----
 title
 -----
 Symbolic Z-matrix:
 Charge =  0 Multiplicity = 1

 SCF Done:  E(RHF) =  -291.882299045     A.U. after   14 cycles
 Normal termination of Gaussian 16 at Tue Apr  8 23:18:57 2025.
 Gaussian 16:  ES64L-G16RevC.01  3-Jul-2019

 ----------------------------------------------------------------------
 #t hf aug-cc-pvdz iop(5/13=1,5/36=2,99/5=2) pseudo=read geom=check gue
 ss=(read,tcheck) scf=(maxcycle=1)
 ----------------------------------------------------------------------
 -----
 title
 -----
 Structure from the checkpoint file:  "BDE49_nonexpt_1120_mol1.chk"
 Charge =  0 Multiplicity = 1

                         Standard orientation:
 ---------------------------------------------------------------------
 Center     Atomic      Atomic             Coordinates (Angstroms)
 Number     Number       Type             X           Y           Z
 ---------------------------------------------------------------------
      1          9           0        1.896514   -0.158216    0.103480
      2          8           0        0.632148   -0.726031   -0.326850
      3          6           0       -0.390367    0.028091    0.340011
      4          6           0       -0.409887    1.479226   -0.120015
      5          1           0        0.547413    1.956891    0.089574
      6          1           0       -1.193510    2.031660    0.405504
      7          1           0       -0.600665    1.536216   -1.194769
      8          6           0       -1.657883   -0.749572   -0.011468
      9          1           0       -0.199345   -0.035633    1.416938
     10          1           0       -1.827399   -0.745143   -1.090666
     11          1           0       -2.513028   -0.274928    0.474791
     12          1           0       -1.590455   -1.783344    0.330938
 ---------------------------------------------------------------------

 SCF Done:  E(RHF) =  -291.980237775     A.U. after    2 cycles

 The electronic state is 1-A.
 Alpha  occ. eigenvalues --  -26.14580 -20.69006 -11.31727 -11.24875 -11.23862
 Alpha  occ. eigenvalues --   -1.64940  -1.31488  -1.05064  -0.95527  -0.83750
 Alpha  occ. eigenvalues --   -0.76053  -0.73653  -0.72551  -0.65301  -0.61710
 Alpha  occ. eigenvalues --   -0.58439  -0.56278  -0.55801  -0.54524  -0.50797
 Alpha  occ. eigenvalues --   -0.48600
 Alpha virt. eigenvalues --    0.03320   0.04628   0.04689   0.05531   0.07101
 Alpha virt. eigenvalues --    0.07410   0.07506   0.11466   0.12346   0.13053
 Alpha virt. eigenvalues --    0.14498   0.14792   0.15405   0.16530   0.16958

 Mulliken charges:
               1
     1  F   -0.382656
     2  O   -0.245607
     3  C    0.118365
     4  C    0.284961
     5  H   -0.024092
     6  H    0.012568
     7  H    0.019714
     8  C    0.386905
     9  H   -0.143082
    10  H    0.016332
    11  H    0.003840
    12  H   -0.047248
 Sum of Mulliken charges =  -0.00000

 Dipole moment (field-independent basis, Debye):
    X=             -3.1129    Y=              0.8100    Z=              0.6610  Tot=              3.2838

 Test job not archived.
 1\1\GINC-SE043\SP\RHF\Aug-CC-pVDZ\C3H7F1O1\OHZDE\08-Apr-2025\0\\#t hf
 aug-cc-pvdz iop(5/13=1,5/36=2,99/5=2) pseudo=read geom=check guess=(re
 ad,tcheck) scf=(maxcycle=1)\\title\\0,1\F,0,1.896514,-0.158216,0.10348
 \O,0,0.632148,-0.726031,-0.32685\C,0,-0.390367,0.028091,0.340011\C,0,-
 0.409887,1.479226,-0.120015\H,0,0.547414,1.956891,0.089574\H,0,-1.1935
 09,2.03166,0.405504\H,0,-0.600665,1.536216,-1.194769\C,0,-1.657883,-0.
 749571,-0.011468\H,0,-0.199345,-0.035633,1.416938\H,0,-1.827399,-0.745
 142,-1.090666\H,0,-2.513028,-0.274927,0.474791\H,0,-1.590455,-1.783343

 Normal termination of Gaussian 16 at Tue Apr  8 23:19:01 2025.
