 Gaussian 16, Revision C.01,

 ----------------------------------------------------------------------
 #t hf aug-cc-pvdz symm=none int=(grid=ultrafine) guess=(read,tcheck) s
 table=(opt,rrhf)
 ----------------------------------------------------------------------
 -----
 title
 -----
 Symbolic Z-matrix:
 Charge =  0 Multiplicity = 1

 SCF Done:  E(RHF) =  -1403.33032083     A.U. after   10 cycles
 Normal termination of Gaussian 16 at Wed Apr  9 00:07:26 2025.
 Gaussian 16:  ES64L-G16RevC.01  3-Jul-2019

 ----------------------------------------------------------------------
 #t hf aug-cc-pvdz iop(5/13=1,5/36=2,99/5=2) pseudo=read geom=check gue
 ss=(read,tcheck) scf=(maxcycle=1)
 ----------------------------------------------------------------------
 -----
 title
 -----
 Structure from the checkpoint file:  "BDE49_nonexpt_230_mol1.chk"
 Charge =  0 Multiplicity = 1

                         Standard orientation:
 ---------------------------------------------------------------------
 Center     Atomic      Atomic             Coordinates (Angstroms)
 Number     Number       Type             X           Y           Z
 ---------------------------------------------------------------------
      1         17           0       -1.545552   -0.823758   -0.000003
      2          5           0       -0.000002   -0.000002    0.000029
      3         17           0        1.486176   -0.926600   -0.000003
      4         17           0        0.059377    1.750359   -0.000003
 ---------------------------------------------------------------------

 SCF Done:  E(RHF) =  -1403.39178662     A.U. after    2 cycles

 The electronic state is 1-A.
 Alpha  occ. eigenvalues -- -103.68906-103.68906-103.68906 -10.72439 -10.72396
 Alpha  occ. eigenvalues --  -10.72396  -8.38109  -8.38103  -8.38103  -8.37864
 Alpha  occ. eigenvalues --   -8.37864  -8.37863  -8.37830  -8.37829  -8.37829
 Alpha  occ. eigenvalues --   -7.79696  -1.21824  -1.16739  -1.16739  -0.72150
 Alpha  occ. eigenvalues --   -0.62614  -0.62614  -0.56656  -0.50717  -0.50717
 Alpha  occ. eigenvalues --   -0.49894  -0.49894  -0.47533
 Alpha virt. eigenvalues --    0.04554   0.05514   0.05805   0.05805   0.06574
 Alpha virt. eigenvalues --    0.12460   0.12460   0.12834   0.14830   0.14830
 Alpha virt. eigenvalues --    0.18417   0.18417   0.18428   0.18642   0.20064

 Mulliken charges:
               1
     1  Cl  -0.227925
     2  B    0.683776
     3  Cl  -0.227929
     4  Cl  -0.227922
 Sum of Mulliken charges =  -0.00000

 Dipole moment (field-independent basis, Debye):
    X=             -0.0000    Y=              0.0000    Z=              0.0001  Tot=              0.0001

 Test job not archived.
 1\1\GINC-SE424\SP\RHF\Aug-CC-pVDZ\B1Cl3\OHZDE\09-Apr-2025\0\\#t hf aug
 -cc-pvdz iop(5/13=1,5/36=2,99/5=2) pseudo=read geom=check guess=(read,
 tcheck) scf=(maxcycle=1)\\title\\0,1\Cl,0,1.533659,-0.845693,0.000003\
 B,0,0.000002,-0.000002,-0.000029\Cl,0,-1.499226,-0.905333,0.000003\Cl,
 0,-0.034434,1.751027,0.000003\\Version=ES64L-G16RevC.01\State=1-A\HF=-
 1403.3917866\RMSD=2.364e-03\Dipole=0.0000077,0.0000035,-0.0000245\Quad
 rupole=-0.4215155,-0.42152,0.8430355,-0.000016,0.,0.\PG=C01 [X(B1Cl3)]
 \\@

 Normal termination of Gaussian 16 at Wed Apr  9 00:07:27 2025.
