 Gaussian 16, Revision C.01,

 ----------------------------------------------------------------------
 #t hf aug-cc-pvdz symm=none int=(grid=ultrafine) guess=(read,tcheck) s
 table=(opt,rrhf)
 ----------------------------------------------------------------------
 -----
 title
 -----
 Symbolic Z-matrix:
 Charge =  0 Multiplicity = 1

 SCF Done:  E(RHF) =  -251.229427598     A.U. after   11 cycles
 Normal termination of Gaussian 16 at Wed Apr  9 00:38:49 2025.
 Gaussian 16:  ES64L-G16RevC.01  3-Jul-2019

 ----------------------------------------------------------------------
 #t hf aug-cc-pvdz iop(5/13=1,5/36=2,99/5=2) pseudo=read geom=check gue
 ss=(read,tcheck) scf=(maxcycle=1)
 ----------------------------------------------------------------------
 -----
 title
 -----
 Structure from the checkpoint file:  "BDE49_nonexpt_658_mol1.chk"
 Charge =  0 Multiplicity = 1

                         Standard orientation:
 ---------------------------------------------------------------------
 Center     Atomic      Atomic             Coordinates (Angstroms)
 Number     Number       Type             X           Y           Z
 ---------------------------------------------------------------------
      1          8           0       -0.037783    1.346833    0.000001
      2          5           0        0.008520   -0.031998   -0.000003
      3          1           0       -0.916064    1.732235    0.000003
      4          8           0        1.230581   -0.635866    0.000000
      5          8           0       -1.084757   -0.857780    0.000000
      6          1           0       -1.931505   -0.408868    0.000001
      7          1           0        1.940638    0.011123    0.000001
 ---------------------------------------------------------------------

 SCF Done:  E(RHF) =  -251.319380814     A.U. after    2 cycles

 The electronic state is 1-A.
 Alpha  occ. eigenvalues --  -20.59293 -20.58650 -20.57467  -7.69232  -1.36348
 Alpha  occ. eigenvalues --   -1.31702  -1.31076  -0.81055  -0.77921  -0.69895
 Alpha  occ. eigenvalues --   -0.65285  -0.61910  -0.58200  -0.56030  -0.53617
 Alpha  occ. eigenvalues --   -0.52319
 Alpha virt. eigenvalues --    0.02406   0.05233   0.05922   0.06006   0.07588
 Alpha virt. eigenvalues --    0.09502   0.10216   0.16191   0.19457   0.20068
 Alpha virt. eigenvalues --    0.21307   0.22072   0.22108   0.23924   0.24730

 Mulliken charges:
               1
     1  O   -0.427449
     2  B    0.797622
     3  H    0.158567
     4  O   -0.431814
     5  O   -0.433160
     6  H    0.141449
     7  H    0.194784
 Sum of Mulliken charges =  -0.00000

 Dipole moment (field-independent basis, Debye):
    X=             -1.9027    Y=              2.6551    Z=             -0.0000  Tot=              3.2664

 Test job not archived.
 1\1\GINC-SE187\SP\RHF\Aug-CC-pVDZ\B1H3O3\OHZDE\09-Apr-2025\0\\#t hf au
 g-cc-pvdz iop(5/13=1,5/36=2,99/5=2) pseudo=read geom=check guess=(read
 ,tcheck) scf=(maxcycle=1)\\title\\0,1\O,0,-0.037782,1.346833,0.000001\
 B,0,0.00852,-0.031998,-0.000003\H,0,-0.916063,1.732236,0.000003\O,0,1.
 230581,-0.635867,0.\O,0,-1.084758,-0.857779,0.\H,0,-1.931505,-0.408867
 ,0.000001\H,0,1.940638,0.011122,0.000001\\Version=ES64L-G16RevC.01\Sta
 te=1-A\HF=-251.3193808\RMSD=2.593e-03\Dipole=-0.7485684,1.0445862,-0.0
 000028\Quadrupole=4.8999871,-3.8027345,-1.0972526,-1.4493393,-0.000004

 Normal termination of Gaussian 16 at Wed Apr  9 00:38:52 2025.
