 Gaussian 16, Revision C.01,

 ----------------------------------------------------------------------
 #t hf aug-cc-pvdz symm=none int=(grid=ultrafine) guess=(read,tcheck) s
 table=(opt,rrhf)
 ----------------------------------------------------------------------
 -----
 title
 -----
 Symbolic Z-matrix:
 Charge =  1 Multiplicity = 1

 SCF Done:  E(RHF) =  -950.801866824     A.U. after   13 cycles
 Normal termination of Gaussian 16 at Wed Apr  9 01:16:37 2025.
 Gaussian 16:  ES64L-G16RevC.01  3-Jul-2019

 ----------------------------------------------------------------------
 #t hf aug-cc-pvdz iop(5/13=1,5/36=2,99/5=2) pseudo=read geom=check gue
 ss=(read,tcheck) scf=(maxcycle=1)
 ----------------------------------------------------------------------
 -----
 title
 -----
 Structure from the checkpoint file:  "BH10_325_forward_mol2.chk"
 Charge =  1 Multiplicity = 1

                         Standard orientation:
 ---------------------------------------------------------------------
 Center     Atomic      Atomic             Coordinates (Angstroms)
 Number     Number       Type             X           Y           Z
 ---------------------------------------------------------------------
      1          6           0       -2.943483   -1.188589   -0.505042
      2         16           0       -1.773104    0.183507   -0.455634
      3          6           0       -1.216424    0.164168    1.291627
      4          6           0       -2.888563    1.603460   -0.452918
      5          6           0        0.294617    0.140670    1.357148
      6          1           0       -1.662097   -0.704160    1.773956
      7          1           0       -1.601337    1.075176    1.746364
      8          6           0        0.941010   -1.158291    0.846465
      9          8           0        0.781997    1.176480    0.537158
     10          1           0        0.583227    0.306869    2.404421
     11          6           0        2.179158    0.882127    0.271312
     12          6           0        2.223423   -0.656262    0.136020
     13          8           0        2.145008   -1.074630   -1.210148
     14          1           0        3.123198   -1.054652    0.606908
     15          8           0        0.059489   -1.807595   -0.049440
     16          1           0        1.173004   -1.835494    1.670281
     17          7           0        2.681574    1.541258   -0.863703
     18          1           0        2.752505    1.191085    1.151411
     19          1           0        0.563479   -1.999234   -0.856980
     20          1           0        3.002152   -0.978797   -1.636819
     21          1           0        2.131441    1.369449   -1.695206
     22          1           0        2.835691    2.530332   -0.729009
     23          1           0       -3.369714    1.647962   -1.428833
     24          1           0       -2.273000    2.490724   -0.313339
     25          1           0       -3.632096    1.517135    0.337724
     26          1           0       -2.356332   -2.092310   -0.360497
     27          1           0       -3.402418   -1.192269   -1.492349
     28          1           0       -3.699440   -1.074471    0.269789
 ---------------------------------------------------------------------

 SCF Done:  E(RHF) =  -950.997919430     A.U. after    2 cycles

 The electronic state is 1-A.
 Alpha  occ. eigenvalues --  -93.78485 -20.71124 -20.70646 -20.70509 -15.72882
 Alpha  occ. eigenvalues --  -11.44639 -11.44137 -11.44071 -11.43272 -11.43035
 Alpha  occ. eigenvalues --  -11.42894 -11.42648  -9.07841  -6.41956  -6.41936
 Alpha  occ. eigenvalues --   -6.41614  -1.50318  -1.46942  -1.44778  -1.29498
 Alpha  occ. eigenvalues --   -1.27652  -1.18246  -1.14808  -1.12870  -1.05680
 Alpha  occ. eigenvalues --   -0.99037  -0.95760  -0.93764  -0.87287  -0.86914
 Alpha  occ. eigenvalues --   -0.83507  -0.81557  -0.81085  -0.79368  -0.78178
 Alpha  occ. eigenvalues --   -0.77564  -0.75530  -0.74986  -0.72836  -0.72144
 Alpha  occ. eigenvalues --   -0.71679  -0.69801  -0.69392  -0.68280  -0.67642
 Alpha  occ. eigenvalues --   -0.65116  -0.62458  -0.61126  -0.60713  -0.57728
 Alpha  occ. eigenvalues --   -0.56499  -0.52449
 Alpha virt. eigenvalues --   -0.07000  -0.05898  -0.05242  -0.05174  -0.03944
 Alpha virt. eigenvalues --   -0.03666  -0.03584  -0.03238  -0.02810  -0.01572
 Alpha virt. eigenvalues --   -0.01207  -0.01082  -0.00876  -0.00140   0.00334

 Mulliken charges:
               1
     1  C    0.370123
     2  S    0.599131
     3  C    0.221385
     4  C    0.312016
     5  C    0.648450
     6  H   -0.108174
     7  H   -0.049744
     8  C    0.637791
     9  O   -0.816172
    10  H   -0.156612
    11  C    0.678861
    12  C    0.532210
    13  O   -0.693518
    14  H   -0.043054
    15  O   -0.731861
    16  H   -0.166070
    17  N   -0.124246
    18  H   -0.223874
    19  H    0.300248
    20  H    0.192204
    21  H    0.022801
    22  H   -0.019719
    23  H   -0.113000
    24  H   -0.039697
    25  H   -0.032604
    26  H   -0.049675
    27  H   -0.105982
    28  H   -0.041219
 Sum of Mulliken charges =   1.00000

 Dipole moment (field-independent basis, Debye):
    X=             -4.7052    Y=              0.8504    Z=              0.6437  Tot=              4.8246

 Test job not archived.
 1\1\GINC-SE039\SP\RHF\Aug-CC-pVDZ\C7H16N1O3S1(1+)\OHZDE\09-Apr-2025\0\
 \#t hf aug-cc-pvdz iop(5/13=1,5/36=2,99/5=2) pseudo=read geom=check gu
 ess=(read,tcheck) scf=(maxcycle=1)\\title\\1,1\C,0,-2.943483,-1.188589
 ,-0.505042\S,0,-1.773104,0.183507,-0.455634\C,0,-1.216424,0.164168,1.2
 91627\C,0,-2.888563,1.60346,-0.452918\C,0,0.294617,0.14067,1.357148\H,
 0,-1.662097,-0.70416,1.773956\H,0,-1.601337,1.075176,1.746364\C,0,0.94
 101,-1.158291,0.846465\O,0,0.781997,1.17648,0.537158\H,0,0.583227,0.30
 6869,2.404421\C,0,2.179158,0.882127,0.271312\C,0,2.223423,-0.656262,0.

 Normal termination of Gaussian 16 at Wed Apr  9 01:17:08 2025.
