 Gaussian 16, Revision C.01,

 ----------------------------------------------------------------------
 #t hf aug-cc-pvdz symm=none int=(grid=ultrafine) guess=(read,tcheck) s
 table=(opt,rrhf)
 ----------------------------------------------------------------------
 -----
 title
 -----
 Symbolic Z-matrix:
 Charge =  0 Multiplicity = 1

 SCF Done:  E(RHF) =  -857.019087439     A.U. after   15 cycles
 Normal termination of Gaussian 16 at Wed Apr  9 01:36:18 2025.
 Gaussian 16:  ES64L-G16RevC.01  3-Jul-2019

 ----------------------------------------------------------------------
 #t hf aug-cc-pvdz iop(5/13=1,5/36=2,99/5=2) pseudo=read geom=check gue
 ss=(read,tcheck) scf=(maxcycle=1)
 ----------------------------------------------------------------------
 -----
 title
 -----
 Structure from the checkpoint file:  "BH10_414_forward_mol1.chk"
 Charge =  0 Multiplicity = 1

                         Standard orientation:
 ---------------------------------------------------------------------
 Center     Atomic      Atomic             Coordinates (Angstroms)
 Number     Number       Type             X           Y           Z
 ---------------------------------------------------------------------
      1         16           0       -1.560370   -0.038043    0.105175
      2          6           0       -0.646804   -1.170853   -0.974775
      3          6           0        0.692245   -1.717514   -0.455824
      4          6           0        1.372160   -0.880834    0.604392
      5          6           0        1.547226    0.888472   -0.653926
      6          6           0        0.674933    1.735431    0.249577
      7          6           0       -0.804256    1.594790   -0.095424
      8          6           0        2.741613   -0.490012    0.615038
      9          6           0        2.869482    0.433201   -0.382062
     10          1           0        1.299870    1.093763   -1.704570
     11          1           0        0.867780   -0.991324    1.564777
     12          8           0       -1.404346   -0.459654    1.495877
     13          8           0       -2.897713    0.074410   -0.470676
     14          1           0       -1.380124   -1.956332   -1.165635
     15          1           0       -0.514804   -0.612222   -1.902608
     16          1           0        1.360213   -1.840651   -1.309555
     17          1           0        0.517323   -2.712592   -0.032894
     18          1           0        0.912554    2.795705    0.083615
     19          1           0        0.850869    1.529623    1.303991
     20          1           0       -1.003138    1.863427   -1.134626
     21          1           0       -1.433099    2.223520    0.537576
     22          1           0        3.466694   -0.779367    1.370131
     23          1           0        3.758649    0.721004   -0.936599
 ---------------------------------------------------------------------

 SCF Done:  E(RHF) =  -857.225908466     A.U. after    2 cycles

 The electronic state is 1-A.
 Alpha  occ. eigenvalues --  -93.76896 -20.54940 -20.54639 -11.28663 -11.28640
 Alpha  occ. eigenvalues --  -11.27641 -11.27613 -11.26800 -11.26757 -11.25513
 Alpha  occ. eigenvalues --  -11.25057  -9.03709  -6.38334  -6.38133  -6.38053
 Alpha  occ. eigenvalues --   -1.40338  -1.28975  -1.14989  -1.08080  -1.07540
 Alpha  occ. eigenvalues --   -0.96592  -0.95731  -0.87035  -0.83723  -0.77509
 Alpha  occ. eigenvalues --   -0.73215  -0.70766  -0.68624  -0.67447  -0.65825
 Alpha  occ. eigenvalues --   -0.64911  -0.61691  -0.60399  -0.59947  -0.58230
 Alpha  occ. eigenvalues --   -0.55649  -0.55037  -0.53642  -0.52472  -0.51842
 Alpha  occ. eigenvalues --   -0.50199  -0.48836  -0.47643  -0.43432  -0.36402
 Alpha  occ. eigenvalues --   -0.31925
 Alpha virt. eigenvalues --    0.02672   0.03594   0.03735   0.04196   0.05338
 Alpha virt. eigenvalues --    0.05901   0.06242   0.06390   0.06645   0.07964
 Alpha virt. eigenvalues --    0.08511   0.08720   0.09406   0.10983   0.11417

 Mulliken charges:
               1
     1  S    2.605621
     2  C   -0.154865
     3  C    0.183878
     4  C    0.375436
     5  C    0.358814
     6  C    0.295427
     7  C   -0.189706
     8  C    0.440848
     9  C    0.365260
    10  H   -0.450565
    11  H   -0.369278
    12  O   -1.244722
    13  O   -1.157830
    14  H   -0.066373
    15  H   -0.011311
    16  H   -0.121376
    17  H   -0.048483
    18  H   -0.038899
    19  H   -0.129792
    20  H   -0.023373
    21  H   -0.018098
    22  H   -0.299117
    23  H   -0.301495
 Sum of Mulliken charges =  -0.00000

 Dipole moment (field-independent basis, Debye):
    X=              4.8391    Y=              0.9416    Z=             -2.5053  Tot=              5.5299

 Test job not archived.
 1\1\GINC-SE367\SP\RHF\Aug-CC-pVDZ\C8H12O2S1\OHZDE\09-Apr-2025\0\\#t hf
  aug-cc-pvdz iop(5/13=1,5/36=2,99/5=2) pseudo=read geom=check guess=(r
 ead,tcheck) scf=(maxcycle=1)\\title\\0,1\S,0,-1.56037,-0.038043,0.1051
 75\C,0,-0.646804,-1.170853,-0.974775\C,0,0.692245,-1.717514,-0.455824\
 C,0,1.37216,-0.880834,0.604392\C,0,1.547226,0.888472,-0.653926\C,0,0.6
 74933,1.735431,0.249577\C,0,-0.804256,1.59479,-0.095424\C,0,2.741613,-
 0.490012,0.615038\C,0,2.869482,0.433201,-0.382062\H,0,1.29987,1.093763
 ,-1.70457\H,0,0.86778,-0.991324,1.564777\O,0,-1.404346,-0.459654,1.495

 Normal termination of Gaussian 16 at Wed Apr  9 01:36:33 2025.
