 Gaussian 16, Revision C.01,

 ----------------------------------------------------------------------
 #t hf aug-cc-pvdz symm=none int=(grid=ultrafine) guess=(read,tcheck) s
 table=(opt,rrhf)
 ----------------------------------------------------------------------
 -----
 title
 -----
 Symbolic Z-matrix:
 Charge =  1 Multiplicity = 1

 SCF Done:  E(RHF) =  -841.764187007     A.U. after   16 cycles
 Normal termination of Gaussian 16 at Wed Apr  9 00:59:30 2025.
 Gaussian 16:  ES64L-G16RevC.01  3-Jul-2019

 ----------------------------------------------------------------------
 #t hf aug-cc-pvdz iop(5/13=1,5/36=2,99/5=2) pseudo=read geom=check gue
 ss=(read,tcheck) scf=(maxcycle=1)
 ----------------------------------------------------------------------
 -----
 title
 -----
 Structure from the checkpoint file:  "BH10_246_reverse_mol2.chk"
 Charge =  1 Multiplicity = 1

                         Standard orientation:
 ---------------------------------------------------------------------
 Center     Atomic      Atomic             Coordinates (Angstroms)
 Number     Number       Type             X           Y           Z
 ---------------------------------------------------------------------
      1          6           0        2.236018    0.497916   -0.000013
      2          6           0        0.851815    0.287837   -0.000006
      3          6           0        0.293198   -1.011124    0.000011
      4          6           0        0.007448    1.419272   -0.000016
      5          6           0       -1.067000   -1.166191    0.000018
      6          1           0        0.943099   -1.876544    0.000018
      7          6           0       -1.356392    1.262567   -0.000009
      8          1           0        0.434620    2.415441   -0.000030
      9          6           0       -1.887763   -0.029119    0.000010
     10          1           0       -1.517508   -2.149312    0.000030
     11          1           0       -2.018626    2.117236   -0.000017
     12          8           0        3.065289   -0.466491   -0.000010
     13          6           0        4.500300   -0.224825   -0.000010
     14          1           0        4.697247    0.846512   -0.000076
     15          1           0        4.894221   -0.700014    0.894287
     16          1           0        4.894235   -0.700125   -0.894242
     17         17           0       -3.585331   -0.232533    0.000014
     18          1           0        2.635271    1.513797   -0.000026
 ---------------------------------------------------------------------

 SCF Done:  E(RHF) =  -841.902183092     A.U. after    2 cycles

 The electronic state is 1-A.
 Alpha  occ. eigenvalues -- -103.81205 -20.83871 -11.57344 -11.49432 -11.47724
 Alpha  occ. eigenvalues --  -11.44650 -11.43968 -11.43170 -11.41209 -11.41126
 Alpha  occ. eigenvalues --  -10.84505  -8.50244  -8.49898  -8.49893  -1.62400
 Alpha  occ. eigenvalues --   -1.36597  -1.31611  -1.23225  -1.20211  -1.15643
 Alpha  occ. eigenvalues --   -1.07088  -1.01904  -0.99250  -0.92049  -0.91143
 Alpha  occ. eigenvalues --   -0.86756  -0.83414  -0.81961  -0.80109  -0.77752
 Alpha  occ. eigenvalues --   -0.75350  -0.72887  -0.72367  -0.69981  -0.69653
 Alpha  occ. eigenvalues --   -0.68128  -0.63252  -0.60888  -0.52293  -0.51301
 Alpha virt. eigenvalues --   -0.15301  -0.08010  -0.06196  -0.05581  -0.05375
 Alpha virt. eigenvalues --   -0.04809  -0.03918  -0.03582  -0.02525  -0.02137
 Alpha virt. eigenvalues --   -0.01457  -0.00779   0.00584   0.01181   0.01352

 Mulliken charges:
               1
     1  C    0.753004
     2  C    1.224726
     3  C    0.333147
     4  C    0.407416
     5  C    0.841350
     6  H   -0.597308
     7  C    0.807222
     8  H   -0.585284
     9  C   -0.697010
    10  H   -0.417129
    11  H   -0.419878
    12  O   -0.486009
    13  C    0.700677
    14  H   -0.061260
    15  H   -0.066683
    16  H   -0.066696
    17  Cl  -0.209871
    18  H   -0.460414
 Sum of Mulliken charges =   1.00000

 Dipole moment (field-independent basis, Debye):
    X=              8.2154    Y=              1.8335    Z=             -0.0000  Tot=              8.4175

 Test job not archived.
 1\1\GINC-SE247\SP\RHF\Aug-CC-pVDZ\C8H8Cl1O1(1+)\OHZDE\09-Apr-2025\0\\#
 t hf aug-cc-pvdz iop(5/13=1,5/36=2,99/5=2) pseudo=read geom=check gues
 s=(read,tcheck) scf=(maxcycle=1)\\title\\1,1\C,0,2.236018,0.497916,-0.
 000013\C,0,0.851815,0.287837,-0.000006\C,0,0.293198,-1.011124,0.000011
 \C,0,0.007448,1.419272,-0.000016\C,0,-1.067,-1.166191,0.000018\H,0,0.9
 43099,-1.876544,0.000018\C,0,-1.356392,1.262567,-0.000009\H,0,0.43462,
 2.415441,-0.00003\C,0,-1.887763,-0.029119,0.00001\H,0,-1.517508,-2.149
 312,0.00003\H,0,-2.018626,2.117236,-0.000017\O,0,3.065289,-0.466491,-0

 Normal termination of Gaussian 16 at Wed Apr  9 00:59:40 2025.
