 Gaussian 16, Revision C.01,

 ----------------------------------------------------------------------
 #t hf aug-cc-pvdz symm=none int=(grid=ultrafine) guess=(read,tcheck) s
 table=(opt,rrhf)
 ----------------------------------------------------------------------
 -----
 title
 -----
 Symbolic Z-matrix:
 Charge =  0 Multiplicity = 1

 SCF Done:  E(RHF) =  -728.693257690     A.U. after   15 cycles

 1\1\GINC-SE362\Stability\RHF\Aug-CC-pVDZ\C7H7Cl1\OHZDE\09-Apr-2025\0\\
 #t hf aug-cc-pvdz symm=none int=(grid=ultrafine) guess=(read,tcheck) s
 table=(opt,rrhf)\\title\\0,1\C,0,1.456654,0.000023,0.875219\C,0,0.0252
 96,0.00001,0.447389\C,0,-0.649212,1.200084,0.244315\C,0,-0.649198,-1.2
 00075,0.244332\H,0,-0.128063,2.138654,0.396629\C,0,-1.977059,1.201482,
 -0.155434\C,0,-1.977044,-1.201494,-0.155417\C,0,-2.643266,-0.000012,-0
 .356173\H,0,-0.128037,-2.138636,0.39666\H,0,-2.493362,2.14121,-0.30928
 6\H,0,-2.493336,-2.141231,-0.309255\H,0,-3.680858,-0.00002,-0.667308\H

 Normal termination of Gaussian 16 at Wed Apr  9 00:54:56 2025.
 Gaussian 16:  ES64L-G16RevC.01  3-Jul-2019

 ----------------------------------------------------------------------
 #t hf aug-cc-pvdz iop(5/13=1,5/36=2,99/5=2) pseudo=read geom=check gue
 ss=(read,tcheck) scf=(maxcycle=1)
 ----------------------------------------------------------------------
 -----
 title
 -----
 Structure from the checkpoint file:  "BH10_110_forward_mol2.chk"
 Charge =  0 Multiplicity = 1

                         Standard orientation:
 ---------------------------------------------------------------------
 Center     Atomic      Atomic             Coordinates (Angstroms)
 Number     Number       Type             X           Y           Z
 ---------------------------------------------------------------------
      1          6           0        1.456654    0.000023    0.875219
      2          6           0        0.025296    0.000010    0.447389
      3          6           0       -0.649212    1.200084    0.244315
      4          6           0       -0.649198   -1.200075    0.244332
      5          1           0       -0.128063    2.138654    0.396629
      6          6           0       -1.977059    1.201482   -0.155434
      7          6           0       -1.977044   -1.201494   -0.155417
      8          6           0       -2.643266   -0.000012   -0.356173
      9          1           0       -0.128037   -2.138636    0.396660
     10          1           0       -2.493362    2.141210   -0.309286
     11          1           0       -2.493336   -2.141231   -0.309255
     12          1           0       -3.680858   -0.000020   -0.667308
     13          1           0        1.706994   -0.887232    1.450579
     14          1           0        1.706991    0.887305    1.450537
     15         17           0        2.587802   -0.000009   -0.545526
 ---------------------------------------------------------------------

 SCF Done:  E(RHF) =  -728.791625032     A.U. after    2 cycles

 The electronic state is 1-A.
 Alpha  occ. eigenvalues -- -103.64642 -11.31064 -11.26138 -11.25320 -11.25317
 Alpha  occ. eigenvalues --  -11.25249 -11.25160 -11.25108 -10.67920  -8.33636
 Alpha  occ. eigenvalues --   -8.33347  -8.33341  -1.17530  -1.14290  -1.03945
 Alpha  occ. eigenvalues --   -1.02202  -0.92476  -0.84290  -0.81263  -0.71395
 Alpha  occ. eigenvalues --   -0.66737  -0.65273  -0.60454  -0.60342  -0.59168
 Alpha  occ. eigenvalues --   -0.57204  -0.51645  -0.50636  -0.50601  -0.44628
 Alpha  occ. eigenvalues --   -0.44471  -0.35047  -0.34515
 Alpha virt. eigenvalues --    0.03280   0.03928   0.03950   0.05452   0.05669
 Alpha virt. eigenvalues --    0.07341   0.08177   0.08304   0.09147   0.10144
 Alpha virt. eigenvalues --    0.11180   0.12153   0.12955   0.14113   0.14285

 Mulliken charges:
               1
     1  C    0.241508
     2  C    0.952565
     3  C    0.150864
     4  C    0.150846
     5  H   -0.535341
     6  C    0.440380
     7  C    0.440377
     8  C    0.421989
     9  H   -0.535340
    10  H   -0.435135
    11  H   -0.435133
    12  H   -0.433142
    13  H   -0.134915
    14  H   -0.134925
    15  Cl  -0.154598
 Sum of Mulliken charges =  -0.00000

 Dipole moment (field-independent basis, Debye):
    X=             -1.8631    Y=              0.0000    Z=              1.5320  Tot=              2.4121

 Test job not archived.
 1\1\GINC-SE362\SP\RHF\Aug-CC-pVDZ\C7H7Cl1\OHZDE\09-Apr-2025\0\\#t hf a
 ug-cc-pvdz iop(5/13=1,5/36=2,99/5=2) pseudo=read geom=check guess=(rea
 d,tcheck) scf=(maxcycle=1)\\title\\0,1\C,0,1.456654,0.000023,0.875219\
 C,0,0.025296,0.00001,0.447389\C,0,-0.649212,1.200084,0.244315\C,0,-0.6
 49198,-1.200075,0.244332\H,0,-0.128063,2.138654,0.396629\C,0,-1.977059
 ,1.201482,-0.155434\C,0,-1.977044,-1.201494,-0.155417\C,0,-2.643266,-0
 .000012,-0.356173\H,0,-0.128037,-2.138636,0.39666\H,0,-2.493362,2.1412
 1,-0.309286\H,0,-2.493336,-2.141231,-0.309255\H,0,-3.680858,-0.00002,-

 Normal termination of Gaussian 16 at Wed Apr  9 00:55:01 2025.
