 Gaussian 16, Revision C.01,

 ----------------------------------------------------------------------
 #t hf aug-cc-pvdz symm=none int=(grid=ultrafine) guess=(read,tcheck) s
 table=(opt,rrhf)
 ----------------------------------------------------------------------
 -----
 title
 -----
 Symbolic Z-matrix:
 Charge =  0 Multiplicity = 1

 SCF Done:  E(RHF) =  -1572.23868341     A.U. after   18 cycles
 Normal termination of Gaussian 16 at Wed Apr  9 03:18:01 2025.
 Gaussian 16:  ES64L-G16RevC.01  3-Jul-2019

 ----------------------------------------------------------------------
 #t hf aug-cc-pvdz iop(5/13=1,5/36=2,99/5=2) pseudo=read geom=check gue
 ss=(read,tcheck) scf=(maxcycle=1)
 ----------------------------------------------------------------------
 -----
 title
 -----
 Structure from the checkpoint file:  "BH10_376_reverse_mol2.chk"
 Charge =  0 Multiplicity = 1

                         Standard orientation:
 ---------------------------------------------------------------------
 Center     Atomic      Atomic             Coordinates (Angstroms)
 Number     Number       Type             X           Y           Z
 ---------------------------------------------------------------------
      1          6           0       -5.967721   -1.529844   -0.854710
      2          6           0       -5.133723   -0.544391   -0.345309
      3          6           0       -3.976442   -0.886473    0.345547
      4          6           0       -3.667107   -2.230641    0.529610
      5          6           0       -4.500602   -3.215858    0.021777
      6          6           0       -5.651657   -2.868549   -0.672885
      7          1           0       -6.867773   -1.250769   -1.389067
      8          1           0       -5.383741    0.501386   -0.485435
      9          1           0       -2.777614   -2.509976    1.081128
     10          1           0       -4.252484   -4.259353    0.173399
     11          1           0       -6.302805   -3.639613   -1.066292
     12          6           0       -3.048400    0.200741    0.827539
     13          6           0       -1.835509    0.413366   -0.098835
     14          6           0       -1.252587    2.656479    0.704772
     15          6           0       -0.710132    2.004667   -1.572434
     16          6           0       -1.369408    4.118994    0.295462
     17          1           0       -0.233177    2.461285    1.074042
     18          1           0       -1.930423    2.446030    1.533070
     19          6           0       -0.826531    3.443364   -2.056002
     20          1           0        0.344973    1.798437   -1.327197
     21          1           0       -1.003321    1.309983   -2.361993
     22          6           0       -0.503091    4.416407   -0.925242
     23          1           0       -0.153215    3.596060   -2.903141
     24          1           0       -1.847247    3.613774   -2.411382
     25          1           0       -0.644644    5.448605   -1.253804
     26          1           0        0.553883    4.314348   -0.652443
     27          7           0       -1.578932    1.782981   -0.419102
     28          7           0       -0.818882   -0.256716    0.755893
     29          7           0       -1.265609   -0.389326    2.048983
     30          7           0       -2.472169   -0.145371    2.145279
     31          6           0        0.536916   -0.379505    0.485087
     32          6           0        0.951795   -0.976271   -0.703580
     33          6           0        1.533594    0.084622    1.341840
     34          6           0        2.285771   -1.087294   -1.032535
     35          6           0        2.870325   -0.067396    1.025079
     36          6           0        3.278569   -0.646335   -0.167828
     37          9           0        0.032900   -1.452149   -1.550621
     38          9           0        2.603816   -1.679366   -2.180650
     39          9           0        3.769103    0.427659    1.875200
     40          9           0        1.215818    0.732010    2.460732
     41          6           0        4.718350   -0.758261   -0.551514
     42          8           0        5.152269   -0.437838   -1.622423
     43          8           0        5.446298   -1.261760    0.442610
     44          6           0        6.854421   -1.367121    0.192496
     45          1           0        7.272782   -0.383343   -0.017531
     46          1           0        7.279498   -1.780374    1.102337
     47          1           0        7.037704   -2.025988   -0.655456
     48          1           0       -3.605523    1.131273    0.931267
     49          1           0       -2.416722    4.337534    0.065479
     50          1           0       -1.080825    4.751820    1.138273
     51          1           0       -1.944441   -0.142906   -1.026094
 ---------------------------------------------------------------------

 SCF Done:  E(RHF) =  -1572.72405684     A.U. after    2 cycles

 The electronic state is 1-A.
 Alpha  occ. eigenvalues --  -26.17223 -26.17084 -26.16973 -26.16621 -20.63518
 Alpha  occ. eigenvalues --  -20.58074 -15.74770 -15.69627 -15.68362 -15.62890
 Alpha  occ. eigenvalues --  -11.42236 -11.38717 -11.38679 -11.37485 -11.37429
 Alpha  occ. eigenvalues --  -11.34920 -11.32948 -11.30841 -11.30345 -11.29185
 Alpha  occ. eigenvalues --  -11.27045 -11.26782 -11.26100 -11.25167 -11.25067
 Alpha  occ. eigenvalues --  -11.25030 -11.24879 -11.24822 -11.23557 -11.23535
 Alpha  occ. eigenvalues --  -11.23475  -1.71859  -1.71744  -1.70766  -1.70528
 Alpha  occ. eigenvalues --   -1.44697  -1.40543  -1.34952  -1.25041  -1.22875
 Alpha  occ. eigenvalues --   -1.18528  -1.16039  -1.10160  -1.08437  -1.08115
 Alpha  occ. eigenvalues --   -1.05656  -1.02615  -1.01967  -1.00585  -0.99711
 Alpha  occ. eigenvalues --   -0.95260  -0.94482  -0.91076  -0.87556  -0.86709
 Alpha  occ. eigenvalues --   -0.86211  -0.86110  -0.84794  -0.83900  -0.82289
 Alpha  occ. eigenvalues --   -0.81558  -0.80975  -0.80039  -0.79579  -0.79339
 Alpha  occ. eigenvalues --   -0.78284  -0.77988  -0.77378  -0.77091  -0.76301
 Alpha  occ. eigenvalues --   -0.75468  -0.74405  -0.72480  -0.71041  -0.70160
 Alpha  occ. eigenvalues --   -0.69469  -0.68179  -0.67630  -0.67026  -0.64847
 Alpha  occ. eigenvalues --   -0.64408  -0.64098  -0.63691  -0.62122  -0.61522
 Alpha  occ. eigenvalues --   -0.61233  -0.60429  -0.59871  -0.58322  -0.57810
 Alpha  occ. eigenvalues --   -0.57396  -0.56832  -0.55860  -0.55437  -0.54937
 Alpha  occ. eigenvalues --   -0.54517  -0.52082  -0.51293  -0.50766  -0.50254
 Alpha  occ. eigenvalues --   -0.50177  -0.49717  -0.49470  -0.48068  -0.46780
 Alpha  occ. eigenvalues --   -0.46068  -0.43771  -0.42315  -0.38353  -0.37646
 Alpha  occ. eigenvalues --   -0.35219  -0.34772  -0.33252
 Alpha virt. eigenvalues --    0.02710   0.03031   0.03307   0.03930   0.04236
 Alpha virt. eigenvalues --    0.04712   0.05050   0.05631   0.05772   0.05859
 Alpha virt. eigenvalues --    0.06105   0.06301   0.06826   0.06895   0.07118

 Mulliken charges:
               1
     1  C    0.157795
     2  C    0.871005
     3  C    0.504923
     4  C    0.603270
     5  C    0.012724
     6  C    0.924809
     7  H   -0.476866
     8  H   -0.681623
     9  H   -0.650721
    10  H   -0.493718
    11  H   -0.458367
    12  C    1.363102
    13  C    0.407531
    14  C    0.752388
    15  C    0.927796
    16  C    0.372678
    17  H   -0.234899
    18  H   -0.360935
    19  C    0.443408
    20  H   -0.120902
    21  H   -0.333401
    22  C    0.404248
    23  H   -0.086863
    24  H   -0.018475
    25  H   -0.154421
    26  H   -0.040137
    27  N   -1.168459
    28  N    0.194991
    29  N   -0.558714
    30  N   -0.686932
    31  C   -0.230659
    32  C    0.397307
    33  C    0.057271
    34  C    0.292729
    35  C    0.246872
    36  C    0.990359
    37  F   -0.263787
    38  F   -0.253623
    39  F   -0.264049
    40  F   -0.250132
    41  C   -0.266436
    42  O   -0.409915
    43  O   -0.514983
    44  C    0.783480
    45  H   -0.061096
    46  H   -0.246322
    47  H   -0.089126
    48  H   -0.467095
    49  H   -0.032627
    50  H   -0.068854
    51  H   -0.764550
 Sum of Mulliken charges =  -0.00000

 Dipole moment (field-independent basis, Debye):
    X=             -0.3690    Y=              0.7686    Z=             -1.1607  Tot=              1.4402

 Test job not archived.
 1\1\GINC-SE026\SP\RHF\Aug-CC-pVDZ\C21H20F4N4O2\OHZDE\09-Apr-2025\0\\#t
  hf aug-cc-pvdz iop(5/13=1,5/36=2,99/5=2) pseudo=read geom=check guess
 =(read,tcheck) scf=(maxcycle=1)\\title\\0,1\C,0,-5.967721,-1.529844,-0
 .85471\C,0,-5.133723,-0.544391,-0.345309\C,0,-3.976442,-0.886473,0.345
 547\C,0,-3.667107,-2.230641,0.52961\C,0,-4.500602,-3.215858,0.021777\C
 ,0,-5.651657,-2.868549,-0.672885\H,0,-6.867773,-1.250769,-1.389067\H,0
 ,-5.383741,0.501386,-0.485435\H,0,-2.777614,-2.509976,1.081128\H,0,-4.
 252484,-4.259353,0.173399\H,0,-6.302805,-3.639613,-1.066292\C,0,-3.048

 Normal termination of Gaussian 16 at Wed Apr  9 03:21:47 2025.
