 Gaussian 16, Revision C.01,

 ----------------------------------------------------------------------
 #t hf aug-cc-pvdz symm=none int=(grid=ultrafine) guess=(read,tcheck) s
 table=(opt,rrhf)
 ----------------------------------------------------------------------
 -----
 title
 -----
 Symbolic Z-matrix:
 Charge =  0 Multiplicity = 1

 SCF Done:  E(RHF) =  -893.860482963     A.U. after   16 cycles
 Normal termination of Gaussian 16 at Wed Apr  9 01:52:33 2025.
 Gaussian 16:  ES64L-G16RevC.01  3-Jul-2019

 ----------------------------------------------------------------------
 #t hf aug-cc-pvdz iop(5/13=1,5/36=2,99/5=2) pseudo=read geom=check gue
 ss=(read,tcheck) scf=(maxcycle=1)
 ----------------------------------------------------------------------
 -----
 title
 -----
 Structure from the checkpoint file:  "BH10_91_reverse_mol2.chk"
 Charge =  0 Multiplicity = 1

                         Standard orientation:
 ---------------------------------------------------------------------
 Center     Atomic      Atomic             Coordinates (Angstroms)
 Number     Number       Type             X           Y           Z
 ---------------------------------------------------------------------
      1          6           0        0.517417   -1.137942    0.020451
      2          6           0        0.422160   -0.644457    1.440712
      3          6           0        0.877001    1.211003    0.106076
      4          6           0        0.618282    0.669283    1.486490
      5         16           0        1.943324   -0.130401   -0.657067
      6          6           0       -2.525035    0.579103    0.369694
      7          6           0       -0.624640   -0.501441   -0.813979
      8          6           0       -0.375673    1.031207   -0.783796
      9          6           0       -1.675951    1.689361   -0.257156
     10          1           0       -2.402094    0.534857    1.455096
     11          1           0       -2.211419    2.141300   -1.093606
     12          1           0       -1.458912    2.492163    0.448401
     13          1           0       -3.593335    0.661784    0.169147
     14          8           0        3.183509   -0.354850    0.140365
     15          6           0       -1.991431   -0.730285   -0.176810
     16          8           0       -2.540488   -1.796715   -0.112860
     17          1           0        0.579563    1.288519    2.371819
     18          1           0        0.187099   -1.288856    2.276106
     19          1           0        0.647056   -2.205988   -0.124397
     20          1           0       -0.635920   -0.917131   -1.822412
     21          1           0        1.345293    2.189952    0.043675
     22          1           0       -0.147464    1.407346   -1.780890
 ---------------------------------------------------------------------

 SCF Done:  E(RHF) =  -894.044166166     A.U. after    2 cycles

 The electronic state is 1-A.
 Alpha  occ. eigenvalues --  -93.66014 -20.57661 -20.52595 -11.35410 -11.29705
 Alpha  occ. eigenvalues --  -11.29360 -11.27718 -11.27511 -11.26648 -11.26483
 Alpha  occ. eigenvalues --  -11.26262 -11.25714  -8.94368  -6.28663  -6.28428
 Alpha  occ. eigenvalues --   -6.28191  -1.37238  -1.31014  -1.19935  -1.10621
 Alpha  occ. eigenvalues --   -1.03543  -1.02243  -0.94526  -0.92534  -0.82171
 Alpha  occ. eigenvalues --   -0.80496  -0.76924  -0.73644  -0.72607  -0.68872
 Alpha  occ. eigenvalues --   -0.67811  -0.63398  -0.61753  -0.61144  -0.60009
 Alpha  occ. eigenvalues --   -0.59120  -0.57201  -0.56347  -0.55622  -0.54305
 Alpha  occ. eigenvalues --   -0.51802  -0.50542  -0.50130  -0.48260  -0.43814
 Alpha  occ. eigenvalues --   -0.41205  -0.40430  -0.36002
 Alpha virt. eigenvalues --    0.02423   0.03382   0.03838   0.04158   0.05263
 Alpha virt. eigenvalues --    0.05539   0.05801   0.06167   0.07288   0.08033
 Alpha virt. eigenvalues --    0.08309   0.08996   0.10531   0.11111   0.11938

 Mulliken charges:
               1
     1  C    0.032657
     2  C    0.667209
     3  C    0.000588
     4  C    0.634059
     5  S    1.495000
     6  C    0.200275
     7  C   -0.219633
     8  C    0.217667
     9  C    0.613101
    10  H    0.074546
    11  H   -0.084007
    12  H   -0.094015
    13  H   -0.061337
    14  O   -1.071547
    15  C    0.250603
    16  O   -0.567827
    17  H   -0.446299
    18  H   -0.431294
    19  H   -0.373594
    20  H   -0.186376
    21  H   -0.416251
    22  H   -0.233525
 Sum of Mulliken charges =   0.00000

 Dipole moment (field-independent basis, Debye):
    X=             -3.3400    Y=              3.9991    Z=             -0.5421  Tot=              5.2385

 Test job not archived.
 1\1\GINC-SE150\SP\RHF\Aug-CC-pVDZ\C9H10O2S1\OHZDE\09-Apr-2025\0\\#t hf
  aug-cc-pvdz iop(5/13=1,5/36=2,99/5=2) pseudo=read geom=check guess=(r
 ead,tcheck) scf=(maxcycle=1)\\title\\0,1\C,0,0.517417,-1.137942,0.0204
 51\C,0,0.42216,-0.644457,1.440712\C,0,0.877001,1.211003,0.106076\C,0,0
 .618282,0.669283,1.48649\S,0,1.943324,-0.130401,-0.657067\C,0,-2.52503
 5,0.579103,0.369694\C,0,-0.62464,-0.501441,-0.813979\C,0,-0.375673,1.0
 31207,-0.783796\C,0,-1.675951,1.689361,-0.257156\H,0,-2.402094,0.53485
 7,1.455096\H,0,-2.211419,2.1413,-1.093606\H,0,-1.458912,2.492163,0.448

 Normal termination of Gaussian 16 at Wed Apr  9 01:52:52 2025.
