 Gaussian 16, Revision C.01,

 ----------------------------------------------------------------------
 #t hf aug-cc-pvdz symm=none int=(grid=ultrafine) guess=(read,tcheck) s
 table=opt
 ----------------------------------------------------------------------
 -----
 title
 -----
 Symbolic Z-matrix:
 Charge =  0 Multiplicity = 2

 SCF Done:  E(UHF) =  -431.314529928     A.U. after   23 cycles
 Normal termination of Gaussian 16 at Wed Apr  9 01:39:23 2025.
 Gaussian 16:  ES64L-G16RevC.01  3-Jul-2019

 ----------------------------------------------------------------------
 #t hf aug-cc-pvdz iop(5/13=1,5/36=2,99/5=2) pseudo=read geom=check gue
 ss=(read,tcheck) scf=(maxcycle=1)
 ----------------------------------------------------------------------
 -----
 title
 -----
 Structure from the checkpoint file:  "BH10_6_forward_mol2.chk"
 Charge =  0 Multiplicity = 2

                         Standard orientation:
 ---------------------------------------------------------------------
 Center     Atomic      Atomic             Coordinates (Angstroms)
 Number     Number       Type             X           Y           Z
 ---------------------------------------------------------------------
      1          6           0       -1.402274    0.310807   -0.128283
      2          6           0       -0.574842   -0.304577    0.944988
      3          6           0        0.368383   -1.387686    0.424012
      4          1           0       -1.256503   -0.724444    1.697931
      5          1           0       -0.015237    0.499932    1.425395
      6          6           0        1.432997   -0.861085   -0.546357
      7          1           0       -0.214595   -2.169544   -0.068064
      8          1           0        0.857003   -1.857499    1.282189
      9          6           0        2.375549    0.111713    0.094854
     10          1           0        0.950944   -0.392951   -1.409048
     11          1           0        2.002153   -1.715323   -0.926907
     12          6           0        2.522427    1.379452   -0.261826
     13          1           0        1.950072    1.806029   -1.079243
     14          1           0        3.220876    2.035098    0.244043
     15          1           0        2.966935   -0.275418    0.923331
     16          9           0       -2.159774   -0.539952   -0.833750
     17          9           0       -2.150790    1.351327    0.249977
 ---------------------------------------------------------------------

 SCF Done:  E(UHF) =  -431.460384492     A.U. after    2 cycles

 The electronic state is 2-A.
 Alpha  occ. eigenvalues --  -26.14875 -26.14845 -11.41943 -11.25821 -11.24995
 Alpha  occ. eigenvalues --  -11.24914 -11.24444 -11.23694  -1.72080  -1.67351
 Alpha  occ. eigenvalues --   -1.11292  -1.06207  -0.99469  -0.92950  -0.85260
 Alpha  occ. eigenvalues --   -0.83025  -0.81998  -0.78353  -0.75976  -0.74962
 Alpha  occ. eigenvalues --   -0.70791  -0.65581  -0.64741  -0.63894  -0.59519
 Alpha  occ. eigenvalues --   -0.57317  -0.53055  -0.52248  -0.50211  -0.48442
 Alpha  occ. eigenvalues --   -0.41367  -0.37285
 Alpha virt. eigenvalues --    0.03223   0.04149   0.04397   0.04938   0.06327
 Alpha virt. eigenvalues --    0.06678   0.07132   0.07422   0.08149   0.09580
 Alpha virt. eigenvalues --    0.11646   0.12751   0.13622   0.13682   0.14027

  Beta  occ. eigenvalues --  -26.14449 -26.14422 -11.39089 -11.25855 -11.24980
  Beta  occ. eigenvalues --  -11.24912 -11.24433 -11.23696  -1.70609  -1.66188
  Beta  occ. eigenvalues --   -1.10552  -1.05069  -0.97930  -0.91531  -0.84667
  Beta  occ. eigenvalues --   -0.82113  -0.78072  -0.76175  -0.75776  -0.71371
  Beta  occ. eigenvalues --   -0.70443  -0.65119  -0.64057  -0.63091  -0.58780
  Beta  occ. eigenvalues --   -0.56881  -0.52727  -0.51391  -0.49775  -0.48390
  Beta  occ. eigenvalues --   -0.37320
  Beta virt. eigenvalues --    0.03154   0.04151   0.04406   0.04761   0.06296
  Beta virt. eigenvalues --    0.06684   0.07122   0.07437   0.08148   0.09450
  Beta virt. eigenvalues --    0.10993   0.12096   0.12763   0.13701   0.13950

 Mulliken charges and spin densities:
               1          2
     1  C    0.593844   1.030957
     2  C    0.097552  -0.108639
     3  C    0.163187   0.003416
     4  H   -0.007560   0.059355
     5  H   -0.023329  -0.004687
     6  C    0.244167   0.000179
     7  H   -0.116546  -0.001487
     8  H   -0.093567  -0.005054
     9  C    0.653087   0.003569
    10  H   -0.178752  -0.011796
    11  H   -0.000169  -0.000519
    12  C    0.452876  -0.002060
    13  H   -0.310964  -0.000796
    14  H   -0.318169   0.000242
    15  H   -0.427134   0.000152
    16  F   -0.381670   0.021005
    17  F   -0.346854   0.016163
 Sum of Mulliken charges =  -0.00000   1.00000

 Dipole moment (field-independent basis, Debye):
    X=              2.1229    Y=             -1.1393    Z=              1.1870  Tot=              2.6859
                          Isotropic Fermi Contact Couplings
        Atom                 a.u.       MegaHertz       Gauss      10(-4) cm-1
     1  C(13)              0.45820     515.10470     183.80216     171.82043
     2  C(13)              0.00135       1.51226       0.53961       0.50444
     3  C(13)              0.00405       4.55636       1.62582       1.51984
     4  H(1)               0.01760      78.67559      28.07341      26.24335
     5  H(1)               0.00181       8.09964       2.89015       2.70175
     6  C(13)              0.00020       0.22100       0.07886       0.07372
     7  H(1)              -0.00029      -1.30895      -0.46706      -0.43662
     8  H(1)              -0.00083      -3.68876      -1.31624      -1.23044

 Normal termination of Gaussian 16 at Wed Apr  9 01:39:31 2025.
