 Gaussian 16, Revision C.01,

 ----------------------------------------------------------------------
 #t hf aug-cc-pvdz symm=none int=(grid=ultrafine) guess=(read,tcheck) s
 table=(opt,rrhf)
 ----------------------------------------------------------------------
 -----
 title
 -----
 Symbolic Z-matrix:
 Charge =  0 Multiplicity = 1

 SCF Done:  E(RHF) =  -1035.23932588     A.U. after   16 cycles
 Normal termination of Gaussian 16 at Wed Apr  9 01:47:08 2025.
 Gaussian 16:  ES64L-G16RevC.01  3-Jul-2019

 ----------------------------------------------------------------------
 #t hf aug-cc-pvdz iop(5/13=1,5/36=2,99/5=2) pseudo=read geom=check gue
 ss=(read,tcheck) scf=(maxcycle=1)
 ----------------------------------------------------------------------
 -----
 title
 -----
 Structure from the checkpoint file:  "BH10_288_forward_mol1.chk"
 Charge =  0 Multiplicity = 1

                         Standard orientation:
 ---------------------------------------------------------------------
 Center     Atomic      Atomic             Coordinates (Angstroms)
 Number     Number       Type             X           Y           Z
 ---------------------------------------------------------------------
      1          6           0        1.836847    1.619630    1.919106
      2          1           0        1.489688    2.293449    2.703563
      3          1           0        0.316284    0.251307    2.672482
      4          6           0       -1.002814    0.106638    0.258815
      5          1           0       -1.385914    0.715361   -1.817600
      6          6           0       -4.432863    0.391117   -0.779497
      7          1           0       -4.556998    0.129459    0.258808
      8          1           0       -4.046219    2.013211   -2.134854
      9          1           0       -2.964337    1.926482    0.748632
     10          5           0       -2.462252   -1.665882    0.306175
     11          6           0       -1.670888   -2.918580   -0.293282
     12          1           0       -1.326080   -3.577485    0.510048
     13          6           0       -3.755259   -2.005843    1.169243
     14          1           0       -4.579148   -2.365303    0.544929
     15          6           0        0.667625    1.864194   -0.027841
     16          8           0        0.280705    2.339836   -1.054042
     17          1           0        0.946866   -1.719324    1.380686
     18          6           0        2.629427   -0.873722    0.343190
     19          6           0        2.996812   -0.879356   -2.045823
     20          6           0        4.849531   -0.543889   -0.559739
     21          1           0        4.393383   -0.586113    1.532322
     22          1           0        5.016815   -0.557641   -2.700010
     23          1           0        1.091767   -1.188493   -1.124507
     24          1           0        2.884238    1.374967    2.078056
     25          6           0        0.942866    0.378786    1.790828
     26          7           0        0.114778    0.796868    0.661973
     27          6           0       -1.673516    0.178016   -0.934062
     28          8           0       -2.729978   -0.660174   -0.921275
     29          1           0       -5.014924   -0.186037   -1.484870
     30          6           0       -3.951681    1.660282   -1.113638
     31          6           0       -3.052952    2.249503   -0.281887
     32          1           0       -2.485875    3.124623   -0.571798
     33          8           0       -1.491485   -0.756959    1.103286
     34          1           0       -0.797792   -2.633827   -0.888262
     35          1           0       -2.320519   -3.515111   -0.940677
     36          1           0       -4.124949   -1.173559    1.774866
     37          1           0       -3.519224   -2.816083    1.865421
     38          8           0        1.733331    2.306487    0.664327
     39          6           0        1.693126   -0.935596    1.521031
     40          1           0        2.249159   -1.184405    2.428915
     41          6           0        2.144838   -0.995662   -0.957982
     42          6           0        4.351487   -0.648851   -1.850211
     43          6           0        3.992974   -0.656708    0.526303
     44          1           0        5.907373   -0.376086   -0.396920
     45          1           0        2.600278   -0.971338   -3.049616
 ---------------------------------------------------------------------

 SCF Done:  E(RHF) =  -1035.55603405     A.U. after    2 cycles

 The electronic state is 1-A.
 Alpha  occ. eigenvalues --  -20.62804 -20.59292 -20.57079 -20.55826 -15.68372
 Alpha  occ. eigenvalues --  -11.43080 -11.35930 -11.32210 -11.31967 -11.30937
 Alpha  occ. eigenvalues --  -11.29346 -11.26918 -11.25249 -11.25120 -11.24895
 Alpha  occ. eigenvalues --  -11.24559 -11.24435 -11.24330 -11.24177 -11.23971
 Alpha  occ. eigenvalues --  -11.17626 -11.16388  -7.60469  -1.44907  -1.39058
 Alpha  occ. eigenvalues --   -1.34940  -1.31548  -1.24117  -1.15297  -1.10220
 Alpha  occ. eigenvalues --   -1.08318  -1.02566  -1.01273  -0.99292  -0.95404
 Alpha  occ. eigenvalues --   -0.94536  -0.92639  -0.88765  -0.88627  -0.86642
 Alpha  occ. eigenvalues --   -0.83358  -0.80367  -0.79800  -0.77303  -0.75554
 Alpha  occ. eigenvalues --   -0.73069  -0.72464  -0.70546  -0.69989  -0.68008
 Alpha  occ. eigenvalues --   -0.67360  -0.65496  -0.64651  -0.64255  -0.63967
 Alpha  occ. eigenvalues --   -0.62434  -0.61452  -0.61326  -0.60102  -0.59169
 Alpha  occ. eigenvalues --   -0.58396  -0.57993  -0.57399  -0.56265  -0.55366
 Alpha  occ. eigenvalues --   -0.54581  -0.54025  -0.53210  -0.52576  -0.51226
 Alpha  occ. eigenvalues --   -0.50863  -0.50001  -0.49641  -0.49425  -0.48905
 Alpha  occ. eigenvalues --   -0.48174  -0.48023  -0.46699  -0.44644  -0.41347
 Alpha  occ. eigenvalues --   -0.38200  -0.34238  -0.33643  -0.28245
 Alpha virt. eigenvalues --    0.02443   0.03162   0.03399   0.03651   0.04047
 Alpha virt. eigenvalues --    0.04481   0.04839   0.05166   0.05832   0.06027
 Alpha virt. eigenvalues --    0.06221   0.06356   0.07161   0.07409   0.07761

 Mulliken charges:
               1
     1  C    1.529430
     2  H   -0.179352
     3  H   -0.409404
     4  C    0.278672
     5  H   -0.739355
     6  C    0.788291
     7  H   -0.359110
     8  H   -0.378828
     9  H   -0.296100
    10  B    0.366520
    11  C    0.738865
    12  H   -0.147801
    13  C    0.626308
    14  H   -0.028766
    15  C    0.326138
    16  O   -0.489873
    17  H   -0.084149
    18  C   -0.140257
    19  C   -0.258376
    20  C    0.054909
    21  H   -0.661693
    22  H   -0.467623
    23  H   -0.698281
    24  H   -0.264279
    25  C   -0.010787
    26  N   -0.078859
    27  C    1.082199
    28  O   -1.039991
    29  H   -0.340387
    30  C    0.869714
    31  C    0.846665
    32  H   -0.355294
    33  O   -1.004105
    34  H   -0.448766
    35  H   -0.123246
    36  H   -0.070268
    37  H   -0.317763
    38  O   -0.735889
    39  C    0.563090
    40  H   -0.260402
    41  C    1.453359
    42  C    0.832096
    43  C    1.097658
    44  H   -0.486592
    45  H   -0.578319
 Sum of Mulliken charges =   0.00000

 Dipole moment (field-independent basis, Debye):
    X=             -0.3144    Y=              1.7763    Z=              2.5672  Tot=              3.1376

 Test job not archived.
 1\1\GINC-SE072\SP\RHF\Aug-CC-pVDZ\C17H22B1N1O4\OHZDE\09-Apr-2025\0\\#t
  hf aug-cc-pvdz iop(5/13=1,5/36=2,99/5=2) pseudo=read geom=check guess
 =(read,tcheck) scf=(maxcycle=1)\\title\\0,1\C,0,1.836847,1.61963,1.919
 106\H,0,1.489688,2.293449,2.703563\H,0,0.316284,0.251307,2.672482\C,0,
 -1.002814,0.106638,0.258815\H,0,-1.385914,0.715361,-1.8176\C,0,-4.4328
 63,0.391117,-0.779497\H,0,-4.556998,0.129459,0.258808\H,0,-4.046219,2.
 013211,-2.134854\H,0,-2.964337,1.926482,0.748632\B,0,-2.462252,-1.6658
 82,0.306175\C,0,-1.670888,-2.91858,-0.293282\H,0,-1.32608,-3.577485,0.

 Normal termination of Gaussian 16 at Wed Apr  9 01:49:28 2025.
