 Gaussian 16, Revision C.01,

 ----------------------------------------------------------------------
 #t hf aug-cc-pvdz symm=none int=(grid=ultrafine) guess=(read,tcheck) s
 table=(opt,rrhf)
 ----------------------------------------------------------------------
 -----
 title
 -----
 Symbolic Z-matrix:
 Charge =  0 Multiplicity = 1

 SCF Done:  E(RHF) =  -404.463937047     A.U. after   15 cycles
 Normal termination of Gaussian 16 at Wed Apr  9 00:56:24 2025.
 Gaussian 16:  ES64L-G16RevC.01  3-Jul-2019

 ----------------------------------------------------------------------
 #t hf aug-cc-pvdz iop(5/13=1,5/36=2,99/5=2) pseudo=read geom=check gue
 ss=(read,tcheck) scf=(maxcycle=1)
 ----------------------------------------------------------------------
 -----
 title
 -----
 Structure from the checkpoint file:  "BH10_173_forward_mol2.chk"
 Charge =  0 Multiplicity = 1

                         Standard orientation:
 ---------------------------------------------------------------------
 Center     Atomic      Atomic             Coordinates (Angstroms)
 Number     Number       Type             X           Y           Z
 ---------------------------------------------------------------------
      1          1           0        3.116786   -0.788260    0.000560
      2          8           0        2.735639    0.093683    0.000440
      3          6           0        1.373199    0.017748    0.000224
      4          6           0        0.668712    1.215805    0.000100
      5          6           0       -0.716148    1.204908   -0.000127
      6          6           0       -1.376998   -0.007949   -0.000224
      7          6           0       -0.698956   -1.207093   -0.000104
      8          6           0        0.690067   -1.191393    0.000121
      9          1           0        1.238308   -2.127366    0.000215
     10          1           0       -1.285478    2.125134   -0.000227
     11          1           0        1.218927    2.147554    0.000183
     12          1           0       -1.250748   -2.137793   -0.000186
     13          9           0       -2.729130   -0.017877   -0.000445
 ---------------------------------------------------------------------

 SCF Done:  E(RHF) =  -404.592873206     A.U. after    2 cycles

 The electronic state is 1-A.
 Alpha  occ. eigenvalues --  -26.13011 -20.61106 -11.33197 -11.31988 -11.26175
 Alpha  occ. eigenvalues --  -11.26035 -11.25904 -11.25363  -1.66866  -1.37574
 Alpha  occ. eigenvalues --   -1.16142  -1.03695  -1.02101  -0.88308  -0.86387
 Alpha  occ. eigenvalues --   -0.77655  -0.76722  -0.74648  -0.73803  -0.66741
 Alpha  occ. eigenvalues --   -0.63634  -0.61666  -0.61545  -0.59798  -0.57526
 Alpha  occ. eigenvalues --   -0.51620  -0.50358  -0.36325  -0.33002
 Alpha virt. eigenvalues --    0.02896   0.04089   0.04362   0.05876   0.06537
 Alpha virt. eigenvalues --    0.09134   0.10104   0.10692   0.12001   0.13033
 Alpha virt. eigenvalues --    0.13548   0.13653   0.13937   0.14106   0.14594

 Mulliken charges:
               1
     1  H    0.129750
     2  O   -0.572012
     3  C    0.453487
     4  C    0.568021
     5  C    0.478824
     6  C    0.247280
     7  C    0.319404
     8  C    0.546144
     9  H   -0.562596
    10  H   -0.408751
    11  H   -0.456668
    12  H   -0.406277
    13  F   -0.336605
 Sum of Mulliken charges =  -0.00000

 Dipole moment (field-independent basis, Debye):
    X=              1.7926    Y=             -1.3888    Z=              0.0004  Tot=              2.2676

 Test job not archived.
 1\1\GINC-SE340\SP\RHF\Aug-CC-pVDZ\C6H5F1O1\OHZDE\09-Apr-2025\0\\#t hf
 aug-cc-pvdz iop(5/13=1,5/36=2,99/5=2) pseudo=read geom=check guess=(re
 ad,tcheck) scf=(maxcycle=1)\\title\\0,1\H,0,3.116786,-0.78826,0.00056\
 O,0,2.735639,0.093683,0.00044\C,0,1.373199,0.017748,0.000224\C,0,0.668
 712,1.215805,0.0001\C,0,-0.716148,1.204908,-0.000127\C,0,-1.376998,-0.
 007949,-0.000224\C,0,-0.698956,-1.207093,-0.000104\C,0,0.690067,-1.191
 393,0.000121\H,0,1.238308,-2.127366,0.000215\H,0,-1.285478,2.125134,-0
 .000227\H,0,1.218927,2.147554,0.000183\H,0,-1.250748,-2.137793,-0.0001

 Normal termination of Gaussian 16 at Wed Apr  9 00:56:28 2025.
