 Gaussian 16, Revision C.01,

 ----------------------------------------------------------------------
 #t hf aug-cc-pvdz symm=none int=(grid=ultrafine) guess=(read,tcheck) s
 table=(opt,rrhf)
 ----------------------------------------------------------------------
 -----
 title
 -----
 Symbolic Z-matrix:
 Charge =  1 Multiplicity = 1

 SCF Done:  E(RHF) =  -345.859830314     A.U. after   14 cycles
 Normal termination of Gaussian 16 at Wed Apr  9 00:52:08 2025.
 Gaussian 16:  ES64L-G16RevC.01  3-Jul-2019

 ----------------------------------------------------------------------
 #t hf aug-cc-pvdz iop(5/13=1,5/36=2,99/5=2) pseudo=read geom=check gue
 ss=(read,tcheck) scf=(maxcycle=1)
 ----------------------------------------------------------------------
 -----
 title
 -----
 Structure from the checkpoint file:  "BH10-RE_106_mol2.chk"
 Charge =  1 Multiplicity = 1

                         Standard orientation:
 ---------------------------------------------------------------------
 Center     Atomic      Atomic             Coordinates (Angstroms)
 Number     Number       Type             X           Y           Z
 ---------------------------------------------------------------------
      1          6           0       -0.000000   -1.817884    0.000000
      2          6           0       -0.000000   -1.124983    1.205531
      3          6           0       -0.000000    0.251864    1.193572
      4          7           0       -0.000000    0.853443   -0.000000
      5          6           0       -0.000000    0.251864   -1.193572
      6          6           0       -0.000000   -1.124983   -1.205531
      7          9           0       -0.000000    2.199176   -0.000000
      8          1           0        0.000001   -2.900678    0.000000
      9          1           0        0.000002   -1.639272    2.156841
     10          1           0        0.000001    0.898636    2.060973
     11          1           0        0.000001    0.898636   -2.060973
     12          1           0        0.000002   -1.639272   -2.156841
 ---------------------------------------------------------------------

 SCF Done:  E(RHF) =  -345.970777487     A.U. after    2 cycles

 The electronic state is 1-A'.
 Alpha  occ. eigenvalues --  -26.39523 -16.02736 -11.53621 -11.53607 -11.48795
 Alpha  occ. eigenvalues --  -11.46939 -11.46936  -1.92992  -1.51128  -1.30886
 Alpha  occ. eigenvalues --   -1.29320  -1.13229  -1.11317  -1.02422  -1.01069
 Alpha  occ. eigenvalues --   -0.97401  -0.92590  -0.89455  -0.86266  -0.84325
 Alpha  occ. eigenvalues --   -0.80124  -0.76071  -0.75247  -0.61969  -0.58077
 Alpha virt. eigenvalues --   -0.13813  -0.09750  -0.08540  -0.07267  -0.06606
 Alpha virt. eigenvalues --   -0.04428  -0.04318  -0.04293  -0.02983  -0.00564
 Alpha virt. eigenvalues --    0.00190   0.00211   0.00576   0.01712   0.02417

 Mulliken charges:
               1
     1  C    0.025270
     2  C    0.768840
     3  C    0.656268
     4  N   -0.046125
     5  C    0.656268
     6  C    0.768840
     7  F   -0.327611
     8  H   -0.351195
     9  H   -0.329180
    10  H   -0.246097
    11  H   -0.246097
    12  H   -0.329180
 Sum of Mulliken charges =   1.00000

 Dipole moment (field-independent basis, Debye):
    X=              0.0000    Y=             -2.3868    Z=             -0.0000  Tot=              2.3868

 Test job not archived.
 1\1\GINC-SE455\SP\RHF\Aug-CC-pVDZ\C5H5F1N1(1+)\OHZDE\09-Apr-2025\0\\#t
  hf aug-cc-pvdz iop(5/13=1,5/36=2,99/5=2) pseudo=read geom=check guess
 =(read,tcheck) scf=(maxcycle=1)\\title\\1,1\C,0,0.,-1.817884,0.\C,0,0.
 ,-1.124983,1.205531\C,0,0.,0.251864,1.193572\N,0,0.,0.853443,0.\C,0,0.
 ,0.251864,-1.193572\C,0,0.,-1.124983,-1.205531\F,0,0.,2.199176,0.\H,0,
 0.000001,-2.900678,0.\H,0,0.000002,-1.639272,2.156841\H,0,0.000001,0.8
 98636,2.060973\H,0,0.000001,0.898636,-2.060973\H,0,0.000002,-1.639272,
 -2.156841\\Version=ES64L-G16RevC.01\State=1-A'\HF=-345.9707775\RMSD=9.

 Normal termination of Gaussian 16 at Wed Apr  9 00:52:12 2025.
