 Gaussian 16, Revision C.01,

 ----------------------------------------------------------------------
 #t hf aug-cc-pvdz symm=none int=(grid=ultrafine) guess=(read,tcheck) s
 table=opt
 ----------------------------------------------------------------------
 -----
 title
 -----
 Symbolic Z-matrix:
 Charge =  0 Multiplicity = 2

 SCF Done:  E(UHF) =  -741.877672761     A.U. after   22 cycles
 Normal termination of Gaussian 16 at Wed Apr  9 00:57:12 2025.
 Gaussian 16:  ES64L-G16RevC.01  3-Jul-2019

 ----------------------------------------------------------------------
 #t hf aug-cc-pvdz iop(5/13=1,5/36=2,99/5=2) pseudo=read geom=check gue
 ss=(read,tcheck) scf=(maxcycle=1)
 ----------------------------------------------------------------------
 -----
 title
 -----
 Structure from the checkpoint file:  "BH10_163_reverse_mol2.chk"
 Charge =  0 Multiplicity = 2

                         Standard orientation:
 ---------------------------------------------------------------------
 Center     Atomic      Atomic             Coordinates (Angstroms)
 Number     Number       Type             X           Y           Z
 ---------------------------------------------------------------------
      1          6           0       -1.810488   -1.335143   -0.717672
      2         16           0       -2.107723    0.330296   -0.066328
      3          6           0       -0.637162    0.532269    1.018802
      4          6           0        0.618848    0.662145    0.245453
      5          6           0        0.949667    1.950297   -0.415336
      6          6           0        1.473904   -0.501144    0.158030
      7          8           0        2.610355   -0.296823   -0.553455
      8          8           0        1.231166   -1.580537    0.662142
      9          1           0       -0.959087   -1.358377   -1.395456
     10          1           0       -1.650378   -2.043617    0.093322
     11          1           0       -2.708313   -1.613650   -1.268293
     12          1           0        0.056219    2.372724   -0.882240
     13          1           0        1.730647    1.839755   -1.163761
     14          1           0        1.297429    2.678734    0.328737
     15          1           0       -0.844170    1.447776    1.576536
     16          1           0       -0.596440   -0.308249    1.708587
     17          1           0        3.096879   -1.131495   -0.541340
 ---------------------------------------------------------------------

 SCF Done:  E(UHF) =  -742.007260515     A.U. after    2 cycles

 The electronic state is 2-A.
 Alpha  occ. eigenvalues --  -93.53049 -20.62404 -20.57732 -11.39370 -11.28548
 Alpha  occ. eigenvalues --  -11.27429 -11.25930 -11.24302  -8.82772  -6.17027
 Alpha  occ. eigenvalues --   -6.16730  -6.16365  -1.43047  -1.33635  -1.12568
 Alpha  occ. eigenvalues --   -1.03417  -0.95458  -0.92530  -0.83066  -0.77086
 Alpha  occ. eigenvalues --   -0.72910  -0.69869  -0.67531  -0.62834  -0.61467
 Alpha  occ. eigenvalues --   -0.59469  -0.58714  -0.58563  -0.56907  -0.54016
 Alpha  occ. eigenvalues --   -0.53611  -0.50463  -0.48862  -0.44689  -0.36464
 Alpha  occ. eigenvalues --   -0.34098
 Alpha virt. eigenvalues --    0.03273   0.04096   0.04579   0.05015   0.06354
 Alpha virt. eigenvalues --    0.06626   0.07125   0.07644   0.08156   0.10547
 Alpha virt. eigenvalues --    0.11145   0.11663   0.13266   0.13979   0.14215

  Beta  occ. eigenvalues --  -93.52948 -20.62439 -20.56479 -11.39934 -11.27783
  Beta  occ. eigenvalues --  -11.26368 -11.25940 -11.24576  -8.82655  -6.16773
  Beta  occ. eigenvalues --   -6.16524  -6.16285  -1.42422  -1.31726  -1.09127
  Beta  occ. eigenvalues --   -1.02239  -0.95496  -0.91451  -0.82162  -0.75958
  Beta  occ. eigenvalues --   -0.72038  -0.68462  -0.64546  -0.62452  -0.60373
  Beta  occ. eigenvalues --   -0.58712  -0.58512  -0.56950  -0.56430  -0.53274
  Beta  occ. eigenvalues --   -0.49720  -0.47538  -0.47418  -0.43414  -0.34063
  Beta virt. eigenvalues --    0.03267   0.04031   0.04413   0.04883   0.05162
  Beta virt. eigenvalues --    0.06376   0.06634   0.07162   0.07660   0.08164
  Beta virt. eigenvalues --    0.10663   0.11199   0.11769   0.13301   0.14079

 Mulliken charges and spin densities:
               1          2
     1  C    0.142671   0.000199
     2  S    0.361590   0.079931
     3  C    0.432791  -0.228807
     4  C   -0.385743   1.390859
     5  C    0.475248  -0.198229
     6  C    0.582255  -0.407844
     7  O   -0.582496   0.000890
     8  O   -0.521112   0.280834
     9  H   -0.085847  -0.004154
    10  H   -0.085852   0.000706
    11  H   -0.133357  -0.001060
    12  H    0.018114   0.021184
    13  H   -0.102990   0.004837
    14  H    0.082279   0.042555
    15  H   -0.147933   0.015280
    16  H   -0.265692   0.006149
    17  H    0.216074  -0.003329
 Sum of Mulliken charges =  -0.00000   1.00000

 Dipole moment (field-independent basis, Debye):
    X=              1.2668    Y=              0.8353    Z=             -0.5288  Tot=              1.6069
                          Isotropic Fermi Contact Couplings
        Atom                 a.u.       MegaHertz       Gauss      10(-4) cm-1
     1  C(13)             -0.00186      -2.08728      -0.74479      -0.69624
     2  S(33)              0.04012      13.77889       4.91665       4.59614
     3  C(13)             -0.06414     -72.10414     -25.72855     -24.05135
     4  C(13)              0.19361     217.65248      77.66382      72.60105
     5  C(13)             -0.05310     -59.69983     -21.30238     -19.91372
     6  C(13)             -0.09092    -102.21224     -36.47187     -34.09433
     7  O(17)             -0.01207       7.31669       2.61078       2.44058
     8  O(17)              0.10794     -65.43384     -23.34842     -21.82638

 Normal termination of Gaussian 16 at Wed Apr  9 00:57:21 2025.
