 Gaussian 16, Revision C.01,

 ----------------------------------------------------------------------
 #t hf aug-cc-pvdz symm=none int=(grid=ultrafine) guess=(read,tcheck) s
 table=(opt,rrhf)
 ----------------------------------------------------------------------
 -----
 title
 -----
 Symbolic Z-matrix:
 Charge =  0 Multiplicity = 1

 SCF Done:  E(RHF) =  -878.883883098     A.U. after   17 cycles
 Normal termination of Gaussian 16 at Wed Apr  9 00:53:55 2025.
 Gaussian 16:  ES64L-G16RevC.01  3-Jul-2019

 ----------------------------------------------------------------------
 #t hf aug-cc-pvdz iop(5/13=1,5/36=2,99/5=2) pseudo=read geom=check gue
 ss=(read,tcheck) scf=(maxcycle=1)
 ----------------------------------------------------------------------
 -----
 title
 -----
 Structure from the checkpoint file:  "BH10-RE_116_mol3.chk"
 Charge =  0 Multiplicity = 1

                         Standard orientation:
 ---------------------------------------------------------------------
 Center     Atomic      Atomic             Coordinates (Angstroms)
 Number     Number       Type             X           Y           Z
 ---------------------------------------------------------------------
      1         16           0       -3.083717   -0.455257    0.000040
      2          6           0       -1.335560   -0.253689    0.000009
      3          6           0       -0.727455    0.994096    0.000046
      4          6           0        0.657506    1.069186    0.000037
      5          6           0        1.440262   -0.080934    0.000002
      6          6           0        0.808505   -1.325824   -0.000032
      7          6           0       -0.566996   -1.419757   -0.000035
      8          1           0       -1.328426    1.892228    0.000076
      9          1           0        1.120715    2.047375    0.000062
     10          1           0        1.424365   -2.215832   -0.000065
     11          1           0       -1.041787   -2.394781   -0.000076
     12          6           0        2.934176   -0.042329   -0.000005
     13          8           0        3.573804   -1.070553   -0.000034
     14          6           0        3.625298    1.299084    0.000027
     15          1           0        3.344616    1.879777   -0.881627
     16          1           0        4.700585    1.137216    0.000019
     17          1           0        3.344621    1.879733    0.881711
     18          9           0       -3.536675    1.131537   -0.000084
 ---------------------------------------------------------------------

 SCF Done:  E(RHF) =  -879.057146172     A.U. after    2 cycles

 The electronic state is 1-A.
 Alpha  occ. eigenvalues --  -93.64171 -26.14932 -20.56497 -11.35206 -11.31273
 Alpha  occ. eigenvalues --  -11.27766 -11.27178 -11.27040 -11.26756 -11.26353
 Alpha  occ. eigenvalues --  -11.25051  -8.93080  -6.27326  -6.26962  -6.26459
 Alpha  occ. eigenvalues --   -1.66500  -1.36108  -1.18492  -1.08739  -1.04431
 Alpha  occ. eigenvalues --   -1.01691  -0.97108  -0.86640  -0.86040  -0.78124
 Alpha  occ. eigenvalues --   -0.76423  -0.75567  -0.73413  -0.69575  -0.67402
 Alpha  occ. eigenvalues --   -0.65352  -0.62328  -0.61943  -0.61837  -0.61023
 Alpha  occ. eigenvalues --   -0.55811  -0.55283  -0.52543  -0.52137  -0.50941
 Alpha  occ. eigenvalues --   -0.43978  -0.43902  -0.37051  -0.33416
 Alpha virt. eigenvalues --    0.03075   0.03697   0.04296   0.04672   0.05548
 Alpha virt. eigenvalues --    0.06038   0.06163   0.07357   0.08420   0.08753
 Alpha virt. eigenvalues --    0.08920   0.09491   0.10145   0.10888   0.11951

 Mulliken charges:
               1
     1  S    0.665423
     2  C    0.451470
     3  C    0.267828
     4  C    0.646141
     5  C    1.088868
     6  C    0.090130
     7  C    0.166003
     8  H   -0.515190
     9  H   -0.702841
    10  H   -0.655422
    11  H   -0.491273
    12  C   -0.403374
    13  O   -0.519616
    14  C    0.473751
    15  H    0.113377
    16  H   -0.156395
    17  H    0.113374
    18  F   -0.632250
 Sum of Mulliken charges =  -0.00000

 Dipole moment (field-independent basis, Debye):
    X=             -0.4198    Y=              1.3676    Z=              0.0002  Tot=              1.4306

 Test job not archived.
 1\1\GINC-SE186\SP\RHF\Aug-CC-pVDZ\C8H7F1O1S1\OHZDE\09-Apr-2025\0\\#t h
 f aug-cc-pvdz iop(5/13=1,5/36=2,99/5=2) pseudo=read geom=check guess=(
 read,tcheck) scf=(maxcycle=1)\\title\\0,1\S,0,-3.083717,-0.455257,0.00
 004\C,0,-1.33556,-0.253689,0.000009\C,0,-0.727455,0.994096,0.000046\C,
 0,0.657506,1.069186,0.000037\C,0,1.440262,-0.080934,0.000002\C,0,0.808
 505,-1.325824,-0.000032\C,0,-0.566996,-1.419757,-0.000035\H,0,-1.32842
 6,1.892228,0.000076\H,0,1.120715,2.047375,0.000062\H,0,1.424365,-2.215
 832,-0.000065\H,0,-1.041787,-2.394781,-0.000076\C,0,2.934176,-0.042329

 Normal termination of Gaussian 16 at Wed Apr  9 00:54:12 2025.
