 Gaussian 16, Revision C.01,

 ----------------------------------------------------------------------
 #t hf aug-cc-pvdz symm=none int=(grid=ultrafine) guess=(read,tcheck) s
 table=opt
 ----------------------------------------------------------------------
 -----
 title
 -----
 Symbolic Z-matrix:
 Charge =  0 Multiplicity = 2

 SCF Done:  E(UHF) =  -1028.98303007     A.U. after   17 cycles
 Normal termination of Gaussian 16 at Wed Apr  9 01:10:23 2025.
 Gaussian 16:  ES64L-G16RevC.01  3-Jul-2019

 ----------------------------------------------------------------------
 #t hf aug-cc-pvdz iop(5/13=1,5/36=2,99/5=2) pseudo=read geom=check gue
 ss=(read,tcheck) scf=(maxcycle=1)
 ----------------------------------------------------------------------
 -----
 title
 -----
 Structure from the checkpoint file:  "BH10_204_reverse_mol2.chk"
 Charge =  0 Multiplicity = 2

                         Standard orientation:
 ---------------------------------------------------------------------
 Center     Atomic      Atomic             Coordinates (Angstroms)
 Number     Number       Type             X           Y           Z
 ---------------------------------------------------------------------
      1          7           0        1.706148    0.175150   -0.772175
      2         16           0        1.330046   -1.281217   -0.092272
      3          8           0       -0.087595   -0.984267    0.595569
      4          6           0       -1.207603   -0.686263   -0.265836
      5          6           0       -2.382233   -0.370759    0.634265
      6          1           0       -1.403175   -1.554732   -0.897032
      7          1           0       -0.946425    0.165640   -0.897222
      8          6           0       -3.626138   -0.110448   -0.139371
      9          1           0       -2.134717    0.490835    1.263658
     10          1           0       -2.520562   -1.215969    1.325914
     11          6           0       -4.778896    0.598428    0.477013
     12          1           0       -3.780460   -0.643481   -1.073452
     13          6           0        2.392210    1.280762   -0.051159
     14          6           0        3.851645    0.930868    0.247706
     15          6           0        1.635551    1.604726    1.234637
     16          6           0        2.321837    2.470264   -1.007393
     17          1           0        2.831458    2.248791   -1.949247
     18          1           0        2.812971    3.336383   -0.561096
     19          1           0        1.285443    2.730647   -1.227533
     20          1           0        3.918567    0.074722    0.917153
     21          1           0        4.351853    1.781531    0.715599
     22          1           0        4.386001    0.691443   -0.675254
     23          1           0        1.662850    0.773248    1.938251
     24          1           0        0.593228    1.846795    1.021111
     25          1           0        2.099209    2.468886    1.713227
     26          8           0        2.186041   -1.611079    1.016959
     27          8           0        1.139974   -2.185654   -1.203190
     28          6           0       -5.899817    0.916429   -0.507413
     29          1           0       -4.425955    1.521900    0.954378
     30          1           0       -5.184048   -0.006943    1.304485
     31          1           0       -5.540718    1.560233   -1.313408
     32          1           0       -6.729051    1.426024   -0.013419
     33          1           0       -6.292193    0.002775   -0.960418
     34          1           0        2.045252    0.018658   -1.713508
 ---------------------------------------------------------------------

 SCF Done:  E(UHF) =  -1029.26754715     A.U. after    2 cycles

 The electronic state is 2-A.
 Alpha  occ. eigenvalues --  -93.84025 -20.62637 -20.56750 -20.56486 -15.66316
 Alpha  occ. eigenvalues --  -11.30921 -11.30293 -11.24699 -11.24577 -11.24317
 Alpha  occ. eigenvalues --  -11.23939 -11.23300 -11.23054 -11.22849  -9.09736
 Alpha  occ. eigenvalues --   -6.44429  -6.44352  -6.44274  -1.47274  -1.35069
 Alpha  occ. eigenvalues --   -1.32064  -1.21808  -1.09998  -1.07082  -1.03381
 Alpha  occ. eigenvalues --   -0.95419  -0.94680  -0.94436  -0.86795  -0.84401
 Alpha  occ. eigenvalues --   -0.80159  -0.78763  -0.74540  -0.72966  -0.69141
 Alpha  occ. eigenvalues --   -0.68364  -0.66344  -0.63674  -0.62952  -0.62640
 Alpha  occ. eigenvalues --   -0.60793  -0.60694  -0.58529  -0.57818  -0.57324
 Alpha  occ. eigenvalues --   -0.56488  -0.55247  -0.54168  -0.53263  -0.52755
 Alpha  occ. eigenvalues --   -0.52538  -0.51239  -0.50780  -0.50439  -0.50137
 Alpha  occ. eigenvalues --   -0.49741  -0.49267  -0.48591  -0.48081  -0.42338
 Alpha  occ. eigenvalues --   -0.34309
 Alpha virt. eigenvalues --    0.02662   0.03422   0.03800   0.04244   0.04745
 Alpha virt. eigenvalues --    0.04880   0.05464   0.06308   0.06625   0.06820
 Alpha virt. eigenvalues --    0.07236   0.07546   0.07662   0.08432   0.08781

  Beta  occ. eigenvalues --  -93.84025 -20.62639 -20.56750 -20.56486 -15.66317
  Beta  occ. eigenvalues --  -11.30859 -11.30293 -11.24908 -11.24317 -11.24271
  Beta  occ. eigenvalues --  -11.23300 -11.23018 -11.22849 -11.22197  -9.09737
  Beta  occ. eigenvalues --   -6.44429  -6.44353  -6.44274  -1.47273  -1.35065
  Beta  occ. eigenvalues --   -1.32065  -1.21808  -1.07756  -1.06807  -1.03243
  Beta  occ. eigenvalues --   -0.95329  -0.94578  -0.92723  -0.86489  -0.84305
  Beta  occ. eigenvalues --   -0.79389  -0.76311  -0.74100  -0.72813  -0.69019
  Beta  occ. eigenvalues --   -0.67903  -0.66319  -0.63125  -0.62449  -0.61584
  Beta  occ. eigenvalues --   -0.60613  -0.60096  -0.58238  -0.57479  -0.56755
  Beta  occ. eigenvalues --   -0.56174  -0.55178  -0.53948  -0.53203  -0.52541
  Beta  occ. eigenvalues --   -0.52292  -0.50858  -0.50450  -0.50323  -0.49863
  Beta  occ. eigenvalues --   -0.49305  -0.48929  -0.48220  -0.47947  -0.42330
  Beta virt. eigenvalues --    0.02656   0.03423   0.03806   0.04257   0.04767
  Beta virt. eigenvalues --    0.04890   0.05470   0.06243   0.06525   0.06804
  Beta virt. eigenvalues --    0.07226   0.07484   0.07644   0.08346   0.08788

 Mulliken charges and spin densities:
               1          2
     1  N   -0.520235  -0.000418
     2  S    2.956563   0.000905
     3  O   -0.947726  -0.000094
     4  C    0.592971   0.051320
     5  C    0.199166  -0.330572
     6  H   -0.190233  -0.003812
     7  H   -0.253712  -0.004243
     8  C    0.153448   1.552794
     9  H   -0.117183   0.008224
    10  H   -0.074587   0.046092
    11  C    0.217757  -0.294896
    12  H   -0.522666  -0.100538
    13  C   -3.659462  -0.000501
    14  C    1.177832  -0.000019
    15  C    1.319229  -0.000053
    16  C    1.388315   0.000087
    17  H   -0.051169   0.000039
    18  H    0.018969  -0.000008
    19  H    0.013602  -0.000145
    20  H   -0.000860  -0.000002
    21  H    0.063582   0.000001
    22  H   -0.023814  -0.000010
    23  H   -0.022213  -0.000074
    24  H   -0.047867   0.000425
    25  H   -0.005478   0.000000
    26  O   -1.011708  -0.000044
    27  O   -0.964518  -0.000085
    28  C    0.636661   0.013314
    29  H   -0.017839   0.019497
    30  H   -0.038837   0.045833
    31  H   -0.057177   0.000311
    32  H   -0.084972  -0.001864
    33  H   -0.078256  -0.001493
    34  H   -0.047587   0.000028
 Sum of Mulliken charges =   0.00000   1.00000

 Dipole moment (field-independent basis, Debye):
    X=             -1.7855    Y=              4.8689    Z=             -1.2194  Tot=              5.3274
                          Isotropic Fermi Contact Couplings
        Atom                 a.u.       MegaHertz       Gauss      10(-4) cm-1
     1  N(14)             -0.00010      -0.03381      -0.01206      -0.01128
     2  S(33)             -0.00032      -0.10937      -0.03902      -0.03648
     3  O(17)             -0.00324       1.96411       0.70084       0.65516
     4  C(13)              0.01558      17.51673       6.25041       5.84295
     5  C(13)             -0.06168     -69.34389     -24.74362     -23.13063
     6  H(1)              -0.00069      -3.08225      -1.09982      -1.02813
     7  H(1)              -0.00085      -3.79339      -1.35358      -1.26534
     8  C(13)              0.23123     259.94868      92.75615      86.70955

 1\1\GINC-SE345\SP\UHF\Aug-CC-pVDZ\C9H20N1O3S1(2)\OHZDE\09-Apr-2025\0\\
 #t hf aug-cc-pvdz iop(5/13=1,5/36=2,99/5=2) pseudo=read geom=check gue
 ss=(read,tcheck) scf=(maxcycle=1)\\title\\0,2\N,0,1.706148,0.17515,-0.
 772175\S,0,1.330046,-1.281217,-0.092272\O,0,-0.087595,-0.984267,0.5955
 69\C,0,-1.207603,-0.686263,-0.265836\C,0,-2.382233,-0.370759,0.634265\
 H,0,-1.403175,-1.554732,-0.897032\H,0,-0.946425,0.16564,-0.897222\C,0,
 -3.626138,-0.110448,-0.139371\H,0,-2.134717,0.490835,1.263658\H,0,-2.5
 20562,-1.215969,1.325914\C,0,-4.778896,0.598428,0.477013\H,0,-3.78046,

 Normal termination of Gaussian 16 at Wed Apr  9 01:11:06 2025.
