 Gaussian 16, Revision C.01,

 ----------------------------------------------------------------------
 #t hf aug-cc-pvdz symm=none int=(grid=ultrafine) guess=(read,tcheck) s
 table=(opt,rrhf)
 ----------------------------------------------------------------------
 -----
 title
 -----
 Symbolic Z-matrix:
 Charge =  0 Multiplicity = 1

 SCF Done:  E(RHF) =  -764.523475048     A.U. after   15 cycles
 Normal termination of Gaussian 16 at Wed Apr  9 00:56:28 2025.
 Gaussian 16:  ES64L-G16RevC.01  3-Jul-2019

 ----------------------------------------------------------------------
 #t hf aug-cc-pvdz iop(5/13=1,5/36=2,99/5=2) pseudo=read geom=check gue
 ss=(read,tcheck) scf=(maxcycle=1)
 ----------------------------------------------------------------------
 -----
 title
 -----
 Structure from the checkpoint file:  "BH10_172_forward_mol2.chk"
 Charge =  0 Multiplicity = 1

                         Standard orientation:
 ---------------------------------------------------------------------
 Center     Atomic      Atomic             Coordinates (Angstroms)
 Number     Number       Type             X           Y           Z
 ---------------------------------------------------------------------
      1          1           0       -3.550853   -0.796061    0.000239
      2          8           0       -3.171828    0.087044    0.000203
      3          6           0       -1.811820    0.015934    0.000116
      4          6           0       -1.124169   -1.190641    0.000079
      5          6           0        0.263571   -1.200490   -0.000010
      6          6           0        0.954303   -0.002195   -0.000062
      7          6           0        0.273882    1.206318   -0.000025
      8          6           0       -1.109907    1.215184    0.000064
      9          1           0       -1.660859    2.146568    0.000094
     10          1           0        0.803384   -2.137970   -0.000039
     11          1           0       -1.668140   -2.129197    0.000119
     12          1           0        0.826284    2.136534   -0.000066
     13         17           0        2.702921   -0.010640   -0.000173
 ---------------------------------------------------------------------

 SCF Done:  E(RHF) =  -764.634729960     A.U. after    2 cycles

 The electronic state is 1-A.
 Alpha  occ. eigenvalues -- -103.66387 -20.61578 -11.32603 -11.30522 -11.26792
 Alpha  occ. eigenvalues --  -11.26618 -11.25907 -11.25339 -10.69674  -8.35413
 Alpha  occ. eigenvalues --   -8.35109  -8.35087  -1.38110  -1.19993  -1.13446
 Alpha  occ. eigenvalues --   -1.03716  -0.99980  -0.87366  -0.83575  -0.76312
 Alpha  occ. eigenvalues --   -0.70134  -0.66814  -0.63433  -0.62036  -0.61571
 Alpha  occ. eigenvalues --   -0.59903  -0.54413  -0.54175  -0.52178  -0.46828
 Alpha  occ. eigenvalues --   -0.46684  -0.36450  -0.32769
 Alpha virt. eigenvalues --    0.02807   0.04111   0.04525   0.05978   0.06612
 Alpha virt. eigenvalues --    0.08991   0.09626   0.09688   0.11021   0.12861
 Alpha virt. eigenvalues --    0.13077   0.13090   0.13686   0.13783   0.14388

 Mulliken charges:
               1
     1  H    0.128558
     2  O   -0.558569
     3  C    0.255484
     4  C    0.826248
     5  C    0.482390
     6  C   -0.371517
     7  C    0.605866
     8  C    0.874513
     9  H   -0.480841
    10  H   -0.405949
    11  H   -0.560679
    12  H   -0.418416
    13  Cl  -0.377088
 Sum of Mulliken charges =  -0.00000

 Dipole moment (field-independent basis, Debye):
    X=             -1.9025    Y=             -1.4004    Z=              0.0001  Tot=              2.3624

 Test job not archived.
 1\1\GINC-SE367\SP\RHF\Aug-CC-pVDZ\C6H5Cl1O1\OHZDE\09-Apr-2025\0\\#t hf
  aug-cc-pvdz iop(5/13=1,5/36=2,99/5=2) pseudo=read geom=check guess=(r
 ead,tcheck) scf=(maxcycle=1)\\title\\0,1\H,0,-3.550853,-0.796061,0.000
 239\O,0,-3.171828,0.087044,0.000203\C,0,-1.81182,0.015934,0.000116\C,0
 ,-1.124169,-1.190641,0.000079\C,0,0.263571,-1.20049,-0.00001\C,0,0.954
 303,-0.002195,-0.000062\C,0,0.273882,1.206318,-0.000025\C,0,-1.109907,
 1.215184,0.000064\H,0,-1.660859,2.146568,0.000094\H,0,0.803384,-2.1379
 7,-0.000039\H,0,-1.66814,-2.129197,0.000119\H,0,0.826284,2.136534,-0.0

 Normal termination of Gaussian 16 at Wed Apr  9 00:56:32 2025.
