 Gaussian 16, Revision C.01,

 ----------------------------------------------------------------------
 #t hf aug-cc-pvdz symm=none int=(grid=ultrafine) guess=(read,tcheck) s
 table=(opt,rrhf)
 ----------------------------------------------------------------------
 -----
 title
 -----
 Symbolic Z-matrix:
 Charge =  0 Multiplicity = 1

 SCF Done:  E(RHF) =  -887.707708756     A.U. after   17 cycles
 Normal termination of Gaussian 16 at Wed Apr  9 01:25:33 2025.
 Gaussian 16:  ES64L-G16RevC.01  3-Jul-2019

 ----------------------------------------------------------------------
 #t hf aug-cc-pvdz iop(5/13=1,5/36=2,99/5=2) pseudo=read geom=check gue
 ss=(read,tcheck) scf=(maxcycle=1)
 ----------------------------------------------------------------------
 -----
 title
 -----
 Structure from the checkpoint file:  "BH10_377_forward_mol2.chk"
 Charge =  0 Multiplicity = 1

                         Standard orientation:
 ---------------------------------------------------------------------
 Center     Atomic      Atomic             Coordinates (Angstroms)
 Number     Number       Type             X           Y           Z
 ---------------------------------------------------------------------
      1          7           0       -2.097162   -1.028316    0.000024
      2          7           0       -3.100539   -0.306477   -0.000015
      3          7           0       -4.106701    0.184734   -0.000034
      4          6           0       -0.821658   -0.462655    0.000011
      5          6           0       -0.521198    0.896447    0.000010
      6          6           0        0.253325   -1.351427    0.000006
      7          6           0        0.782761    1.355714    0.000001
      8          6           0        1.559990   -0.903946   -0.000003
      9          6           0        1.830472    0.454167   -0.000005
     10          9           0       -1.515773    1.790684    0.000020
     11          9           0        1.026236    2.661351    0.000000
     12          9           0        3.085615    0.886157   -0.000013
     13          9           0        2.560989   -1.776398   -0.000009
     14          9           0        0.023895   -2.659503    0.000008
 ---------------------------------------------------------------------

 SCF Done:  E(RHF) =  -888.003740143     A.U. after    2 cycles

 The electronic state is 1-A.
 Alpha  occ. eigenvalues --  -26.18873 -26.18395 -26.18264 -26.18154 -26.17617
 Alpha  occ. eigenvalues --  -15.88934 -15.77962 -15.71845 -11.39357 -11.39205
 Alpha  occ. eigenvalues --  -11.39172 -11.39056 -11.38847 -11.36024  -1.73550
 Alpha  occ. eigenvalues --   -1.73084  -1.72531  -1.72005  -1.71549  -1.49918
 Alpha  occ. eigenvalues --   -1.31879  -1.22608  -1.10514  -1.09717  -0.98384
 Alpha  occ. eigenvalues --   -0.96515  -0.89566  -0.88491  -0.88163  -0.82918
 Alpha  occ. eigenvalues --   -0.82274  -0.82132  -0.81699  -0.80659  -0.80546
 Alpha  occ. eigenvalues --   -0.79772  -0.78597  -0.78057  -0.76888  -0.76192
 Alpha  occ. eigenvalues --   -0.73789  -0.72606  -0.69712  -0.68645  -0.66423
 Alpha  occ. eigenvalues --   -0.63818  -0.57694  -0.48535  -0.47867  -0.39728
 Alpha  occ. eigenvalues --   -0.35374
 Alpha virt. eigenvalues --    0.05027   0.06208   0.06465   0.06635   0.08185
 Alpha virt. eigenvalues --    0.08553   0.09101   0.09285   0.10095   0.10410
 Alpha virt. eigenvalues --    0.11585   0.12136   0.12783   0.13383   0.14514

 Mulliken charges:
               1
     1  N   -0.764702
     2  N    0.487362
     3  N   -0.259670
     4  C    0.131518
     5  C    0.452522
     6  C    0.064262
     7  C    0.058375
     8  C    0.390846
     9  C    0.572299
    10  F   -0.240503
    11  F   -0.202183
    12  F   -0.240003
    13  F   -0.215774
    14  F   -0.234348
 Sum of Mulliken charges =  -0.00000

 Dipole moment (field-independent basis, Debye):
    X=             -1.5916    Y=              0.2591    Z=             -0.0000  Tot=              1.6126

 Test job not archived.
 1\1\GINC-SE424\SP\RHF\Aug-CC-pVDZ\C6F5N3\OHZDE\09-Apr-2025\0\\#t hf au
 g-cc-pvdz iop(5/13=1,5/36=2,99/5=2) pseudo=read geom=check guess=(read
 ,tcheck) scf=(maxcycle=1)\\title\\0,1\N,0,2.097162,-1.028316,-0.000024
 \N,0,3.100539,-0.306477,0.000015\N,0,4.106701,0.184734,0.000034\C,0,0.
 821658,-0.462655,-0.000011\C,0,0.521198,0.896447,-0.00001\C,0,-0.25332
 5,-1.351427,-0.000006\C,0,-0.782761,1.355714,-0.000001\C,0,-1.55999,-0
 .903946,0.000003\C,0,-1.830472,0.454167,0.000005\F,0,1.515773,1.790684
 ,-0.00002\F,0,-1.026236,2.661351,0.\F,0,-3.085615,0.886157,0.000013\F,

 Normal termination of Gaussian 16 at Wed Apr  9 01:25:42 2025.
