 Gaussian 16, Revision C.01,

 ----------------------------------------------------------------------
 #t hf aug-cc-pvdz symm=none int=(grid=ultrafine) guess=(read,tcheck) s
 table=(opt,rrhf)
 ----------------------------------------------------------------------
 -----
 title
 -----
 Symbolic Z-matrix:
 Charge =  0 Multiplicity = 1

 SCF Done:  E(RHF) =  -842.604703273     A.U. after   15 cycles
 Normal termination of Gaussian 16 at Wed Apr  9 00:58:32 2025.
 Gaussian 16:  ES64L-G16RevC.01  3-Jul-2019

 ----------------------------------------------------------------------
 #t hf aug-cc-pvdz iop(5/13=1,5/36=2,99/5=2) pseudo=read geom=check gue
 ss=(read,tcheck) scf=(maxcycle=1)
 ----------------------------------------------------------------------
 -----
 title
 -----
 Structure from the checkpoint file:  "BH10_208_forward_mol2.chk"
 Charge =  0 Multiplicity = 1

                         Standard orientation:
 ---------------------------------------------------------------------
 Center     Atomic      Atomic             Coordinates (Angstroms)
 Number     Number       Type             X           Y           Z
 ---------------------------------------------------------------------
      1          6           0        0.663289    1.204430   -0.000001
      2          6           0       -0.724189    1.230154   -0.000004
      3          6           0       -1.408751    0.014714   -0.000002
      4          6           0       -0.739530   -1.208037    0.000001
      5          6           0        0.651340   -1.203065    0.000002
      6          6           0        1.338048   -0.004509    0.000002
      7          1           0        1.219803    2.132824   -0.000002
      8          1           0        1.195670   -2.138603    0.000004
      9          8           0       -2.773800    0.088285   -0.000000
     10          1           0       -3.156782   -0.792578   -0.000045
     11          6           0       -1.511841   -2.498608    0.000006
     12          1           0       -0.836823   -3.353324   -0.000010
     13          1           0       -2.149609   -2.590580    0.885549
     14          1           0       -2.149634   -2.590573   -0.885521
     15          6           0       -1.492583    2.518909   -0.000006
     16          1           0       -2.140844    2.586694    0.876289
     17          1           0       -0.816379    3.373580   -0.000039
     18          1           0       -2.140892    2.586662   -0.876268
     19         17           0        3.088894   -0.014371    0.000004
 ---------------------------------------------------------------------

 SCF Done:  E(RHF) =  -842.739601464     A.U. after    2 cycles

 The electronic state is 1-A.
 Alpha  occ. eigenvalues -- -103.65907 -20.60987 -11.31101 -11.29961 -11.26038
 Alpha  occ. eigenvalues --  -11.25586 -11.25498 -11.25392 -11.25152 -11.23462
 Alpha  occ. eigenvalues --  -10.69184  -8.34923  -8.34622  -8.34600  -1.37513
 Alpha  occ. eigenvalues --   -1.19434  -1.13482  -1.07138  -1.01080  -0.95520
 Alpha  occ. eigenvalues --   -0.94114  -0.83237  -0.80881  -0.75303  -0.70209
 Alpha  occ. eigenvalues --   -0.64178  -0.63192  -0.61315  -0.59821  -0.58699
 Alpha  occ. eigenvalues --   -0.57979  -0.57638  -0.56395  -0.54757  -0.53235
 Alpha  occ. eigenvalues --   -0.51673  -0.50386  -0.46102  -0.45481  -0.34367
 Alpha  occ. eigenvalues --   -0.31659
 Alpha virt. eigenvalues --    0.02858   0.03879   0.04536   0.05045   0.05616
 Alpha virt. eigenvalues --    0.05989   0.06748   0.07727   0.08261   0.09347
 Alpha virt. eigenvalues --    0.10468   0.10748   0.11919   0.12286   0.12894

 Mulliken charges:
               1
     1  C    1.089217
     2  C   -0.433161
     3  C    0.065787
     4  C    0.457652
     5  C    0.954298
     6  C   -1.285355
     7  H   -0.519583
     8  H   -0.512174
     9  O   -0.643365
    10  H    0.138584
    11  C    0.301545
    12  H   -0.236157
    13  H    0.177871
    14  H    0.177872
    15  C    0.591060
    16  H    0.125858
    17  H   -0.183095
    18  H    0.125851
    19  Cl  -0.392705
 Sum of Mulliken charges =  -0.00000

 Dipole moment (field-independent basis, Debye):
    X=             -2.4200    Y=             -1.4940    Z=             -0.0001  Tot=              2.8440

 Test job not archived.
 1\1\GINC-SE329\SP\RHF\Aug-CC-pVDZ\C8H9Cl1O1\OHZDE\09-Apr-2025\0\\#t hf
  aug-cc-pvdz iop(5/13=1,5/36=2,99/5=2) pseudo=read geom=check guess=(r
 ead,tcheck) scf=(maxcycle=1)\\title\\0,1\C,0,0.663289,1.20443,-0.00000
 1\C,0,-0.724189,1.230154,-0.000004\C,0,-1.408751,0.014714,-0.000002\C,
 0,-0.73953,-1.208037,0.000001\C,0,0.65134,-1.203065,0.000002\C,0,1.338
 048,-0.004509,0.000002\H,0,1.219803,2.132824,-0.000002\H,0,1.19567,-2.
 138603,0.000004\O,0,-2.7738,0.088285,0.\H,0,-3.156782,-0.792578,-0.000
 045\C,0,-1.511841,-2.498608,0.000006\H,0,-0.836823,-3.353324,-0.00001\

 Normal termination of Gaussian 16 at Wed Apr  9 00:58:43 2025.
