 Gaussian 16, Revision C.01,

 ----------------------------------------------------------------------
 #t hf aug-cc-pvdz symm=none int=(grid=ultrafine) guess=(read,tcheck) s
 table=opt
 ----------------------------------------------------------------------
 -----
 title
 -----
 Symbolic Z-matrix:
 Charge =  0 Multiplicity = 2

 SCF Done:  E(UHF) =  -1016.40433985     A.U. after   29 cycles
 Normal termination of Gaussian 16 at Wed Apr  9 01:01:32 2025.
 Gaussian 16:  ES64L-G16RevC.01  3-Jul-2019

 ----------------------------------------------------------------------
 #t hf aug-cc-pvdz iop(5/13=1,5/36=2,99/5=2) pseudo=read geom=check gue
 ss=(read,tcheck) scf=(maxcycle=1)
 ----------------------------------------------------------------------
 -----
 title
 -----
 Structure from the checkpoint file:  "BH10_155_forward_mol1.chk"
 Charge =  0 Multiplicity = 2

                         Standard orientation:
 ---------------------------------------------------------------------
 Center     Atomic      Atomic             Coordinates (Angstroms)
 Number     Number       Type             X           Y           Z
 ---------------------------------------------------------------------
      1          7           0       -0.512079    1.351952    0.480703
      2          1           0       -0.842680    1.304462    1.436307
      3          6           0       -1.204918    0.528197   -0.474555
      4          1           0       -1.557168    1.157674   -1.300311
      5          6           0       -0.296792   -0.540545   -1.104033
      6          6           0       -2.418197   -0.071994    0.239091
      7          1           0       -0.833554   -1.109764   -1.862520
      8          1           0        0.533565   -0.037869   -1.598290
      9         16           0        0.382110   -1.741374    0.073779
     10          8           0       -2.589711    0.076350    1.430573
     11          1           0        1.243912   -0.764897    0.902612
     12          7           0       -3.262227   -0.781752   -0.544954
     13          1           0       -3.160965   -0.831838   -1.543832
     14          1           0       -4.081471   -1.184370   -0.118422
     15          6           0        0.449618    2.223623    0.107445
     16          1           0        0.856598    2.806072    0.947799
     17          8           0        0.841091    2.352307   -1.034451
     18          8           0        2.312850   -0.056571    1.215131
     19          7           0        3.131419   -0.235870    0.282969
     20          8           0        2.817011   -0.953772   -0.634069
 ---------------------------------------------------------------------

 SCF Done:  E(UHF) =  -1016.61256391     A.U. after    2 cycles

 The electronic state is 2-A.
 Alpha  occ. eigenvalues --  -93.62121 -20.60458 -20.60102 -20.58145 -20.55399
 Alpha  occ. eigenvalues --  -15.80311 -15.69024 -15.66969 -11.40945 -11.37574
 Alpha  occ. eigenvalues --  -11.33976 -11.31932  -8.91911  -6.27293  -6.25584
 Alpha  occ. eigenvalues --   -6.25320  -1.51282  -1.39956  -1.36539  -1.32915
 Alpha  occ. eigenvalues --   -1.23632  -1.22297  -1.11681  -1.02408  -0.91732
 Alpha  occ. eigenvalues --   -0.87399  -0.86175  -0.80412  -0.79710  -0.74456
 Alpha  occ. eigenvalues --   -0.74229  -0.72354  -0.70720  -0.69520  -0.67438
 Alpha  occ. eigenvalues --   -0.66630  -0.65726  -0.62623  -0.60936  -0.60174
 Alpha  occ. eigenvalues --   -0.57509  -0.56186  -0.52671  -0.50675  -0.48569
 Alpha  occ. eigenvalues --   -0.48072  -0.46369  -0.46138  -0.45884  -0.41961
 Alpha  occ. eigenvalues --   -0.38799
 Alpha virt. eigenvalues --    0.01288   0.03357   0.03794   0.04441   0.05853
 Alpha virt. eigenvalues --    0.06434   0.07203   0.08352   0.09836   0.10731
 Alpha virt. eigenvalues --    0.10855   0.11408   0.11596   0.12024   0.12407

  Beta  occ. eigenvalues --  -93.61172 -20.60429 -20.59401 -20.58138 -20.55392
  Beta  occ. eigenvalues --  -15.80353 -15.69026 -15.66977 -11.40950 -11.37575
  Beta  occ. eigenvalues --  -11.33901 -11.32089  -8.90841  -6.24970  -6.24747
  Beta  occ. eigenvalues --   -6.23263  -1.50830  -1.39933  -1.36527  -1.32141
  Beta  occ. eigenvalues --   -1.23549  -1.22298  -1.09644  -0.99390  -0.89995
  Beta  occ. eigenvalues --   -0.86177  -0.85190  -0.79846  -0.79642  -0.74348
  Beta  occ. eigenvalues --   -0.73075  -0.70855  -0.70335  -0.69255  -0.67119
  Beta  occ. eigenvalues --   -0.66338  -0.65464  -0.62214  -0.60702  -0.59757
  Beta  occ. eigenvalues --   -0.57180  -0.55427  -0.51411  -0.48486  -0.47626
  Beta  occ. eigenvalues --   -0.46400  -0.46157  -0.45271  -0.42106  -0.37371
  Beta virt. eigenvalues --   -0.02142   0.01318   0.03389   0.03813   0.04489
  Beta virt. eigenvalues --    0.05941   0.06534   0.07230   0.08405   0.09941
  Beta virt. eigenvalues --    0.10828   0.11102   0.11448   0.11686   0.12098

 Mulliken charges and spin densities:
               1          2
     1  N   -0.291420   0.003119
     2  H   -0.053266   0.000924
     3  C    0.304678  -0.010254
     4  H   -0.097390  -0.000824
     5  C    0.219294  -0.176424
     6  C    0.660779  -0.003127
     7  H   -0.141541  -0.007380
     8  H   -0.035251   0.027652
     9  S    0.284106   1.214510
    10  O   -0.549749   0.007453
    11  H    0.635403  -0.128570
    12  N   -0.104716   0.010235
    13  H   -0.005917   0.001765
    14  H   -0.008617  -0.000361
    15  C    0.721615  -0.000513
    16  H   -0.268831   0.000116
    17  O   -0.519674   0.001988
    18  O   -0.637778   0.008183
    19  N    0.340375  -0.035094
    20  O   -0.452099   0.086601
 Sum of Mulliken charges =  -0.00000   1.00000

 Dipole moment (field-independent basis, Debye):
    X=             -7.5054    Y=             -2.3289    Z=             -1.5444  Tot=              8.0087
                          Isotropic Fermi Contact Couplings
        Atom                 a.u.       MegaHertz       Gauss      10(-4) cm-1
     1  N(14)             -0.00180      -0.58156      -0.20752      -0.19399
     2  H(1)               0.00006       0.26981       0.09628       0.09000
     3  C(13)              0.01582      17.78865       6.34743       5.93365
     4  H(1)              -0.00021      -0.94685      -0.33786      -0.31584
     5  C(13)             -0.03006     -33.79849     -12.06014     -11.27396
     6  C(13)             -0.00146      -1.64681      -0.58762      -0.54932
     7  H(1)               0.00083       3.68928       1.31643       1.23061
     8  H(1)               0.01182      52.81964      18.84736      17.61874

 Normal termination of Gaussian 16 at Wed Apr  9 01:01:50 2025.
