 Gaussian 16, Revision C.01,

 ----------------------------------------------------------------------
 #t hf aug-cc-pvdz symm=none int=(grid=ultrafine) guess=(read,tcheck) s
 table=(opt,rrhf)
 ----------------------------------------------------------------------
 -----
 title
 -----
 Symbolic Z-matrix:
 Charge =  0 Multiplicity = 1

 SCF Done:  E(RHF) =  -628.258435845     A.U. after   15 cycles
 Normal termination of Gaussian 16 at Wed Apr  9 00:56:25 2025.
 Gaussian 16:  ES64L-G16RevC.01  3-Jul-2019

 ----------------------------------------------------------------------
 #t hf aug-cc-pvdz iop(5/13=1,5/36=2,99/5=2) pseudo=read geom=check gue
 ss=(read,tcheck) scf=(maxcycle=1)
 ----------------------------------------------------------------------
 -----
 title
 -----
 Structure from the checkpoint file:  "BH10_174_reverse_mol3.chk"
 Charge =  0 Multiplicity = 1

                         Standard orientation:
 ---------------------------------------------------------------------
 Center     Atomic      Atomic             Coordinates (Angstroms)
 Number     Number       Type             X           Y           Z
 ---------------------------------------------------------------------
      1          6           0        2.284159    0.005656   -0.000508
      2          6           0        1.586465   -1.194551    0.001167
      3          6           0        0.200280   -1.202467    0.003772
      4          6           0       -0.504142   -0.001277    0.002097
      5          6           0        0.193273    1.202966   -0.002724
      6          6           0        1.580506    1.201488   -0.001293
      7         16           0       -2.279257   -0.083009   -0.006248
      8          1           0        3.366837    0.008667   -0.000780
      9          1           0        2.123446   -2.135460    0.002492
     10          1           0       -0.336095   -2.143950    0.009423
     11          1           0       -0.342556    2.144570   -0.007542
     12          1           0        2.112389    2.145370   -0.002953
     13          1           0       -2.499156    1.238056    0.084272
 ---------------------------------------------------------------------

 SCF Done:  E(RHF) =  -628.347310629     A.U. after    2 cycles

 The electronic state is 1-A.
 Alpha  occ. eigenvalues --  -93.54954 -11.28736 -11.25390 -11.25333 -11.25225
 Alpha  occ. eigenvalues --  -11.25069 -11.24629  -8.84747  -6.18956  -6.18751
 Alpha  occ. eigenvalues --   -6.18331  -1.16091  -1.05232  -1.02223  -0.94384
 Alpha  occ. eigenvalues --   -0.84226  -0.81286  -0.70964  -0.65277  -0.64145
 Alpha  occ. eigenvalues --   -0.60297  -0.58373  -0.53070  -0.52671  -0.50777
 Alpha  occ. eigenvalues --   -0.46930  -0.41794  -0.35181  -0.31178
 Alpha virt. eigenvalues --    0.03378   0.03965   0.04378   0.05707   0.06151
 Alpha virt. eigenvalues --    0.07778   0.08979   0.09812   0.10350   0.11744
 Alpha virt. eigenvalues --    0.12027   0.13052   0.13898   0.14055   0.14262

 Mulliken charges:
               1
     1  C    0.280115
     2  C    0.508955
     3  C   -0.062134
     4  C    0.296162
     5  C    0.405575
     6  C    0.676699
     7  S    0.236407
     8  H   -0.429927
     9  H   -0.432420
    10  H   -0.481914
    11  H   -0.572288
    12  H   -0.430111
    13  H    0.004880
 Sum of Mulliken charges =   0.00000

 Dipole moment (field-independent basis, Debye):
    X=              1.0194    Y=              0.7837    Z=              0.0550  Tot=              1.2870

 Test job not archived.
 1\1\GINC-SE435\SP\RHF\Aug-CC-pVDZ\C6H6S1\OHZDE\09-Apr-2025\0\\#t hf au
 g-cc-pvdz iop(5/13=1,5/36=2,99/5=2) pseudo=read geom=check guess=(read
 ,tcheck) scf=(maxcycle=1)\\title\\0,1\C,0,2.284159,0.005656,-0.000508\
 C,0,1.586465,-1.194551,0.001167\C,0,0.20028,-1.202467,0.003772\C,0,-0.
 504142,-0.001277,0.002097\C,0,0.193273,1.202966,-0.002724\C,0,1.580506
 ,1.201488,-0.001293\S,0,-2.279257,-0.083009,-0.006248\H,0,3.366837,0.0
 08667,-0.00078\H,0,2.123446,-2.13546,0.002492\H,0,-0.336095,-2.14395,0
 .009423\H,0,-0.342556,2.14457,-0.007542\H,0,2.112389,2.14537,-0.002953

 Normal termination of Gaussian 16 at Wed Apr  9 00:56:29 2025.
