 Gaussian 16, Revision C.01,

 ----------------------------------------------------------------------
 #t hf aug-cc-pvdz symm=none int=(grid=ultrafine) guess=(read,tcheck) s
 table=(opt,rrhf)
 ----------------------------------------------------------------------
 -----
 title
 -----
 Symbolic Z-matrix:
 Charge =  0 Multiplicity = 1

 SCF Done:  E(RHF) =  -989.201876777     A.U. after   16 cycles
 Normal termination of Gaussian 16 at Wed Apr  9 01:03:51 2025.
 Gaussian 16:  ES64L-G16RevC.01  3-Jul-2019

 ----------------------------------------------------------------------
 #t hf aug-cc-pvdz iop(5/13=1,5/36=2,99/5=2) pseudo=read geom=check gue
 ss=(read,tcheck) scf=(maxcycle=1)
 ----------------------------------------------------------------------
 -----
 title
 -----
 Structure from the checkpoint file:  "BH10_247_forward_mol3.chk"
 Charge =  0 Multiplicity = 1

                         Standard orientation:
 ---------------------------------------------------------------------
 Center     Atomic      Atomic             Coordinates (Angstroms)
 Number     Number       Type             X           Y           Z
 ---------------------------------------------------------------------
      1          6           0       -6.279991    0.978827   -0.262693
      2          6           0       -4.889604    0.801027    0.243817
      3          1           0       -6.484025    2.032937   -0.471762
      4          1           0       -7.009183    0.661226    0.488243
      5          1           0       -6.452917    0.406664   -1.175010
      6          6           0       -3.953447    0.041609   -0.329573
      7          6           0       -2.617562   -0.092804    0.206908
      8          6           0       -1.650187   -0.841138   -0.336390
      9          1           0       -2.383164    0.452994    1.117013
     10          6           0       -0.322936   -0.910872    0.285501
     11          1           0       -1.815758   -1.413075   -1.242573
     12          8           0       -0.005719   -0.320818    1.298041
     13         16           0        0.801426   -1.966597   -0.604290
     14          6           0        2.266041   -1.908099    0.472470
     15          6           0        3.244002   -0.789716    0.155646
     16          1           0        2.756340   -2.872837    0.344732
     17          1           0        1.905998   -1.843412    1.499967
     18          7           0        2.652621    0.508165    0.396998
     19          1           0        3.570386   -0.832429   -0.884785
     20          1           0        4.137857   -0.928628    0.774984
     21          6           0        3.135222    1.626725   -0.196153
     22          8           0        4.112867    1.610818   -0.923772
     23          6           0        2.382087    2.901666    0.104875
     24          1           0        3.056037    3.594611    0.610076
     25          1           0        1.498538    2.743288    0.724070
     26          1           0        2.085706    3.359550   -0.839075
     27          1           0        1.820562    0.551623    0.968862
     28          1           0       -4.630896    1.338438    1.153877
     29          1           0       -4.185586   -0.505902   -1.239574
 ---------------------------------------------------------------------

 SCF Done:  E(RHF) =  -989.405428632     A.U. after    2 cycles

 The electronic state is 1-A.
 Alpha  occ. eigenvalues --  -93.55379 -20.57327 -20.51509 -15.63130 -11.38271
 Alpha  occ. eigenvalues --  -11.34660 -11.28545 -11.28140 -11.27737 -11.27490
 Alpha  occ. eigenvalues --  -11.26025 -11.25721 -11.25454 -11.23419  -8.85283
 Alpha  occ. eigenvalues --   -6.19455  -6.19210  -6.18926  -1.37329  -1.33132
 Alpha  occ. eigenvalues --   -1.19165  -1.12498  -1.07912  -1.06247  -1.00374
 Alpha  occ. eigenvalues --   -0.97651  -0.94555  -0.87582  -0.82169  -0.78596
 Alpha  occ. eigenvalues --   -0.78323  -0.74251  -0.69408  -0.68351  -0.67117
 Alpha  occ. eigenvalues --   -0.66207  -0.64566  -0.63011  -0.61301  -0.59702
 Alpha  occ. eigenvalues --   -0.59295  -0.58822  -0.57887  -0.56965  -0.56355
 Alpha  occ. eigenvalues --   -0.54836  -0.53989  -0.52912  -0.52415  -0.50721
 Alpha  occ. eigenvalues --   -0.47203  -0.46296  -0.43000  -0.42196  -0.38330
 Alpha  occ. eigenvalues --   -0.37963  -0.34074
 Alpha virt. eigenvalues --    0.02604   0.03459   0.03742   0.04209   0.04439
 Alpha virt. eigenvalues --    0.04975   0.05079   0.05566   0.06388   0.06637
 Alpha virt. eigenvalues --    0.06982   0.07527   0.08087   0.08652   0.09050

 Mulliken charges:
               1
     1  C    0.340046
     2  C   -0.111050
     3  H    0.117231
     4  H    0.118416
     5  H   -0.141692
     6  C    1.324167
     7  C    0.050450
     8  C    1.429021
     9  H   -0.579248
    10  C   -0.807433
    11  H   -0.516784
    12  O   -0.605474
    13  S    0.487431
    14  C    0.103320
    15  C    0.770687
    16  H   -0.122126
    17  H   -0.066965
    18  N   -0.294600
    19  H   -0.219745
    20  H   -0.136724
    21  C    0.069218
    22  O   -0.565972
    23  C    0.440498
    24  H    0.027691
    25  H   -0.206167
    26  H    0.029340
    27  H   -0.012972
    28  H   -0.426448
    29  H   -0.494114
 Sum of Mulliken charges =  -0.00000

 Dipole moment (field-independent basis, Debye):
    X=             -6.4743    Y=             -1.0443    Z=              1.3841  Tot=              6.7025

 Test job not archived.
 1\1\GINC-SE368\SP\RHF\Aug-CC-pVDZ\C10H15N1O2S1\OHZDE\09-Apr-2025\0\\#t
  hf aug-cc-pvdz iop(5/13=1,5/36=2,99/5=2) pseudo=read geom=check guess
 =(read,tcheck) scf=(maxcycle=1)\\title\\0,1\C,0,-6.279991,0.978827,-0.
 262693\C,0,-4.889604,0.801027,0.243817\H,0,-6.484025,2.032937,-0.47176
 2\H,0,-7.009183,0.661226,0.488243\H,0,-6.452917,0.406664,-1.17501\C,0,
 -3.953447,0.041609,-0.329573\C,0,-2.617562,-0.092804,0.206908\C,0,-1.6
 50187,-0.841138,-0.33639\H,0,-2.383164,0.452994,1.117013\C,0,-0.322936
 ,-0.910872,0.285501\H,0,-1.815758,-1.413075,-1.242573\O,0,-0.005719,-0

 Normal termination of Gaussian 16 at Wed Apr  9 01:04:12 2025.
