 Gaussian 16, Revision C.01,

 ----------------------------------------------------------------------
 #t hf aug-cc-pvdz symm=none int=(grid=ultrafine) guess=(read,tcheck) s
 table=opt
 ----------------------------------------------------------------------
 -----
 title
 -----
 Symbolic Z-matrix:
 Charge =  0 Multiplicity = 2

 SCF Done:  E(UHF) =  -872.822078043     A.U. after   20 cycles
 Normal termination of Gaussian 16 at Wed Apr  9 00:56:01 2025.
 Gaussian 16:  ES64L-G16RevC.01  3-Jul-2019

 ----------------------------------------------------------------------
 #t hf aug-cc-pvdz iop(5/13=1,5/36=2,99/5=2) pseudo=read geom=check gue
 ss=(read,tcheck) scf=(maxcycle=1)
 ----------------------------------------------------------------------
 -----
 title
 -----
 Structure from the checkpoint file:  "BH10-RE_123_mol1.chk"
 Charge =  0 Multiplicity = 2

                         Standard orientation:
 ---------------------------------------------------------------------
 Center     Atomic      Atomic             Coordinates (Angstroms)
 Number     Number       Type             X           Y           Z
 ---------------------------------------------------------------------
      1          7           0       -0.267027    0.651264   -0.143902
      2         16           0        0.921461   -0.497541    0.051396
      3          8           0        2.131789    0.244328   -0.673659
      4          6           0        2.657335    1.438297   -0.062215
      5          6           0       -1.668592    0.257404   -0.011218
      6          8           0        1.188901   -0.572328    1.471580
      7          8           0        0.685250   -1.682971   -0.729684
      8          1           0        3.502708    1.721115   -0.682831
      9          1           0        2.982854    1.224047    0.954838
     10          1           0        1.897380    2.219424   -0.069616
     11          6           0       -1.930053   -0.825171    1.041905
     12          6           0       -2.106480   -0.233875   -1.407844
     13          6           0       -2.417038    1.542268    0.346488
     14          1           0       -1.464017   -1.773393    0.774822
     15          1           0       -3.006589   -0.986485    1.117028
     16          1           0       -1.557488   -0.518048    2.019395
     17          1           0       -1.581188   -1.147023   -1.682960
     18          1           0       -1.912649    0.528753   -2.162999
     19          1           0       -3.179800   -0.431529   -1.380030
     20          1           0       -2.103378    1.909137    1.325020
     21          1           0       -3.491338    1.351383    0.376992
     22          1           0       -2.219239    2.318670   -0.393274
 ---------------------------------------------------------------------

 SCF Done:  E(UHF) =  -873.057779073     A.U. after    2 cycles

 The electronic state is 2-A.
 Alpha  occ. eigenvalues --  -93.84670 -20.63916 -20.58068 -20.57931 -15.70919
 Alpha  occ. eigenvalues --  -11.31545 -11.30529 -11.24169 -11.24109 -11.23711
 Alpha  occ. eigenvalues --   -9.10524  -6.45186  -6.45155  -6.44974  -1.48654
 Alpha  occ. eigenvalues --   -1.36288  -1.33291  -1.24468  -1.07343  -0.99104
 Alpha  occ. eigenvalues --   -0.95432  -0.95362  -0.86375  -0.78465  -0.74487
 Alpha  occ. eigenvalues --   -0.71779  -0.70233  -0.66869  -0.66420  -0.64134
 Alpha  occ. eigenvalues --   -0.63524  -0.60885  -0.59498  -0.57680  -0.56205
 Alpha  occ. eigenvalues --   -0.55500  -0.53966  -0.53485  -0.53202  -0.52239
 Alpha  occ. eigenvalues --   -0.51945  -0.51394  -0.50935  -0.46105  -0.45517
 Alpha virt. eigenvalues --    0.03065   0.03729   0.04372   0.04622   0.06026
 Alpha virt. eigenvalues --    0.06382   0.06629   0.07316   0.07601   0.08255
 Alpha virt. eigenvalues --    0.08839   0.09521   0.09829   0.11979   0.12769

  Beta  occ. eigenvalues --  -93.84738 -20.63929 -20.57843 -20.57799 -15.67699
  Beta  occ. eigenvalues --  -11.31547 -11.30779 -11.24066 -11.23946 -11.23636
  Beta  occ. eigenvalues --   -9.10614  -6.45269  -6.45204  -6.45163  -1.48246
  Beta  occ. eigenvalues --   -1.36163  -1.32776  -1.17825  -1.04681  -0.98564
  Beta  occ. eigenvalues --   -0.95191  -0.94702  -0.85539  -0.78062  -0.74041
  Beta  occ. eigenvalues --   -0.70694  -0.69293  -0.66428  -0.64443  -0.63130
  Beta  occ. eigenvalues --   -0.62144  -0.59716  -0.58204  -0.56370  -0.55962
  Beta  occ. eigenvalues --   -0.54730  -0.53390  -0.53180  -0.52047  -0.51322
  Beta  occ. eigenvalues --   -0.50959  -0.50057  -0.49216  -0.43496
  Beta virt. eigenvalues --    0.03073   0.03693   0.03810   0.04624   0.05677
  Beta virt. eigenvalues --    0.06060   0.06406   0.06635   0.07320   0.07612
  Beta virt. eigenvalues --    0.08273   0.08840   0.09533   0.09858   0.12001

 Mulliken charges and spin densities:
               1          2
     1  N   -0.839326   1.205638
     2  S    2.985305  -0.089073
     3  O   -0.912897  -0.007422
     4  C    0.727026  -0.000561
     5  C   -3.221675  -0.288716
     6  O   -0.992187   0.031556
     7  O   -0.995736   0.009077
     8  H   -0.223330   0.000109
     9  H   -0.021630  -0.000012
    10  H   -0.078352  -0.002304
    11  C    1.238060   0.040045
    12  C    1.138882   0.087164
    13  C    1.152464   0.014168
    14  H   -0.005422   0.000380
    15  H   -0.020484  -0.001557
    16  H    0.055684   0.001668
    17  H   -0.034600  -0.002574
    18  H   -0.032195  -0.002836
    19  H    0.057167   0.007357
    20  H   -0.001131   0.003916
    21  H    0.030876  -0.002817
    22  H   -0.006499  -0.003206
 Sum of Mulliken charges =  -0.00000   1.00000

 Dipole moment (field-independent basis, Debye):
    X=             -1.7920    Y=              3.7223    Z=             -0.2626  Tot=              4.1395
                          Isotropic Fermi Contact Couplings
        Atom                 a.u.       MegaHertz       Gauss      10(-4) cm-1
     1  N(14)              0.29377      94.91789      33.86906      31.66120
     2  S(33)             -0.09465     -32.50967     -11.60026     -10.84406
     3  O(17)             -0.00179       1.08247       0.38625       0.36107
     4  C(13)             -0.00060      -0.67168      -0.23967      -0.22405
     5  C(13)             -0.04627     -52.01300     -18.55953     -17.34967
     6  O(17)              0.02518     -15.26703      -5.44766      -5.09253
     7  O(17)              0.00610      -3.69732      -1.31930      -1.23329
     8  H(1)               0.00010       0.45802       0.16343       0.15278

 1\1\GINC-SE127\SP\UHF\Aug-CC-pVDZ\C5H12N1O3S1(2)\OHZDE\09-Apr-2025\0\\
 #t hf aug-cc-pvdz iop(5/13=1,5/36=2,99/5=2) pseudo=read geom=check gue
 ss=(read,tcheck) scf=(maxcycle=1)\\title\\0,2\N,0,-0.267027,0.651264,-
 0.143902\S,0,0.921461,-0.497541,0.051396\O,0,2.131789,0.244328,-0.6736
 59\C,0,2.657335,1.438297,-0.062215\C,0,-1.668592,0.257404,-0.011218\O,
 0,1.188901,-0.572328,1.47158\O,0,0.68525,-1.682971,-0.729684\H,0,3.502
 708,1.721115,-0.682831\H,0,2.982854,1.224047,0.954838\H,0,1.89738,2.21
 9424,-0.069616\C,0,-1.930053,-0.825171,1.041905\C,0,-2.10648,-0.233875

 Normal termination of Gaussian 16 at Wed Apr  9 00:56:17 2025.
