 Gaussian 16, Revision C.01,

 ----------------------------------------------------------------------
 #t hf aug-cc-pvdz symm=none int=(grid=ultrafine) guess=(read,tcheck) s
 table=(opt,rrhf)
 ----------------------------------------------------------------------
 -----
 title
 -----
 Symbolic Z-matrix:
 Charge =  0 Multiplicity = 1

 SCF Done:  E(RHF) =  -911.409865025     A.U. after   13 cycles
 Normal termination of Gaussian 16 at Wed Apr  9 01:17:47 2025.
 Gaussian 16:  ES64L-G16RevC.01  3-Jul-2019

 ----------------------------------------------------------------------
 #t hf aug-cc-pvdz iop(5/13=1,5/36=2,99/5=2) pseudo=read geom=check gue
 ss=(read,tcheck) scf=(maxcycle=1)
 ----------------------------------------------------------------------
 -----
 title
 -----
 Structure from the checkpoint file:  "BH10_329_reverse_mol3.chk"
 Charge =  0 Multiplicity = 1

                         Standard orientation:
 ---------------------------------------------------------------------
 Center     Atomic      Atomic             Coordinates (Angstroms)
 Number     Number       Type             X           Y           Z
 ---------------------------------------------------------------------
      1         16           0        2.821847   -0.565397   -0.380131
      2          6           0        3.703227    0.472403    0.817254
      3          1           0        3.975928    1.430055    0.373009
      4          1           0        4.614440   -0.059670    1.088038
      5          1           0        3.119057    0.638669    1.721986
      6          6           0        1.399951    0.503726   -0.742326
      7          6           0        0.319240    0.438930    0.317705
      8          1           0        0.995440    0.172709   -1.696818
      9          1           0        1.740743    1.534020   -0.852132
     10          6           0       -0.484159   -0.851755    0.359974
     11          6           0       -1.808919   -0.361590    0.948916
     12          6           0       -1.966400    1.028638    0.294900
     13          8           0       -0.637515    1.482740    0.068902
     14          7           0       -2.758953    0.922457   -0.902246
     15          1           0       -2.460521    1.737326    0.961677
     16          8           0       -2.881752   -1.221927    0.668889
     17          1           0       -1.706974   -0.250915    2.032053
     18          8           0       -0.695272   -1.330471   -0.955910
     19          1           0        0.003538   -1.612618    0.973488
     20          1           0       -1.401458   -1.985123   -0.898092
     21          1           0       -3.427126   -0.753882    0.014065
     22          1           0        0.758522    0.604328    1.308252
     23          1           0       -3.089827    1.824239   -1.217892
     24          1           0       -2.219968    0.485175   -1.643417
 ---------------------------------------------------------------------

 SCF Done:  E(RHF) =  -911.587994108     A.U. after    2 cycles

 The electronic state is 1-A.
 Alpha  occ. eigenvalues --  -93.52506 -20.57959 -20.57706 -20.57595 -15.62453
 Alpha  occ. eigenvalues --  -11.32945 -11.30008 -11.29721 -11.29397 -11.26278
 Alpha  occ. eigenvalues --  -11.26131  -8.82234  -6.16404  -6.16188  -6.15867
 Alpha  occ. eigenvalues --   -1.37180  -1.33502  -1.32100  -1.16337  -1.07431
 Alpha  occ. eigenvalues --   -1.03077  -0.99309  -0.92001  -0.83045  -0.82706
 Alpha  occ. eigenvalues --   -0.78558  -0.75852  -0.71694  -0.68894  -0.68142
 Alpha  occ. eigenvalues --   -0.66122  -0.64226  -0.60884  -0.60112  -0.59540
 Alpha  occ. eigenvalues --   -0.58670  -0.58386  -0.57463  -0.54686  -0.53396
 Alpha  occ. eigenvalues --   -0.49297  -0.48358  -0.47637  -0.46614  -0.44590
 Alpha  occ. eigenvalues --   -0.42690  -0.41698  -0.33739
 Alpha virt. eigenvalues --    0.03145   0.03745   0.04180   0.04572   0.05396
 Alpha virt. eigenvalues --    0.05790   0.06231   0.06775   0.06939   0.08252
 Alpha virt. eigenvalues --    0.08581   0.09106   0.09713   0.11238   0.12190

 Mulliken charges:
               1
     1  S    0.450316
     2  C    0.143517
     3  H   -0.078551
     4  H   -0.103322
     5  H   -0.146012
     6  C    0.309013
     7  C    0.449003
     8  H    0.010985
     9  H   -0.078169
    10  C    0.182944
    11  C    0.766680
    12  C    1.048582
    13  O   -0.759759
    14  N   -0.406173
    15  H   -0.298172
    16  O   -0.651770
    17  H   -0.176928
    18  O   -0.702815
    19  H   -0.147115
    20  H    0.185547
    21  H    0.230998
    22  H   -0.310786
    23  H   -0.001668
    24  H    0.083654
 Sum of Mulliken charges =  -0.00000

 Dipole moment (field-independent basis, Debye):
    X=             -0.4754    Y=              1.9543    Z=              1.0231  Tot=              2.2565

 Test job not archived.
 1\1\GINC-SE036\SP\RHF\Aug-CC-pVDZ\C6H13N1O3S1\OHZDE\09-Apr-2025\0\\#t
 hf aug-cc-pvdz iop(5/13=1,5/36=2,99/5=2) pseudo=read geom=check guess=
 (read,tcheck) scf=(maxcycle=1)\\title\\0,1\S,0,2.821847,-0.565397,-0.3
 80131\C,0,3.703227,0.472403,0.817254\H,0,3.975928,1.430055,0.373009\H,
 0,4.61444,-0.05967,1.088038\H,0,3.119057,0.638669,1.721986\C,0,1.39995
 1,0.503726,-0.742326\C,0,0.31924,0.43893,0.317705\H,0,0.99544,0.172709
 ,-1.696818\H,0,1.740743,1.53402,-0.852132\C,0,-0.484159,-0.851755,0.35
 9974\C,0,-1.808919,-0.36159,0.948916\C,0,-1.9664,1.028638,0.2949\O,0,-

 Normal termination of Gaussian 16 at Wed Apr  9 01:18:07 2025.
