 Gaussian 16, Revision C.01,

 ----------------------------------------------------------------------
 #t hf aug-cc-pvdz symm=none int=(grid=ultrafine) guess=(read,tcheck) s
 table=opt
 ----------------------------------------------------------------------
 -----
 title
 -----
 Symbolic Z-matrix:
 Charge =  0 Multiplicity = 2

 SCF Done:  E(UHF) =  -2378.30361328     a.u. after   14 cycles
 Normal termination of Gaussian 16 at Wed Apr  9 01:31:06 2025.
 Gaussian 16:  ES64L-G16RevC.01  3-Jul-2019

 ----------------------------------------------------------------------
 #t hf aug-cc-pvdz iop(5/13=1,5/36=2,99/5=2) pseudo=read geom=check gue
 ss=(read,tcheck) scf=(maxcycle=1)
 ----------------------------------------------------------------------
 -----
 title
 -----
 Structure from the checkpoint file:  "BH10_167_forward_mol1.chk"
 Charge =  0 Multiplicity = 2

                         Standard orientation:
 ---------------------------------------------------------------------
 Center     Atomic      Atomic             Coordinates (Angstroms)
 Number     Number       Type             X           Y           Z
 ---------------------------------------------------------------------
      1          7           0       -1.487980    0.917013   -0.475854
      2          1           0       -0.547958    0.543186   -0.503194
      3          6           0       -2.601610   -0.003810   -0.650095
      4          1           0       -3.312256    0.475263   -1.333382
      5          6           0       -2.124951   -1.293847   -1.298988
      6          6           0       -3.392143   -0.309109    0.639887
      7          1           0       -2.976704   -1.959360   -1.431564
      8          1           0       -1.685265   -1.090434   -2.274627
      9         16           0       -0.932018   -2.238160   -0.297502
     10          8           0       -3.662136   -1.454277    0.945698
     11          1           0        0.228621   -1.831598   -1.087789
     12          7           0       -3.778220    0.772675    1.342060
     13          1           0       -3.656110    1.705919    0.963640
     14          1           0       -4.355220    0.621031    2.154051
     15          6           0       -1.633565    2.251271   -0.402048
     16          1           0       -0.674197    2.788405   -0.384513
     17          8           0       -2.707069    2.827485   -0.348310
     18          8           0        0.968939   -0.725899   -1.378379
     19          8           0        2.218166   -0.937505   -0.841319
     20          6           0        2.537649    0.029152    0.106230
     21         17           0        2.429185    1.667390   -0.590424
     22         17           0        1.462139   -0.078478    1.522314
     23         17           0        4.196870   -0.353032    0.550613
 ---------------------------------------------------------------------

 SCF Done:  E(UHF) =  -2378.56288349     A.U. after    2 cycles

 The electronic state is 2-A.
 Alpha  occ. eigenvalues -- -103.72104-103.72038-103.71414 -93.55234 -20.76669
 Alpha  occ. eigenvalues --  -20.74460 -20.56139 -20.54117 -15.67484 -15.64177
 Alpha  occ. eigenvalues --  -11.53088 -11.38370 -11.36926 -11.31344 -11.29075
 Alpha  occ. eigenvalues --  -10.75455 -10.75386 -10.74747  -8.84916  -8.41173
 Alpha  occ. eigenvalues --   -8.41111  -8.40817  -8.40814  -8.40771  -8.40756
 Alpha  occ. eigenvalues --   -8.40473  -8.40127  -8.40114  -6.19614  -6.18801
 Alpha  occ. eigenvalues --   -6.18434  -1.57580  -1.37277  -1.35571  -1.34513
 Alpha  occ. eigenvalues --   -1.24013  -1.23185  -1.19372  -1.18930  -1.17798
 Alpha  occ. eigenvalues --   -1.08264  -0.98537  -0.91455  -0.88425  -0.85221
 Alpha  occ. eigenvalues --   -0.83358  -0.79395  -0.78331  -0.77507  -0.75224
 Alpha  occ. eigenvalues --   -0.74183  -0.70665  -0.68955  -0.68153  -0.65550
 Alpha  occ. eigenvalues --   -0.63689  -0.63436  -0.61720  -0.59390  -0.59019
 Alpha  occ. eigenvalues --   -0.58486  -0.57462  -0.56080  -0.54475  -0.54130
 Alpha  occ. eigenvalues --   -0.53488  -0.50806  -0.50567  -0.49854  -0.49197
 Alpha  occ. eigenvalues --   -0.47737  -0.46595  -0.44995  -0.41815  -0.41027
 Alpha  occ. eigenvalues --   -0.37257
 Alpha virt. eigenvalues --    0.03283   0.03966   0.04336   0.05291   0.06129
 Alpha virt. eigenvalues --    0.06540   0.06814   0.07647   0.07978   0.08223
 Alpha virt. eigenvalues --    0.09047   0.09550   0.10438   0.11363   0.11859

  Beta  occ. eigenvalues -- -103.72113-103.72035-103.71411 -93.54866 -20.74325
  Beta  occ. eigenvalues --  -20.72814 -20.56139 -20.54101 -15.67491 -15.64177
  Beta  occ. eigenvalues --  -11.53104 -11.38371 -11.36929 -11.31343 -11.29105
  Beta  occ. eigenvalues --  -10.75465 -10.75383 -10.74744  -8.84519  -8.41201
  Beta  occ. eigenvalues --   -8.41100  -8.40831  -8.40817  -8.40764  -8.40757
  Beta  occ. eigenvalues --   -8.40458  -8.40126  -8.40111  -6.18656  -6.18264
  Beta  occ. eigenvalues --   -6.17838  -1.53321  -1.37278  -1.35542  -1.30499
  Beta  occ. eigenvalues --   -1.23375  -1.20454  -1.18915  -1.18116  -1.17733
  Beta  occ. eigenvalues --   -1.07678  -0.96955  -0.90345  -0.85689  -0.85169
  Beta  occ. eigenvalues --   -0.79291  -0.77360  -0.76889  -0.75181  -0.74748
  Beta  occ. eigenvalues --   -0.73947  -0.68920  -0.68269  -0.65163  -0.63480
  Beta  occ. eigenvalues --   -0.63234  -0.62027  -0.59773  -0.59044  -0.58614
  Beta  occ. eigenvalues --   -0.57324  -0.56035  -0.54427  -0.53999  -0.53590
  Beta  occ. eigenvalues --   -0.50795  -0.50525  -0.50276  -0.49205  -0.47717
  Beta  occ. eigenvalues --   -0.46494  -0.45187  -0.41822  -0.41015  -0.36298
  Beta virt. eigenvalues --   -0.01625   0.03304   0.03970   0.04344   0.05305
  Beta virt. eigenvalues --    0.06196   0.06587   0.06857   0.07709   0.07997
  Beta virt. eigenvalues --    0.08252   0.09143   0.09565   0.10543   0.11438

 Mulliken charges and spin densities:
               1          2
     1  N   -0.194769  -0.005555
     2  H   -0.101446  -0.010927
     3  C    0.287801   0.003767
     4  H   -0.090622   0.000509
     5  C    0.481020  -0.047009
     6  C    0.452030   0.001384
     7  H   -0.106405   0.002350
     8  H   -0.140185   0.008430
     9  S    0.215082   0.415431
    10  O   -0.509980   0.002234
    11  H    0.330283  -0.199504
    12  N   -0.113307   0.000746
    13  H    0.049859   0.000001
    14  H   -0.033451   0.000063
    15  C    0.582222  -0.000536
    16  H   -0.268188   0.000438
    17  O   -0.546152  -0.000055
    18  O   -0.167211   0.850691
    19  O   -0.435684  -0.023799
    20  C   -0.017580   0.007331
    21  Cl   0.087725   0.001624
    22  Cl   0.085326  -0.001146
    23  Cl   0.153631  -0.006468
 Sum of Mulliken charges =  -0.00000   1.00000

 Dipole moment (field-independent basis, Debye):
    X=              3.0443    Y=              1.6282    Z=             -1.3027  Tot=              3.6900
                          Isotropic Fermi Contact Couplings
        Atom                 a.u.       MegaHertz       Gauss      10(-4) cm-1
     1  N(14)             -0.00188      -0.60819      -0.21702      -0.20287
     2  H(1)               0.00026       1.14694       0.40925       0.38258
     3  C(13)              0.00012       0.13754       0.04908       0.04588
     4  H(1)              -0.00017      -0.75771      -0.27037      -0.25274
     5  C(13)             -0.00616      -6.92227      -2.47004      -2.30902
     6  C(13)             -0.00031      -0.34977      -0.12481      -0.11667
     7  H(1)               0.00399      17.84162       6.36633       5.95132
     8  H(1)               0.00262      11.72259       4.18291       3.91024

 Normal termination of Gaussian 16 at Wed Apr  9 01:31:36 2025.
