 Gaussian 16, Revision C.01,

 ----------------------------------------------------------------------
 #t hf aug-cc-pvdz symm=none int=(grid=ultrafine) guess=(read,tcheck) s
 table=opt
 ----------------------------------------------------------------------
 -----
 title
 -----
 Symbolic Z-matrix:
 Charge =  0 Multiplicity = 2

 SCF Done:  E(UHF) =  -1103.53867548     A.U. after   18 cycles
 Normal termination of Gaussian 16 at Wed Apr  9 01:38:39 2025.
 Gaussian 16:  ES64L-G16RevC.01  3-Jul-2019

 ----------------------------------------------------------------------
 #t hf aug-cc-pvdz iop(5/13=1,5/36=2,99/5=2) pseudo=read geom=check gue
 ss=(read,tcheck) scf=(maxcycle=1)
 ----------------------------------------------------------------------
 -----
 title
 -----
 Structure from the checkpoint file:  "BH10_46_forward_mol2.chk"
 Charge =  0 Multiplicity = 2

                         Standard orientation:
 ---------------------------------------------------------------------
 Center     Atomic      Atomic             Coordinates (Angstroms)
 Number     Number       Type             X           Y           Z
 ---------------------------------------------------------------------
      1          6           0       -1.153848   -0.847181    1.138372
      2          1           0       -1.586719   -0.092741    1.799772
      3          1           0       -1.067639   -1.759624    1.736650
      4          6           0       -2.125926   -1.110269   -0.026849
      5          1           0       -1.802353   -1.996043   -0.583298
      6          1           0       -3.111717   -1.333727    0.390479
      7          6           0       -2.243603    0.046337   -1.009489
      8          1           0       -3.012954   -0.182177   -1.749311
      9          1           0       -1.299475    0.173972   -1.550709
     10          6           0        0.207560   -0.391459    0.725600
     11          6           0        1.871339    1.184145   -0.607499
     12          6           0        2.550427   -0.165488   -0.446215
     13          1           0        1.383139    1.262742   -1.578899
     14          1           0        2.576238    2.006834   -0.489853
     15          1           0        3.133873   -0.428919   -1.328252
     16          1           0        3.197887   -0.176521    0.430582
     17          8           0       -2.628681    1.264499   -0.392401
     18          1           0       -1.837573    1.685820   -0.039534
     19         16           0        1.243515   -1.415923   -0.244368
     20         16           0        0.620301    1.317666    0.710497
 ---------------------------------------------------------------------

 SCF Done:  E(UHF) =  -1103.67444399     A.U. after    2 cycles

 The electronic state is 2-A.
 Alpha  occ. eigenvalues --  -93.55347 -93.54954 -20.55692 -11.29275 -11.29256
 Alpha  occ. eigenvalues --  -11.29104 -11.27690 -11.24694 -11.23245  -8.85121
 Alpha  occ. eigenvalues --   -8.84739  -6.19220  -6.19031  -6.18923  -6.18838
 Alpha  occ. eigenvalues --   -6.18649  -6.18512  -1.30950  -1.15194  -1.07218
 Alpha  occ. eigenvalues --   -1.00145  -0.98903  -0.91998  -0.82425  -0.81981
 Alpha  occ. eigenvalues --   -0.72718  -0.70234  -0.67206  -0.64378  -0.63741
 Alpha  occ. eigenvalues --   -0.61883  -0.58190  -0.56837  -0.56477  -0.53958
 Alpha  occ. eigenvalues --   -0.52188  -0.48869  -0.48640  -0.48303  -0.46832
 Alpha  occ. eigenvalues --   -0.43818  -0.43315  -0.37441  -0.28058
 Alpha virt. eigenvalues --    0.03050   0.04166   0.04511   0.04814   0.05784
 Alpha virt. eigenvalues --    0.06108   0.06351   0.07106   0.07816   0.08326
 Alpha virt. eigenvalues --    0.09533   0.10075   0.10779   0.11815   0.12471

  Beta  occ. eigenvalues --  -93.55332 -93.54934 -20.55690 -11.29243 -11.29101
  Beta  occ. eigenvalues --  -11.27705 -11.26595 -11.24985 -11.23034  -8.85101
  Beta  occ. eigenvalues --   -8.84718  -6.19356  -6.19133  -6.18967  -6.18744
  Beta  occ. eigenvalues --   -6.18611  -6.18173  -1.30939  -1.13470  -1.06195
  Beta  occ. eigenvalues --   -0.98578  -0.98140  -0.91860  -0.81983  -0.81489
  Beta  occ. eigenvalues --   -0.70877  -0.68534  -0.66815  -0.64186  -0.63507
  Beta  occ. eigenvalues --   -0.60866  -0.57227  -0.56421  -0.55551  -0.52346
  Beta  occ. eigenvalues --   -0.51155  -0.48549  -0.48036  -0.47166  -0.44515
  Beta  occ. eigenvalues --   -0.43141  -0.39985  -0.35091
  Beta virt. eigenvalues --    0.03057   0.04162   0.04499   0.04831   0.05789
  Beta virt. eigenvalues --    0.06054   0.06332   0.07113   0.07840   0.08332
  Beta virt. eigenvalues --    0.09605   0.10053   0.10394   0.10862   0.12090

 Mulliken charges and spin densities:
               1          2
     1  C    0.193829  -0.238048
     2  H   -0.079514   0.002000
     3  H   -0.021480   0.014307
     4  C    0.052597   0.068703
     5  H   -0.051863  -0.006546
     6  H   -0.064904   0.000172
     7  C    0.864835  -0.003085
     8  H   -0.199030  -0.000880
     9  H   -0.144610  -0.009164
    10  C   -0.393351   1.254934
    11  C   -0.055189  -0.020012
    12  C   -0.005291  -0.013950
    13  H   -0.116219  -0.005334
    14  H   -0.045681  -0.000666
    15  H   -0.054601  -0.001500
    16  H   -0.083664  -0.001061
    17  O   -0.554169   0.001210
    18  H    0.188827  -0.001520
    19  S    0.317262  -0.009875
    20  S    0.252216  -0.029684
 Sum of Mulliken charges =  -0.00000   1.00000

 Dipole moment (field-independent basis, Debye):
    X=              3.0536    Y=             -0.3929    Z=             -0.8892  Tot=              3.2046
                          Isotropic Fermi Contact Couplings
        Atom                 a.u.       MegaHertz       Gauss      10(-4) cm-1
     1  C(13)             -0.05294     -59.51396     -21.23606     -19.85172
     2  H(1)               0.00327      14.59517       5.20792       4.86843
     3  H(1)               0.01012      45.25474      16.14802      15.09536
     4  C(13)              0.04410      49.57946      17.69119      16.53793
     5  H(1)              -0.00144      -6.43638      -2.29666      -2.14695
     6  H(1)              -0.00006      -0.27971      -0.09981      -0.09330
     7  C(13)             -0.00311      -3.50078      -1.24916      -1.16773
     8  H(1)               0.00001       0.03738       0.01334       0.01247

 Normal termination of Gaussian 16 at Wed Apr  9 01:38:52 2025.
