 Gaussian 16, Revision C.01,

 ----------------------------------------------------------------------
 #t hf aug-cc-pvdz symm=none int=(grid=ultrafine) guess=(read,tcheck) s
 table=(opt,rrhf)
 ----------------------------------------------------------------------
 -----
 title
 -----
 Symbolic Z-matrix:
 Charge =  0 Multiplicity = 1

 SCF Done:  E(RHF) =  -700.952646046     A.U. after   13 cycles
 Normal termination of Gaussian 16 at Wed Apr  9 01:50:23 2025.
 Gaussian 16:  ES64L-G16RevC.01  3-Jul-2019

 ----------------------------------------------------------------------
 #t hf aug-cc-pvdz iop(5/13=1,5/36=2,99/5=2) pseudo=read geom=check gue
 ss=(read,tcheck) scf=(maxcycle=1)
 ----------------------------------------------------------------------
 -----
 title
 -----
 Structure from the checkpoint file:  "BH10_93_forward_mol2.chk"
 Charge =  0 Multiplicity = 1

                         Standard orientation:
 ---------------------------------------------------------------------
 Center     Atomic      Atomic             Coordinates (Angstroms)
 Number     Number       Type             X           Y           Z
 ---------------------------------------------------------------------
      1          6           0       -0.556558   -1.288319    0.000196
      2          6           0       -1.763509   -0.742149    0.000110
      3          6           0       -0.556549    1.288319   -0.000198
      4          6           0       -1.763504    0.742156   -0.000116
      5         16           0        0.687295   -0.000004    0.000001
      6          8           0        1.420280    0.000194    1.255715
      7          8           0        1.420284   -0.000193   -1.255710
      8          1           0       -2.683961    1.309866   -0.000203
      9          1           0       -0.256282    2.324321   -0.000353
     10          1           0       -0.256297   -2.324322    0.000352
     11          1           0       -2.683970   -1.309853    0.000194
 ---------------------------------------------------------------------

 SCF Done:  E(RHF) =  -701.118825847     A.U. after    2 cycles

 The electronic state is 1-A.
 Alpha  occ. eigenvalues --  -93.79106 -20.56412 -20.56411 -11.30773 -11.30713
 Alpha  occ. eigenvalues --  -11.30140 -11.30127  -9.05815  -6.40420  -6.40280
 Alpha  occ. eigenvalues --   -6.40158  -1.42180  -1.30514  -1.18294  -1.04325
 Alpha  occ. eigenvalues --   -0.95860  -0.81221  -0.80617  -0.74677  -0.67198
 Alpha  occ. eigenvalues --   -0.65989  -0.65509  -0.64197  -0.59777  -0.53294
 Alpha  occ. eigenvalues --   -0.53171  -0.51126  -0.47756  -0.46221  -0.38297
 Alpha virt. eigenvalues --    0.02285   0.03079   0.03498   0.04416   0.05585
 Alpha virt. eigenvalues --    0.09663   0.10191   0.12251   0.12672   0.12823
 Alpha virt. eigenvalues --    0.13756   0.13869   0.13933   0.14447   0.14964

 Mulliken charges:
               1
     1  C    0.049627
     2  C    0.189664
     3  C    0.049635
     4  C    0.189653
     5  S    3.021310
     6  O   -1.157402
     7  O   -1.157402
     8  H   -0.326822
     9  H   -0.265721
    10  H   -0.265722
    11  H   -0.326821
 Sum of Mulliken charges =  -0.00000

 Dipole moment (field-independent basis, Debye):
    X=             -6.2420    Y=             -0.0000    Z=             -0.0000  Tot=              6.2420

 Test job not archived.
 1\1\GINC-SE364\SP\RHF\Aug-CC-pVDZ\C4H4O2S1\OHZDE\09-Apr-2025\0\\#t hf
 aug-cc-pvdz iop(5/13=1,5/36=2,99/5=2) pseudo=read geom=check guess=(re
 ad,tcheck) scf=(maxcycle=1)\\title\\0,1\C,0,0.556558,1.288319,0.000196
 \C,0,1.763509,0.742149,0.00011\C,0,0.556549,-1.288319,-0.000198\C,0,1.
 763504,-0.742156,-0.000116\S,0,-0.687295,0.000004,0.000001\O,0,-1.4202
 8,-0.000194,1.255715\O,0,-1.420284,0.000193,-1.25571\H,0,2.683961,-1.3
 09866,-0.000203\H,0,0.256282,-2.324321,-0.000353\H,0,0.256297,2.324322
 ,0.000352\H,0,2.68397,1.309853,0.000194\\Version=ES64L-G16RevC.01\Stat

 Normal termination of Gaussian 16 at Wed Apr  9 01:50:27 2025.
