 Gaussian 16, Revision C.01,

 ----------------------------------------------------------------------
 #t hf aug-cc-pvdz symm=none int=(grid=ultrafine) guess=(read,tcheck) s
 table=(opt,rrhf)
 ----------------------------------------------------------------------
 -----
 title
 -----
 Symbolic Z-matrix:
 Charge =  0 Multiplicity = 1

 SCF Done:  E(RHF) =  -816.214381000     A.U. after   15 cycles
 Normal termination of Gaussian 16 at Wed Apr  9 00:58:04 2025.
 Gaussian 16:  ES64L-G16RevC.01  3-Jul-2019

 ----------------------------------------------------------------------
 #t hf aug-cc-pvdz iop(5/13=1,5/36=2,99/5=2) pseudo=read geom=check gue
 ss=(read,tcheck) scf=(maxcycle=1)
 ----------------------------------------------------------------------
 -----
 title
 -----
 Structure from the checkpoint file:  "BH10_223_forward_mol2.chk"
 Charge =  0 Multiplicity = 1

                         Standard orientation:
 ---------------------------------------------------------------------
 Center     Atomic      Atomic             Coordinates (Angstroms)
 Number     Number       Type             X           Y           Z
 ---------------------------------------------------------------------
      1          8           0        1.721031   -0.796577   -1.184470
      2          6           0        2.226198   -0.236070   -0.250395
      3          8           0        3.394365   -0.630293    0.287484
      4          6           0        1.671852    0.976218    0.446260
      5          6           0        0.283448    1.331805   -0.053713
      6          6           0       -0.743526    0.296641    0.359179
      7          1           0        0.269978    1.441116   -1.138981
      8          1           0       -0.034891    2.287269    0.372905
      9         16           0       -2.235112    0.336709   -0.601925
     10          6           0       -3.167186   -0.954423    0.255071
     11          1           0       -3.334389   -0.677955    1.293494
     12          1           0       -2.624839   -1.895888    0.210445
     13          1           0       -4.119658   -1.047820   -0.263610
     14          8           0       -0.583594   -0.466858    1.274929
     15          1           0        3.692402   -1.407551   -0.205557
     16          1           0        1.665175    0.776685    1.518531
     17          1           0        2.368887    1.801591    0.281619
 ---------------------------------------------------------------------

 SCF Done:  E(RHF) =  -816.367733215     A.U. after    2 cycles

 The electronic state is 1-A.
 Alpha  occ. eigenvalues --  -93.54787 -20.62916 -20.57427 -20.56912 -11.40359
 Alpha  occ. eigenvalues --  -11.37429 -11.26846 -11.26704 -11.26626  -8.84718
 Alpha  occ. eigenvalues --   -6.18879  -6.18633  -6.18326  -1.43423  -1.37527
 Alpha  occ. eigenvalues --   -1.33477  -1.09261  -1.05086  -0.97037  -0.88971
 Alpha  occ. eigenvalues --   -0.82120  -0.74278  -0.72505  -0.71351  -0.69094
 Alpha  occ. eigenvalues --   -0.65281  -0.64104  -0.63567  -0.60184  -0.58696
 Alpha  occ. eigenvalues --   -0.57843  -0.55568  -0.53851  -0.52890  -0.50664
 Alpha  occ. eigenvalues --   -0.48190  -0.47527  -0.41874  -0.36928
 Alpha virt. eigenvalues --    0.03226   0.04009   0.04237   0.05279   0.05970
 Alpha virt. eigenvalues --    0.06572   0.06950   0.07165   0.10039   0.10597
 Alpha virt. eigenvalues --    0.11815   0.12297   0.12497   0.13149   0.13658

 Mulliken charges:
               1
     1  O   -0.466442
     2  C    0.486884
     3  O   -0.486074
     4  C    0.256713
     5  C    0.269986
     6  C   -0.104871
     7  H   -0.052995
     8  H    0.054036
     9  S    0.364410
    10  C    0.157302
    11  H   -0.040132
    12  H   -0.024853
    13  H   -0.125363
    14  O   -0.526096
    15  H    0.180393
    16  H    0.013697
    17  H    0.043404
 Sum of Mulliken charges =  -0.00000

 Dipole moment (field-independent basis, Debye):
    X=              0.2118    Y=              1.7238    Z=              0.1752  Tot=              1.7456

 Test job not archived.
 1\1\GINC-SE458\SP\RHF\Aug-CC-pVDZ\C5H8O3S1\OHZDE\09-Apr-2025\0\\#t hf
 aug-cc-pvdz iop(5/13=1,5/36=2,99/5=2) pseudo=read geom=check guess=(re
 ad,tcheck) scf=(maxcycle=1)\\title\\0,1\O,0,1.721031,-0.796577,-1.1844
 7\C,0,2.226198,-0.23607,-0.250395\O,0,3.394365,-0.630293,0.287484\C,0,
 1.671852,0.976218,0.44626\C,0,0.283448,1.331805,-0.053713\C,0,-0.74352
 6,0.296641,0.359179\H,0,0.269978,1.441116,-1.138981\H,0,-0.034891,2.28
 7269,0.372905\S,0,-2.235112,0.336709,-0.601925\C,0,-3.167186,-0.954423
 ,0.255071\H,0,-3.334389,-0.677955,1.293494\H,0,-2.624839,-1.895888,0.2

 Normal termination of Gaussian 16 at Wed Apr  9 00:58:11 2025.
