 Gaussian 16, Revision C.01,

 ----------------------------------------------------------------------
 #t hf aug-cc-pvdz symm=none int=(grid=ultrafine) guess=(read,tcheck) s
 table=opt
 ----------------------------------------------------------------------
 -----
 title
 -----
 Symbolic Z-matrix:
 Charge =  0 Multiplicity = 2

 SCF Done:  E(UHF) =  -592.115995322     A.U. after   44 cycles
 Normal termination of Gaussian 16 at Wed Apr  9 00:58:32 2025.
 Gaussian 16:  ES64L-G16RevC.01  3-Jul-2019

 ----------------------------------------------------------------------
 #t hf aug-cc-pvdz iop(5/13=1,5/36=2,99/5=2) pseudo=read geom=check gue
 ss=(read,tcheck) scf=(maxcycle=1)
 ----------------------------------------------------------------------
 -----
 title
 -----
 Structure from the checkpoint file:  "BH10_186_forward_mol3.chk"
 Charge =  0 Multiplicity = 2

                         Standard orientation:
 ---------------------------------------------------------------------
 Center     Atomic      Atomic             Coordinates (Angstroms)
 Number     Number       Type             X           Y           Z
 ---------------------------------------------------------------------
      1          6           0       -0.423469   -1.198801   -0.186411
      2          6           0        0.397486   -0.055815    0.410279
      3         16           0        2.134537   -0.003838   -0.058105
      4          6           0       -1.869669   -0.748185    0.053866
      5          6           0       -1.838188    0.796647   -0.048272
      6          6           0       -0.346382    1.196461   -0.097992
      7          1           0       -0.192818   -2.166919    0.260508
      8          1           0       -0.207494   -1.265486   -1.256203
      9          1           0        0.335489   -0.080591    1.501719
     10          1           0       -2.193063   -1.053234    1.051727
     11          1           0       -2.562875   -1.200516   -0.656338
     12          1           0       -2.333030    1.252015    0.810865
     13          1           0       -2.358848    1.152841   -0.938053
     14          1           0       -0.116599    2.081763    0.494571
     15          1           0       -0.042027    1.399683   -1.127941
 ---------------------------------------------------------------------

 SCF Done:  E(UHF) =  -592.191801664     A.U. after    2 cycles

 The electronic state is 2-A.
 Alpha  occ. eigenvalues --  -93.54321 -11.27003 -11.24259 -11.23542 -11.23497
 Alpha  occ. eigenvalues --  -11.23362  -8.84051  -6.19424  -6.17751  -6.17291
 Alpha  occ. eigenvalues --   -1.13351  -1.01236  -0.97104  -0.89429  -0.78773
 Alpha  occ. eigenvalues --   -0.77363  -0.67060  -0.63123  -0.58948  -0.58789
 Alpha  occ. eigenvalues --   -0.51476  -0.49508  -0.49107  -0.48546  -0.46702
 Alpha  occ. eigenvalues --   -0.45883  -0.41169  -0.36094
 Alpha virt. eigenvalues --    0.03456   0.04404   0.04591   0.05222   0.06684
 Alpha virt. eigenvalues --    0.06869   0.06934   0.07205   0.08371   0.09344
 Alpha virt. eigenvalues --    0.12335   0.13634   0.14076   0.14301   0.14798

  Beta  occ. eigenvalues --  -93.53428 -11.27143 -11.24102 -11.23521 -11.23468
  Beta  occ. eigenvalues --  -11.23365  -8.83057  -6.17223  -6.16744  -6.15502
  Beta  occ. eigenvalues --   -1.12900  -0.99064  -0.96880  -0.84570  -0.78523
  Beta  occ. eigenvalues --   -0.75586  -0.66896  -0.62375  -0.58824  -0.58040
  Beta  occ. eigenvalues --   -0.49758  -0.49111  -0.48513  -0.48483  -0.46658
  Beta  occ. eigenvalues --   -0.44670  -0.33932
  Beta virt. eigenvalues --    0.02162   0.03469   0.04437   0.04781   0.05268
  Beta virt. eigenvalues --    0.06727   0.06941   0.07151   0.07359   0.08497
  Beta virt. eigenvalues --    0.09432   0.12400   0.13884   0.14218   0.14353

 Mulliken charges and spin densities:
               1          2
     1  C    0.302870   0.014911
     2  C   -0.182869  -0.166056
     3  S    0.237670   1.097131
     4  C    0.237099  -0.001095
     5  C    0.306447   0.019181
     6  C    0.263147   0.042660
     7  H   -0.109499  -0.000126
     8  H   -0.108681  -0.013714
     9  H   -0.190651   0.003069
    10  H   -0.143481   0.000500
    11  H   -0.123823   0.000194
    12  H   -0.090521   0.000823
    13  H   -0.084252   0.000489
    14  H   -0.148291  -0.002903
    15  H   -0.165165   0.004937
 Sum of Mulliken charges =   0.00000   1.00000

 Dipole moment (field-independent basis, Debye):
    X=             -2.1030    Y=             -0.0054    Z=              0.3513  Tot=              2.1322
                          Isotropic Fermi Contact Couplings
        Atom                 a.u.       MegaHertz       Gauss      10(-4) cm-1
     1  C(13)              0.00409       4.59574       1.63988       1.53298
     2  C(13)             -0.02915     -32.77341     -11.69437     -10.93203
     3  S(33)              0.18589      63.84723      22.78228      21.29714
     4  C(13)             -0.00215      -2.41638      -0.86222      -0.80602
     5  C(13)              0.00259       2.90802       1.03766       0.97001
     6  C(13)              0.03276      36.83196      13.14256      12.28582
     7  H(1)              -0.00044      -1.96137      -0.69987      -0.65424
     8  H(1)              -0.00035      -1.54916      -0.55278      -0.51674

 Normal termination of Gaussian 16 at Wed Apr  9 00:58:38 2025.
