 Gaussian 16, Revision C.01,

 ----------------------------------------------------------------------
 #t hf aug-cc-pvdz symm=none int=(grid=ultrafine) guess=(read,tcheck) s
 table=(opt,rrhf)
 ----------------------------------------------------------------------
 -----
 title
 -----
 Symbolic Z-matrix:
 Charge =  0 Multiplicity = 1

 SCF Done:  E(RHF) =  -758.486979408     A.U. after   14 cycles
 Normal termination of Gaussian 16 at Wed Apr  9 01:09:57 2025.
 Gaussian 16:  ES64L-G16RevC.01  3-Jul-2019

 ----------------------------------------------------------------------
 #t hf aug-cc-pvdz iop(5/13=1,5/36=2,99/5=2) pseudo=read geom=check gue
 ss=(read,tcheck) scf=(maxcycle=1)
 ----------------------------------------------------------------------
 -----
 title
 -----
 Structure from the checkpoint file:  "BH10_324_reverse_mol2.chk"
 Charge =  0 Multiplicity = 1

                         Standard orientation:
 ---------------------------------------------------------------------
 Center     Atomic      Atomic             Coordinates (Angstroms)
 Number     Number       Type             X           Y           Z
 ---------------------------------------------------------------------
      1         16           0        1.943169    0.272108   -0.145893
      2          6           0        0.659397    0.625378    1.091073
      3          6           0       -0.749055    0.841585    0.526248
      4          1           0        0.996884    1.538754    1.582725
      5          1           0        0.634585   -0.172541    1.832368
      6          7           0       -0.825210    1.731136   -0.628669
      7          6           0       -1.419613   -0.502382    0.194681
      8          1           0       -1.363403    1.258291    1.330030
      9          8           0       -1.372924   -1.448237    0.930579
     10          8           0       -2.069542   -0.507130   -0.964308
     11          6           0        1.566484   -1.444212   -0.607080
     12          1           0       -1.930471    0.392117   -1.338924
     13          1           0        0.057561    1.732030   -1.134173
     14          1           0       -1.059636    2.681375   -0.375818
     15          1           0        2.424027   -1.798990   -1.177153
     16          1           0        0.675194   -1.521972   -1.226365
     17          1           0        1.447491   -2.060030    0.282586
 ---------------------------------------------------------------------

 SCF Done:  E(RHF) =  -758.620861173     A.U. after    2 cycles

 The electronic state is 1-A.
 Alpha  occ. eigenvalues --  -93.53899 -20.61384 -20.55454 -15.64571 -11.39134
 Alpha  occ. eigenvalues --  -11.30856 -11.28408 -11.26571  -8.83656  -6.17825
 Alpha  occ. eigenvalues --   -6.17598  -6.17317  -1.42105  -1.32983  -1.19827
 Alpha  occ. eigenvalues --   -1.06816  -0.99842  -0.92201  -0.83209  -0.80544
 Alpha  occ. eigenvalues --   -0.74178  -0.70720  -0.68381  -0.64728  -0.63782
 Alpha  occ. eigenvalues --   -0.61190  -0.59521  -0.58076  -0.57176  -0.56621
 Alpha  occ. eigenvalues --   -0.50268  -0.49084  -0.47693  -0.43778  -0.42591
 Alpha  occ. eigenvalues --   -0.35349
 Alpha virt. eigenvalues --    0.02457   0.03882   0.04296   0.04741   0.06230
 Alpha virt. eigenvalues --    0.06660   0.07466   0.08026   0.08835   0.10038
 Alpha virt. eigenvalues --    0.10890   0.12622   0.13269   0.13407   0.13803

 Mulliken charges:
               1
     1  S    0.364520
     2  C    0.328459
     3  C    0.102736
     4  H   -0.091726
     5  H   -0.124754
     6  N   -0.578767
     7  C    0.646226
     8  H    0.065667
     9  O   -0.531745
    10  O   -0.511834
    11  C    0.190001
    12  H    0.284200
    13  H    0.144590
    14  H    0.052615
    15  H   -0.122026
    16  H   -0.130064
    17  H   -0.088099
 Sum of Mulliken charges =   0.00000

 Dipole moment (field-independent basis, Debye):
    X=              1.0159    Y=              4.1362    Z=             -0.2600  Tot=              4.2670

 Test job not archived.
 1\1\GINC-SE363\SP\RHF\Aug-CC-pVDZ\C4H9N1O2S1\OHZDE\09-Apr-2025\0\\#t h
 f aug-cc-pvdz iop(5/13=1,5/36=2,99/5=2) pseudo=read geom=check guess=(
 read,tcheck) scf=(maxcycle=1)\\title\\0,1\S,0,1.943169,0.272108,-0.145
 893\C,0,0.659397,0.625378,1.091073\C,0,-0.749055,0.841585,0.526248\H,0
 ,0.996884,1.538754,1.582725\H,0,0.634585,-0.172541,1.832368\N,0,-0.825
 21,1.731136,-0.628669\C,0,-1.419613,-0.502382,0.194681\H,0,-1.363403,1
 .258291,1.33003\O,0,-1.372924,-1.448237,0.930579\O,0,-2.069542,-0.5071
 3,-0.964308\C,0,1.566484,-1.444212,-0.60708\H,0,-1.930471,0.392117,-1.

 Normal termination of Gaussian 16 at Wed Apr  9 01:10:05 2025.
