 Gaussian 16, Revision C.01,

 ----------------------------------------------------------------------
 #t hf aug-cc-pvdz symm=none int=(grid=ultrafine) guess=(read,tcheck) s
 table=(opt,rrhf)
 ----------------------------------------------------------------------
 -----
 title
 -----
 Symbolic Z-matrix:
 Charge =  0 Multiplicity = 1

 SCF Done:  E(RHF) =  -1000.85867430     A.U. after   18 cycles
 Normal termination of Gaussian 16 at Wed Apr  9 02:09:09 2025.
 Gaussian 16:  ES64L-G16RevC.01  3-Jul-2019

 ----------------------------------------------------------------------
 #t hf aug-cc-pvdz iop(5/13=1,5/36=2,99/5=2) pseudo=read geom=check gue
 ss=(read,tcheck) scf=(maxcycle=1)
 ----------------------------------------------------------------------
 -----
 title
 -----
 Structure from the checkpoint file:  "BH10_84_forward_mol1.chk"
 Charge =  0 Multiplicity = 1

                         Standard orientation:
 ---------------------------------------------------------------------
 Center     Atomic      Atomic             Coordinates (Angstroms)
 Number     Number       Type             X           Y           Z
 ---------------------------------------------------------------------
      1          6           0       -0.186078   -0.901891   -0.996871
      2          6           0        2.107901   -0.675559   -0.131856
      3          6           0       -0.725170   -0.016367   -0.079293
      4          1           0       -0.408305   -0.140911    0.945642
      5          6           0        2.040664    0.772563    0.033454
      6          6           0        1.109034   -1.372213   -0.810246
      7          6           0        3.367620    1.507312    0.024764
      8          1           0        1.433700   -2.278536   -1.313285
      9          1           0       -0.729290   -1.168074   -1.896370
     10          6           0        0.844279    2.847550   -0.032773
     11          6           0        3.385842   -1.393687    0.008300
     12          6           0       -1.993397    0.726438   -0.263512
     13          1           0       -1.967086    1.584779    0.418772
     14          6           0       -2.230000    1.221034   -1.693127
     15          1           0       -1.372129    1.794645   -2.052628
     16          1           0       -2.381034    0.395818   -2.391331
     17          1           0       -3.112218    1.861603   -1.747759
     18          7           0        0.923706    1.409540    0.112774
     19         14           0       -3.456440   -0.322781    0.397448
     20          6           0       -4.974351    0.781617    0.443859
     21          6           0       -3.761662   -1.785562   -0.732866
     22          6           0       -3.044607   -0.915284    2.128220
     23          1           0       -4.026528   -1.469106   -1.744418
     24          1           0       -4.586225   -2.395112   -0.354072
     25          1           0       -2.878414   -2.424182   -0.798900
     26          1           0       -5.254273    1.128092   -0.553521
     27          1           0       -4.808565    1.661807    1.070306
     28          1           0       -5.830774    0.240862    0.855030
     29          1           0       -0.202464    3.121133   -0.175502
     30          1           0        1.414489    3.238144   -0.882227
     31          1           0        1.187342    3.355391    0.874609
     32          1           0       -2.787417   -0.081933    2.787274
     33          1           0       -2.202178   -1.610510    2.122825
     34          1           0       -3.897816   -1.434473    2.572198
     35          6           0        4.650933   -0.614839    0.308030
     36          6           0        4.395615    0.770110    0.875005
     37          8           0        3.455483   -2.602292   -0.137420
     38          1           0        3.729398    1.585713   -1.007269
     39          1           0        3.234104    2.522910    0.394428
     40          1           0        4.023524    0.693335    1.901604
     41          1           0        5.324160    1.343619    0.917336
     42          1           0        5.271519   -1.228973    0.961614
     43          1           0        5.187090   -0.532880   -0.645185
 ---------------------------------------------------------------------

 SCF Done:  E(RHF) =  -1001.09861171     A.U. after    2 cycles

 The electronic state is 1-A.
 Alpha  occ. eigenvalues --  -69.05370 -20.52133 -15.61063 -11.31595 -11.29909
 Alpha  occ. eigenvalues --  -11.29375 -11.26196 -11.25948 -11.24532 -11.24153
 Alpha  occ. eigenvalues --  -11.23587 -11.23382 -11.23161 -11.21690 -11.21515
 Alpha  occ. eigenvalues --  -11.21290 -11.21015 -11.20875  -6.80657  -3.91412
 Alpha  occ. eigenvalues --   -3.91385  -3.91376  -1.31877  -1.20722  -1.10417
 Alpha  occ. eigenvalues --   -1.09450  -1.05197  -0.98968  -0.97259  -0.96246
 Alpha  occ. eigenvalues --   -0.94016  -0.92591  -0.92396  -0.89952  -0.85269
 Alpha  occ. eigenvalues --   -0.81246  -0.76285  -0.74711  -0.68276  -0.67528
 Alpha  occ. eigenvalues --   -0.66633  -0.64560  -0.63393  -0.62170  -0.61040
 Alpha  occ. eigenvalues --   -0.60179  -0.59689  -0.59162  -0.58033  -0.57516
 Alpha  occ. eigenvalues --   -0.57264  -0.57058  -0.55831  -0.55701  -0.54835
 Alpha  occ. eigenvalues --   -0.54618  -0.54349  -0.53801  -0.52979  -0.52037
 Alpha  occ. eigenvalues --   -0.50786  -0.49432  -0.48525  -0.47427  -0.46480
 Alpha  occ. eigenvalues --   -0.43751  -0.43627  -0.43569  -0.39834  -0.39608
 Alpha  occ. eigenvalues --   -0.34717  -0.27966
 Alpha virt. eigenvalues --    0.02397   0.02959   0.03543   0.03809   0.04758
 Alpha virt. eigenvalues --    0.04876   0.05112   0.05802   0.05946   0.06309
 Alpha virt. eigenvalues --    0.06436   0.06660   0.07127   0.07331   0.07789

 Mulliken charges:
               1
     1  C    0.706675
     2  C    0.719853
     3  C    1.087708
     4  H   -0.668197
     5  C   -0.947886
     6  C   -0.412787
     7  C    0.662723
     8  H   -0.648132
     9  H   -0.741820
    10  C    1.009524
    11  C   -0.329756
    12  C    0.127845
    13  H   -0.158341
    14  C    0.928920
    15  H   -0.155912
    16  H   -0.082709
    17  H   -0.142840
    18  N   -0.335973
    19  Si  -0.009737
    20  C    0.768648
    21  C    0.832761
    22  C    0.818059
    23  H   -0.239014
    24  H   -0.351668
    25  H   -0.190576
    26  H   -0.275775
    27  H   -0.247839
    28  H   -0.338729
    29  H   -0.512582
    30  H   -0.064080
    31  H   -0.110522
    32  H   -0.214440
    33  H   -0.234595
    34  H   -0.368459
    35  C    0.353995
    36  C    0.696219
    37  O   -0.608837
    38  H   -0.091031
    39  H   -0.159370
    40  H   -0.150849
    41  H   -0.039917
    42  H    0.018536
    43  H    0.100909
 Sum of Mulliken charges =  -0.00000

 Dipole moment (field-independent basis, Debye):
    X=             -2.5654    Y=              5.2878    Z=              0.2428  Tot=              5.8823

 Test job not archived.
 1\1\GINC-SE341\SP\RHF\Aug-CC-pVDZ\C15H25N1O1Si1\OHZDE\09-Apr-2025\0\\#
 t hf aug-cc-pvdz iop(5/13=1,5/36=2,99/5=2) pseudo=read geom=check gues
 s=(read,tcheck) scf=(maxcycle=1)\\title\\0,1\C,0,-0.186078,-0.901891,-
 0.996871\C,0,2.107901,-0.675559,-0.131856\C,0,-0.72517,-0.016367,-0.07
 9293\H,0,-0.408305,-0.140911,0.945642\C,0,2.040664,0.772563,0.033454\C
 ,0,1.109034,-1.372213,-0.810246\C,0,3.36762,1.507312,0.024764\H,0,1.43
 37,-2.278536,-1.313285\H,0,-0.72929,-1.168074,-1.89637\C,0,0.844279,2.
 84755,-0.032773\C,0,3.385842,-1.393687,0.0083\C,0,-1.993397,0.726438,-

 Normal termination of Gaussian 16 at Wed Apr  9 02:10:41 2025.
