 Gaussian 16, Revision C.01,

 ----------------------------------------------------------------------
 #t hf aug-cc-pvdz symm=none int=(grid=ultrafine) guess=(read,tcheck) s
 table=(opt,rrhf)
 ----------------------------------------------------------------------
 -----
 title
 -----
 Symbolic Z-matrix:
 Charge =  0 Multiplicity = 1

 SCF Done:  E(RHF) =  -742.491840902     A.U. after   14 cycles
 Normal termination of Gaussian 16 at Wed Apr  9 00:55:56 2025.
 Gaussian 16:  ES64L-G16RevC.01  3-Jul-2019

 ----------------------------------------------------------------------
 #t hf aug-cc-pvdz iop(5/13=1,5/36=2,99/5=2) pseudo=read geom=check gue
 ss=(read,tcheck) scf=(maxcycle=1)
 ----------------------------------------------------------------------
 -----
 title
 -----
 Structure from the checkpoint file:  "BH10_163_forward_mol2.chk"
 Charge =  0 Multiplicity = 1

                         Standard orientation:
 ---------------------------------------------------------------------
 Center     Atomic      Atomic             Coordinates (Angstroms)
 Number     Number       Type             X           Y           Z
 ---------------------------------------------------------------------
      1          6           0       -2.529849   -0.103247    0.987313
      2         16           0       -1.792261   -0.321828   -0.653291
      3          6           0       -0.497444    0.949981   -0.599612
      4          6           0        0.646676    0.663647    0.370866
      5          6           0        1.654758    1.817138    0.379785
      6          6           0        1.353018   -0.608203   -0.039032
      7          8           0        1.481126   -1.480179    0.977739
      8          8           0        1.788795   -0.827166   -1.136358
      9          1           0       -3.405794   -0.749425    1.027321
     10          1           0       -1.847349   -0.398777    1.783398
     11          1           0       -2.851876    0.928449    1.134523
     12          1           0        1.162143    2.744582    0.677176
     13          1           0        2.084491    1.955583   -0.613805
     14          1           0        2.468448    1.626513    1.081798
     15          1           0       -0.104643    1.005700   -1.615736
     16          1           0       -0.952407    1.913870   -0.361379
     17          1           0        0.254885    0.522236    1.378766
     18          1           0        1.945949   -2.256621    0.633620
 ---------------------------------------------------------------------

 SCF Done:  E(RHF) =  -742.622979871     A.U. after    2 cycles

 The electronic state is 1-A.
 Alpha  occ. eigenvalues --  -93.52861 -20.62732 -20.56281 -11.39683 -11.27406
 Alpha  occ. eigenvalues --  -11.26646 -11.26538 -11.24543  -8.82606  -6.16770
 Alpha  occ. eigenvalues --   -6.16557  -6.16236  -1.42993  -1.32979  -1.10908
 Alpha  occ. eigenvalues --   -1.03332  -0.94856  -0.91306  -0.82675  -0.77825
 Alpha  occ. eigenvalues --   -0.72512  -0.70949  -0.65819  -0.63190  -0.61058
 Alpha  occ. eigenvalues --   -0.59913  -0.59401  -0.57063  -0.55374  -0.54605
 Alpha  occ. eigenvalues --   -0.51771  -0.49975  -0.48396  -0.46418  -0.42978
 Alpha  occ. eigenvalues --   -0.34157
 Alpha virt. eigenvalues --    0.03137   0.04036   0.04256   0.05145   0.05764
 Alpha virt. eigenvalues --    0.06703   0.06928   0.07383   0.08289   0.09539
 Alpha virt. eigenvalues --    0.10249   0.11026   0.13163   0.13446   0.14120

 Mulliken charges:
               1
     1  C    0.163970
     2  S    0.464726
     3  C    0.412523
     4  C   -0.890897
     5  C    0.884424
     6  C    0.595150
     7  O   -0.531307
     8  O   -0.493179
     9  H   -0.130921
    10  H   -0.101423
    11  H   -0.111220
    12  H   -0.051518
    13  H    0.011797
    14  H   -0.042766
    15  H   -0.058995
    16  H   -0.129157
    17  H   -0.171105
    18  H    0.179897
 Sum of Mulliken charges =  -0.00000

 Dipole moment (field-independent basis, Debye):
    X=             -0.3073    Y=              1.5406    Z=              2.9235  Tot=              3.3188

 Test job not archived.
 1\1\GINC-SE458\SP\RHF\Aug-CC-pVDZ\C5H10O2S1\OHZDE\09-Apr-2025\0\\#t hf
  aug-cc-pvdz iop(5/13=1,5/36=2,99/5=2) pseudo=read geom=check guess=(r
 ead,tcheck) scf=(maxcycle=1)\\title\\0,1\C,0,-2.529849,-0.103247,0.987
 313\S,0,-1.792261,-0.321828,-0.653291\C,0,-0.497444,0.949981,-0.599612
 \C,0,0.646676,0.663647,0.370866\C,0,1.654758,1.817138,0.379785\C,0,1.3
 53018,-0.608203,-0.039032\O,0,1.481126,-1.480179,0.977739\O,0,1.788795
 ,-0.827166,-1.136358\H,0,-3.405794,-0.749425,1.027321\H,0,-1.847349,-0
 .398777,1.783398\H,0,-2.851876,0.928449,1.134523\H,0,1.162143,2.744582

 Normal termination of Gaussian 16 at Wed Apr  9 00:56:04 2025.
