 Gaussian 16, Revision C.01,

 ----------------------------------------------------------------------
 #t hf aug-cc-pvdz symm=none int=(grid=ultrafine) guess=(read,tcheck) s
 table=opt
 ----------------------------------------------------------------------
 -----
 title
 -----
 Symbolic Z-matrix:
 Charge =  0 Multiplicity = 2

 SCF Done:  E(UHF) =  -692.537992043     A.U. after   17 cycles
 Normal termination of Gaussian 16 at Wed Apr  9 01:04:50 2025.
 Gaussian 16:  ES64L-G16RevC.01  3-Jul-2019

 ----------------------------------------------------------------------
 #t hf aug-cc-pvdz iop(5/13=1,5/36=2,99/5=2) pseudo=read geom=check gue
 ss=(read,tcheck) scf=(maxcycle=1)
 ----------------------------------------------------------------------
 -----
 title
 -----
 Structure from the checkpoint file:  "BH10_305_forward_mol3.chk"
 Charge =  0 Multiplicity = 2

                         Standard orientation:
 ---------------------------------------------------------------------
 Center     Atomic      Atomic             Coordinates (Angstroms)
 Number     Number       Type             X           Y           Z
 ---------------------------------------------------------------------
      1          6           0       -0.286274    0.569342   -0.000000
      2          6           0        0.181787   -0.000269    1.294031
      3         17           0       -0.694142    2.260509   -0.000000
      4          6           0        0.181787   -0.000269   -1.294031
      5          6           0        0.181787   -1.532300    1.257445
      6          6           0        0.866284   -2.062940    0.000000
      7          6           0        0.181787   -1.532300   -1.257445
      8          1           0       -0.435915    0.370445    2.114844
      9          1           0        1.206143    0.356101    1.494573
     10          1           0        1.206143    0.356101   -1.494573
     11          1           0       -0.435915    0.370445   -2.114844
     12          1           0       -0.852101   -1.891594    1.281347
     13          1           0        0.672418   -1.916472    2.154868
     14          1           0        0.856738   -3.155703    0.000000
     15          1           0        1.919645   -1.757498    0.000000
     16          1           0       -0.852101   -1.891594   -1.281347
     17          1           0        0.672418   -1.916472   -2.154868
 ---------------------------------------------------------------------

 SCF Done:  E(UHF) =  -692.626422590     A.U. after    2 cycles

 The electronic state is 2-A'.
 Alpha  occ. eigenvalues -- -103.65388 -11.29798 -11.24209 -11.24199 -11.23708
 Alpha  occ. eigenvalues --  -11.23705 -11.23426 -10.68697  -8.34341  -8.34224
 Alpha  occ. eigenvalues --   -8.34129  -1.18991  -1.10446  -1.01701  -0.99185
 Alpha  occ. eigenvalues --   -0.85507  -0.82495  -0.74805  -0.66442  -0.62894
 Alpha  occ. eigenvalues --   -0.62165  -0.60720  -0.57303  -0.55286  -0.54649
 Alpha  occ. eigenvalues --   -0.50380  -0.50074  -0.47076  -0.46817  -0.45583
 Alpha  occ. eigenvalues --   -0.44048  -0.33786
 Alpha virt. eigenvalues --    0.03369   0.04118   0.04495   0.04893   0.06565
 Alpha virt. eigenvalues --    0.06611   0.06726   0.07299   0.07631   0.09018
 Alpha virt. eigenvalues --    0.10352   0.12511   0.13458   0.13533   0.14326

  Beta  occ. eigenvalues -- -103.65371 -11.27073 -11.24488 -11.24478 -11.23662
  Beta  occ. eigenvalues --  -11.23660 -11.23438 -10.68677  -8.34533  -8.34118
  Beta  occ. eigenvalues --   -8.33965  -1.16877  -1.10175  -1.01648  -0.97487
  Beta  occ. eigenvalues --   -0.85335  -0.80779  -0.71744  -0.65796  -0.61792
  Beta  occ. eigenvalues --   -0.61425  -0.57418  -0.56675  -0.54635  -0.54492
  Beta  occ. eigenvalues --   -0.49514  -0.48253  -0.46669  -0.46125  -0.45481
  Beta  occ. eigenvalues --   -0.43733
  Beta virt. eigenvalues --    0.03272   0.04124   0.04478   0.04853   0.06461
  Beta virt. eigenvalues --    0.06566   0.06741   0.07325   0.07626   0.09025
  Beta virt. eigenvalues --    0.10334   0.11086   0.12913   0.13585   0.14019

 Mulliken charges and spin densities:
               1          2
     1  C   -0.476072   1.312016
     2  C    0.379409  -0.209704
     3  Cl  -0.326681  -0.006423
     4  C    0.379409  -0.209704
     5  C    0.284944  -0.002895
     6  C    0.257304   0.004012
     7  C    0.284944  -0.002895
     8  H   -0.118052   0.010587
     9  H    0.031221   0.049516
    10  H    0.031221   0.049516
    11  H   -0.118052   0.010587
    12  H   -0.108904  -0.002990
    13  H   -0.085413   0.000136
    14  H   -0.092743   0.000620
    15  H   -0.128216   0.000475
    16  H   -0.108904  -0.002990
    17  H   -0.085413   0.000136
 Sum of Mulliken charges =  -0.00000   1.00000

 Dipole moment (field-independent basis, Debye):
    X=              0.8835    Y=             -2.2450    Z=              0.0000  Tot=              2.4126
                          Isotropic Fermi Contact Couplings
        Atom                 a.u.       MegaHertz       Gauss      10(-4) cm-1
     1  C(13)              0.31318     352.07278     125.62832     117.43884
     2  C(13)             -0.04754     -53.44906     -19.07195     -17.82869
     3  Cl(35)             0.02447      10.72708       3.82769       3.57817
     4  C(13)             -0.04754     -53.44906     -19.07195     -17.82869
     5  C(13)              0.01016      11.42405       4.07639       3.81065
     6  C(13)             -0.00285      -3.20729      -1.14444      -1.06984
     7  C(13)              0.01016      11.42405       4.07639       3.81065
     8  H(1)               0.00707      31.60536      11.27758      10.54241

 Normal termination of Gaussian 16 at Wed Apr  9 01:04:55 2025.
