 Gaussian 16, Revision C.01,

 ----------------------------------------------------------------------
 #t hf aug-cc-pvdz symm=none int=(grid=ultrafine) guess=(read,tcheck) s
 table=(opt,rrhf)
 ----------------------------------------------------------------------
 -----
 title
 -----
 Symbolic Z-matrix:
 Charge =  0 Multiplicity = 1

 SCF Done:  E(RHF) =  -728.994773131     A.U. after   14 cycles
 Normal termination of Gaussian 16 at Wed Apr  9 00:54:57 2025.
 Gaussian 16:  ES64L-G16RevC.01  3-Jul-2019

 ----------------------------------------------------------------------
 #t hf aug-cc-pvdz iop(5/13=1,5/36=2,99/5=2) pseudo=read geom=check gue
 ss=(read,tcheck) scf=(maxcycle=1)
 ----------------------------------------------------------------------
 -----
 title
 -----
 Structure from the checkpoint file:  "BH10_135_reverse_mol3.chk"
 Charge =  0 Multiplicity = 1

                         Standard orientation:
 ---------------------------------------------------------------------
 Center     Atomic      Atomic             Coordinates (Angstroms)
 Number     Number       Type             X           Y           Z
 ---------------------------------------------------------------------
      1          8           0        0.335356   -1.005984    1.316070
      2          6           0        0.502537   -0.325641    0.368838
      3          6           0       -0.477219    0.629309   -0.272524
      4          6           0       -1.915852    0.228835    0.054427
      5          1           0       -0.314518    0.579123   -1.351935
      6          6           0       -0.148749    2.049899    0.206600
      7          1           0       -2.038754    0.200506    1.139998
      8          6           0       -2.335831   -1.103231   -0.556162
      9          1           0       -2.567401    1.025641   -0.315217
     10          1           0       -2.228948   -1.089272   -1.644040
     11          1           0       -3.380574   -1.321454   -0.328886
     12          1           0       -1.736314   -1.927889   -0.166863
     13          1           0        0.877359    2.329272   -0.032113
     14          1           0       -0.290249    2.133765    1.286128
     15          1           0       -0.818401    2.759662   -0.280746
     16         17           0        2.121509   -0.324500   -0.449527
 ---------------------------------------------------------------------

 SCF Done:  E(RHF) =  -729.098537874     A.U. after    2 cycles

 The electronic state is 1-A.
 Alpha  occ. eigenvalues -- -103.66526 -20.60874 -11.41558 -11.27770 -11.25165
 Alpha  occ. eigenvalues --  -11.24832 -11.23332 -10.69896  -8.35597  -8.35316
 Alpha  occ. eigenvalues --   -8.35303  -1.41997  -1.16422  -1.10538  -1.00673
 Alpha  occ. eigenvalues --   -0.90751  -0.85438  -0.76242  -0.70982  -0.67544
 Alpha  occ. eigenvalues --   -0.63790  -0.61826  -0.59957  -0.58648  -0.56238
 Alpha  occ. eigenvalues --   -0.53847  -0.51211  -0.49973  -0.49215  -0.47450
 Alpha  occ. eigenvalues --   -0.46961  -0.45172
 Alpha virt. eigenvalues --    0.03160   0.04213   0.04592   0.05252   0.06482
 Alpha virt. eigenvalues --    0.06756   0.07017   0.08058   0.09226   0.10063
 Alpha virt. eigenvalues --    0.11013   0.11160   0.11920   0.13561   0.14381

 Mulliken charges:
               1
     1  O   -0.393827
     2  C    0.132356
     3  C   -0.659049
     4  C    0.577582
     5  H   -0.101110
     6  C    0.712331
     7  H   -0.096970
     8  C    0.403783
     9  H   -0.092841
    10  H   -0.061286
    11  H   -0.052002
    12  H   -0.085599
    13  H   -0.058081
    14  H    0.016333
    15  H   -0.054760
    16  Cl  -0.186859
 Sum of Mulliken charges =   0.00000

 Dipole moment (field-independent basis, Debye):
    X=             -2.1723    Y=              2.2199    Z=             -1.4780  Tot=              3.4397

 Test job not archived.
 1\1\GINC-SE069\SP\RHF\Aug-CC-pVDZ\C5H9Cl1O1\OHZDE\09-Apr-2025\0\\#t hf
  aug-cc-pvdz iop(5/13=1,5/36=2,99/5=2) pseudo=read geom=check guess=(r
 ead,tcheck) scf=(maxcycle=1)\\title\\0,1\O,0,0.335356,-1.005984,1.3160
 7\C,0,0.502537,-0.325641,0.368838\C,0,-0.477219,0.629309,-0.272524\C,0
 ,-1.915852,0.228835,0.054427\H,0,-0.314518,0.579123,-1.351935\C,0,-0.1
 48749,2.049899,0.2066\H,0,-2.038754,0.200506,1.139998\C,0,-2.335831,-1
 .103231,-0.556162\H,0,-2.567401,1.025641,-0.315217\H,0,-2.228948,-1.08
 9272,-1.64404\H,0,-3.380574,-1.321454,-0.328886\H,0,-1.736314,-1.92788

 Normal termination of Gaussian 16 at Wed Apr  9 00:55:03 2025.
