 Gaussian 16, Revision C.01,

 ----------------------------------------------------------------------
 #t hf aug-cc-pvdz symm=none int=(grid=ultrafine) guess=(read,tcheck) s
 table=opt
 ----------------------------------------------------------------------
 -----
 title
 -----
 Symbolic Z-matrix:
 Charge =  0 Multiplicity = 2

 SCF Done:  E(UHF) =  -1028.97881876     A.U. after   21 cycles
 Normal termination of Gaussian 16 at Wed Apr  9 01:14:52 2025.
 Gaussian 16:  ES64L-G16RevC.01  3-Jul-2019

 ----------------------------------------------------------------------
 #t hf aug-cc-pvdz iop(5/13=1,5/36=2,99/5=2) pseudo=read geom=check gue
 ss=(read,tcheck) scf=(maxcycle=1)
 ----------------------------------------------------------------------
 -----
 title
 -----
 Structure from the checkpoint file:  "BH10_204_forward_mol2.chk"
 Charge =  0 Multiplicity = 2

                         Standard orientation:
 ---------------------------------------------------------------------
 Center     Atomic      Atomic             Coordinates (Angstroms)
 Number     Number       Type             X           Y           Z
 ---------------------------------------------------------------------
      1          7           0        0.628076    0.446540   -0.316830
      2         16           0        1.212651   -1.113952   -0.294771
      3          8           0       -0.110507   -1.926404   -0.636038
      4          6           0       -1.036608   -2.294683    0.425033
      5          6           0       -1.858162   -1.123698    0.920454
      6          1           0       -0.465154   -2.759311    1.228304
      7          1           0       -1.660178   -3.046444   -0.056660
      8          6           0       -2.644733   -0.414003   -0.174409
      9          1           0       -1.204893   -0.410415    1.430383
     10          1           0       -2.538243   -1.514112    1.685787
     11          6           0       -3.358683    0.833695    0.331959
     12          6           0        1.496071    1.537056    0.126535
     13          6           0        1.193346    1.713366    1.630355
     14          6           0        1.010068    2.766235   -0.645768
     15          6           0        2.996766    1.325242   -0.091293
     16          1           0        3.378798    0.490750    0.496812
     17          1           0        3.525616    2.227840    0.219314
     18          1           0        3.218843    1.137198   -1.141493
     19          1           0        0.126895    1.874395    1.793037
     20          1           0        1.735527    2.589708    1.990719
     21          1           0        1.512727    0.838274    2.194920
     22          1           0       -0.061078    2.910211   -0.500040
     23          1           0        1.199713    2.646926   -1.713403
     24          1           0        1.537053    3.656475   -0.297253
     25          8           0        1.639918   -1.457721    1.047265
     26          8           0        2.082573   -1.291419   -1.427354
     27          6           0       -4.133229    1.556624   -0.763396
     28          1           0       -2.616665    1.513929    0.764778
     29          1           0       -4.038133    0.564032    1.148166
     30          1           0       -3.467777    1.863583   -1.574462
     31          1           0       -4.629330    2.451195   -0.381145
     32          1           0       -4.901191    0.909291   -1.194930
     33          1           0       -1.960488   -0.134306   -0.978479
     34          1           0       -3.375874   -1.106410   -0.608004
 ---------------------------------------------------------------------

 SCF Done:  E(UHF) =  -1029.26119348     A.U. after    2 cycles

 The electronic state is 2-A.
 Alpha  occ. eigenvalues --  -93.84416 -20.63246 -20.57925 -20.57572 -15.70508
 Alpha  occ. eigenvalues --  -11.31491 -11.30364 -11.24382 -11.24320 -11.24001
 Alpha  occ. eigenvalues --  -11.23415 -11.23293 -11.22991 -11.22573  -9.10252
 Alpha  occ. eigenvalues --   -6.44920  -6.44892  -6.44711  -1.48265  -1.35724
 Alpha  occ. eigenvalues --   -1.33007  -1.24146  -1.08935  -1.07207  -1.02896
 Alpha  occ. eigenvalues --   -0.95446  -0.95184  -0.94814  -0.88257  -0.82954
 Alpha  occ. eigenvalues --   -0.80473  -0.77595  -0.73504  -0.71958  -0.69902
 Alpha  occ. eigenvalues --   -0.67132  -0.65936  -0.64769  -0.63651  -0.63223
 Alpha  occ. eigenvalues --   -0.60948  -0.60037  -0.59244  -0.57502  -0.57371
 Alpha  occ. eigenvalues --   -0.56132  -0.55654  -0.54140  -0.53439  -0.53216
 Alpha  occ. eigenvalues --   -0.52714  -0.52481  -0.51782  -0.50988  -0.50519
 Alpha  occ. eigenvalues --   -0.49895  -0.47805  -0.47261  -0.46487  -0.45648
 Alpha  occ. eigenvalues --   -0.45331
 Alpha virt. eigenvalues --    0.02955   0.03409   0.03897   0.04135   0.05175
 Alpha virt. eigenvalues --    0.05421   0.05725   0.06102   0.06578   0.07427
 Alpha virt. eigenvalues --    0.07593   0.07933   0.08284   0.08460   0.08939

  Beta  occ. eigenvalues --  -93.84485 -20.63290 -20.57773 -20.57348 -15.67308
  Beta  occ. eigenvalues --  -11.31490 -11.30613 -11.24372 -11.24096 -11.23939
  Beta  occ. eigenvalues --  -11.23364 -11.23293 -11.22994 -11.22573  -9.10343
  Beta  occ. eigenvalues --   -6.45000  -6.44942  -6.44902  -1.47863  -1.35614
  Beta  occ. eigenvalues --   -1.32492  -1.17575  -1.08909  -1.04739  -1.02406
  Beta  occ. eigenvalues --   -0.95054  -0.94724  -0.94461  -0.87793  -0.82616
  Beta  occ. eigenvalues --   -0.80361  -0.77233  -0.73051  -0.70936  -0.69028
  Beta  occ. eigenvalues --   -0.66331  -0.65079  -0.63470  -0.63025  -0.62045
  Beta  occ. eigenvalues --   -0.60449  -0.59351  -0.57930  -0.57312  -0.56358
  Beta  occ. eigenvalues --   -0.55943  -0.55229  -0.53363  -0.53057  -0.52638
  Beta  occ. eigenvalues --   -0.51938  -0.51305  -0.50668  -0.50403  -0.49469
  Beta  occ. eigenvalues --   -0.49040  -0.47693  -0.47234  -0.46437  -0.43120
  Beta virt. eigenvalues --    0.02955   0.03376   0.03771   0.04044   0.04984
  Beta virt. eigenvalues --    0.05333   0.05726   0.05801   0.06117   0.06666
  Beta virt. eigenvalues --    0.07430   0.07599   0.07937   0.08287   0.08481

 Mulliken charges and spin densities:
               1          2
     1  N   -0.693061   1.201679
     2  S    3.091401  -0.091796
     3  O   -0.984735  -0.008700
     4  C    1.022648  -0.002249
     5  C    0.432020   0.008697
     6  H   -0.042490   0.000151
     7  H   -0.259900  -0.000513
     8  C    0.143719   0.001629
     9  H   -0.399635  -0.001246
    10  H   -0.099445   0.000643
    11  C    0.291022  -0.001927
    12  C   -3.568842  -0.274588
    13  C    1.197527   0.087261
    14  C    1.281081   0.020020
    15  C    1.270216   0.020071
    16  H    0.016164  -0.000003
    17  H   -0.009985  -0.002040
    18  H    0.069943   0.002341
    19  H   -0.097381  -0.002780
    20  H    0.016176   0.007121
    21  H   -0.019614  -0.003501
    22  H   -0.079191  -0.003501
    23  H   -0.045582   0.004750
    24  H    0.026225  -0.002175
    25  O   -1.073338   0.017193
    26  O   -0.974354   0.024228
    27  C    0.523042   0.000621
    28  H   -0.194922   0.000226
    29  H   -0.177060  -0.000216
    30  H   -0.098518   0.000237
    31  H   -0.061037   0.000032
    32  H   -0.083670   0.000033
    33  H   -0.272387  -0.001859
    34  H   -0.146038   0.000161
 Sum of Mulliken charges =  -0.00000   1.00000

 Dipole moment (field-independent basis, Debye):
    X=             -2.8453    Y=              2.6677    Z=              1.9316  Tot=              4.3524
                          Isotropic Fermi Contact Couplings
        Atom                 a.u.       MegaHertz       Gauss      10(-4) cm-1
     1  N(14)              0.29108      94.04994      33.55936      31.37168
     2  S(33)             -0.09624     -33.05698     -11.79555     -11.02662
     3  O(17)             -0.00813       4.92614       1.75777       1.64318
     4  C(13)             -0.00004      -0.04978      -0.01776      -0.01660
     5  C(13)              0.00148       1.66664       0.59470       0.55593
     6  H(1)               0.00005       0.22744       0.08116       0.07587
     7  H(1)              -0.00009      -0.42240      -0.15072      -0.14090
     8  C(13)             -0.00067      -0.75347      -0.26886      -0.25133

 1\1\GINC-SE336\SP\UHF\Aug-CC-pVDZ\C9H20N1O3S1(2)\OHZDE\09-Apr-2025\0\\
 #t hf aug-cc-pvdz iop(5/13=1,5/36=2,99/5=2) pseudo=read geom=check gue
 ss=(read,tcheck) scf=(maxcycle=1)\\title\\0,2\N,0,0.628076,0.44654,-0.
 31683\S,0,1.212651,-1.113952,-0.294771\O,0,-0.110507,-1.926404,-0.6360
 38\C,0,-1.036608,-2.294683,0.425033\C,0,-1.858162,-1.123698,0.920454\H
 ,0,-0.465154,-2.759311,1.228304\H,0,-1.660178,-3.046444,-0.05666\C,0,-
 2.644733,-0.414003,-0.174409\H,0,-1.204893,-0.410415,1.430383\H,0,-2.5
 38243,-1.514112,1.685787\C,0,-3.358683,0.833695,0.331959\C,0,1.496071,

 Normal termination of Gaussian 16 at Wed Apr  9 01:15:46 2025.
