 Gaussian 16, Revision C.01,

 ----------------------------------------------------------------------
 #t hf aug-cc-pvdz symm=none int=(grid=ultrafine) guess=(read,tcheck) s
 table=(opt,rrhf)
 ----------------------------------------------------------------------
 -----
 title
 -----
 Symbolic Z-matrix:
 Charge =  0 Multiplicity = 1

 SCF Done:  E(RHF) =  -1123.51163890     A.U. after   18 cycles
 Normal termination of Gaussian 16 at Wed Apr  9 01:30:14 2025.
 Gaussian 16:  ES64L-G16RevC.01  3-Jul-2019

 ----------------------------------------------------------------------
 #t hf aug-cc-pvdz iop(5/13=1,5/36=2,99/5=2) pseudo=read geom=check gue
 ss=(read,tcheck) scf=(maxcycle=1)
 ----------------------------------------------------------------------
 -----
 title
 -----
 Structure from the checkpoint file:  "BH10_330_reverse_mol3.chk"
 Charge =  0 Multiplicity = 1

                         Standard orientation:
 ---------------------------------------------------------------------
 Center     Atomic      Atomic             Coordinates (Angstroms)
 Number     Number       Type             X           Y           Z
 ---------------------------------------------------------------------
      1          6           0        1.724889   -1.255180   -0.000010
      2          6           0        1.397623    0.106163    0.000000
      3          6           0        2.422339    1.055301    0.000000
      4          6           0        3.748632    0.662845   -0.000008
      5          6           0        4.047088   -0.708937   -0.000023
      6          6           0        3.054236   -1.667878   -0.000023
      7          1           0        2.176561    2.111535    0.000002
      8          1           0        5.085361   -1.022510   -0.000037
      9          1           0        3.307299   -2.721006   -0.000038
     10          6           0       -0.038729    0.319260    0.000004
     11          6           0       -0.735205    1.537033    0.000012
     12          6           0       -0.728670   -0.887971   -0.000003
     13          6           0       -2.114649    1.501936    0.000014
     14          1           0       -0.190869    2.469381    0.000016
     15          6           0       -2.128515   -0.911377   -0.000001
     16          6           0       -2.815977    0.283582    0.000008
     17          1           0       -3.894956    0.326608    0.000013
     18         16           0        0.312618   -2.296874   -0.000015
     19          8           0       -2.699691   -2.138058   -0.000005
     20          8           0       -2.910043    2.605571    0.000022
     21          6           0        4.862358    1.674900    0.000033
     22          1           0        5.499638    1.560292   -0.880299
     23          1           0        4.471428    2.693015   -0.000336
     24          1           0        5.499148    1.560750    0.880783
     25          6           0       -4.111741   -2.219052   -0.000049
     26          1           0       -4.351011   -3.279647   -0.000081
     27          1           0       -4.533219   -1.749567    0.893334
     28          1           0       -4.533166   -1.749523   -0.893433
     29          6           0       -2.287918    3.872861    0.000048
     30          1           0       -1.670951    4.012712   -0.893005
     31          1           0       -3.092899    4.604263    0.000065
     32          1           0       -1.670949    4.012673    0.893106
 ---------------------------------------------------------------------

 SCF Done:  E(RHF) =  -1123.75229381     A.U. after    2 cycles

 The electronic state is 1-A.
 Alpha  occ. eigenvalues --  -93.54831 -20.60681 -20.60156 -11.32183 -11.31564
 Alpha  occ. eigenvalues --  -11.29861 -11.29729 -11.27201 -11.26112 -11.25914
 Alpha  occ. eigenvalues --  -11.25130 -11.25050 -11.24949 -11.24459 -11.24378
 Alpha  occ. eigenvalues --  -11.23609 -11.23531 -11.23431  -8.84614  -6.18820
 Alpha  occ. eigenvalues --   -6.18687  -6.18212  -1.38228  -1.37527  -1.18857
 Alpha  occ. eigenvalues --   -1.14061  -1.08735  -1.04597  -1.03366  -0.99526
 Alpha  occ. eigenvalues --   -0.98514  -0.95375  -0.93311  -0.90893  -0.85780
 Alpha  occ. eigenvalues --   -0.80716  -0.80293  -0.78728  -0.73371  -0.71314
 Alpha  occ. eigenvalues --   -0.68313  -0.67642  -0.67634  -0.66839  -0.65614
 Alpha  occ. eigenvalues --   -0.64069  -0.62733  -0.62052  -0.59610  -0.58442
 Alpha  occ. eigenvalues --   -0.58116  -0.56181  -0.55624  -0.54478  -0.53778
 Alpha  occ. eigenvalues --   -0.52415  -0.52358  -0.51616  -0.51156  -0.49711
 Alpha  occ. eigenvalues --   -0.49520  -0.46496  -0.45911  -0.41821  -0.37622
 Alpha  occ. eigenvalues --   -0.33446  -0.29922  -0.28024
 Alpha virt. eigenvalues --    0.03005   0.03486   0.03827   0.04442   0.05045
 Alpha virt. eigenvalues --    0.05227   0.05874   0.06008   0.06381   0.06410
 Alpha virt. eigenvalues --    0.07387   0.07852   0.08132   0.08548   0.09140

 Mulliken charges:
               1
     1  C   -0.998160
     2  C   -0.955931
     3  C    1.268714
     4  C   -0.511628
     5  C    1.235611
     6  C    0.580842
     7  H   -0.428375
     8  H   -0.641148
     9  H   -0.532300
    10  C    0.916873
    11  C    1.352754
    12  C   -0.664487
    13  C   -0.877365
    14  H   -0.766859
    15  C   -0.063122
    16  C    1.487432
    17  H   -0.851051
    18  S    0.491012
    19  O   -0.708738
    20  O   -0.666414
    21  C    0.548694
    22  H    0.078844
    23  H   -0.223989
    24  H    0.079029
    25  C    0.933877
    26  H   -0.348788
    27  H   -0.063589
    28  H   -0.063583
    29  C    0.893724
    30  H   -0.067366
    31  H   -0.367150
    32  H   -0.067363
 Sum of Mulliken charges =  -0.00000

 Dipole moment (field-independent basis, Debye):
    X=             -0.0927    Y=              2.3351    Z=              0.0000  Tot=              2.3370

 Test job not archived.
 1\1\GINC-SE338\SP\RHF\Aug-CC-pVDZ\C15H14O2S1\OHZDE\09-Apr-2025\0\\#t h
 f aug-cc-pvdz iop(5/13=1,5/36=2,99/5=2) pseudo=read geom=check guess=(
 read,tcheck) scf=(maxcycle=1)\\title\\0,1\C,0,1.724889,-1.25518,-0.000
 01\C,0,1.397623,0.106163,0.\C,0,2.422339,1.055301,0.\C,0,3.748632,0.66
 2845,-0.000008\C,0,4.047088,-0.708937,-0.000023\C,0,3.054236,-1.667878
 ,-0.000023\H,0,2.176561,2.111535,0.000002\H,0,5.085361,-1.02251,-0.000
 037\H,0,3.307299,-2.721006,-0.000038\C,0,-0.038729,0.31926,0.000004\C,
 0,-0.735205,1.537033,0.000012\C,0,-0.72867,-0.887971,-0.000003\C,0,-2.

 Normal termination of Gaussian 16 at Wed Apr  9 01:30:56 2025.
