 Gaussian 16, Revision C.01,

 ----------------------------------------------------------------------
 #t hf aug-cc-pvdz symm=none int=(grid=ultrafine) guess=(read,tcheck) s
 table=opt
 ----------------------------------------------------------------------
 -----
 title
 -----
 Symbolic Z-matrix:
 Charge =  0 Multiplicity = 2

 SCF Done:  E(UHF) =  -950.901328892     A.U. after   17 cycles
 Normal termination of Gaussian 16 at Wed Apr  9 01:06:34 2025.
 Gaussian 16:  ES64L-G16RevC.01  3-Jul-2019

 ----------------------------------------------------------------------
 #t hf aug-cc-pvdz iop(5/13=1,5/36=2,99/5=2) pseudo=read geom=check gue
 ss=(read,tcheck) scf=(maxcycle=1)
 ----------------------------------------------------------------------
 -----
 title
 -----
 Structure from the checkpoint file:  "BH10_181_reverse_mol2.chk"
 Charge =  0 Multiplicity = 2

                         Standard orientation:
 ---------------------------------------------------------------------
 Center     Atomic      Atomic             Coordinates (Angstroms)
 Number     Number       Type             X           Y           Z
 ---------------------------------------------------------------------
      1          7           0       -0.932927   -0.200224    0.742575
      2         16           0       -0.000908   -1.272426   -0.096452
      3          8           0        1.334627   -0.430338   -0.379956
      4          6           0        2.149793   -0.049525    0.750258
      5          6           0        3.348162    0.696479    0.198080
      6          1           0        2.449275   -0.952539    1.283540
      7          1           0        1.550356    0.583354    1.408555
      8          6           0        2.996844    1.932106   -0.548259
      9          1           0        3.904786    0.003193   -0.450203
     10          1           0        4.013345    0.925706    1.036036
     11          1           0        3.685087    2.765460   -0.589162
     12          6           0       -1.847658    0.788089    0.109495
     13          6           0       -3.045091    0.097772   -0.547003
     14          6           0       -1.076440    1.626614   -0.906413
     15          6           0       -2.317818    1.674647    1.261468
     16          1           0       -2.846764    1.089029    2.018542
     17          1           0       -3.007296    2.433879    0.889057
     18          1           0       -1.472259    2.173585    1.737250
     19          1           0       -2.724355   -0.548043   -1.362900
     20          1           0       -3.736248    0.844955   -0.942891
     21          1           0       -3.586651   -0.509221    0.183049
     22          1           0       -0.718102    1.020116   -1.737957
     23          1           0       -0.223571    2.117409   -0.435374
     24          1           0       -1.737234    2.395812   -1.309527
     25          8           0       -0.518798   -1.542702   -1.411732
     26          8           0        0.300621   -2.332870    0.837923
     27          1           0        2.140100    1.938236   -1.208315
     28          1           0       -1.323813   -0.670359    1.549885
 ---------------------------------------------------------------------

 SCF Done:  E(UHF) =  -951.161145483     A.U. after    2 cycles

 The electronic state is 2-A.
 Alpha  occ. eigenvalues --  -93.84152 -20.62734 -20.56852 -20.56618 -15.66420
 Alpha  occ. eigenvalues --  -11.31152 -11.30354 -11.25125 -11.24824 -11.24351
 Alpha  occ. eigenvalues --  -11.23313 -11.22903  -9.09865  -6.44556  -6.44473
 Alpha  occ. eigenvalues --   -6.44401  -1.47400  -1.35204  -1.32204  -1.21900
 Alpha  occ. eigenvalues --   -1.08164  -1.06831  -0.96069  -0.95153  -0.94600
 Alpha  occ. eigenvalues --   -0.86827  -0.82760  -0.78988  -0.74919  -0.73122
 Alpha  occ. eigenvalues --   -0.69493  -0.67667  -0.66170  -0.63594  -0.62998
 Alpha  occ. eigenvalues --   -0.61999  -0.60516  -0.58265  -0.57874  -0.56710
 Alpha  occ. eigenvalues --   -0.55370  -0.54690  -0.54456  -0.53208  -0.52739
 Alpha  occ. eigenvalues --   -0.51344  -0.50968  -0.50547  -0.49814  -0.49546
 Alpha  occ. eigenvalues --   -0.48230  -0.42459  -0.36612
 Alpha virt. eigenvalues --    0.02778   0.03584   0.03930   0.04620   0.05148
 Alpha virt. eigenvalues --    0.05616   0.05827   0.06823   0.07266   0.07579
 Alpha virt. eigenvalues --    0.07858   0.08352   0.08688   0.10088   0.10166

  Beta  occ. eigenvalues --  -93.84152 -20.62744 -20.56852 -20.56618 -15.66420
  Beta  occ. eigenvalues --  -11.31060 -11.30354 -11.25439 -11.24351 -11.23311
  Beta  occ. eigenvalues --  -11.22902 -11.22385  -9.09864  -6.44556  -6.44471
  Beta  occ. eigenvalues --   -6.44400  -1.47403  -1.35208  -1.32205  -1.21900
  Beta  occ. eigenvalues --   -1.07458  -1.05929  -0.95383  -0.94641  -0.92542
  Beta  occ. eigenvalues --   -0.85951  -0.80467  -0.78077  -0.74818  -0.73082
  Beta  occ. eigenvalues --   -0.69268  -0.67431  -0.66112  -0.63180  -0.62704
  Beta  occ. eigenvalues --   -0.61488  -0.60395  -0.57826  -0.57150  -0.56343
  Beta  occ. eigenvalues --   -0.55228  -0.54318  -0.53709  -0.52948  -0.52654
  Beta  occ. eigenvalues --   -0.51116  -0.50854  -0.50536  -0.49525  -0.49272
  Beta  occ. eigenvalues --   -0.48225  -0.42438
  Beta virt. eigenvalues --    0.02766   0.03604   0.03949   0.04574   0.05139
  Beta virt. eigenvalues --    0.05627   0.05799   0.06835   0.07000   0.07559
  Beta virt. eigenvalues --    0.07796   0.08163   0.08524   0.09067   0.10181

 Mulliken charges and spin densities:
               1          2
     1  N   -0.462496  -0.000409
     2  S    2.863415  -0.000369
     3  O   -0.943116  -0.003757
     4  C    0.686281   0.007021
     5  C    0.204052  -0.229585
     6  H   -0.137127   0.001564
     7  H   -0.237738   0.005083
     8  C    0.638127   1.406235
     9  H   -0.037271   0.043469
    10  H   -0.056292   0.003714
    11  H   -0.276699  -0.113822
    12  C   -3.845449   0.004457
    13  C    1.189115  -0.000310
    14  C    1.353912   0.001359
    15  C    1.457523  -0.000197
    16  H   -0.047838   0.000018
    17  H    0.029194   0.000063
    18  H    0.009046  -0.000395
    19  H    0.006529   0.000027
    20  H    0.063086  -0.000096
    21  H   -0.022246  -0.000010
    22  H   -0.056183   0.001282
    23  H   -0.051591  -0.001502
    24  H    0.010905   0.000458
    25  O   -1.005408  -0.000071
    26  O   -0.960023   0.000070
    27  H   -0.325200  -0.124294
    28  H   -0.046508  -0.000003
 Sum of Mulliken charges =   0.00000   1.00000

 Dipole moment (field-independent basis, Debye):
    X=             -0.3314    Y=              4.4389    Z=              2.5567  Tot=              5.1332
                          Isotropic Fermi Contact Couplings
        Atom                 a.u.       MegaHertz       Gauss      10(-4) cm-1
     1  N(14)             -0.00003      -0.00901      -0.00321      -0.00301
     2  S(33)              0.00103       0.35516       0.12673       0.11847
     3  O(17)             -0.00276       1.67245       0.59677       0.55787
     4  C(13)              0.02174      24.43874       8.72035       8.15189
     5  C(13)             -0.05989     -67.32465     -24.02311     -22.45709
     6  H(1)              -0.00026      -1.15012      -0.41039      -0.38364
     7  H(1)              -0.00085      -3.79299      -1.35343      -1.26520
     8  C(13)              0.21685     243.78375      86.98810      81.31751

 1\1\GINC-SE177\SP\UHF\Aug-CC-pVDZ\C7H16N1O3S1(2)\OHZDE\09-Apr-2025\0\\
 #t hf aug-cc-pvdz iop(5/13=1,5/36=2,99/5=2) pseudo=read geom=check gue
 ss=(read,tcheck) scf=(maxcycle=1)\\title\\0,2\N,0,-0.932927,-0.200224,
 0.742575\S,0,-0.000908,-1.272426,-0.096452\O,0,1.334627,-0.430338,-0.3
 79956\C,0,2.149793,-0.049525,0.750258\C,0,3.348162,0.696479,0.19808\H,
 0,2.449275,-0.952539,1.28354\H,0,1.550356,0.583354,1.408555\C,0,2.9968
 44,1.932106,-0.548259\H,0,3.904786,0.003193,-0.450203\H,0,4.013345,0.9
 25706,1.036036\H,0,3.685087,2.76546,-0.589162\C,0,-1.847658,0.788089,0

 Normal termination of Gaussian 16 at Wed Apr  9 01:07:06 2025.
