 Gaussian 16, Revision C.01,

 ----------------------------------------------------------------------
 #t hf aug-cc-pvdz symm=none int=(grid=ultrafine) guess=(read,tcheck) s
 table=(opt,rrhf)
 ----------------------------------------------------------------------
 -----
 title
 -----
 Symbolic Z-matrix:
 Charge =  0 Multiplicity = 1

 SCF Done:  E(RHF) =  -679.002145294     A.U. after   14 cycles
 Normal termination of Gaussian 16 at Wed Apr  9 01:22:00 2025.
 Gaussian 16:  ES64L-G16RevC.01  3-Jul-2019

 ----------------------------------------------------------------------
 #t hf aug-cc-pvdz iop(5/13=1,5/36=2,99/5=2) pseudo=read geom=check gue
 ss=(read,tcheck) scf=(maxcycle=1)
 ----------------------------------------------------------------------
 -----
 title
 -----
 Structure from the checkpoint file:  "BH10_283_reverse_mol2.chk"
 Charge =  0 Multiplicity = 1

                         Standard orientation:
 ---------------------------------------------------------------------
 Center     Atomic      Atomic             Coordinates (Angstroms)
 Number     Number       Type             X           Y           Z
 ---------------------------------------------------------------------
      1          6           0       -1.423375    0.176396   -1.235980
      2          6           0       -0.607186   -0.363417    1.172000
      3          6           0       -2.770900    0.660153   -0.665494
      4          1           0       -2.731945    1.754266   -0.626435
      5          1           0       -3.582184    0.409750   -1.358598
      6          1           0        0.160111   -0.204320    1.934458
      7          1           0       -1.231404    0.721039   -2.166082
      8          6           0       -1.949988    0.154924    1.725615
      9          1           0       -1.790510    1.186292    2.059114
     10          1           0       -2.226187   -0.412352    2.621550
     11          5           0       -0.275578    0.325582   -0.189059
     12          6           0        0.858447    2.347761    0.077894
     13          6           0        1.119960    0.997687   -0.535100
     14          6           0        0.166461    3.315266   -0.512536
     15          1           0       -0.221773    3.209130   -1.519883
     16          1           0       -0.020690    4.255413   -0.009088
     17          6           0        2.263197    0.282439    0.106291
     18          8           0        2.706517    0.487201    1.206798
     19          8           0        2.723417   -0.698098   -0.693271
     20          6           0        3.777221   -1.498329   -0.151690
     21          1           0        3.445883   -1.999938    0.757750
     22          1           0        4.019985   -2.225055   -0.922468
     23          1           0        4.644907   -0.881150    0.080166
     24          6           0       -0.595783   -1.879485    0.820837
     25          1           0        0.438499   -2.165868    0.597624
     26          1           0       -0.883186   -2.457473    1.705582
     27          6           0       -1.370605   -1.341078   -1.578345
     28          1           0       -0.422362   -1.539746   -2.091745
     29          1           0       -2.159653   -1.576262   -2.300549
     30          6           0       -3.121122    0.134973    0.734182
     31          1           0       -3.523428   -0.875045    0.660359
     32          1           0       -3.936046    0.740833    1.141264
     33          6           0       -1.481325   -2.281818   -0.369026
     34          1           0       -1.206715   -3.292504   -0.685210
     35          1           0       -2.520459   -2.349149   -0.050346
     36          1           0        1.226591    2.472015    1.090902
     37          1           0        1.268969    1.056571   -1.613180
 ---------------------------------------------------------------------

 SCF Done:  E(RHF) =  -679.206282021     A.U. after    2 cycles

 The electronic state is 1-A.
 Alpha  occ. eigenvalues --  -20.61520 -20.55500 -11.38848 -11.29545 -11.25750
 Alpha  occ. eigenvalues --  -11.24131 -11.23321 -11.23126 -11.22995 -11.22428
 Alpha  occ. eigenvalues --  -11.22385 -11.22248 -11.21962 -11.20431 -11.20011
 Alpha  occ. eigenvalues --   -7.59506  -1.42114  -1.32323  -1.11013  -1.08385
 Alpha  occ. eigenvalues --   -1.03381  -1.01818  -1.00543  -0.94471  -0.92136
 Alpha  occ. eigenvalues --   -0.91134  -0.79952  -0.79272  -0.78668  -0.76225
 Alpha  occ. eigenvalues --   -0.74837  -0.71534  -0.69285  -0.68863  -0.67055
 Alpha  occ. eigenvalues --   -0.64629  -0.62815  -0.60733  -0.59817  -0.59258
 Alpha  occ. eigenvalues --   -0.58586  -0.57892  -0.57180  -0.56382  -0.54604
 Alpha  occ. eigenvalues --   -0.54062  -0.53609  -0.50847  -0.50417  -0.48502
 Alpha  occ. eigenvalues --   -0.48277  -0.47938  -0.47567  -0.47167  -0.46326
 Alpha  occ. eigenvalues --   -0.45900  -0.42298  -0.40978  -0.38908  -0.36183
 Alpha virt. eigenvalues --    0.02774   0.03570   0.04015   0.04164   0.05063
 Alpha virt. eigenvalues --    0.05425   0.05531   0.05748   0.05899   0.07058
 Alpha virt. eigenvalues --    0.07085   0.07296   0.07694   0.07997   0.08260

 Mulliken charges:
               1
     1  C   -0.308540
     2  C   -0.233040
     3  C    0.727761
     4  H   -0.040493
     5  H   -0.147021
     6  H   -0.387842
     7  H   -0.513311
     8  C    0.602958
     9  H   -0.102564
    10  H   -0.138863
    11  B   -0.903798
    12  C    0.481456
    13  C    0.566142
    14  C    1.145061
    15  H   -0.343083
    16  H   -0.377685
    17  C    0.334523
    18  O   -0.496906
    19  O   -0.614567
    20  C    0.877090
    21  H   -0.087949
    22  H   -0.269465
    23  H   -0.115635
    24  C    0.876715
    25  H   -0.134986
    26  H   -0.170864
    27  C    0.772638
    28  H   -0.023130
    29  H   -0.201054
    30  C    0.261049
    31  H   -0.104781
    32  H   -0.162080
    33  C    0.234548
    34  H   -0.180312
    35  H   -0.094813
    36  H   -0.498775
    37  H   -0.228382
 Sum of Mulliken charges =   0.00000

 Dipole moment (field-independent basis, Debye):
    X=             -0.7096    Y=             -0.8663    Z=             -1.5831  Tot=              1.9391

 Test job not archived.
 1\1\GINC-SE099\SP\RHF\Aug-CC-pVDZ\C13H21B1O2\OHZDE\09-Apr-2025\0\\#t h
 f aug-cc-pvdz iop(5/13=1,5/36=2,99/5=2) pseudo=read geom=check guess=(
 read,tcheck) scf=(maxcycle=1)\\title\\0,1\C,0,-1.423375,0.176396,-1.23
 598\C,0,-0.607186,-0.363417,1.172\C,0,-2.7709,0.660153,-0.665494\H,0,-
 2.731945,1.754266,-0.626435\H,0,-3.582184,0.40975,-1.358598\H,0,0.1601
 11,-0.20432,1.934458\H,0,-1.231404,0.721039,-2.166082\C,0,-1.949988,0.
 154924,1.725615\H,0,-1.79051,1.186292,2.059114\H,0,-2.226187,-0.412352
 ,2.62155\B,0,-0.275578,0.325582,-0.189059\C,0,0.858447,2.347761,0.0778

 Normal termination of Gaussian 16 at Wed Apr  9 01:23:06 2025.
