 Gaussian 16, Revision C.01,

 ----------------------------------------------------------------------
 #t hf aug-cc-pvdz symm=none int=(grid=ultrafine) guess=(read,tcheck) s
 table=(opt,rrhf)
 ----------------------------------------------------------------------
 -----
 title
 -----
 Symbolic Z-matrix:
 Charge =  0 Multiplicity = 1

 SCF Done:  E(RHF) =  -575.774851146     A.U. after   14 cycles
 Normal termination of Gaussian 16 at Wed Apr  9 00:57:27 2025.
 Gaussian 16:  ES64L-G16RevC.01  3-Jul-2019

 ----------------------------------------------------------------------
 #t hf aug-cc-pvdz iop(5/13=1,5/36=2,99/5=2) pseudo=read geom=check gue
 ss=(read,tcheck) scf=(maxcycle=1)
 ----------------------------------------------------------------------
 -----
 title
 -----
 Structure from the checkpoint file:  "BH10_140_forward_mol2.chk"
 Charge =  0 Multiplicity = 1

                         Standard orientation:
 ---------------------------------------------------------------------
 Center     Atomic      Atomic             Coordinates (Angstroms)
 Number     Number       Type             X           Y           Z
 ---------------------------------------------------------------------
      1          6           0        2.563204    0.729675    0.274361
      2          6           0        1.662325   -0.235878    1.009686
      3          6           0        1.034566   -1.306913    0.118990
      4          6           0        0.022372   -0.794387   -0.900664
      5          7           0       -1.169850   -0.196366   -0.276965
      6          6           0       -2.156490   -1.056632    0.169205
      7          8           0       -2.084600   -2.254625    0.078535
      8          6           0       -1.268007    1.194963   -0.180708
      9          8           0       -0.369537    1.897663   -0.580308
     10          6           0       -2.513528    1.790388    0.430781
     11          1           0        0.888500    0.349581    1.517141
     12          1           0        2.244735   -0.724483    1.795369
     13          1           0        0.550299   -2.063113    0.740079
     14          1           0        1.827358   -1.818610   -0.432249
     15          1           0       -0.326532   -1.624238   -1.512990
     16          1           0        0.452031   -0.036327   -1.550314
     17          1           0       -3.022766   -0.556849    0.618201
     18          1           0       -2.647391    1.469274    1.465060
     19          1           0       -3.408576    1.518123   -0.130395
     20          1           0       -2.393670    2.870172    0.407250
     21          1           0        3.013690    1.451119    0.958481
     22          1           0        2.038022    1.266172   -0.515222
     23          9           0        3.615522    0.022459   -0.326375
 ---------------------------------------------------------------------

 SCF Done:  E(RHF) =  -575.959315321     A.U. after    2 cycles

 The electronic state is 1-A.
 Alpha  occ. eigenvalues --  -26.08946 -20.57698 -20.57477 -15.69156 -11.40087
 Alpha  occ. eigenvalues --  -11.39208 -11.30723 -11.28040 -11.27513 -11.23898
 Alpha  occ. eigenvalues --  -11.23635  -1.61954  -1.39759  -1.38189  -1.24038
 Alpha  occ. eigenvalues --   -1.08448  -1.03854  -0.98935  -0.91369  -0.89143
 Alpha  occ. eigenvalues --   -0.82287  -0.78128  -0.73862  -0.73109  -0.72519
 Alpha  occ. eigenvalues --   -0.69989  -0.68224  -0.67183  -0.65366  -0.63332
 Alpha  occ. eigenvalues --   -0.62383  -0.61384  -0.59119  -0.58011  -0.55877
 Alpha  occ. eigenvalues --   -0.54700  -0.54585  -0.50900  -0.48915  -0.48312
 Alpha  occ. eigenvalues --   -0.47400  -0.46825  -0.42024
 Alpha virt. eigenvalues --    0.02385   0.03686   0.04245   0.04344   0.05445
 Alpha virt. eigenvalues --    0.05969   0.06557   0.07147   0.07267   0.08244
 Alpha virt. eigenvalues --    0.08708   0.09879   0.09949   0.10323   0.11705

 Mulliken charges:
               1
     1  C    0.820810
     2  C    0.181461
     3  C    0.123051
     4  C    0.757247
     5  N   -0.134271
     6  C    0.591178
     7  O   -0.459327
     8  C    0.090835
     9  O   -0.516262
    10  C    0.403249
    11  H   -0.048092
    12  H   -0.119916
    13  H   -0.126030
    14  H   -0.059505
    15  H   -0.151937
    16  H   -0.285515
    17  H   -0.318738
    18  H    0.092794
    19  H    0.080904
    20  H   -0.166653
    21  H   -0.151600
    22  H   -0.144081
    23  F   -0.459602
 Sum of Mulliken charges =  -0.00000

 Dipole moment (field-independent basis, Debye):
    X=             -3.8209    Y=              2.2824    Z=              1.9505  Tot=              4.8594

 Test job not archived.
 1\1\GINC-SE454\SP\RHF\Aug-CC-pVDZ\C7H12F1N1O2\OHZDE\09-Apr-2025\0\\#t
 hf aug-cc-pvdz iop(5/13=1,5/36=2,99/5=2) pseudo=read geom=check guess=
 (read,tcheck) scf=(maxcycle=1)\\title\\0,1\C,0,2.563204,0.729675,0.274
 361\C,0,1.662325,-0.235878,1.009686\C,0,1.034566,-1.306913,0.11899\C,0
 ,0.022372,-0.794387,-0.900664\N,0,-1.16985,-0.196366,-0.276965\C,0,-2.
 15649,-1.056632,0.169205\O,0,-2.0846,-2.254625,0.078535\C,0,-1.268007,
 1.194963,-0.180708\O,0,-0.369537,1.897663,-0.580308\C,0,-2.513528,1.79
 0388,0.430781\H,0,0.8885,0.349581,1.517141\H,0,2.244735,-0.724483,1.79

 Normal termination of Gaussian 16 at Wed Apr  9 00:57:43 2025.
