 Gaussian 16, Revision C.01,

 ----------------------------------------------------------------------
 #t hf aug-cc-pvdz symm=none int=(grid=ultrafine) guess=(read,tcheck) s
 table=(opt,rrhf)
 ----------------------------------------------------------------------
 -----
 title
 -----
 Symbolic Z-matrix:
 Charge =  0 Multiplicity = 1

 SCF Done:  E(RHF) =  -482.545365443     A.U. after   15 cycles
 Normal termination of Gaussian 16 at Wed Apr  9 00:58:22 2025.
 Gaussian 16:  ES64L-G16RevC.01  3-Jul-2019

 ----------------------------------------------------------------------
 #t hf aug-cc-pvdz iop(5/13=1,5/36=2,99/5=2) pseudo=read geom=check gue
 ss=(read,tcheck) scf=(maxcycle=1)
 ----------------------------------------------------------------------
 -----
 title
 -----
 Structure from the checkpoint file:  "BH10_205_forward_mol3.chk"
 Charge =  0 Multiplicity = 1

                         Standard orientation:
 ---------------------------------------------------------------------
 Center     Atomic      Atomic             Coordinates (Angstroms)
 Number     Number       Type             X           Y           Z
 ---------------------------------------------------------------------
      1          6           0       -1.021818   -1.220907   -0.000050
      2          6           0        0.370246   -1.205798   -0.000014
      3          6           0        1.022699    0.025927    0.000029
      4          6           0        0.322956    1.233059    0.000035
      5          6           0       -1.065095    1.191214   -0.000005
      6          6           0       -1.708576   -0.028498   -0.000046
      7          1           0       -1.568770   -2.155117   -0.000083
      8          1           0       -1.647952    2.103553   -0.000001
      9          9           0       -3.062186   -0.053382   -0.000082
     10          8           0        2.389320    0.118261    0.000060
     11          1           0        2.783409   -0.757435    0.000120
     12          6           0        1.076221    2.530558    0.000079
     13          1           0        0.390675    3.377747    0.000131
     14          1           0        1.724060    2.605177    0.876132
     15          1           0        1.724023    2.605259   -0.875995
     16          6           0        1.160416   -2.485426   -0.000023
     17          1           0        1.799703   -2.567881    0.885351
     18          1           0        0.497947   -3.349877   -0.000043
     19          1           0        1.799724   -2.567852   -0.885383
 ---------------------------------------------------------------------

 SCF Done:  E(RHF) =  -482.697991921     A.U. after    2 cycles

 The electronic state is 1-A.
 Alpha  occ. eigenvalues --  -26.12452 -20.60514 -11.32587 -11.30453 -11.26031
 Alpha  occ. eigenvalues --  -11.25508 -11.25451 -11.24738 -11.24536 -11.23341
 Alpha  occ. eigenvalues --   -1.66248  -1.36974  -1.15919  -1.06996  -1.03165
 Alpha  occ. eigenvalues --   -0.95670  -0.94342  -0.85857  -0.82763  -0.77124
 Alpha  occ. eigenvalues --   -0.74041  -0.73920  -0.72949  -0.66763  -0.62784
 Alpha  occ. eigenvalues --   -0.61316  -0.59645  -0.58795  -0.58523  -0.57589
 Alpha  occ. eigenvalues --   -0.56095  -0.54541  -0.53297  -0.49863  -0.48526
 Alpha  occ. eigenvalues --   -0.34253  -0.31785
 Alpha virt. eigenvalues --    0.02926   0.03896   0.04401   0.05153   0.05538
 Alpha virt. eigenvalues --    0.05894   0.06816   0.07728   0.08214   0.09979
 Alpha virt. eigenvalues --    0.10862   0.11620   0.12268   0.12334   0.13207

 Mulliken charges:
               1
     1  C    0.576838
     2  C    0.362166
     3  C   -0.136940
     4  C   -0.402270
     5  C    0.721129
     6  C   -0.106375
     7  H   -0.555615
     8  H   -0.548074
     9  F   -0.337133
    10  O   -0.640993
    11  H    0.128491
    12  C    0.517581
    13  H   -0.193403
    14  H    0.113407
    15  H    0.113420
    16  C    0.287368
    17  H    0.170553
    18  H   -0.240700
    19  H    0.170551
 Sum of Mulliken charges =  -0.00000

 Dipole moment (field-independent basis, Debye):
    X=              2.2940    Y=             -1.4582    Z=              0.0001  Tot=              2.7182

 Test job not archived.
 1\1\GINC-SE412\SP\RHF\Aug-CC-pVDZ\C8H9F1O1\OHZDE\09-Apr-2025\0\\#t hf
 aug-cc-pvdz iop(5/13=1,5/36=2,99/5=2) pseudo=read geom=check guess=(re
 ad,tcheck) scf=(maxcycle=1)\\title\\0,1\C,0,1.021818,-1.220907,0.00005
 \C,0,-0.370246,-1.205798,0.000014\C,0,-1.022699,0.025927,-0.000029\C,0
 ,-0.322956,1.233059,-0.000035\C,0,1.065095,1.191214,0.000005\C,0,1.708
 576,-0.028498,0.000046\H,0,1.568769,-2.155117,0.000083\H,0,1.647953,2.
 103553,0.000001\F,0,3.062186,-0.053383,0.000082\O,0,-2.38932,0.118262,
 -0.00006\H,0,-2.783409,-0.757434,-0.00012\C,0,-1.07622,2.530558,-0.000

 Normal termination of Gaussian 16 at Wed Apr  9 00:58:32 2025.
