 Gaussian 16, Revision C.01,

 ----------------------------------------------------------------------
 #t hf aug-cc-pvdz symm=none int=(grid=ultrafine) guess=(read,tcheck) s
 table=(opt,rrhf)
 ----------------------------------------------------------------------
 -----
 title
 -----
 Symbolic Z-matrix:
 Charge =  1 Multiplicity = 1

 SCF Done:  E(RHF) =  -730.113031817     A.U. after   16 cycles
 Normal termination of Gaussian 16 at Wed Apr  9 01:03:32 2025.
 Gaussian 16:  ES64L-G16RevC.01  3-Jul-2019

 ----------------------------------------------------------------------
 #t hf aug-cc-pvdz iop(5/13=1,5/36=2,99/5=2) pseudo=read geom=check gue
 ss=(read,tcheck) scf=(maxcycle=1)
 ----------------------------------------------------------------------
 -----
 title
 -----
 Structure from the checkpoint file:  "BH10_267_reverse_mol2.chk"
 Charge =  1 Multiplicity = 1

                         Standard orientation:
 ---------------------------------------------------------------------
 Center     Atomic      Atomic             Coordinates (Angstroms)
 Number     Number       Type             X           Y           Z
 ---------------------------------------------------------------------
      1          6           0       -2.375677    1.221038    0.000211
      2          6           0       -3.756506    1.210191    0.000151
      3          6           0       -4.442594    0.000101    0.000123
      4          6           0       -3.758683   -1.211205    0.000153
      5          6           0       -2.377862   -1.224512    0.000223
      6          6           0       -1.692664   -0.002367    0.000274
      7          1           0       -1.828303    2.154740    0.000238
      8          1           0       -4.301392    2.144944    0.000113
      9          1           0       -5.525544    0.001073    0.000069
     10          1           0       -4.305247   -2.144969    0.000124
     11          1           0       -1.832226   -2.159207    0.000243
     12          6           0       -0.283384   -0.003410    0.000401
     13          7           0        0.865286   -0.003691    0.000446
     14         14           0        2.728636    0.000191   -0.000030
     15          6           0        3.146979   -0.814678    1.606683
     16          1           0        2.765603   -1.836276    1.656250
     17          1           0        4.233734   -0.865843    1.716400
     18          1           0        2.757432   -0.255838    2.459514
     19          6           0        3.144478   -0.981034   -1.511624
     20          1           0        2.753911   -0.515857   -2.418514
     21          1           0        4.231074   -1.043979   -1.616657
     22          1           0        2.762992   -2.002046   -1.451735
     23          6           0        3.122459    1.805039   -0.096409
     24          1           0        2.732563    2.353224    0.763235
     25          1           0        4.207607    1.939239   -0.104622
     26          1           0        2.730613    2.258998   -1.008475
 ---------------------------------------------------------------------

 SCF Done:  E(RHF) =  -730.277909557     A.U. after    2 cycles

 The electronic state is 1-A.
 Alpha  occ. eigenvalues --  -69.23379 -15.85230 -11.53230 -11.43713 -11.41921
 Alpha  occ. eigenvalues --  -11.41917 -11.40437 -11.39107 -11.39104 -11.34657
 Alpha  occ. eigenvalues --  -11.34575 -11.34563  -6.98344  -4.09279  -4.08986
 Alpha  occ. eigenvalues --   -4.08981  -1.42689  -1.31636  -1.20261  -1.17547
 Alpha  occ. eigenvalues --   -1.10837  -1.06029  -1.05964  -1.04001  -0.99254
 Alpha  occ. eigenvalues --   -0.93919  -0.89782  -0.83273  -0.80607  -0.76439
 Alpha  occ. eigenvalues --   -0.75474  -0.74945  -0.72718  -0.71888  -0.70255
 Alpha  occ. eigenvalues --   -0.69759  -0.68015  -0.67701  -0.67499  -0.67047
 Alpha  occ. eigenvalues --   -0.66906  -0.65462  -0.65304  -0.58227  -0.58131
 Alpha  occ. eigenvalues --   -0.50392  -0.49736
 Alpha virt. eigenvalues --   -0.09187  -0.07006  -0.05636  -0.05140  -0.04617
 Alpha virt. eigenvalues --   -0.03753  -0.03508  -0.03116  -0.02615  -0.02371
 Alpha virt. eigenvalues --   -0.01722  -0.01664  -0.01351  -0.01127  -0.01012

 Mulliken charges:
               1
     1  C    0.587091
     2  C    0.283319
     3  C    0.606173
     4  C    0.245184
     5  C    0.668139
     6  C    1.724618
     7  H   -0.512085
     8  H   -0.409311
     9  H   -0.399004
    10  H   -0.413972
    11  H   -0.513286
    12  C   -1.880821
    13  N   -0.093081
    14  Si   1.725717
    15  C    0.519591
    16  H   -0.252391
    17  H   -0.238941
    18  H   -0.235532
    19  C    0.521019
    20  H   -0.236211
    21  H   -0.236749
    22  H   -0.253970
    23  C    0.515610
    24  H   -0.233909
    25  H   -0.251689
    26  H   -0.235508
 Sum of Mulliken charges =   1.00000

 Dipole moment (field-independent basis, Debye):
    X=             -0.5986    Y=              0.0021    Z=             -0.0007  Tot=              0.5986

 Test job not archived.
 1\1\GINC-SE049\SP\RHF\Aug-CC-pVDZ\C10H14N1Si1(1+)\OHZDE\09-Apr-2025\0\
 \#t hf aug-cc-pvdz iop(5/13=1,5/36=2,99/5=2) pseudo=read geom=check gu
 ess=(read,tcheck) scf=(maxcycle=1)\\title\\1,1\C,0,2.37557,1.21093,-0.
 15906\C,0,3.7564,1.20031,-0.1576\C,0,4.4426,0.00055,-0.00031\C,0,3.758
 8,-1.20055,0.15709\C,0,2.37798,-1.21388,0.15876\C,0,1.69267,-0.00217,-
 0.00012\H,0,1.82811,2.13666,-0.28043\H,0,4.3012,2.12719,-0.27905\H,0,5
 .52555,0.00162,-0.00039\H,0,4.30545,-2.12634,0.27847\H,0,1.83243,-2.14
 07,0.28022\C,0,0.28339,-0.00335,-0.0001\N,0,-0.86528,-0.00374,-0.0001\

 Normal termination of Gaussian 16 at Wed Apr  9 01:03:55 2025.
