 Gaussian 16, Revision C.01,

 ----------------------------------------------------------------------
 #t hf aug-cc-pvdz symm=none int=(grid=ultrafine) guess=(read,tcheck) s
 table=(opt,rrhf)
 ----------------------------------------------------------------------
 -----
 title
 -----
 Symbolic Z-matrix:
 Charge =  0 Multiplicity = 1

 SCF Done:  E(RHF) =  -1135.59342989     A.U. after   13 cycles
 Normal termination of Gaussian 16 at Wed Apr  9 01:16:09 2025.
 Gaussian 16:  ES64L-G16RevC.01  3-Jul-2019

 ----------------------------------------------------------------------
 #t hf aug-cc-pvdz iop(5/13=1,5/36=2,99/5=2) pseudo=read geom=check gue
 ss=(read,tcheck) scf=(maxcycle=1)
 ----------------------------------------------------------------------
 -----
 title
 -----
 Structure from the checkpoint file:  "BH10_326_reverse_mol2.chk"
 Charge =  0 Multiplicity = 1

                         Standard orientation:
 ---------------------------------------------------------------------
 Center     Atomic      Atomic             Coordinates (Angstroms)
 Number     Number       Type             X           Y           Z
 ---------------------------------------------------------------------
      1          6           0        0.112654   -0.631063   -0.507512
      2          6           0       -1.012663   -1.464056    0.057494
      3          8           0       -0.397333    0.679659   -0.589966
      4          6           0       -1.675189   -0.491743    1.061728
      5          6           0       -1.288429    0.915878    0.528983
      6          6           0       -2.437357    1.751323    0.011515
      7          1           0       -0.742141    1.480074    1.289172
      8          8           0        1.185504   -0.686443    0.421506
      9         15           0        2.573969    0.101351    0.159836
     10          8           0        3.558557   -0.108968    1.215008
     11          8           0        2.124771    1.599479   -0.103366
     12          8           0        3.011073   -0.413059   -1.301136
     13          8           0       -3.255349    1.021004   -0.890754
     14          1           0       -2.043289    2.655214   -0.462421
     15          1           0       -3.078920    2.050306    0.840693
     16          1           0       -2.694876    0.643309   -1.579994
     17          8           0       -3.054724   -0.719700    1.197251
     18          1           0       -1.236532   -0.643126    2.046518
     19          1           0       -3.499963   -0.310061    0.437426
     20          8           0       -1.876926   -1.763167   -1.014571
     21          1           0       -0.635330   -2.368215    0.537745
     22          1           0       -2.686796   -2.131286   -0.643752
     23          1           0        1.223851    1.667041   -0.468823
     24          1           0        3.782678   -0.989189   -1.277043
     25          1           0        0.443088   -0.926810   -1.502075
 ---------------------------------------------------------------------

 SCF Done:  E(RHF) =  -1135.91498316     A.U. after    2 cycles

 The electronic state is 1-A.
 Alpha  occ. eigenvalues --  -81.45532 -20.62919 -20.62562 -20.62388 -20.61543
 Alpha  occ. eigenvalues --  -20.60531 -20.60474 -20.59190 -20.53258 -11.38993
 Alpha  occ. eigenvalues --  -11.32944 -11.32218 -11.32144 -11.31839  -7.93385
 Alpha  occ. eigenvalues --   -5.08090  -5.08008  -5.07947  -1.44033  -1.39332
 Alpha  occ. eigenvalues --   -1.37045  -1.35971  -1.35402  -1.34607  -1.33650
 Alpha  occ. eigenvalues --   -1.26851  -1.06851  -1.05804  -0.95192  -0.87055
 Alpha  occ. eigenvalues --   -0.85807  -0.84526  -0.79315  -0.78947  -0.77141
 Alpha  occ. eigenvalues --   -0.74389  -0.72458  -0.71775  -0.69943  -0.68007
 Alpha  occ. eigenvalues --   -0.67404  -0.66369  -0.64993  -0.63503  -0.62372
 Alpha  occ. eigenvalues --   -0.61408  -0.61054  -0.58684  -0.58544  -0.57675
 Alpha  occ. eigenvalues --   -0.55735  -0.55063  -0.54892  -0.53431  -0.51205
 Alpha  occ. eigenvalues --   -0.50820  -0.50290  -0.49766  -0.47708  -0.45666
 Alpha virt. eigenvalues --    0.02879   0.03708   0.04099   0.04257   0.05195
 Alpha virt. eigenvalues --    0.05655   0.06057   0.06358   0.07481   0.08053
 Alpha virt. eigenvalues --    0.08861   0.10203   0.10577   0.11567   0.12482

 Mulliken charges:
               1
     1  C    0.892366
     2  C    0.841041
     3  O   -0.906157
     4  C    0.338100
     5  C    0.250738
     6  C    1.148156
     7  H   -0.190557
     8  O   -1.021190
     9  P    2.495374
    10  O   -0.826738
    11  O   -0.641817
    12  O   -0.739289
    13  O   -0.626282
    14  H   -0.134217
    15  H   -0.095188
    16  H    0.250512
    17  O   -0.584089
    18  H   -0.143050
    19  H    0.182651
    20  O   -0.672005
    21  H   -0.147801
    22  H    0.211266
    23  H    0.224171
    24  H    0.181658
    25  H   -0.287652
 Sum of Mulliken charges =  -0.00000

 Dipole moment (field-independent basis, Debye):
    X=             -2.7776    Y=             -0.4673    Z=             -2.3125  Tot=              3.6443

 Test job not archived.
 1\1\GINC-SE338\SP\RHF\Aug-CC-pVDZ\C5H11O8P1\OHZDE\09-Apr-2025\0\\#t hf
  aug-cc-pvdz iop(5/13=1,5/36=2,99/5=2) pseudo=read geom=check guess=(r
 ead,tcheck) scf=(maxcycle=1)\\title\\0,1\C,0,0.112654,-0.631063,-0.507
 512\C,0,-1.012663,-1.464056,0.057494\O,0,-0.397333,0.679659,-0.589966\
 C,0,-1.675189,-0.491743,1.061728\C,0,-1.288429,0.915878,0.528983\C,0,-
 2.437357,1.751323,0.011515\H,0,-0.742141,1.480074,1.289172\O,0,1.18550
 4,-0.686443,0.421506\P,0,2.573969,0.101351,0.159836\O,0,3.558557,-0.10
 8968,1.215008\O,0,2.124771,1.599479,-0.103366\O,0,3.011073,-0.413059,-

 Normal termination of Gaussian 16 at Wed Apr  9 01:16:30 2025.
