 Gaussian 16, Revision C.01,

 ----------------------------------------------------------------------
 #t hf aug-cc-pvdz symm=none int=(grid=ultrafine) guess=(read,tcheck) s
 table=(opt,rrhf)
 ----------------------------------------------------------------------
 -----
 title
 -----
 Symbolic Z-matrix:
 Charge =  0 Multiplicity = 1

 SCF Done:  E(RHF) =  -857.025003874     A.U. after   16 cycles
 Normal termination of Gaussian 16 at Wed Apr  9 01:35:32 2025.
 Gaussian 16:  ES64L-G16RevC.01  3-Jul-2019

 ----------------------------------------------------------------------
 #t hf aug-cc-pvdz iop(5/13=1,5/36=2,99/5=2) pseudo=read geom=check gue
 ss=(read,tcheck) scf=(maxcycle=1)
 ----------------------------------------------------------------------
 -----
 title
 -----
 Structure from the checkpoint file:  "BH10_413_forward_mol1.chk"
 Charge =  0 Multiplicity = 1

                         Standard orientation:
 ---------------------------------------------------------------------
 Center     Atomic      Atomic             Coordinates (Angstroms)
 Number     Number       Type             X           Y           Z
 ---------------------------------------------------------------------
      1         16           0       -1.487164   -0.027807    0.117394
      2          6           0       -0.661079   -1.401508   -0.787652
      3          6           0        0.544624   -2.085203   -0.112238
      4          6           0        1.490629   -1.027353    0.353401
      5          6           0        1.530142    1.063353   -0.399592
      6          6           0        0.517544    2.073265    0.042720
      7          6           0       -0.860178    1.604970   -0.431734
      8          6           0        2.811755   -0.689543    0.048022
      9          6           0        2.819900    0.720267    0.016906
     10          1           0        1.192147    0.513398   -1.266513
     11          1           0        1.049523   -0.456585    1.155410
     12          8           0       -1.225618   -0.168211    1.547975
     13          8           0       -2.860599   -0.048511   -0.381383
     14          1           0       -1.494688   -2.092671   -0.919310
     15          1           0       -0.405722   -0.998325   -1.768115
     16          1           0        0.987578   -2.767526   -0.841505
     17          1           0        0.181139   -2.673911    0.733738
     18          1           0        0.688453    3.067245   -0.388131
     19          1           0        0.525050    2.189502    1.128218
     20          1           0       -0.924465    1.577275   -1.521063
     21          1           0       -1.662824    2.249526   -0.069929
     22          1           0        3.606972   -1.378000   -0.217446
     23          1           0        3.581171    1.399272    0.384597
 ---------------------------------------------------------------------

 SCF Done:  E(RHF) =  -857.231622034     A.U. after    2 cycles

 The electronic state is 1-A.
 Alpha  occ. eigenvalues --  -93.77523 -20.55432 -20.55008 -11.29832 -11.29621
 Alpha  occ. eigenvalues --  -11.27222 -11.26923 -11.26784 -11.26678 -11.24492
 Alpha  occ. eigenvalues --  -11.24390  -9.04286  -6.38904  -6.38698  -6.38617
 Alpha  occ. eigenvalues --   -1.40701  -1.29440  -1.14523  -1.09025  -1.07802
 Alpha  occ. eigenvalues --   -0.96566  -0.95906  -0.86104  -0.83907  -0.78789
 Alpha  occ. eigenvalues --   -0.74893  -0.70238  -0.68745  -0.66709  -0.65582
 Alpha  occ. eigenvalues --   -0.63656  -0.62435  -0.62176  -0.60731  -0.58604
 Alpha  occ. eigenvalues --   -0.56301  -0.55114  -0.53595  -0.52996  -0.51878
 Alpha  occ. eigenvalues --   -0.50435  -0.49114  -0.48114  -0.43971  -0.34463
 Alpha  occ. eigenvalues --   -0.32839
 Alpha virt. eigenvalues --    0.02869   0.03476   0.03759   0.04580   0.05209
 Alpha virt. eigenvalues --    0.05934   0.05973   0.06446   0.07395   0.07794
 Alpha virt. eigenvalues --    0.08456   0.09074   0.09885   0.10811   0.11731

 Mulliken charges:
               1
     1  S    2.549185
     2  C   -0.173091
     3  C    0.197708
     4  C   -0.041865
     5  C   -0.202809
     6  C    0.260415
     7  C   -0.050429
     8  C    0.520856
     9  C    0.642614
    10  H   -0.355517
    11  H   -0.181120
    12  O   -1.244318
    13  O   -1.156720
    14  H   -0.035887
    15  H   -0.075996
    16  H   -0.016660
    17  H    0.017690
    18  H    0.024893
    19  H    0.002405
    20  H   -0.000718
    21  H   -0.030807
    22  H   -0.323298
    23  H   -0.326529
 Sum of Mulliken charges =  -0.00000

 Dipole moment (field-independent basis, Debye):
    X=              3.4434    Y=              0.5310    Z=             -3.0093  Tot=              4.6038

 Test job not archived.
 1\1\GINC-SE071\SP\RHF\Aug-CC-pVDZ\C8H12O2S1\OHZDE\09-Apr-2025\0\\#t hf
  aug-cc-pvdz iop(5/13=1,5/36=2,99/5=2) pseudo=read geom=check guess=(r
 ead,tcheck) scf=(maxcycle=1)\\title\\0,1\S,0,-1.487164,-0.027807,0.117
 394\C,0,-0.661079,-1.401508,-0.787652\C,0,0.544624,-2.085203,-0.112238
 \C,0,1.490629,-1.027353,0.353401\C,0,1.530142,1.063353,-0.399592\C,0,0
 .517544,2.073265,0.04272\C,0,-0.860178,1.60497,-0.431734\C,0,2.811755,
 -0.689543,0.048022\C,0,2.8199,0.720267,0.016906\H,0,1.192147,0.513398,
 -1.266513\H,0,1.049523,-0.456585,1.15541\O,0,-1.225618,-0.168211,1.547

 Normal termination of Gaussian 16 at Wed Apr  9 01:35:51 2025.
