 Gaussian 16, Revision C.01,

 ----------------------------------------------------------------------
 #t hf aug-cc-pvdz symm=none int=(grid=ultrafine) guess=(read,tcheck) s
 table=(opt,rrhf)
 ----------------------------------------------------------------------
 -----
 title
 -----
 Symbolic Z-matrix:
 Charge =  0 Multiplicity = 1

 SCF Done:  E(RHF) =  -1081.86081087     A.U. after   15 cycles
 Normal termination of Gaussian 16 at Wed Apr  9 01:49:54 2025.
 Gaussian 16:  ES64L-G16RevC.01  3-Jul-2019

 ----------------------------------------------------------------------
 #t hf aug-cc-pvdz iop(5/13=1,5/36=2,99/5=2) pseudo=read geom=check gue
 ss=(read,tcheck) scf=(maxcycle=1)
 ----------------------------------------------------------------------
 -----
 title
 -----
 Structure from the checkpoint file:  "BH10_88_forward_mol2.chk"
 Charge =  0 Multiplicity = 1

                         Standard orientation:
 ---------------------------------------------------------------------
 Center     Atomic      Atomic             Coordinates (Angstroms)
 Number     Number       Type             X           Y           Z
 ---------------------------------------------------------------------
      1          6           0        0.328236    0.031571   -0.684939
      2          6           0        0.204217    1.317206    0.079176
      3          6           0       -0.652414   -0.860385   -0.763571
      4          6           0       -1.948867   -0.656596   -0.083147
      5          8           0       -2.776958   -1.679638   -0.321638
      6          8           0       -2.238327    0.292913    0.599845
      7          8           0        0.687654    1.475449    1.174116
      8          8           0       -0.406519    2.259253   -0.614997
      9          6           0       -0.613594    3.504239    0.068240
     10          6           0       -4.063263   -1.596579    0.301328
     11         16           0        1.927449   -0.221347   -1.429420
     12          6           0        2.620581   -1.553613   -0.380608
     13          6           0        3.006648   -1.140877    1.033076
     14          8           0        1.903045   -0.981061    1.887698
     15          1           0       -1.094591    4.155098   -0.655855
     16          1           0        0.339147    3.919839    0.393326
     17          1           0       -1.258291    3.339888    0.930731
     18          1           0       -3.954534   -1.539296    1.383988
     19          1           0       -4.586288   -2.504354    0.014272
     20          1           0       -4.597910   -0.715337   -0.052326
     21          1           0        3.508163   -1.870881   -0.933398
     22          1           0        1.918411   -2.386831   -0.354745
     23          1           0        3.626222   -0.237647    0.999186
     24          1           0        3.615762   -1.945961    1.455200
     25          1           0        1.525629   -0.093355    1.783256
     26          1           0       -0.521318   -1.784741   -1.310440
 ---------------------------------------------------------------------

 SCF Done:  E(RHF) =  -1082.09899693     A.U. after    2 cycles

 The electronic state is 1-A.
 Alpha  occ. eigenvalues --  -93.55428 -20.63083 -20.63007 -20.57528 -20.57101
 Alpha  occ. eigenvalues --  -20.55069 -11.41728 -11.40878 -11.31768 -11.30471
 Alpha  occ. eigenvalues --  -11.30140 -11.28862 -11.27995 -11.27965  -8.85175
 Alpha  occ. eigenvalues --   -6.19397  -6.19129  -6.18822  -1.44419  -1.43701
 Alpha  occ. eigenvalues --   -1.34493  -1.33999  -1.30844  -1.13256  -1.05408
 Alpha  occ. eigenvalues --   -1.01539  -0.98619  -0.94185  -0.87786  -0.82248
 Alpha  occ. eigenvalues --   -0.81118  -0.78327  -0.75311  -0.71921  -0.71425
 Alpha  occ. eigenvalues --   -0.70043  -0.69877  -0.69511  -0.65458  -0.64662
 Alpha  occ. eigenvalues --   -0.63031  -0.61339  -0.59532  -0.58340  -0.57874
 Alpha  occ. eigenvalues --   -0.56936  -0.55123  -0.54891  -0.53605  -0.52187
 Alpha  occ. eigenvalues --   -0.49687  -0.49574  -0.48688  -0.47142  -0.46799
 Alpha  occ. eigenvalues --   -0.45796  -0.40857  -0.35933
 Alpha virt. eigenvalues --    0.03231   0.03754   0.04006   0.04902   0.05301
 Alpha virt. eigenvalues --    0.05471   0.05889   0.06212   0.06532   0.06881
 Alpha virt. eigenvalues --    0.07510   0.08222   0.09132   0.09568   0.10153

 Mulliken charges:
               1
     1  C    0.412465
     2  C    0.123644
     3  C    1.021575
     4  C   -0.156560
     5  O   -0.541174
     6  O   -0.395958
     7  O   -0.518096
     8  O   -0.560860
     9  C    0.790888
    10  C    0.807784
    11  S    0.354747
    12  C    0.060148
    13  C    0.814081
    14  O   -0.515805
    15  H   -0.240939
    16  H   -0.066824
    17  H   -0.046566
    18  H   -0.068424
    19  H   -0.286205
    20  H   -0.065017
    21  H   -0.074205
    22  H   -0.163997
    23  H   -0.115279
    24  H   -0.181934
    25  H    0.200205
    26  H   -0.587692
 Sum of Mulliken charges =  -0.00000

 Dipole moment (field-independent basis, Debye):
    X=             -1.0621    Y=             -0.6679    Z=             -2.3486  Tot=              2.6627

 Test job not archived.
 1\1\GINC-SE339\SP\RHF\Aug-CC-pVDZ\C8H12O5S1\OHZDE\09-Apr-2025\0\\#t hf
  aug-cc-pvdz iop(5/13=1,5/36=2,99/5=2) pseudo=read geom=check guess=(r
 ead,tcheck) scf=(maxcycle=1)\\title\\0,1\C,0,0.328236,0.031571,-0.6849
 39\C,0,0.204217,1.317206,0.079176\C,0,-0.652414,-0.860385,-0.763571\C,
 0,-1.948867,-0.656596,-0.083147\O,0,-2.776958,-1.679638,-0.321638\O,0,
 -2.238327,0.292913,0.599845\O,0,0.687654,1.475449,1.174116\O,0,-0.4065
 19,2.259253,-0.614997\C,0,-0.613594,3.504239,0.06824\C,0,-4.063263,-1.
 596579,0.301328\S,0,1.927449,-0.221347,-1.42942\C,0,2.620581,-1.553613

 Normal termination of Gaussian 16 at Wed Apr  9 01:50:19 2025.
