 Gaussian 16, Revision C.01,

 ----------------------------------------------------------------------
 #t hf aug-cc-pvdz symm=none int=(grid=ultrafine) guess=(read,tcheck) s
 table=(opt,rrhf)
 ----------------------------------------------------------------------
 -----
 title
 -----
 Symbolic Z-matrix:
 Charge =  0 Multiplicity = 1

 SCF Done:  E(RHF) =  -626.109386246     A.U. after   14 cycles
 Normal termination of Gaussian 16 at Wed Apr  9 01:45:16 2025.
 Gaussian 16:  ES64L-G16RevC.01  3-Jul-2019

 ----------------------------------------------------------------------
 #t hf aug-cc-pvdz iop(5/13=1,5/36=2,99/5=2) pseudo=read geom=check gue
 ss=(read,tcheck) scf=(maxcycle=1)
 ----------------------------------------------------------------------
 -----
 title
 -----
 Structure from the checkpoint file:  "BH10_90_forward_mol2.chk"
 Charge =  0 Multiplicity = 1

                         Standard orientation:
 ---------------------------------------------------------------------
 Center     Atomic      Atomic             Coordinates (Angstroms)
 Number     Number       Type             X           Y           Z
 ---------------------------------------------------------------------
      1          6           0       -0.045543    0.385809    1.261670
      2          6           0       -0.045543    1.611162    0.731860
      3          6           0       -0.045543    0.385809   -1.261670
      4          6           0       -0.045543    1.611162   -0.731860
      5         16           0       -0.286337   -0.849040    0.000000
      6          8           0        0.735089   -1.950549    0.000000
      7          1           0       -0.054693    0.088729   -2.298922
      8          1           0       -0.048451    2.523963   -1.313268
      9          1           0       -0.054693    0.088729    2.298922
     10          1           0       -0.048451    2.523963    1.313268
 ---------------------------------------------------------------------

 SCF Done:  E(RHF) =  -626.221567763     A.U. after    2 cycles

 The electronic state is 1-A'.
 Alpha  occ. eigenvalues --  -93.66975 -20.52976 -11.29023 -11.28999 -11.28857
 Alpha  occ. eigenvalues --  -11.28826  -8.95410  -6.29734  -6.29518  -6.29214
 Alpha  occ. eigenvalues --   -1.30807  -1.17037  -1.01992  -0.96480  -0.79309
 Alpha  occ. eigenvalues --   -0.78175  -0.72936  -0.62084  -0.60730  -0.59097
 Alpha  occ. eigenvalues --   -0.58829  -0.57076  -0.48466  -0.45344  -0.37884
 Alpha  occ. eigenvalues --   -0.36617
 Alpha virt. eigenvalues --    0.02648   0.03740   0.04124   0.04951   0.05710
 Alpha virt. eigenvalues --    0.08522   0.10896   0.11904   0.12793   0.13149
 Alpha virt. eigenvalues --    0.13208   0.13276   0.14244   0.15143   0.15460

 Mulliken charges:
               1
     1  C    0.043342
     2  C    0.292073
     3  C    0.043342
     4  C    0.292073
     5  S    1.587358
     6  O   -1.045940
     7  H   -0.297297
     8  H   -0.308826
     9  H   -0.297297
    10  H   -0.308826
 Sum of Mulliken charges =  -0.00000

 Dipole moment (field-independent basis, Debye):
    X=             -1.8153    Y=              5.0282    Z=              0.0000  Tot=              5.3458

 Test job not archived.
 1\1\GINC-SE132\SP\RHF\Aug-CC-pVDZ\C4H4O1S1\OHZDE\09-Apr-2025\0\\#t hf
 aug-cc-pvdz iop(5/13=1,5/36=2,99/5=2) pseudo=read geom=check guess=(re
 ad,tcheck) scf=(maxcycle=1)\\title\\0,1\C,0,0.045543,-0.385809,1.26167
 \C,0,0.045543,-1.611162,0.73186\C,0,0.045543,-0.385809,-1.26167\C,0,0.
 045543,-1.611162,-0.73186\S,0,0.286337,0.84904,0.\O,0,-0.735089,1.9505
 49,0.\H,0,0.054693,-0.088729,-2.298922\H,0,0.048451,-2.523963,-1.31326
 8\H,0,0.054693,-0.088729,2.298922\H,0,0.048451,-2.523963,1.313268\\Ver
 sion=ES64L-G16RevC.01\State=1-A'\HF=-626.2215678\RMSD=1.090e-02\Dipole

 Normal termination of Gaussian 16 at Wed Apr  9 01:45:19 2025.
