 Gaussian 16, Revision C.01,

 ----------------------------------------------------------------------
 #t hf aug-cc-pvdz symm=none int=(grid=ultrafine) guess=(read,tcheck) s
 table=opt
 ----------------------------------------------------------------------
 -----
 title
 -----
 Symbolic Z-matrix:
 Charge =  0 Multiplicity = 2

 SCF Done:  E(UHF) =  -1159.73715181     A.U. after   22 cycles
 Normal termination of Gaussian 16 at Wed Apr  9 01:02:35 2025.
 Gaussian 16:  ES64L-G16RevC.01  3-Jul-2019

 ----------------------------------------------------------------------
 #t hf aug-cc-pvdz iop(5/13=1,5/36=2,99/5=2) pseudo=read geom=check gue
 ss=(read,tcheck) scf=(maxcycle=1)
 ----------------------------------------------------------------------
 -----
 title
 -----
 Structure from the checkpoint file:  "BH10_169_forward_mol1.chk"
 Charge =  0 Multiplicity = 2

                         Standard orientation:
 ---------------------------------------------------------------------
 Center     Atomic      Atomic             Coordinates (Angstroms)
 Number     Number       Type             X           Y           Z
 ---------------------------------------------------------------------
      1          6           0       -3.002690    0.170699   -0.938358
      2         16           0       -2.476460   -1.179728    0.152689
      3          6           0       -0.658318   -1.109488   -0.039375
      4          6           0       -0.022428    0.090817    0.601391
      5          6           0       -0.203347    0.254072    2.087262
      6          6           0        0.038983    1.303312   -0.274605
      7          8           0        0.044415    1.207826   -1.491659
      8         16           0        2.827270   -0.622963    0.435593
      9          6           0        2.812408   -0.799568   -1.374204
     10          1           0       -2.779138    1.148886   -0.515535
     11          1           0       -2.531554    0.082480   -1.915536
     12          1           0       -4.082305    0.072391   -1.046559
     13          1           0        0.572515    0.885441    2.526836
     14          1           0       -0.151214   -0.716818    2.581170
     15          1           0       -1.181664    0.683494    2.320587
     16          1           0       -0.299403   -2.021959    0.438643
     17          1           0       -0.414375   -1.147854   -1.099168
     18          1           0        3.850174   -0.777107   -1.706560
     19          1           0        2.364612   -1.744561   -1.676630
     20          1           0        2.276799    0.029355   -1.834057
     21          1           0        1.351817   -0.261947    0.541189
     22          7           0        0.113107    2.509987    0.346167
     23          1           0        0.274096    3.319060   -0.231675
     24          1           0        0.201959    2.600610    1.342213
 ---------------------------------------------------------------------

 SCF Done:  E(UHF) =  -1159.89104854     A.U. after    2 cycles

 The electronic state is 2-A.
 Alpha  occ. eigenvalues --  -93.52952 -93.52849 -20.54950 -15.66100 -11.37765
 Alpha  occ. eigenvalues --  -11.29458 -11.27422 -11.25918 -11.25704 -11.25464
 Alpha  occ. eigenvalues --   -8.82686  -8.82586  -6.17475  -6.16912  -6.16655
 Alpha  occ. eigenvalues --   -6.16427  -6.16305  -6.16028  -1.36567  -1.19492
 Alpha  occ. eigenvalues --   -1.12031  -1.03379  -1.01947  -0.95709  -0.90786
 Alpha  occ. eigenvalues --   -0.85141  -0.82115  -0.77377  -0.73095  -0.69061
 Alpha  occ. eigenvalues --   -0.67830  -0.64169  -0.59918  -0.59725  -0.58962
 Alpha  occ. eigenvalues --   -0.58788  -0.58344  -0.57419  -0.56791  -0.53611
 Alpha  occ. eigenvalues --   -0.53387  -0.49696  -0.47174  -0.45681  -0.44088
 Alpha  occ. eigenvalues --   -0.43644  -0.35239  -0.35042  -0.33380
 Alpha virt. eigenvalues --    0.02697   0.04097   0.04192   0.04370   0.05831
 Alpha virt. eigenvalues --    0.06106   0.06247   0.06703   0.07354   0.08260
 Alpha virt. eigenvalues --    0.08992   0.09118   0.09861   0.10236   0.11087

  Beta  occ. eigenvalues --  -93.52883 -93.52329 -20.54466 -15.66104 -11.38045
  Beta  occ. eigenvalues --  -11.27675 -11.27561 -11.25926 -11.25758 -11.25647
  Beta  occ. eigenvalues --   -8.82608  -8.82004  -6.16739  -6.16513  -6.16250
  Beta  occ. eigenvalues --   -6.16155  -6.15694  -6.15214  -1.35749  -1.19123
  Beta  occ. eigenvalues --   -1.09596  -1.02469  -1.00257  -0.95703  -0.89568
  Beta  occ. eigenvalues --   -0.82704  -0.81260  -0.77045  -0.72050  -0.68093
  Beta  occ. eigenvalues --   -0.64092  -0.63815  -0.59210  -0.59025  -0.58651
  Beta  occ. eigenvalues --   -0.58555  -0.57799  -0.56737  -0.56270  -0.53045
  Beta  occ. eigenvalues --   -0.51475  -0.49015  -0.45946  -0.44450  -0.42363
  Beta  occ. eigenvalues --   -0.41926  -0.34212  -0.33987
  Beta virt. eigenvalues --    0.02382   0.02710   0.04116   0.04200   0.04372
  Beta virt. eigenvalues --    0.05894   0.06139   0.06276   0.06721   0.07452
  Beta virt. eigenvalues --    0.08276   0.09027   0.09198   0.09881   0.10264

 Mulliken charges and spin densities:
               1          2
     1  C    0.231772  -0.002637
     2  S    0.498379   0.055232
     3  C    0.336094  -0.186480
     4  C   -1.208303   1.184598
     5  C    1.241259  -0.157895
     6  C    0.501628  -0.183968
     7  O   -0.652829   0.103802
     8  S   -0.012990   0.525696
     9  C    0.293312  -0.046801
    10  H   -0.142596   0.002595
    11  H   -0.096643   0.000465
    12  H   -0.169693  -0.001199
    13  H   -0.031564   0.013450
    14  H   -0.042971   0.002228
    15  H   -0.022145   0.027195
    16  H   -0.169410   0.011919
    17  H   -0.217014   0.004431
    18  H   -0.161956   0.006202
    19  H   -0.129992  -0.000056
    20  H   -0.182860   0.011547
    21  H    0.351781  -0.366967
    22  N   -0.125617  -0.004911
    23  H   -0.043964  -0.000099
    24  H   -0.043679   0.001652
 Sum of Mulliken charges =  -0.00000   1.00000

 Dipole moment (field-independent basis, Debye):
    X=             -0.4250    Y=              2.3321    Z=              1.6099  Tot=              2.8655
                          Isotropic Fermi Contact Couplings
        Atom                 a.u.       MegaHertz       Gauss      10(-4) cm-1
     1  C(13)             -0.00135      -1.52086      -0.54268      -0.50731
     2  S(33)              0.02279       7.82892       2.79355       2.61145
     3  C(13)             -0.04433     -49.84094     -17.78449     -16.62515
     4  C(13)              0.21256     238.95562      85.26531      79.70702
     5  C(13)             -0.03651     -41.04622     -14.64631     -13.69154
     6  C(13)             -0.04706     -52.90457     -18.87766     -17.64706
     7  O(17)              0.04251     -25.77207      -9.19612      -8.59664
     8  S(33)              0.11213      38.51338      13.74253      12.84668

 1\1\GINC-SE128\SP\UHF\Aug-CC-pVDZ\C6H14N1O1S2(2)\OHZDE\09-Apr-2025\0\\
 #t hf aug-cc-pvdz iop(5/13=1,5/36=2,99/5=2) pseudo=read geom=check gue
 ss=(read,tcheck) scf=(maxcycle=1)\\title\\0,2\C,0,-3.00269,0.170699,-0
 .938358\S,0,-2.47646,-1.179728,0.152689\C,0,-0.658318,-1.109488,-0.039
 375\C,0,-0.022428,0.090817,0.601391\C,0,-0.203347,0.254072,2.087262\C,
 0,0.038983,1.303312,-0.274605\O,0,0.044415,1.207826,-1.491659\S,0,2.82
 727,-0.622963,0.435593\C,0,2.812408,-0.799568,-1.374204\H,0,-2.779138,
 1.148886,-0.515535\H,0,-2.531554,0.08248,-1.915536\H,0,-4.082305,0.072

 Normal termination of Gaussian 16 at Wed Apr  9 01:02:56 2025.
