 Gaussian 16, Revision C.01,

 ----------------------------------------------------------------------
 #t hf aug-cc-pvdz symm=none int=(grid=ultrafine) guess=(read,tcheck) s
 table=(opt,rrhf)
 ----------------------------------------------------------------------
 -----
 title
 -----
 Symbolic Z-matrix:
 Charge =  0 Multiplicity = 1

 SCF Done:  E(RHF) =  -693.164090879     A.U. after   12 cycles
 Normal termination of Gaussian 16 at Wed Apr  9 01:04:50 2025.
 Gaussian 16:  ES64L-G16RevC.01  3-Jul-2019

 ----------------------------------------------------------------------
 #t hf aug-cc-pvdz iop(5/13=1,5/36=2,99/5=2) pseudo=read geom=check gue
 ss=(read,tcheck) scf=(maxcycle=1)
 ----------------------------------------------------------------------
 -----
 title
 -----
 Structure from the checkpoint file:  "BH10_305_reverse_mol3.chk"
 Charge =  0 Multiplicity = 1

                         Standard orientation:
 ---------------------------------------------------------------------
 Center     Atomic      Atomic             Coordinates (Angstroms)
 Number     Number       Type             X           Y           Z
 ---------------------------------------------------------------------
      1          6           0       -0.502912    0.507249    0.000000
      2          6           0        0.161190   -0.020589    1.260541
      3         17           0       -0.479661    2.322932    0.000000
      4          6           0        0.161190   -0.020589   -1.260541
      5          6           0        0.161190   -1.551374    1.259575
      6          6           0        0.821970   -2.108825   -0.000000
      7          6           0        0.161190   -1.551374   -1.259575
      8          1           0       -0.352609    0.367329    2.142024
      9          1           0        1.190039    0.351466    1.296694
     10          1           0        1.190039    0.351466   -1.296694
     11          1           0       -0.352609    0.367329   -2.142024
     12          1           0       -0.871203   -1.915200    1.318859
     13          1           0        0.670738   -1.916679    2.154391
     14          1           0        0.775953   -3.200735   -0.000000
     15          1           0        1.884249   -1.838633   -0.000000
     16          1           0       -0.871203   -1.915200   -1.318859
     17          1           0        0.670738   -1.916679   -2.154391
     18          1           0       -1.562808    0.248707    0.000000
 ---------------------------------------------------------------------

 SCF Done:  E(RHF) =  -693.252602057     A.U. after    2 cycles

 The electronic state is 1-A'.
 Alpha  occ. eigenvalues -- -103.63700 -11.30034 -11.23968 -11.23957 -11.23763
 Alpha  occ. eigenvalues --  -11.23759 -11.23467 -10.67004  -8.32717  -8.32446
 Alpha  occ. eigenvalues --   -8.32440  -1.16752  -1.09889  -1.01376  -0.98930
 Alpha  occ. eigenvalues --   -0.84895  -0.82866  -0.77254  -0.66521  -0.62551
 Alpha  occ. eigenvalues --   -0.61888  -0.61572  -0.55555  -0.54539  -0.54051
 Alpha  occ. eigenvalues --   -0.51590  -0.50086  -0.47160  -0.46146  -0.45591
 Alpha  occ. eigenvalues --   -0.43181  -0.42820
 Alpha virt. eigenvalues --    0.03263   0.04134   0.04233   0.04881   0.06347
 Alpha virt. eigenvalues --    0.06424   0.06810   0.07042   0.07380   0.09040
 Alpha virt. eigenvalues --    0.09069   0.10724   0.13087   0.13616   0.14249

 Mulliken charges:
               1
     1  C   -0.249674
     2  C    0.365212
     3  Cl  -0.183529
     4  C    0.365212
     5  C    0.225792
     6  C    0.267376
     7  C    0.225792
     8  H   -0.116613
     9  H   -0.045613
    10  H   -0.045613
    11  H   -0.116613
    12  H   -0.081304
    13  H   -0.112958
    14  H   -0.103047
    15  H   -0.088813
    16  H   -0.081304
    17  H   -0.112958
    18  H   -0.111347
 Sum of Mulliken charges =  -0.00000

 Dipole moment (field-independent basis, Debye):
    X=              0.2338    Y=             -2.8682    Z=             -0.0000  Tot=              2.8777

 Test job not archived.
 1\1\GINC-SE106\SP\RHF\Aug-CC-pVDZ\C6H11Cl1\OHZDE\09-Apr-2025\0\\#t hf
 aug-cc-pvdz iop(5/13=1,5/36=2,99/5=2) pseudo=read geom=check guess=(re
 ad,tcheck) scf=(maxcycle=1)\\title\\0,1\C,0,-0.60927,0.,0.372843\C,0,0
 .057091,1.260541,-0.152141\Cl,0,-2.370987,0.,-0.067158\C,0,0.057091,-1
 .260541,-0.152141\C,0,1.546883,1.259575,0.199742\C,0,2.2413,0.,-0.3152
 01\C,0,1.546883,-1.259575,0.199742\H,0,-0.438547,2.142024,0.258728\H,0
 ,-0.068499,1.296694,-1.238963\H,0,-0.068499,-1.296694,-1.238963\H,0,-0
 .438547,-2.142024,0.258728\H,0,1.663649,1.318859,1.288122\H,0,2.019536

 Normal termination of Gaussian 16 at Wed Apr  9 01:04:55 2025.
