 Gaussian 16, Revision C.01,

 ----------------------------------------------------------------------
 #t hf aug-cc-pvdz symm=none int=(grid=ultrafine) guess=(read,tcheck) s
 table=(opt,rrhf)
 ----------------------------------------------------------------------
 -----
 title
 -----
 Symbolic Z-matrix:
 Charge =  0 Multiplicity = 1

 SCF Done:  E(RHF) =  -743.259588003     A.U. after   14 cycles
 Normal termination of Gaussian 16 at Wed Apr  9 01:39:43 2025.
 Gaussian 16:  ES64L-G16RevC.01  3-Jul-2019

 ----------------------------------------------------------------------
 #t hf aug-cc-pvdz iop(5/13=1,5/36=2,99/5=2) pseudo=read geom=check gue
 ss=(read,tcheck) scf=(maxcycle=1)
 ----------------------------------------------------------------------
 -----
 title
 -----
 Structure from the checkpoint file:  "BH10_419_reverse_mol2.chk"
 Charge =  0 Multiplicity = 1

                         Standard orientation:
 ---------------------------------------------------------------------
 Center     Atomic      Atomic             Coordinates (Angstroms)
 Number     Number       Type             X           Y           Z
 ---------------------------------------------------------------------
      1          6           0        2.584852   -0.975396    0.050537
      2          6           0       -2.346184    1.720029   -0.199557
      3          6           0       -1.168387    1.119405   -0.208440
      4          6           0       -1.029091   -0.270573    0.356579
      5          6           0        0.155324   -1.021319   -0.269508
      6          6           0        1.457444   -0.285822   -0.064093
      7          6           0        0.106136    1.731792   -0.747120
      8          9           0       -2.158440   -1.000289    0.206832
      9          9           0        0.200648   -2.281964    0.212098
     10          6           0        1.336105    1.191192   -0.056983
     11          6           0        2.213234    1.983177    0.549657
     12          9           0       -0.112828   -1.125221   -1.612731
     13          9           0       -0.782711   -0.207142    1.703261
     14          1           0        2.094040    3.059381    0.537436
     15          1           0        3.065473    1.587745    1.087335
     16          1           0        0.063678    2.816137   -0.654216
     17          1           0        0.171047    1.495713   -1.815303
     18          1           0        3.541853   -0.475681    0.123766
     19          1           0        2.578423   -2.056715    0.070834
     20          1           0       -2.458484    2.733976   -0.564235
     21          1           0       -3.232631    1.216074    0.162807
 ---------------------------------------------------------------------

 SCF Done:  E(RHF) =  -743.503105730     A.U. after    2 cycles

 The electronic state is 1-A.
 Alpha  occ. eigenvalues --  -26.15114 -26.14780 -26.14727 -26.14373 -11.44575
 Alpha  occ. eigenvalues --  -11.44353 -11.27828 -11.27656 -11.27572 -11.26716
 Alpha  occ. eigenvalues --  -11.26664 -11.25962 -11.25181  -1.72274  -1.70660
 Alpha  occ. eigenvalues --   -1.66928  -1.66399  -1.17444  -1.10576  -1.07556
 Alpha  occ. eigenvalues --   -1.02188  -0.96672  -0.94290  -0.87774  -0.85438
 Alpha  occ. eigenvalues --   -0.85233  -0.83353  -0.81011  -0.80630  -0.75967
 Alpha  occ. eigenvalues --   -0.75198  -0.73990  -0.73529  -0.71258  -0.70770
 Alpha  occ. eigenvalues --   -0.70277  -0.68624  -0.66937  -0.64113  -0.62455
 Alpha  occ. eigenvalues --   -0.61114  -0.60348  -0.58238  -0.53290  -0.51977
 Alpha  occ. eigenvalues --   -0.51296  -0.45207  -0.39676  -0.35366
 Alpha virt. eigenvalues --    0.03012   0.03488   0.04401   0.04635   0.05624
 Alpha virt. eigenvalues --    0.06092   0.06265   0.07271   0.08450   0.09420
 Alpha virt. eigenvalues --    0.09955   0.10186   0.10696   0.11665   0.12050

 Mulliken charges:
               1
     1  C    1.116938
     2  C    1.330787
     3  C   -0.299468
     4  C    0.509164
     5  C    0.366980
     6  C    0.120745
     7  C   -0.125128
     8  F   -0.348382
     9  F   -0.344243
    10  C   -0.335925
    11  C    1.113918
    12  F   -0.424616
    13  F   -0.426156
    14  H   -0.399026
    15  H   -0.442783
    16  H   -0.130326
    17  H    0.176315
    18  H   -0.352094
    19  H   -0.363687
    20  H   -0.358429
    21  H   -0.384584
 Sum of Mulliken charges =  -0.00000

 Dipole moment (field-independent basis, Debye):
    X=              2.0538    Y=              3.5592    Z=             -0.6531  Tot=              4.1608

 Test job not archived.
 1\1\GINC-SE021\SP\RHF\Aug-CC-pVDZ\C9H8F4\OHZDE\09-Apr-2025\0\\#t hf au
 g-cc-pvdz iop(5/13=1,5/36=2,99/5=2) pseudo=read geom=check guess=(read
 ,tcheck) scf=(maxcycle=1)\\title\\0,1\C,0,2.584852,-0.975395,0.050537\
 C,0,-2.346185,1.720028,-0.199557\C,0,-1.168388,1.119404,-0.20844\C,0,-
 1.029091,-0.270573,0.356579\C,0,0.155324,-1.021319,-0.269508\C,0,1.457
 444,-0.285821,-0.064093\C,0,0.106135,1.731792,-0.74712\F,0,-2.15844,-1
 .00029,0.206832\F,0,0.200649,-2.281964,0.212098\C,0,1.336104,1.191193,
 -0.056983\C,0,2.213233,1.983178,0.549657\F,0,-0.112828,-1.125221,-1.61

 Normal termination of Gaussian 16 at Wed Apr  9 01:39:59 2025.
