 Gaussian 16, Revision C.01,

 ----------------------------------------------------------------------
 #t hf aug-cc-pvdz symm=none int=(grid=ultrafine) guess=(read,tcheck) s
 table=(opt,rrhf)
 ----------------------------------------------------------------------
 -----
 title
 -----
 Symbolic Z-matrix:
 Charge =  0 Multiplicity = 1

 SCF Done:  E(RHF) =  -743.126047851     A.U. after   16 cycles
 Normal termination of Gaussian 16 at Wed Apr  9 01:38:25 2025.
 Gaussian 16:  ES64L-G16RevC.01  3-Jul-2019

 ----------------------------------------------------------------------
 #t hf aug-cc-pvdz iop(5/13=1,5/36=2,99/5=2) pseudo=read geom=check gue
 ss=(read,tcheck) scf=(maxcycle=1)
 ----------------------------------------------------------------------
 -----
 title
 -----
 Structure from the checkpoint file:  "BH10_418_forward_mol1.chk"
 Charge =  0 Multiplicity = 1

                         Standard orientation:
 ---------------------------------------------------------------------
 Center     Atomic      Atomic             Coordinates (Angstroms)
 Number     Number       Type             X           Y           Z
 ---------------------------------------------------------------------
      1          6           0        0.662918    0.838661    1.741357
      2          6           0       -0.015770    2.081044    0.520303
      3          6           0       -0.077619    1.346659   -0.690552
      4          6           0       -1.048269    0.235060   -0.624014
      5          6           0       -0.432022   -0.882012    0.476665
      6          6           0        0.856064   -0.353805    0.989448
      7          6           0        1.130020    0.961253   -1.284425
      8          9           0       -1.221970   -0.417288   -1.793398
      9          9           0       -1.367941   -1.028622    1.442501
     10          6           0        1.830781   -0.313296   -0.002447
     11          6           0        3.002660   -0.784094   -0.355721
     12          9           0       -0.327299   -2.059432   -0.170060
     13          1           0        1.938126    1.684847   -1.275170
     14          9           0       -2.271157    0.598014   -0.176386
     15          1           0        3.495590   -0.474828   -1.268967
     16          1           0        3.507461   -1.513779    0.265917
     17          1           0        1.089098    0.331734   -2.165947
     18          1           0        1.569423    1.323001    2.087856
     19          1           0       -0.123977    0.802809    2.486663
     20          1           0        0.727470    2.871109    0.551331
     21          1           0       -0.960467    2.364237    0.970728
 ---------------------------------------------------------------------

 SCF Done:  E(RHF) =  -743.367597456     A.U. after    2 cycles

 The electronic state is 1-A.
 Alpha  occ. eigenvalues --  -26.14720 -26.14705 -26.14638 -26.14434 -11.44444
 Alpha  occ. eigenvalues --  -11.44351 -11.29450 -11.27967 -11.27784 -11.27727
 Alpha  occ. eigenvalues --  -11.27063 -11.26752 -11.26341  -1.72284  -1.70730
 Alpha  occ. eigenvalues --   -1.67269  -1.66291  -1.18931  -1.09666  -1.05215
 Alpha  occ. eigenvalues --   -1.02500  -0.96468  -0.93973  -0.88608  -0.85623
 Alpha  occ. eigenvalues --   -0.85076  -0.83717  -0.81477  -0.80368  -0.76015
 Alpha  occ. eigenvalues --   -0.75738  -0.74893  -0.71845  -0.71247  -0.70862
 Alpha  occ. eigenvalues --   -0.69665  -0.68831  -0.65264  -0.63948  -0.62785
 Alpha  occ. eigenvalues --   -0.60429  -0.59557  -0.57003  -0.55699  -0.53180
 Alpha  occ. eigenvalues --   -0.48578  -0.41085  -0.40013  -0.32580
 Alpha virt. eigenvalues --    0.02459   0.02760   0.03829   0.04507   0.05128
 Alpha virt. eigenvalues --    0.05929   0.06438   0.06727   0.07403   0.09117
 Alpha virt. eigenvalues --    0.09938   0.10507   0.10764   0.11354   0.11904

 Mulliken charges:
               1
     1  C    0.567217
     2  C    0.703014
     3  C   -0.471511
     4  C    0.568305
     5  C    0.652552
     6  C   -1.152338
     7  C    0.948218
     8  F   -0.331757
     9  F   -0.343049
    10  C    0.002779
    11  C    1.368643
    12  F   -0.329363
    13  H   -0.248245
    14  F   -0.342505
    15  H   -0.417572
    16  H   -0.256506
    17  H   -0.195817
    18  H   -0.201938
    19  H   -0.138097
    20  H   -0.210449
    21  H   -0.171580
 Sum of Mulliken charges =  -0.00000

 Dipole moment (field-independent basis, Debye):
    X=              4.2618    Y=              3.2341    Z=              0.7593  Tot=              5.4036

 Test job not archived.
 1\1\GINC-SE328\SP\RHF\Aug-CC-pVDZ\C9H8F4\OHZDE\09-Apr-2025\0\\#t hf au
 g-cc-pvdz iop(5/13=1,5/36=2,99/5=2) pseudo=read geom=check guess=(read
 ,tcheck) scf=(maxcycle=1)\\title\\0,1\C,0,0.662918,0.838661,1.741357\C
 ,0,-0.01577,2.081044,0.520303\C,0,-0.077619,1.346659,-0.690552\C,0,-1.
 048269,0.23506,-0.624014\C,0,-0.432022,-0.882012,0.476665\C,0,0.856064
 ,-0.353805,0.989448\C,0,1.13002,0.961253,-1.284425\F,0,-1.22197,-0.417
 288,-1.793398\F,0,-1.367941,-1.028622,1.442501\C,0,1.830781,-0.313296,
 -0.002447\C,0,3.00266,-0.784094,-0.355721\F,0,-0.327299,-2.059432,-0.1

 Normal termination of Gaussian 16 at Wed Apr  9 01:38:42 2025.
