 Gaussian 16, Revision C.01,

 ----------------------------------------------------------------------
 #t hf aug-cc-pvdz symm=none int=(grid=ultrafine) guess=(read,tcheck) s
 table=(opt,rrhf)
 ----------------------------------------------------------------------
 -----
 title
 -----
 Symbolic Z-matrix:
 Charge =  0 Multiplicity = 1

 SCF Done:  E(RHF) =  -256.193033213     A.U. after   12 cycles
 Normal termination of Gaussian 16 at Wed Apr  9 01:52:21 2025.
 Gaussian 16:  ES64L-G16RevC.01  3-Jul-2019

 ----------------------------------------------------------------------
 #t hf aug-cc-pvdz iop(5/13=1,5/36=2,99/5=2) pseudo=read geom=check gue
 ss=(read,tcheck) scf=(maxcycle=1)
 ----------------------------------------------------------------------
 -----
 title
 -----
 Structure from the checkpoint file:  "BH10_98_forward_mol2.chk"
 Charge =  0 Multiplicity = 1

                         Standard orientation:
 ---------------------------------------------------------------------
 Center     Atomic      Atomic             Coordinates (Angstroms)
 Number     Number       Type             X           Y           Z
 ---------------------------------------------------------------------
      1          6           0       -0.000001   -0.000001   -0.006963
      2          6           0        1.325645   -0.599829   -0.433795
      3          6           0       -0.143345    1.447995   -0.433661
      4          6           0       -1.182322   -0.848096   -0.433762
      5          1           0        2.153491   -0.002127   -0.049415
      6          1           0        1.396802   -0.631978   -1.523041
      7          1           0        1.423098   -1.616261   -0.049495
      8          1           0        0.688151    2.040574   -0.049233
      9          1           0       -1.074927    1.866031   -0.049307
     10          1           0       -0.151001    1.525809   -1.522898
     11          1           0       -1.078620   -1.863902   -0.049434
     12          1           0       -1.245809   -0.893600   -1.523005
     13          1           0       -2.111272   -0.424271   -0.049381
     14          9           0        0.000025   -0.000077    1.412699
 ---------------------------------------------------------------------

 SCF Done:  E(RHF) =  -256.279182400     A.U. after    2 cycles

 The electronic state is 1-A.
 Alpha  occ. eigenvalues --  -26.08435 -11.32287 -11.23082 -11.23082 -11.23070
 Alpha  occ. eigenvalues --   -1.61427  -1.08858  -0.94922  -0.94922  -0.81178
 Alpha  occ. eigenvalues --   -0.70981  -0.70981  -0.67718  -0.59826  -0.59826
 Alpha  occ. eigenvalues --   -0.56473  -0.54471  -0.54470  -0.52661  -0.48326
 Alpha  occ. eigenvalues --   -0.48325
 Alpha virt. eigenvalues --    0.03408   0.04714   0.04714   0.05440   0.06975
 Alpha virt. eigenvalues --    0.06975   0.07499   0.07499   0.09524   0.10322
 Alpha virt. eigenvalues --    0.14788   0.14788   0.15673   0.15673   0.15719

 Mulliken charges:
               1
     1  C   -1.608772
     2  C    0.658930
     3  C    0.658926
     4  C    0.658930
     5  H   -0.012122
     6  H    0.053865
     7  H   -0.012134
     8  H   -0.012130
     9  H   -0.012130
    10  H    0.053868
    11  H   -0.012132
    12  H    0.053875
    13  H   -0.012130
    14  F   -0.456843
 Sum of Mulliken charges =  -0.00000

 Dipole moment (field-independent basis, Debye):
    X=             -0.0000    Y=              0.0001    Z=             -2.4337  Tot=              2.4337

 Test job not archived.
 1\1\GINC-SE212\SP\RHF\Aug-CC-pVDZ\C4H9F1\OHZDE\09-Apr-2025\0\\#t hf au
 g-cc-pvdz iop(5/13=1,5/36=2,99/5=2) pseudo=read geom=check guess=(read
 ,tcheck) scf=(maxcycle=1)\\title\\0,1\C,0,0.000001,0.000001,-0.006963\
 C,0,-1.335246,0.578142,-0.433795\C,0,0.166927,-1.445466,-0.433661\C,0,
 1.168342,0.867254,-0.433762\H,0,-2.15324,-0.032974,-0.049415\H,0,-1.40
 6917,0.609127,-1.523041\H,0,-1.449253,1.592851,-0.049495\H,0,-0.6548,-
 2.051519,-0.049233\H,0,1.105199,-1.848263,-0.049307\H,0,0.175851,-1.52
 3145,-1.522898\H,0,1.048097,1.881235,-0.049434\H,0,1.231079,0.913787,-

 Normal termination of Gaussian 16 at Wed Apr  9 01:52:25 2025.
