 Gaussian 16, Revision C.01,

 ----------------------------------------------------------------------
 #t hf aug-cc-pvdz symm=none int=(grid=ultrafine) guess=(read,tcheck) s
 table=(opt,rrhf)
 ----------------------------------------------------------------------
 -----
 title
 -----
 Symbolic Z-matrix:
 Charge =  0 Multiplicity = 1

 SCF Done:  E(RHF) =  -689.957673619     A.U. after   13 cycles
 Normal termination of Gaussian 16 at Wed Apr  9 00:53:14 2025.
 Gaussian 16:  ES64L-G16RevC.01  3-Jul-2019

 ----------------------------------------------------------------------
 #t hf aug-cc-pvdz iop(5/13=1,5/36=2,99/5=2) pseudo=read geom=check gue
 ss=(read,tcheck) scf=(maxcycle=1)
 ----------------------------------------------------------------------
 -----
 title
 -----
 Structure from the checkpoint file:  "BH10-RE_131_mol2.chk"
 Charge =  0 Multiplicity = 1

                         Standard orientation:
 ---------------------------------------------------------------------
 Center     Atomic      Atomic             Coordinates (Angstroms)
 Number     Number       Type             X           Y           Z
 ---------------------------------------------------------------------
      1          8           0        0.763894    1.595683    0.000028
      2          6           0        0.686758    0.420319    0.000008
      3          6           0       -0.551443   -0.426284    0.000014
      4          6           0       -1.834980    0.393107    0.000019
      5          1           0       -0.492677   -1.085721    0.871229
      6          1           0       -0.492687   -1.085732   -0.871193
      7          1           0       -1.842970    1.049479    0.873177
      8          6           0       -3.071140   -0.498267    0.000022
      9          1           0       -1.842975    1.049483   -0.873135
     10          1           0       -3.096548   -1.142647   -0.882501
     11          1           0       -3.983707    0.099818    0.000007
     12          1           0       -3.096562   -1.142623    0.882561
     13         17           0        2.197753   -0.578869   -0.000044
 ---------------------------------------------------------------------

 SCF Done:  E(RHF) =  -690.049903753     A.U. after    2 cycles

 The electronic state is 1-A.
 Alpha  occ. eigenvalues -- -103.66732 -20.61031 -11.41947 -11.27648 -11.25207
 Alpha  occ. eigenvalues --  -11.24118 -10.70102  -8.35805  -8.35517  -8.35507
 Alpha  occ. eigenvalues --   -1.42147  -1.16525  -1.09084  -0.98491  -0.84965
 Alpha  occ. eigenvalues --   -0.77592  -0.69753  -0.67886  -0.67691  -0.61189
 Alpha  occ. eigenvalues --   -0.59025  -0.55301  -0.54192  -0.51342  -0.49941
 Alpha  occ. eigenvalues --   -0.47643  -0.47272  -0.46039
 Alpha virt. eigenvalues --    0.03093   0.04472   0.04539   0.05189   0.07067
 Alpha virt. eigenvalues --    0.07477   0.07880   0.09337   0.10669   0.11136
 Alpha virt. eigenvalues --    0.11454   0.13390   0.14838   0.15033   0.15452

 Mulliken charges:
               1
     1  O   -0.349025
     2  C   -0.043966
     3  C    0.230009
     4  C    0.289356
     5  H    0.018632
     6  H    0.018619
     7  H   -0.125932
     8  C    0.468619
     9  H   -0.125943
    10  H   -0.068503
    11  H   -0.045097
    12  H   -0.068507
    13  Cl  -0.198262
 Sum of Mulliken charges =  -0.00000

 Dipole moment (field-independent basis, Debye):
    X=             -2.8435    Y=             -1.9472    Z=              0.0000  Tot=              3.4463

 Test job not archived.
 1\1\GINC-SE329\SP\RHF\Aug-CC-pVDZ\C4H7Cl1O1\OHZDE\09-Apr-2025\0\\#t hf
  aug-cc-pvdz iop(5/13=1,5/36=2,99/5=2) pseudo=read geom=check guess=(r
 ead,tcheck) scf=(maxcycle=1)\\title\\0,1\O,0,-0.763894,1.595683,-0.000
 028\C,0,-0.686758,0.420319,-0.000008\C,0,0.551443,-0.426284,-0.000014\
 C,0,1.83498,0.393107,-0.000019\H,0,0.492677,-1.085721,-0.871229\H,0,0.
 492687,-1.085732,0.871193\H,0,1.84297,1.049479,-0.873177\C,0,3.07114,-
 0.498267,-0.000022\H,0,1.842975,1.049483,0.873135\H,0,3.096548,-1.1426
 47,0.882501\H,0,3.983707,0.099818,-0.000007\H,0,3.096562,-1.142623,-0.

 Normal termination of Gaussian 16 at Wed Apr  9 00:53:18 2025.
