 Gaussian 16, Revision C.01,

 ----------------------------------------------------------------------
 #t hf aug-cc-pvdz symm=none int=(grid=ultrafine) guess=(read,tcheck) s
 table=(opt,rrhf)
 ----------------------------------------------------------------------
 -----
 title
 -----
 Symbolic Z-matrix:
 Charge =  0 Multiplicity = 1

 SCF Done:  E(RHF) =  -727.123485622     A.U. after   15 cycles
 Normal termination of Gaussian 16 at Wed Apr  9 00:56:32 2025.
 Gaussian 16:  ES64L-G16RevC.01  3-Jul-2019

 ----------------------------------------------------------------------
 #t hf aug-cc-pvdz iop(5/13=1,5/36=2,99/5=2) pseudo=read geom=check gue
 ss=(read,tcheck) scf=(maxcycle=1)
 ----------------------------------------------------------------------
 -----
 title
 -----
 Structure from the checkpoint file:  "BH10_173_reverse_mol3.chk"
 Charge =  0 Multiplicity = 1

                         Standard orientation:
 ---------------------------------------------------------------------
 Center     Atomic      Atomic             Coordinates (Angstroms)
 Number     Number       Type             X           Y           Z
 ---------------------------------------------------------------------
      1          6           0       -1.815315    0.000000    0.005602
      2          6           0       -1.150887   -1.209639   -0.001488
      3          6           0        0.236097   -1.202484   -0.013530
      4          6           0        0.936100    0.000002   -0.007742
      5          6           0        0.236096    1.202485   -0.013497
      6          6           0       -1.150890    1.209638   -0.001474
      7         16           0        2.727776    0.000028   -0.071307
      8          1           0       -1.714646   -2.133159   -0.002616
      9          1           0        0.781079   -2.137321   -0.027009
     10          1           0        0.781079    2.137322   -0.026925
     11          1           0       -1.714650    2.133158   -0.002585
     12          9           0       -3.162355   -0.000003    0.014986
     13          1           0        2.936707   -0.000437    1.257938
 ---------------------------------------------------------------------

 SCF Done:  E(RHF) =  -727.247738591     A.U. after    2 cycles

 The electronic state is 1-A.
 Alpha  occ. eigenvalues --  -93.54846 -26.14315 -11.35113 -11.28585 -11.27085
 Alpha  occ. eigenvalues --  -11.27077 -11.26278 -11.26278  -8.84555  -6.18756
 Alpha  occ. eigenvalues --   -6.18548  -6.18207  -1.68319  -1.17731  -1.06193
 Alpha  occ. eigenvalues --   -1.04232  -0.95291  -0.87842  -0.85002  -0.77952
 Alpha  occ. eigenvalues --   -0.75857  -0.75380  -0.67042  -0.63922  -0.63774
 Alpha  occ. eigenvalues --   -0.61871  -0.56783  -0.52599  -0.52486  -0.47795
 Alpha  occ. eigenvalues --   -0.37526  -0.36698  -0.35537
 Alpha virt. eigenvalues --    0.03420   0.03993   0.04493   0.05819   0.06063
 Alpha virt. eigenvalues --    0.07956   0.08737   0.09588   0.09991   0.11106
 Alpha virt. eigenvalues --    0.12423   0.12552   0.13407   0.13541   0.14443

 Mulliken charges:
               1
     1  C    0.165747
     2  C    0.502562
     3  C    0.219986
     4  C    0.075846
     5  C    0.220042
     6  C    0.502579
     7  S    0.234606
     8  H   -0.410883
     9  H   -0.427795
    10  H   -0.427771
    11  H   -0.410880
    12  F   -0.322735
    13  H    0.078697
 Sum of Mulliken charges =  -0.00000

 Dipole moment (field-independent basis, Debye):
    X=              0.5605    Y=             -0.0003    Z=              0.7843  Tot=              0.9640

 Test job not archived.
 1\1\GINC-SE403\SP\RHF\Aug-CC-pVDZ\C6H5F1S1\OHZDE\09-Apr-2025\0\\#t hf
 aug-cc-pvdz iop(5/13=1,5/36=2,99/5=2) pseudo=read geom=check guess=(re
 ad,tcheck) scf=(maxcycle=1)\\title\\0,1\C,0,1.815315,0.,0.005602\C,0,1
 .150887,1.209639,-0.001488\C,0,-0.236097,1.202484,-0.01353\C,0,-0.9361
 ,-0.000002,-0.007742\C,0,-0.236096,-1.202485,-0.013497\C,0,1.15089,-1.
 209638,-0.001474\S,0,-2.727776,-0.000028,-0.071307\H,0,1.714646,2.1331
 59,-0.002616\H,0,-0.781079,2.137321,-0.027009\H,0,-0.781079,-2.137322,
 -0.026925\H,0,1.71465,-2.133158,-0.002585\F,0,3.162355,0.000003,0.0149

 Normal termination of Gaussian 16 at Wed Apr  9 00:56:37 2025.
