 Gaussian 16, Revision C.01,

 ----------------------------------------------------------------------
 #t hf aug-cc-pvdz symm=none int=(grid=ultrafine) guess=(read,tcheck) s
 table=opt
 ----------------------------------------------------------------------
 -----
 title
 -----
 Symbolic Z-matrix:
 Charge =  0 Multiplicity = 2

 SCF Done:  E(UHF) =  -1247.47446228     A.U. after   20 cycles
 Normal termination of Gaussian 16 at Wed Apr  9 01:08:21 2025.
 Gaussian 16:  ES64L-G16RevC.01  3-Jul-2019

 ----------------------------------------------------------------------
 #t hf aug-cc-pvdz iop(5/13=1,5/36=2,99/5=2) pseudo=read geom=check gue
 ss=(read,tcheck) scf=(maxcycle=1)
 ----------------------------------------------------------------------
 -----
 title
 -----
 Structure from the checkpoint file:  "BH10_182_forward_mol1.chk"
 Charge =  0 Multiplicity = 2

                         Standard orientation:
 ---------------------------------------------------------------------
 Center     Atomic      Atomic             Coordinates (Angstroms)
 Number     Number       Type             X           Y           Z
 ---------------------------------------------------------------------
      1          7           0       -0.319081   -0.375176   -0.487895
      2         16           0        0.973748   -1.414794   -0.562597
      3          8           0        1.567574   -1.420615    0.945578
      4          6           0        2.435103   -0.339880    1.362612
      5          6           0        1.644671    0.887453    1.792896
      6          1           0        2.979721   -0.759034    2.206009
      7          1           0        3.138282   -0.125310    0.558042
      8          6           0        0.914578    1.614512    0.684024
      9          1           0        2.355370    1.581601    2.259347
     10          1           0        0.944752    0.590612    2.578241
     11          6           0        1.740349    2.307911   -0.373681
     12          1           0        0.102114    2.239560    1.060861
     13          6           0       -1.388857   -0.797332    0.395217
     14          1           0       -1.666860   -1.828439    0.163968
     15          6           0       -2.600692    0.074502    0.164781
     16          9           0       -3.067234   -0.011339   -1.081504
     17          9           0       -3.588061   -0.288177    1.000892
     18          9           0       -2.330329    1.372509    0.406224
     19          8           0        1.951396   -0.802854   -1.424530
     20          8           0        0.475713   -2.745914   -0.770825
     21          6           0        0.888524    2.889049   -1.496481
     22          1           0        2.308874    3.108015    0.120231
     23          1           0        2.473231    1.615342   -0.793018
     24          1           0        0.354892    2.096341   -2.023882
     25          1           0        1.507724    3.417399   -2.222691
     26          1           0        0.148722    3.593627   -1.108289
     27          1           0        0.247308    0.758961    0.051953
     28          1           0       -1.129427   -0.744915    1.457543
 ---------------------------------------------------------------------

 SCF Done:  E(UHF) =  -1247.83942039     A.U. after    2 cycles

 The electronic state is 2-A.
 Alpha  occ. eigenvalues --  -93.85669 -26.17588 -26.17557 -26.17352 -20.64447
 Alpha  occ. eigenvalues --  -20.58825 -20.58583 -15.71419 -11.53626 -11.32988
 Alpha  occ. eigenvalues --  -11.32773 -11.28167 -11.27075 -11.24767 -11.23103
 Alpha  occ. eigenvalues --   -9.11437  -6.46127  -6.46040  -6.45916  -1.77390
 Alpha  occ. eigenvalues --   -1.70180  -1.70117  -1.49112  -1.36687  -1.34253
 Alpha  occ. eigenvalues --   -1.25586  -1.12149  -1.08517  -1.04231  -0.98163
 Alpha  occ. eigenvalues --   -0.96149  -0.89943  -0.89345  -0.88740  -0.84961
 Alpha  occ. eigenvalues --   -0.84260  -0.79930  -0.78793  -0.78398  -0.77159
 Alpha  occ. eigenvalues --   -0.74722  -0.73984  -0.73327  -0.72612  -0.72072
 Alpha  occ. eigenvalues --   -0.70412  -0.67893  -0.65793  -0.64478  -0.63486
 Alpha  occ. eigenvalues --   -0.62374  -0.60506  -0.59253  -0.57751  -0.56343
 Alpha  occ. eigenvalues --   -0.55447  -0.54820  -0.52955  -0.52818  -0.52178
 Alpha  occ. eigenvalues --   -0.51525  -0.49808  -0.49155  -0.47838  -0.41155
 Alpha virt. eigenvalues --    0.02310   0.03585   0.03923   0.04526   0.05617
 Alpha virt. eigenvalues --    0.05873   0.06409   0.06587   0.07585   0.08259
 Alpha virt. eigenvalues --    0.08603   0.08952   0.09642   0.10382   0.11686

  Beta  occ. eigenvalues --  -93.85712 -26.17594 -26.17560 -26.17352 -20.64469
  Beta  occ. eigenvalues --  -20.58658 -20.58618 -15.68834 -11.53620 -11.32955
  Beta  occ. eigenvalues --  -11.32943 -11.27196 -11.26707 -11.24870 -11.23087
  Beta  occ. eigenvalues --   -9.11496  -6.46162  -6.46076  -6.46042  -1.77398
  Beta  occ. eigenvalues --   -1.70194  -1.70124  -1.48857  -1.36628  -1.34101
  Beta  occ. eigenvalues --   -1.20568  -1.10415  -1.07584  -1.03950  -0.97827
  Beta  occ. eigenvalues --   -0.94790  -0.89562  -0.89321  -0.88020  -0.84688
  Beta  occ. eigenvalues --   -0.82779  -0.78866  -0.78575  -0.78095  -0.75475
  Beta  occ. eigenvalues --   -0.74204  -0.73947  -0.72860  -0.72604  -0.71013
  Beta  occ. eigenvalues --   -0.67832  -0.66998  -0.65047  -0.63655  -0.62767
  Beta  occ. eigenvalues --   -0.61975  -0.60017  -0.57564  -0.57489  -0.55594
  Beta  occ. eigenvalues --   -0.54473  -0.53377  -0.52602  -0.52322  -0.50810
  Beta  occ. eigenvalues --   -0.50282  -0.49028  -0.48782  -0.43931
  Beta virt. eigenvalues --    0.01765   0.02610   0.03594   0.04059   0.04533
  Beta virt. eigenvalues --    0.05627   0.05883   0.06424   0.06592   0.07630
  Beta virt. eigenvalues --    0.08279   0.08620   0.08971   0.09646   0.10405

 Mulliken charges and spin densities:
               1          2
     1  N   -1.348114   0.858939
     2  S    2.902468  -0.067899
     3  O   -0.986314  -0.004003
     4  C    1.109781   0.013830
     5  C    0.414758  -0.097859
     6  H   -0.250042  -0.000501
     7  H   -0.090081  -0.001975
     8  C   -0.367158   0.763576
     9  H   -0.063951   0.024273
    10  H   -0.108925  -0.001412
    11  C    0.351867  -0.102990
    12  H   -0.078567  -0.060963
    13  C    0.665766  -0.113048
    14  H   -0.125234   0.032490
    15  C    1.002826   0.008080
    16  F   -0.310247   0.000255
    17  F   -0.312035  -0.000143
    18  F   -0.339699   0.000007
    19  O   -0.984090  -0.006676
    20  O   -0.945048   0.021262
    21  C    0.605185   0.006839
    22  H   -0.115174   0.025950
    23  H   -0.074492   0.006980
    24  H   -0.083315   0.004048
    25  H   -0.084176  -0.001440
    26  H   -0.089302  -0.000807
    27  H   -0.226422  -0.323197
    28  H   -0.070267   0.016382
 Sum of Mulliken charges =  -0.00000   1.00000

 Dipole moment (field-independent basis, Debye):
    X=              1.8510    Y=              3.2661    Z=              4.4047  Tot=              5.7874
                          Isotropic Fermi Contact Couplings
        Atom                 a.u.       MegaHertz       Gauss      10(-4) cm-1
     1  N(14)              0.34167     110.39634      39.39216      36.82425
     2  S(33)             -0.06728     -23.11015      -8.24627      -7.70871
     3  O(17)             -0.00584       3.54136       1.26365       1.18127
     4  C(13)              0.00767       8.62692       3.07830       2.87763
     5  C(13)             -0.02279     -25.62226      -9.14266      -8.54667
     6  H(1)              -0.00053      -2.35999      -0.84210      -0.78721
     7  H(1)              -0.00029      -1.28675      -0.45915      -0.42922
     8  C(13)              0.16634     187.00007      66.72627      62.37651

 Normal termination of Gaussian 16 at Wed Apr  9 01:09:01 2025.
