 Gaussian 16, Revision C.01,

 ----------------------------------------------------------------------
 #t hf aug-cc-pvdz symm=none int=(grid=ultrafine) guess=(read,tcheck) s
 table=(opt,rrhf)
 ----------------------------------------------------------------------
 -----
 title
 -----
 Symbolic Z-matrix:
 Charge =  0 Multiplicity = 1

 SCF Done:  E(RHF) =  -893.772288674     A.U. after   16 cycles
 Normal termination of Gaussian 16 at Wed Apr  9 01:49:02 2025.
 Gaussian 16:  ES64L-G16RevC.01  3-Jul-2019

 ----------------------------------------------------------------------
 #t hf aug-cc-pvdz iop(5/13=1,5/36=2,99/5=2) pseudo=read geom=check gue
 ss=(read,tcheck) scf=(maxcycle=1)
 ----------------------------------------------------------------------
 -----
 title
 -----
 Structure from the checkpoint file:  "BH10_90_forward_mol1.chk"
 Charge =  0 Multiplicity = 1

                         Standard orientation:
 ---------------------------------------------------------------------
 Center     Atomic      Atomic             Coordinates (Angstroms)
 Number     Number       Type             X           Y           Z
 ---------------------------------------------------------------------
      1          6           0        0.773503   -1.008950    0.923619
      2          6           0        0.349631   -0.070851    1.850594
      3          6           0        1.176430    1.282179    0.161913
      4          6           0        0.591144    1.236821    1.423440
      5          1           0        1.592003    2.177306   -0.283062
      6          1           0        0.273343    2.115534    1.968823
      7          1           0       -0.198625   -0.323759    2.748024
      8          1           0        0.767226   -2.081447    1.060637
      9         16           0        2.093966   -0.253086   -0.019862
     10          8           0        2.183341   -0.730831   -1.431658
     11          6           0       -2.434213    0.652327    0.089191
     12          6           0       -0.630172   -0.668305   -0.830129
     13          6           0       -0.390597    0.651203   -1.189534
     14          1           0       -2.285504    0.908100    1.142329
     15          1           0       -0.176230   -1.517337   -1.320486
     16          1           0        0.247811    0.885409   -2.031594
     17          1           0       -3.505209    0.699744   -0.105654
     18          6           0       -1.580849    1.528536   -0.836443
     19          1           0       -1.298892    2.480550   -0.384988
     20          1           0       -2.124866    1.763467   -1.755523
     21          6           0       -1.921325   -0.768113   -0.118511
     22          8           0       -2.482821   -1.777579    0.235963
 ---------------------------------------------------------------------

 SCF Done:  E(RHF) =  -893.960026237     A.U. after    2 cycles

 The electronic state is 1-A.
 Alpha  occ. eigenvalues --  -93.68090 -20.54986 -20.54008 -11.33617 -11.31067
 Alpha  occ. eigenvalues --  -11.30309 -11.28721 -11.28137 -11.27787 -11.25710
 Alpha  occ. eigenvalues --  -11.25240 -11.24781  -8.96375  -6.30704  -6.30482
 Alpha  occ. eigenvalues --   -6.30220  -1.34444  -1.32558  -1.18403  -1.13196
 Alpha  occ. eigenvalues --   -1.01420  -0.99654  -0.96988  -0.93244  -0.80446
 Alpha  occ. eigenvalues --   -0.80168  -0.77478  -0.73333  -0.73216  -0.68774
 Alpha  occ. eigenvalues --   -0.66411  -0.61995  -0.61048  -0.60495  -0.59954
 Alpha  occ. eigenvalues --   -0.59411  -0.58835  -0.58100  -0.55836  -0.54577
 Alpha  occ. eigenvalues --   -0.52232  -0.51069  -0.49287  -0.45512  -0.41528
 Alpha  occ. eigenvalues --   -0.40016  -0.36252  -0.34218
 Alpha virt. eigenvalues --    0.02397   0.03519   0.04074   0.04342   0.04859
 Alpha virt. eigenvalues --    0.05655   0.05793   0.06153   0.06537   0.07554
 Alpha virt. eigenvalues --    0.08109   0.08631   0.09480   0.10618   0.11358

 Mulliken charges:
               1
     1  C    0.192195
     2  C    0.467703
     3  C    0.194184
     4  C    0.396652
     5  H   -0.487727
     6  H   -0.419242
     7  H   -0.416913
     8  H   -0.486390
     9  S    1.524129
    10  O   -1.119836
    11  C    0.200580
    12  C    0.392786
    13  C    0.268325
    14  H    0.046257
    15  H   -0.446746
    16  H   -0.423784
    17  H   -0.069618
    18  C    0.637931
    19  H   -0.123011
    20  H   -0.062436
    21  C    0.334443
    22  O   -0.599480
 Sum of Mulliken charges =  -0.00000

 Dipole moment (field-independent basis, Debye):
    X=              0.0668    Y=              5.0866    Z=              2.5273  Tot=              5.6803

 Test job not archived.
 1\1\GINC-SE457\SP\RHF\Aug-CC-pVDZ\C9H10O2S1\OHZDE\09-Apr-2025\0\\#t hf
  aug-cc-pvdz iop(5/13=1,5/36=2,99/5=2) pseudo=read geom=check guess=(r
 ead,tcheck) scf=(maxcycle=1)\\title\\0,1\C,0,0.773503,-1.00895,0.92361
 9\C,0,0.349631,-0.070851,1.850594\C,0,1.17643,1.282179,0.161913\C,0,0.
 591144,1.236821,1.42344\H,0,1.592003,2.177306,-0.283062\H,0,0.273343,2
 .115534,1.968823\H,0,-0.198625,-0.323759,2.748024\H,0,0.767226,-2.0814
 47,1.060637\S,0,2.093966,-0.253086,-0.019862\O,0,2.183341,-0.730831,-1
 .431658\C,0,-2.434213,0.652327,0.089191\C,0,-0.630172,-0.668305,-0.830

 Normal termination of Gaussian 16 at Wed Apr  9 01:49:21 2025.
