 Gaussian 16, Revision C.01,

 ----------------------------------------------------------------------
 #t hf aug-cc-pvdz symm=none int=(grid=ultrafine) guess=(read,tcheck) s
 table=(opt,rrhf)
 ----------------------------------------------------------------------
 -----
 title
 -----
 Symbolic Z-matrix:
 Charge =  0 Multiplicity = 1

 SCF Done:  E(RHF) =  -551.328546707     A.U. after   13 cycles
 Normal termination of Gaussian 16 at Wed Apr  9 00:59:04 2025.
 Gaussian 16:  ES64L-G16RevC.01  3-Jul-2019

 ----------------------------------------------------------------------
 #t hf aug-cc-pvdz iop(5/13=1,5/36=2,99/5=2) pseudo=read geom=check gue
 ss=(read,tcheck) scf=(maxcycle=1)
 ----------------------------------------------------------------------
 -----
 title
 -----
 Structure from the checkpoint file:  "BH10_276_forward_mol2.chk"
 Charge =  0 Multiplicity = 1

                         Standard orientation:
 ---------------------------------------------------------------------
 Center     Atomic      Atomic             Coordinates (Angstroms)
 Number     Number       Type             X           Y           Z
 ---------------------------------------------------------------------
      1          6           0        0.009810   -1.233927    0.000056
      2          6           0        1.264980   -0.712711    0.000056
      3          6           0        1.264980    0.712711    0.000002
      4          6           0        0.009810    1.233927   -0.000061
      5          1           0        2.160727    1.317889   -0.000002
      6          1           0        2.160727   -1.317889    0.000102
      7          1           0       -0.280932   -2.272534    0.000097
      8         16           0       -1.191067   -0.000000   -0.000025
      9          1           0       -0.280934    2.272534   -0.000118
 ---------------------------------------------------------------------

 SCF Done:  E(RHF) =  -551.398513271     A.U. after    2 cycles

 The electronic state is 1-A.
 Alpha  occ. eigenvalues --  -93.56328 -11.27172 -11.27147 -11.24866 -11.24778
 Alpha  occ. eigenvalues --   -8.86196  -6.20300  -6.20177  -6.19825  -1.16360
 Alpha  occ. eigenvalues --   -0.98404  -0.97739  -0.76895  -0.75343  -0.70346
 Alpha  occ. eigenvalues --   -0.58362  -0.55654  -0.53022  -0.52605  -0.47458
 Alpha  occ. eigenvalues --   -0.34748  -0.33442
 Alpha virt. eigenvalues --    0.03586   0.04191   0.04779   0.05996   0.08581
 Alpha virt. eigenvalues --    0.09786   0.11997   0.12194   0.13946   0.14233
 Alpha virt. eigenvalues --    0.14400   0.14463   0.14545   0.14728   0.15793

 Mulliken charges:
               1
     1  C   -0.103267
     2  C    0.339907
     3  C    0.339908
     4  C   -0.103268
     5  H   -0.311794
     6  H   -0.311794
     7  H   -0.335119
     8  S    0.820548
     9  H   -0.335119
 Sum of Mulliken charges =  -0.00000

 Dipole moment (field-independent basis, Debye):
    X=              0.7745    Y=              0.0000    Z=              0.0000  Tot=              0.7745

 Test job not archived.
 1\1\GINC-SE150\SP\RHF\Aug-CC-pVDZ\C4H4S1\OHZDE\09-Apr-2025\0\\#t hf au
 g-cc-pvdz iop(5/13=1,5/36=2,99/5=2) pseudo=read geom=check guess=(read
 ,tcheck) scf=(maxcycle=1)\\title\\0,1\C,0,0.00981,-1.233927,0.000056\C
 ,0,1.26498,-0.712711,0.000056\C,0,1.26498,0.712711,0.000002\C,0,0.0098
 1,1.233927,-0.000061\H,0,2.160727,1.317889,-0.000002\H,0,2.160727,-1.3
 17889,0.000102\H,0,-0.280933,-2.272534,0.000097\S,0,-1.191067,0.,-0.00
 0025\H,0,-0.280934,2.272534,-0.000118\\Version=ES64L-G16RevC.01\State=
 1-A\HF=-551.3985133\RMSD=1.269e-02\Dipole=0.3046958,0.,0.0000075\Quadr

 Normal termination of Gaussian 16 at Wed Apr  9 00:59:08 2025.
