 Gaussian 16, Revision C.01,

 ----------------------------------------------------------------------
 #t hf aug-cc-pvdz symm=none int=(grid=ultrafine) guess=(read,tcheck) s
 table=(opt,rrhf)
 ----------------------------------------------------------------------
 -----
 title
 -----
 Symbolic Z-matrix:
 Charge =  0 Multiplicity = 1

 SCF Done:  E(RHF) =  -1125.27562688     A.U. after   14 cycles
 Normal termination of Gaussian 16 at Wed Apr  9 02:17:04 2025.
 Gaussian 16:  ES64L-G16RevC.01  3-Jul-2019

 ----------------------------------------------------------------------
 #t hf aug-cc-pvdz iop(5/13=1,5/36=2,99/5=2) pseudo=read geom=check gue
 ss=(read,tcheck) scf=(maxcycle=1)
 ----------------------------------------------------------------------
 -----
 title
 -----
 Structure from the checkpoint file:  "BH10_297_reverse_mol2.chk"
 Charge =  0 Multiplicity = 1

                         Standard orientation:
 ---------------------------------------------------------------------
 Center     Atomic      Atomic             Coordinates (Angstroms)
 Number     Number       Type             X           Y           Z
 ---------------------------------------------------------------------
      1          6           0        0.322445   -2.872942   -0.358443
      2          6           0       -0.252025   -1.572739    0.276385
      3          6           0        2.695845   -0.667203    0.020463
      4          1           0       -0.451653   -3.320028   -0.988516
      5          6           0        0.110365   -1.412687    1.765860
      6          1           0        3.653170   -0.172450   -0.169040
      7          1           0       -1.338087   -1.672116    0.252102
      8          6           0        1.560040   -1.678036    2.152277
      9          1           0        1.640938   -1.622450    3.242586
     10          1           0        1.821425   -2.708755    1.896297
     11          6           0        2.594407   -0.732795    1.554500
     12          1           0        2.423613    0.272322    1.949316
     13          1           0        3.577275   -1.034283    1.933319
     14          6           0        2.823634   -2.074798   -0.617978
     15          1           0        3.569121   -2.021025   -1.417409
     16          6           0        1.566756   -2.694817   -1.240529
     17          1           0        1.286929   -2.097124   -2.117198
     18          1           0        1.844061   -3.673606   -1.644419
     19          1           0        3.240269   -2.764300    0.123646
     20          1           0        0.525391   -3.607049    0.427502
     21          6           0        1.610774    0.195652   -0.667965
     22          1           0        1.905336    0.318508   -1.721729
     23         14           0        1.616284    2.030789   -0.120978
     24          6           0        0.476143    2.378345    1.330708
     25          1           0        0.811162    1.887485    2.246528
     26          1           0        0.445170    3.453855    1.527738
     27          1           0       -0.546477    2.048332    1.130628
     28          6           0        1.074691    3.106802   -1.567705
     29          1           0        1.190269    4.161984   -1.304777
     30          1           0        1.687907    2.919893   -2.453239
     31          1           0        0.031130    2.953498   -1.845860
     32          6           0        3.373703    2.548258    0.309695
     33          1           0        4.050965    2.385916   -0.532946
     34          1           0        3.395116    3.615473    0.547223
     35          1           0        3.776810    2.010588    1.169413
     36          5           0        0.169055   -0.397737   -0.681975
     37          6           0       -2.079815   -0.613886   -2.038192
     38          6           0       -3.215753   -0.637021   -1.333110
     39          6           0       -0.854460    0.177983   -1.766870
     40          6           0       -3.439390    0.165798   -0.124781
     41          8           0       -2.641433    0.896527    0.418860
     42          8           0       -4.686956   -0.010240    0.348148
     43          6           0       -5.008460    0.716115    1.535178
     44          1           0       -6.033669    0.447163    1.775541
     45          1           0       -4.337424    0.435850    2.347256
     46          1           0       -4.924407    1.788877    1.361110
     47          1           0       -4.039952   -1.268762   -1.637192
     48          1           0       -0.514604   -2.110040    2.335604
     49          1           0       -0.182632   -0.412696    2.100637
     50          1           0       -1.136595    1.143845   -1.335566
     51          1           0       -0.327112    0.384281   -2.701851
     52          1           0       -2.042967   -1.268006   -2.906163
 ---------------------------------------------------------------------

 SCF Done:  E(RHF) =  -1125.55366784     A.U. after    2 cycles

 The electronic state is 1-A.
 Alpha  occ. eigenvalues --  -69.03755 -20.61258 -20.55218 -11.38900 -11.29294
 Alpha  occ. eigenvalues --  -11.27239 -11.23851 -11.22734 -11.22514 -11.22372
 Alpha  occ. eigenvalues --  -11.21952 -11.21578 -11.21395 -11.21327 -11.21019
 Alpha  occ. eigenvalues --  -11.19926 -11.19867 -11.19238 -11.19118 -11.18409
 Alpha  occ. eigenvalues --   -7.58753  -6.79058  -3.89737  -3.89723  -3.89713
 Alpha  occ. eigenvalues --   -1.41836  -1.31916  -1.10283  -1.08470  -1.03338
 Alpha  occ. eigenvalues --   -1.03090  -0.99876  -0.96739  -0.94232  -0.92981
 Alpha  occ. eigenvalues --   -0.91191  -0.90833  -0.90769  -0.86973  -0.82902
 Alpha  occ. eigenvalues --   -0.79317  -0.78051  -0.76475  -0.71363  -0.70388
 Alpha  occ. eigenvalues --   -0.68193  -0.67031  -0.66132  -0.64987  -0.63864
 Alpha  occ. eigenvalues --   -0.61359  -0.61097  -0.59471  -0.59182  -0.57745
 Alpha  occ. eigenvalues --   -0.57347  -0.56824  -0.56467  -0.56199  -0.55865
 Alpha  occ. eigenvalues --   -0.54985  -0.54375  -0.54118  -0.53606  -0.53219
 Alpha  occ. eigenvalues --   -0.52729  -0.52435  -0.52156  -0.51911  -0.48981
 Alpha  occ. eigenvalues --   -0.48408  -0.47608  -0.47540  -0.46247  -0.45753
 Alpha  occ. eigenvalues --   -0.44574  -0.44158  -0.42769  -0.42509  -0.41404
 Alpha  occ. eigenvalues --   -0.41026  -0.40340  -0.37879  -0.36220
 Alpha virt. eigenvalues --    0.02638   0.03470   0.03637   0.03810   0.04604
 Alpha virt. eigenvalues --    0.04905   0.05060   0.05267   0.05430   0.06160
 Alpha virt. eigenvalues --    0.06462   0.06871   0.07005   0.07050   0.07141

 Mulliken charges:
               1
     1  C    0.573761
     2  C    0.293246
     3  C   -0.233075
     4  H   -0.274247
     5  C    0.493688
     6  H   -0.292680
     7  H   -0.412912
     8  C    0.278955
     9  H   -0.237210
    10  H   -0.014335
    11  C    0.638929
    12  H   -0.179779
    13  H   -0.178644
    14  C    0.516210
    15  H   -0.141696
    16  C    0.694786
    17  H    0.223865
    18  H   -0.293727
    19  H   -0.106576
    20  H   -0.129595
    21  C    0.235052
    22  H   -0.413191
    23  Si  -0.657013
    24  C    1.355221
    25  H   -0.315080
    26  H   -0.457410
    27  H   -0.587356
    28  C    1.014817
    29  H   -0.425240
    30  H   -0.237775
    31  H   -0.319017
    32  C    1.074901
    33  H   -0.349329
    34  H   -0.527179
    35  H   -0.281360
    36  B   -0.594295
    37  C    0.762518
    38  C    1.151599
    39  C    0.075446
    40  C    0.369227
    41  O   -0.422406
    42  O   -0.670649
    43  C    0.897292
    44  H   -0.289306
    45  H   -0.105705
    46  H   -0.102978
    47  H   -0.661257
    48  H   -0.229771
    49  H   -0.160630
    50  H    0.096009
    51  H    0.179305
    52  H   -0.623399
 Sum of Mulliken charges =  -0.00000

 Dipole moment (field-independent basis, Debye):
    X=             -0.3936    Y=             -0.8704    Z=             -0.7318  Tot=              1.2033

 Test job not archived.
 1\1\GINC-SE015\SP\RHF\Aug-CC-pVDZ\C17H31B1O2Si1\OHZDE\09-Apr-2025\0\\#
 t hf aug-cc-pvdz iop(5/13=1,5/36=2,99/5=2) pseudo=read geom=check gues
 s=(read,tcheck) scf=(maxcycle=1)\\title\\0,1\C,0,0.322445,-2.872942,-0
 .358443\C,0,-0.252025,-1.572739,0.276385\C,0,2.695845,-0.667203,0.0204
 63\H,0,-0.451653,-3.320028,-0.988516\C,0,0.110365,-1.412687,1.76586\H,
 0,3.65317,-0.17245,-0.16904\H,0,-1.338087,-1.672116,0.252102\C,0,1.560
 04,-1.678036,2.152277\H,0,1.640938,-1.62245,3.242586\H,0,1.821425,-2.7
 08755,1.896297\C,0,2.594407,-0.732795,1.5545\H,0,2.423613,0.272322,1.9

 Normal termination of Gaussian 16 at Wed Apr  9 02:20:08 2025.
