 Gaussian 16, Revision C.01,

 ----------------------------------------------------------------------
 #t hf aug-cc-pvdz symm=none int=(grid=ultrafine) guess=(read,tcheck) s
 table=opt
 ----------------------------------------------------------------------
 -----
 title
 -----
 Symbolic Z-matrix:
 Charge =  0 Multiplicity = 2

 SCF Done:  E(UHF) =  -815.591922123     A.U. after   24 cycles
 Normal termination of Gaussian 16 at Wed Apr  9 00:59:21 2025.
 Gaussian 16:  ES64L-G16RevC.01  3-Jul-2019

 ----------------------------------------------------------------------
 #t hf aug-cc-pvdz iop(5/13=1,5/36=2,99/5=2) pseudo=read geom=check gue
 ss=(read,tcheck) scf=(maxcycle=1)
 ----------------------------------------------------------------------
 -----
 title
 -----
 Structure from the checkpoint file:  "BH10_223_reverse_mol2.chk"
 Charge =  0 Multiplicity = 2

                         Standard orientation:
 ---------------------------------------------------------------------
 Center     Atomic      Atomic             Coordinates (Angstroms)
 Number     Number       Type             X           Y           Z
 ---------------------------------------------------------------------
      1          8           0        2.948715   -1.308680   -0.082153
      2          6           0        2.739308   -0.113695   -0.079759
      3          8           0        3.708271    0.789126   -0.351288
      4          6           0        1.465183    0.499975    0.204013
      5          6           0        0.304319   -0.344031    0.556291
      6          1           0        1.365228    1.576104    0.170970
      7          6           0       -1.020036    0.313465    0.212107
      8          1           0        0.280189   -0.511876    1.644567
      9          1           0        0.392646   -1.337157    0.111175
     10         16           0       -2.326709   -0.844617   -0.094874
     11          6           0       -3.693130    0.314926   -0.338815
     12          1           0       -3.858730    0.899781    0.562977
     13          1           0       -4.573914   -0.284826   -0.560833
     14          1           0       -3.475781    0.980004   -1.171131
     15          8           0       -1.181321    1.503977    0.179169
     16          1           0        4.518533    0.292624   -0.528594
 ---------------------------------------------------------------------

 SCF Done:  E(UHF) =  -815.744204991     A.U. after    2 cycles

 The electronic state is 2-A.
 Alpha  occ. eigenvalues --  -93.55836 -20.62682 -20.58379 -20.58232 -11.39949
 Alpha  occ. eigenvalues --  -11.38558 -11.29050 -11.27662 -11.27523  -8.85763
 Alpha  occ. eigenvalues --   -6.19918  -6.19673  -6.19369  -1.43428  -1.38520
 Alpha  occ. eigenvalues --   -1.34132  -1.11208  -1.06178  -0.98511  -0.90077
 Alpha  occ. eigenvalues --   -0.81534  -0.75771  -0.73313  -0.72037  -0.68137
 Alpha  occ. eigenvalues --   -0.66500  -0.65601  -0.64256  -0.61621  -0.60338
 Alpha  occ. eigenvalues --   -0.58295  -0.56051  -0.55003  -0.53976  -0.49880
 Alpha  occ. eigenvalues --   -0.49323  -0.43552  -0.40059  -0.37778
 Alpha virt. eigenvalues --    0.03305   0.03895   0.04719   0.05360   0.05814
 Alpha virt. eigenvalues --    0.06619   0.07009   0.09205   0.10382   0.10981
 Alpha virt. eigenvalues --    0.11484   0.12092   0.12570   0.12898   0.13452

  Beta  occ. eigenvalues --  -93.55833 -20.62701 -20.58433 -20.57030 -11.40535
  Beta  occ. eigenvalues --  -11.38468 -11.27811 -11.27660 -11.26805  -8.85759
  Beta  occ. eigenvalues --   -6.19914  -6.19671  -6.19362  -1.42804  -1.38597
  Beta  occ. eigenvalues --   -1.32310  -1.08542  -1.05207  -0.96237  -0.89979
  Beta  occ. eigenvalues --   -0.80017  -0.74891  -0.72463  -0.71418  -0.66333
  Beta  occ. eigenvalues --   -0.65608  -0.64747  -0.63532  -0.61056  -0.59955
  Beta  occ. eigenvalues --   -0.57942  -0.55501  -0.54219  -0.49257  -0.48296
  Beta  occ. eigenvalues --   -0.47953  -0.43007  -0.37988
  Beta virt. eigenvalues --    0.03256   0.03836   0.03971   0.04747   0.05378
  Beta virt. eigenvalues --    0.05860   0.06701   0.07030   0.09233   0.10599
  Beta virt. eigenvalues --    0.11043   0.11495   0.12200   0.12820   0.13015

 Mulliken charges and spin densities:
               1          2
     1  O   -0.478630   0.273020
     2  C    0.497917  -0.388448
     3  O   -0.530339   0.004865
     4  C    0.660319   1.350888
     5  C    0.035018  -0.245483
     6  H   -0.369728  -0.072757
     7  C   -0.040541   0.030664
     8  H    0.153780   0.048018
     9  H   -0.032444   0.012880
    10  S    0.428115   0.001956
    11  C    0.128806  -0.000170
    12  H   -0.033001  -0.000059
    13  H   -0.123851   0.000029
    14  H   -0.018909  -0.000085
    15  O   -0.491009  -0.010792
    16  H    0.214497  -0.004526
 Sum of Mulliken charges =  -0.00000   1.00000

 Dipole moment (field-independent basis, Debye):
    X=             -1.1426    Y=              0.0421    Z=              0.1730  Tot=              1.1564
                          Isotropic Fermi Contact Couplings
        Atom                 a.u.       MegaHertz       Gauss      10(-4) cm-1
     1  O(17)              0.10225     -61.98050     -22.11618     -20.67447
     2  C(13)             -0.09080    -102.07408     -36.42257     -34.04825
     3  O(17)             -0.01075       6.51428       2.32446       2.17293
     4  C(13)              0.19027     213.90149      76.32537      71.34986
     5  C(13)             -0.05596     -62.90589     -22.44639     -20.98315
     6  H(1)              -0.02348    -104.93093     -37.44197     -35.00119
     7  C(13)              0.01855      20.85016       7.43985       6.95486
     8  H(1)               0.02420     108.17154      38.59829      36.08214

 Normal termination of Gaussian 16 at Wed Apr  9 00:59:30 2025.
