 Gaussian 16, Revision C.01,

 ----------------------------------------------------------------------
 #t hf aug-cc-pvdz symm=none int=(grid=ultrafine) guess=(read,tcheck) s
 table=(opt,rrhf)
 ----------------------------------------------------------------------
 -----
 title
 -----
 Symbolic Z-matrix:
 Charge =  0 Multiplicity = 1

 SCF Done:  E(RHF) =  -485.759183215     A.U. after   16 cycles
 Normal termination of Gaussian 16 at Wed Apr  9 00:58:04 2025.
 Gaussian 16:  ES64L-G16RevC.01  3-Jul-2019

 ----------------------------------------------------------------------
 #t hf aug-cc-pvdz iop(5/13=1,5/36=2,99/5=2) pseudo=read geom=check gue
 ss=(read,tcheck) scf=(maxcycle=1)
 ----------------------------------------------------------------------
 -----
 title
 -----
 Structure from the checkpoint file:  "BH10_112_forward_mol2.chk"
 Charge =  0 Multiplicity = 1

                         Standard orientation:
 ---------------------------------------------------------------------
 Center     Atomic      Atomic             Coordinates (Angstroms)
 Number     Number       Type             X           Y           Z
 ---------------------------------------------------------------------
      1          6           0        1.898213    0.008896    0.001424
      2          6           0        2.466225   -0.610714   -1.263819
      3          6           0        0.382268    0.013958   -0.000143
      4          6           0        2.463479   -0.617115    1.264734
      5          1           0        2.089958   -0.081191   -2.139554
      6          1           0        2.174433   -1.658841   -1.343225
      7          1           0        3.555663   -0.550250   -1.251559
      8          6           0       -0.323327   -1.188229   -0.002833
      9          6           0       -0.335905    1.200895   -0.001829
     10          1           0        2.171320   -1.665559    1.338400
     11          1           0        2.085581   -0.091806    2.142300
     12          1           0        3.552951   -0.556861    1.254972
     13          6           0       -1.725798    1.184854   -0.005030
     14          6           0       -2.435492   -0.008934   -0.005523
     15          6           0       -1.707332   -1.197870   -0.006029
     16          1           0        0.208880   -2.132808   -0.004349
     17          1           0       -2.233321   -2.146678   -0.010164
     18          1           0        0.195661    2.142410   -0.002323
     19          1           0       -2.265627    2.125503   -0.008359
     20          6           0       -3.939722   -0.028650    0.007891
     21          1           0       -4.349742    0.965724   -0.172190
     22          1           0       -4.333938   -0.700150   -0.757913
     23          1           0       -4.318884   -0.375314    0.972967
     24          9           0        2.334601    1.353699    0.005327
 ---------------------------------------------------------------------

 SCF Done:  E(RHF) =  -485.909872303     A.U. after    2 cycles

 The electronic state is 1-A.
 Alpha  occ. eigenvalues --  -26.09278 -11.33063 -11.24768 -11.24557 -11.24407
 Alpha  occ. eigenvalues --  -11.23978 -11.23796 -11.23683 -11.23444 -11.23255
 Alpha  occ. eigenvalues --  -11.23249  -1.62459  -1.15534  -1.08963  -1.02651
 Alpha  occ. eigenvalues --   -1.00985  -0.95083  -0.93562  -0.85048  -0.82994
 Alpha  occ. eigenvalues --   -0.79098  -0.74222  -0.71615  -0.69485  -0.64786
 Alpha  occ. eigenvalues --   -0.63768  -0.62821  -0.59625  -0.58838  -0.58217
 Alpha  occ. eigenvalues --   -0.57182  -0.55840  -0.54712  -0.54340  -0.52681
 Alpha  occ. eigenvalues --   -0.50561  -0.48953  -0.48175  -0.47454  -0.34106
 Alpha  occ. eigenvalues --   -0.32486
 Alpha virt. eigenvalues --    0.03201   0.03667   0.04347   0.04856   0.05198
 Alpha virt. eigenvalues --    0.05859   0.05994   0.06849   0.07392   0.07428
 Alpha virt. eigenvalues --    0.08191   0.08250   0.09520   0.10690   0.11391

 Mulliken charges:
               1
     1  C   -1.380279
     2  C    0.674209
     3  C    0.866625
     4  C    0.684232
     5  H    0.018505
     6  H    0.024390
     7  H   -0.036874
     8  C    0.393510
     9  C    0.174024
    10  H    0.023100
    11  H    0.020041
    12  H   -0.037719
    13  C    0.403327
    14  C   -0.044119
    15  C    0.345886
    16  H   -0.736006
    17  H   -0.600087
    18  H   -0.642380
    19  H   -0.580298
    20  C    0.909636
    21  H   -0.176836
    22  H    0.029131
    23  H    0.100041
    24  F   -0.432058
 Sum of Mulliken charges =  -0.00000

 Dipole moment (field-independent basis, Debye):
    X=             -0.9410    Y=             -2.0825    Z=              0.0099  Tot=              2.2852

 Test job not archived.
 1\1\GINC-SE339\SP\RHF\Aug-CC-pVDZ\C10H13F1\OHZDE\09-Apr-2025\0\\#t hf
 aug-cc-pvdz iop(5/13=1,5/36=2,99/5=2) pseudo=read geom=check guess=(re
 ad,tcheck) scf=(maxcycle=1)\\title\\0,1\C,0,1.898213,0.008896,0.001424
 \C,0,2.466225,-0.610714,-1.263819\C,0,0.382268,0.013958,-0.000143\C,0,
 2.463479,-0.617115,1.264734\H,0,2.089958,-0.081191,-2.139554\H,0,2.174
 433,-1.658841,-1.343225\H,0,3.555663,-0.55025,-1.251559\C,0,-0.323327,
 -1.188229,-0.002833\C,0,-0.335905,1.200895,-0.001829\H,0,2.17132,-1.66
 5559,1.3384\H,0,2.085581,-0.091806,2.1423\H,0,3.552951,-0.556861,1.254

 Normal termination of Gaussian 16 at Wed Apr  9 00:58:21 2025.
