 Gaussian 16, Revision C.01,

 ----------------------------------------------------------------------
 #t hf aug-cc-pvdz symm=none int=(grid=ultrafine) guess=(read,tcheck) s
 table=opt
 ----------------------------------------------------------------------
 -----
 title
 -----
 Symbolic Z-matrix:
 Charge =  0 Multiplicity = 2

 SCF Done:  E(UHF) =  -1706.37272290     A.U. after   18 cycles
 Normal termination of Gaussian 16 at Wed Apr  9 03:15:12 2025.
 Gaussian 16:  ES64L-G16RevC.01  3-Jul-2019

 ----------------------------------------------------------------------
 #t hf aug-cc-pvdz iop(5/13=1,5/36=2,99/5=2) pseudo=read geom=check gue
 ss=(read,tcheck) scf=(maxcycle=1)
 ----------------------------------------------------------------------
 -----
 title
 -----
 Structure from the checkpoint file:  "BH10_303_reverse_mol2.chk"
 Charge =  0 Multiplicity = 2

                         Standard orientation:
 ---------------------------------------------------------------------
 Center     Atomic      Atomic             Coordinates (Angstroms)
 Number     Number       Type             X           Y           Z
 ---------------------------------------------------------------------
      1         14           0        1.009991   -0.256438    1.884303
      2         14           0       -1.200987    2.056673   -0.200994
      3         14           0       -1.692643   -1.712535   -0.442613
      4          6           0       -0.216905    0.178798    3.250789
      5          1           0        0.237274    0.016045    4.232524
      6          1           0       -0.516298    1.228061    3.197695
      7          1           0       -1.122594   -0.428213    3.198740
      8          6           0        1.574619   -2.036687    2.151247
      9          1           0        2.089746   -2.139097    3.110697
     10          1           0        0.722493   -2.720702    2.158999
     11          1           0        2.259273   -2.371292    1.369010
     12          6           0        2.485723    0.901675    2.062191
     13          1           0        2.919441    0.805869    3.062063
     14          1           0        3.271250    0.688465    1.336423
     15          1           0        2.185943    1.942595    1.926083
     16          6           0       -1.595712    2.533109   -1.982613
     17          1           0       -2.227738    1.783995   -2.465007
     18          1           0       -2.125127    3.489559   -2.018874
     19          1           0       -0.687298    2.633870   -2.581059
     20          6           0       -2.816323    1.957195    0.767858
     21          1           0       -2.647119    1.646584    1.801263
     22          1           0       -3.305969    2.934988    0.791263
     23          1           0       -3.515683    1.249057    0.318252
     24          6           0       -0.147728    3.419490    0.567220
     25          1           0        0.031574    3.233303    1.628591
     26          1           0        0.824692    3.501554    0.077329
     27          1           0       -0.650613    4.387155    0.481735
     28          6           0       -2.691215   -1.939895    1.140872
     29          1           0       -3.148189   -1.006372    1.474738
     30          1           0       -3.493689   -2.665817    0.980852
     31          1           0       -2.066230   -2.315368    1.954461
     32          6           0       -2.874739   -1.261860   -1.842999
     33          1           0       -3.596087   -2.066690   -2.011628
     34          1           0       -3.438290   -0.353284   -1.620318
     35          1           0       -2.338226   -1.097425   -2.780849
     36          6           0       -0.902252   -3.371030   -0.869946
     37          1           0       -1.669281   -4.149583   -0.919398
     38          1           0       -0.399803   -3.340003   -1.838965
     39          1           0       -0.166735   -3.676183   -0.122221
     40          6           0        1.090971   -0.040486   -1.720807
     41          6           0        2.047386    1.097905   -1.718875
     42          6           0        2.004337   -1.284985   -1.840918
     43          6           0        3.467204    0.643088   -1.633837
     44          1           0        1.756204    2.128814   -1.870720
     45          6           0        3.352274   -0.842969   -1.258583
     46          1           0        1.610282   -2.170830   -1.342186
     47          1           0        2.127338   -1.539805   -2.898239
     48          1           0        3.971485    0.754973   -2.605921
     49          1           0        4.065429    1.217483   -0.918619
     50          1           0        4.185066   -1.442438   -1.629611
     51          1           0        3.340134   -0.948504   -0.171804
     52         14           0       -0.084011   -0.012719   -0.180978
     53          1           0        0.398614    0.019421   -2.570919
 ---------------------------------------------------------------------

 SCF Done:  E(UHF) =  -1706.63086906     A.U. after    2 cycles

 The electronic state is 2-A.
 Alpha  occ. eigenvalues --  -69.03666 -69.03605 -69.03520 -69.01315 -11.22777
 Alpha  occ. eigenvalues --  -11.22679 -11.22559 -11.22491 -11.21930 -11.20616
 Alpha  occ. eigenvalues --  -11.20589 -11.20532 -11.20507 -11.20477 -11.20475
 Alpha  occ. eigenvalues --  -11.20459 -11.20442 -11.20328  -6.78991  -6.78938
 Alpha  occ. eigenvalues --   -6.78860  -6.77102  -3.89716  -3.89711  -3.89692
 Alpha  occ. eigenvalues --   -3.89659  -3.89656  -3.89650  -3.89584  -3.89579
 Alpha  occ. eigenvalues --   -3.89556  -3.87785  -3.87678  -3.87667  -1.11617
 Alpha  occ. eigenvalues --   -0.96498  -0.95988  -0.95575  -0.95268  -0.95159
 Alpha  occ. eigenvalues --   -0.91782  -0.91620  -0.91586  -0.91380  -0.91335
 Alpha  occ. eigenvalues --   -0.91283  -0.78249  -0.76033  -0.68785  -0.66314
 Alpha  occ. eigenvalues --   -0.64267  -0.61253  -0.61167  -0.58788  -0.57620
 Alpha  occ. eigenvalues --   -0.57510  -0.57051  -0.56665  -0.56536  -0.56342
 Alpha  occ. eigenvalues --   -0.55708  -0.55573  -0.55318  -0.54585  -0.54419
 Alpha  occ. eigenvalues --   -0.54025  -0.53856  -0.53612  -0.53532  -0.53288
 Alpha  occ. eigenvalues --   -0.52899  -0.52789  -0.52646  -0.51126  -0.49879
 Alpha  occ. eigenvalues --   -0.48187  -0.47564  -0.47214  -0.43787  -0.43160
 Alpha  occ. eigenvalues --   -0.43098  -0.42526  -0.42514  -0.42250  -0.40609
 Alpha  occ. eigenvalues --   -0.33301  -0.33067  -0.29260
 Alpha virt. eigenvalues --    0.02697   0.03456   0.03474   0.03518   0.04896
 Alpha virt. eigenvalues --    0.04999   0.05100   0.05144   0.05273   0.06515
 Alpha virt. eigenvalues --    0.06639   0.06689   0.06858   0.07113   0.07176

  Beta  occ. eigenvalues --  -69.03669 -69.03594 -69.03523 -69.01244 -11.22892
  Beta  occ. eigenvalues --  -11.22650 -11.22474 -11.22250 -11.20616 -11.20588
  Beta  occ. eigenvalues --  -11.20522 -11.20508 -11.20478 -11.20477 -11.20455
  Beta  occ. eigenvalues --  -11.20442 -11.20328 -11.20309  -6.78995  -6.78922
  Beta  occ. eigenvalues --   -6.78864  -6.76986  -3.89717  -3.89712  -3.89701
  Beta  occ. eigenvalues --   -3.89654  -3.89647  -3.89611  -3.89586  -3.89582
  Beta  occ. eigenvalues --   -3.89565  -3.87629  -3.87617  -3.87550  -1.10034
  Beta  occ. eigenvalues --   -0.96467  -0.95559  -0.95290  -0.95211  -0.92723
  Beta  occ. eigenvalues --   -0.91774  -0.91611  -0.91570  -0.91367  -0.91329
  Beta  occ. eigenvalues --   -0.91278  -0.78027  -0.72477  -0.68076  -0.65448
  Beta  occ. eigenvalues --   -0.63650  -0.61193  -0.61152  -0.58740  -0.57604
  Beta  occ. eigenvalues --   -0.57503  -0.56704  -0.56637  -0.56357  -0.56106
  Beta  occ. eigenvalues --   -0.55645  -0.55505  -0.55173  -0.54408  -0.54129
  Beta  occ. eigenvalues --   -0.53958  -0.53639  -0.53524  -0.53294  -0.52928
  Beta  occ. eigenvalues --   -0.52782  -0.52704  -0.52048  -0.50387  -0.49068
  Beta  occ. eigenvalues --   -0.47908  -0.47442  -0.46714  -0.43541  -0.43146
  Beta  occ. eigenvalues --   -0.43091  -0.42519  -0.42474  -0.42249  -0.38132
  Beta  occ. eigenvalues --   -0.33055  -0.32966
  Beta virt. eigenvalues --    0.02700   0.03457   0.03475   0.03526   0.04898
  Beta virt. eigenvalues --    0.04998   0.05104   0.05150   0.05269   0.06512
  Beta virt. eigenvalues --    0.06639   0.06692   0.06853   0.07116   0.07178

 Mulliken charges and spin densities:
               1          2
     1  Si   0.037604  -0.022518
     2  Si  -0.042240  -0.000213
     3  Si  -0.030280   0.030721
     4  C    1.153878   0.000110
     5  H   -0.477486   0.000538
     6  H   -0.441043  -0.000005
     7  H   -0.522559  -0.001477
     8  C    1.020220   0.000753
     9  H   -0.454339   0.000025
    10  H   -0.433415   0.000319
    11  H   -0.463047   0.000011
    12  C    1.152459   0.001427
    13  H   -0.414164  -0.000142
    14  H   -0.570675   0.000734
    15  H   -0.509687   0.002972
    16  C    0.980763   0.001020
    17  H   -0.424521   0.000956
    18  H   -0.446646  -0.000531
    19  H   -0.401551   0.004254
    20  C    0.991464  -0.002589
    21  H   -0.432895  -0.000226
    22  H   -0.491556  -0.000079
    23  H   -0.457610   0.000197
    24  C    1.028124   0.001828
    25  H   -0.458302  -0.001163
    26  H   -0.417676   0.000027
    27  H   -0.457278   0.000122
    28  C    1.111633   0.004564
    29  H   -0.507581  -0.000755
    30  H   -0.410031   0.001172
    31  H   -0.436589  -0.000928
    32  C    1.003826  -0.001355
    33  H   -0.463849   0.000673
    34  H   -0.457465   0.000161
    35  H   -0.388739  -0.000909
    36  C    0.958398  -0.003874
    37  H   -0.527629  -0.000140
    38  H   -0.294681  -0.000691
    39  H   -0.429750   0.000459
    40  C   -0.113864  -0.422708
    41  C    0.727146   1.721029
    42  C    0.624701   0.017831
    43  C    0.407938  -0.332529
    44  H   -0.700218  -0.138223
    45  C    0.639497   0.005915
    46  H   -0.343733   0.005448
    47  H   -0.238173  -0.002322
    48  H   -0.111547   0.044605
    49  H   -0.168215   0.020055
    50  H   -0.182611   0.001128
    51  H   -0.335494  -0.007377
    52  Si   3.189291   0.027495
    53  H   -0.569804   0.044205
 Sum of Mulliken charges =  -0.00000   1.00000

 Dipole moment (field-independent basis, Debye):
    X=              0.2071    Y=             -0.1452    Z=             -0.2064  Tot=              0.3265
                          Isotropic Fermi Contact Couplings
        Atom                 a.u.       MegaHertz       Gauss      10(-4) cm-1
     1  Si(29)            -0.00301       2.67354       0.95399       0.89180
     2  Si(29)            -0.00326       2.89833       1.03420       0.96678
     3  Si(29)             0.01014      -9.00909      -3.21467      -3.00511
     4  C(13)              0.00017       0.19413       0.06927       0.06475
     5  H(1)               0.00004       0.15762       0.05624       0.05258
     6  H(1)               0.00000       0.00562       0.00200       0.00187
     7  H(1)               0.00002       0.09326       0.03328       0.03111
     8  C(13)             -0.00018      -0.20139      -0.07186      -0.06718

 Normal termination of Gaussian 16 at Wed Apr  9 03:18:43 2025.
