 Gaussian 16, Revision C.01,

 ----------------------------------------------------------------------
 #t hf aug-cc-pvdz symm=none int=(grid=ultrafine) guess=(read,tcheck) s
 table=(opt,rrhf)
 ----------------------------------------------------------------------
 -----
 title
 -----
 Symbolic Z-matrix:
 Charge =  1 Multiplicity = 1

 SCF Done:  E(RHF) =  -1454.38055821     A.U. after   17 cycles
 Normal termination of Gaussian 16 at Wed Apr  9 02:02:52 2025.
 Gaussian 16:  ES64L-G16RevC.01  3-Jul-2019

 ----------------------------------------------------------------------
 #t hf aug-cc-pvdz iop(5/13=1,5/36=2,99/5=2) pseudo=read geom=check gue
 ss=(read,tcheck) scf=(maxcycle=1)
 ----------------------------------------------------------------------
 -----
 title
 -----
 Structure from the checkpoint file:  "BH10_329_forward_mol1.chk"
 Charge =  1 Multiplicity = 1

                         Standard orientation:
 ---------------------------------------------------------------------
 Center     Atomic      Atomic             Coordinates (Angstroms)
 Number     Number       Type             X           Y           Z
 ---------------------------------------------------------------------
      1         16           0        3.258012   -1.901496   -0.247256
      2          6           0        3.296130   -2.328308    1.511134
      3          1           0        2.390930   -2.013626    2.028249
      4          1           0        3.391190   -3.411150    1.571964
      5          1           0        4.169948   -1.874280    1.976335
      6          6           0        3.380857   -0.086250   -0.235749
      7          6           0        1.016170   -2.420872   -0.918776
      8          1           0        0.775748   -2.665408    0.103026
      9          1           0        1.401154   -3.193165   -1.564722
     10          1           0        0.941149   -1.406351   -1.278486
     11          7           0       -0.918152   -2.765224   -1.427091
     12          6           0       -1.724530   -2.098564   -0.476851
     13          7           0       -1.974877   -2.740135    0.649856
     14          6           0       -2.703755   -2.115795    1.588836
     15          7           0       -3.212817   -0.894932    1.520027
     16          6           0       -2.931689   -0.275086    0.383579
     17          6           0       -2.171274   -0.802102   -0.667979
     18          7           0       -2.047647    0.118250   -1.686708
     19          6           0       -2.728411    1.151304   -1.256147
     20          7           0       -3.293738    0.978491   -0.026787
     21          1           0       -2.843749    2.078338   -1.797558
     22          6           0       -3.985841    1.981630    0.769915
     23          1           0       -4.478296    1.475097    1.596677
     24          1           0       -4.732926    2.485444    0.159263
     25          1           0       -3.265098    2.703271    1.153812
     26          1           0       -1.064171   -3.770237   -1.377981
     27          1           0       -1.058943   -2.415224   -2.371532
     28          6           0        2.411925    0.686230    0.644629
     29          1           0        3.260056    0.215214   -1.274947
     30          1           0        4.397459    0.159762    0.071433
     31          6           0        0.949646    0.713823    0.210306
     32          6           0        0.507175    2.078928    0.751822
     33          6           0        1.757460    2.952870    0.521589
     34          8           0        2.854778    2.044397    0.619360
     35          7           0        1.653769    3.625506   -0.740351
     36          1           0        1.875901    3.705257    1.300962
     37          8           0       -0.629879    2.595701    0.118243
     38          1           0        0.314105    1.986723    1.824023
     39          8           0        0.876382    0.662712   -1.201329
     40          1           0        0.374963   -0.103537    0.658749
     41          1           0       -0.045849    0.796130   -1.476606
     42          1           0       -0.292754    3.305699   -0.460199
     43          1           0        2.465981    0.323579    1.676839
     44          1           0        2.270570    4.423465   -0.812103
     45          1           0        1.819593    2.994015   -1.516807
     46          1           0       -2.894345   -2.678082    2.495050
 ---------------------------------------------------------------------

 SCF Done:  E(RHF) =  -1454.71420448     A.U. after    2 cycles

 The electronic state is 1-A.
 Alpha  occ. eigenvalues --  -93.68211 -20.69504 -20.68321 -20.68035 -15.81663
 Alpha  occ. eigenvalues --  -15.80349 -15.74955 -15.74781 -15.74520 -15.71996
 Alpha  occ. eigenvalues --  -11.47659 -11.47106 -11.45152 -11.44630 -11.44014
 Alpha  occ. eigenvalues --  -11.42957 -11.41876 -11.41301 -11.40365 -11.39350
 Alpha  occ. eigenvalues --  -11.39098 -11.39061 -11.38525  -8.97951  -6.32110
 Alpha  occ. eigenvalues --   -6.31967  -6.31731  -1.48063  -1.46278  -1.44383
 Alpha  occ. eigenvalues --   -1.43333  -1.40626  -1.35462  -1.29199  -1.26319
 Alpha  occ. eigenvalues --   -1.25773  -1.20761  -1.15794  -1.14869  -1.11865
 Alpha  occ. eigenvalues --   -1.10522  -1.08362  -1.04251  -1.01527  -1.00042
 Alpha  occ. eigenvalues --   -0.95545  -0.93487  -0.92673  -0.90703  -0.88798
 Alpha  occ. eigenvalues --   -0.87000  -0.84514  -0.83472  -0.82004  -0.80835
 Alpha  occ. eigenvalues --   -0.79997  -0.79047  -0.78417  -0.77889  -0.77507
 Alpha  occ. eigenvalues --   -0.76279  -0.75466  -0.74615  -0.73466  -0.72912
 Alpha  occ. eigenvalues --   -0.72082  -0.71739  -0.71300  -0.70820  -0.70492
 Alpha  occ. eigenvalues --   -0.70010  -0.69152  -0.67410  -0.67028  -0.66129
 Alpha  occ. eigenvalues --   -0.64278  -0.63648  -0.62132  -0.60588  -0.59879
 Alpha  occ. eigenvalues --   -0.59623  -0.58383  -0.57007  -0.56372  -0.55302
 Alpha  occ. eigenvalues --   -0.54808  -0.52714  -0.51517  -0.48918  -0.47925
 Alpha  occ. eigenvalues --   -0.44098
 Alpha virt. eigenvalues --   -0.06475  -0.05535  -0.04776  -0.04230  -0.03490
 Alpha virt. eigenvalues --   -0.03397  -0.03000  -0.02894  -0.02803  -0.02668
 Alpha virt. eigenvalues --   -0.01358  -0.01035  -0.00834  -0.00726  -0.00345

 Mulliken charges:
               1
     1  S    0.422568
     2  C    0.385961
     3  H   -0.182613
     4  H   -0.162136
     5  H   -0.152667
     6  C    0.301571
     7  C    1.254561
     8  H   -0.034205
     9  H   -0.138271
    10  H   -0.303777
    11  N   -0.380374
    12  C   -0.360449
    13  N   -0.398247
    14  C    0.495183
    15  N   -0.307565
    16  C    0.098202
    17  C    1.399129
    18  N   -0.972001
    19  C    1.093010
    20  N   -0.290808
    21  H   -0.494340
    22  C    0.875692
    23  H   -0.214657
    24  H   -0.174809
    25  H   -0.139595
    26  H    0.073092
    27  H    0.118752
    28  C    1.700635
    29  H   -0.034918
    30  H   -0.101644
    31  C   -0.697740
    32  C    0.883517
    33  C    1.141938
    34  O   -0.824147
    35  N   -0.398202
    36  H   -0.288357
    37  O   -0.878817
    38  H   -0.230609
    39  O   -0.807280
    40  H   -0.316210
    41  H    0.302541
    42  H    0.395659
    43  H   -0.305792
    44  H    0.023997
    45  H    0.087018
    46  H   -0.462796
 Sum of Mulliken charges =   1.00000

 Dipole moment (field-independent basis, Debye):
    X=              1.0062    Y=             -3.0138    Z=             -1.0926  Tot=              3.3600

 Test job not archived.
 1\1\GINC-SE159\SP\RHF\Aug-CC-pVDZ\C13H23N6O3S1(1+)\OHZDE\09-Apr-2025\0
 \\#t hf aug-cc-pvdz iop(5/13=1,5/36=2,99/5=2) pseudo=read geom=check g
 uess=(read,tcheck) scf=(maxcycle=1)\\title\\1,1\S,0,3.258012,-1.901496
 ,-0.247256\C,0,3.29613,-2.328308,1.511134\H,0,2.39093,-2.013626,2.0282
 49\H,0,3.39119,-3.41115,1.571964\H,0,4.169948,-1.87428,1.976335\C,0,3.
 380857,-0.08625,-0.235749\C,0,1.01617,-2.420872,-0.918776\H,0,0.775748
 ,-2.665408,0.103026\H,0,1.401154,-3.193165,-1.564722\H,0,0.941149,-1.4
 06351,-1.278486\N,0,-0.918152,-2.765224,-1.427091\C,0,-1.72453,-2.0985

 Normal termination of Gaussian 16 at Wed Apr  9 02:05:26 2025.
