 Gaussian 16, Revision C.01,

 ----------------------------------------------------------------------
 #t hf aug-cc-pvdz symm=none int=(grid=ultrafine) guess=(read,tcheck) s
 table=(opt,rrhf)
 ----------------------------------------------------------------------
 -----
 title
 -----
 Symbolic Z-matrix:
 Charge =  0 Multiplicity = 1

 SCF Done:  E(RHF) =  -958.518389148     A.U. after   16 cycles
 Normal termination of Gaussian 16 at Wed Apr  9 00:58:50 2025.
 Gaussian 16:  ES64L-G16RevC.01  3-Jul-2019

 ----------------------------------------------------------------------
 #t hf aug-cc-pvdz iop(5/13=1,5/36=2,99/5=2) pseudo=read geom=check gue
 ss=(read,tcheck) scf=(maxcycle=1)
 ----------------------------------------------------------------------
 -----
 title
 -----
 Structure from the checkpoint file:  "BH10_135_forward_mol2.chk"
 Charge =  0 Multiplicity = 1

                         Standard orientation:
 ---------------------------------------------------------------------
 Center     Atomic      Atomic             Coordinates (Angstroms)
 Number     Number       Type             X           Y           Z
 ---------------------------------------------------------------------
      1         17           0        2.081345    2.181418   -0.073890
      2          6           0        1.574669    0.460567   -0.485420
      3          6           0        0.110869    0.277855   -0.206298
      4          6           0        2.454567   -0.487724    0.255854
      5          6           0       -0.752489   -0.062640   -1.232911
      6          6           0       -0.410558    0.408798    1.083319
      7          6           0        3.326066   -1.289305   -0.340117
      8          6           0       -2.107783   -0.282725   -1.001269
      9          6           0       -2.608023   -0.153527    0.287065
     10          6           0       -1.748507    0.196684    1.330576
     11          1           0        0.239895    0.699984    1.899427
     12          1           0       -2.750430   -0.546933   -1.828746
     13          8           0       -3.907666   -0.341704    0.629412
     14          1           0       -2.161427    0.301208    2.325677
     15          1           0       -0.370784   -0.163228   -2.242858
     16          6           0       -4.825300   -0.687139   -0.387675
     17          1           0       -5.792299   -0.785377    0.100071
     18          1           0       -4.558723   -1.638706   -0.857733
     19          1           0       -4.883383    0.093065   -1.152698
     20          6           0        4.205546   -2.271491    0.363264
     21          1           0        5.260276   -2.057250    0.169214
     22          1           0        4.017277   -3.289086    0.009644
     23          1           0        4.044932   -2.249286    1.442100
     24          1           0        3.422308   -1.241089   -1.423195
     25          1           0        2.338851   -0.508409    1.335805
     26          1           0        1.757631    0.378518   -1.554213
 ---------------------------------------------------------------------

 SCF Done:  E(RHF) =  -958.688742643     A.U. after    2 cycles

 The electronic state is 1-A.
 Alpha  occ. eigenvalues -- -103.63665 -20.60318 -11.31459 -11.31351 -11.29944
 Alpha  occ. eigenvalues --  -11.25441 -11.25125 -11.25108 -11.24890 -11.24535
 Alpha  occ. eigenvalues --  -11.24372 -11.24075 -11.23838 -10.66945  -8.32650
 Alpha  occ. eigenvalues --   -8.32378  -8.32375  -1.37785  -1.17481  -1.13774
 Alpha  occ. eigenvalues --   -1.07675  -1.03776  -1.02189  -0.97788  -0.94606
 Alpha  occ. eigenvalues --   -0.87650  -0.84865  -0.80174  -0.76820  -0.73506
 Alpha  occ. eigenvalues --   -0.69009  -0.67237  -0.66999  -0.64054  -0.63190
 Alpha  occ. eigenvalues --   -0.60482  -0.59789  -0.59036  -0.57761  -0.55196
 Alpha  occ. eigenvalues --   -0.54788  -0.53935  -0.53069  -0.52783  -0.51061
 Alpha  occ. eigenvalues --   -0.49291  -0.47605  -0.43996  -0.43926  -0.36690
 Alpha  occ. eigenvalues --   -0.35082  -0.31771
 Alpha virt. eigenvalues --    0.02988   0.03568   0.03875   0.04795   0.05093
 Alpha virt. eigenvalues --    0.05372   0.05940   0.06416   0.06884   0.07639
 Alpha virt. eigenvalues --    0.07843   0.08608   0.09377   0.09596   0.09878

 Mulliken charges:
               1
     1  Cl  -0.108293
     2  C   -0.400416
     3  C    0.768555
     4  C    0.908484
     5  C    0.234282
     6  C    0.627900
     7  C    0.066327
     8  C    0.654531
     9  C    0.641742
    10  C    0.467630
    11  H   -0.644616
    12  H   -0.718253
    13  O   -0.697215
    14  H   -0.591360
    15  H   -0.646120
    16  C    0.908936
    17  H   -0.314067
    18  H   -0.089898
    19  H   -0.086982
    20  C    0.269922
    21  H    0.061502
    22  H    0.070949
    23  H   -0.132420
    24  H   -0.460032
    25  H   -0.503311
    26  H   -0.287777
 Sum of Mulliken charges =  -0.00000

 Dipole moment (field-independent basis, Debye):
    X=             -1.1510    Y=             -3.0050    Z=             -1.5688  Tot=              3.5799

 Test job not archived.
 1\1\GINC-SE461\SP\RHF\Aug-CC-pVDZ\C11H13Cl1O1\OHZDE\09-Apr-2025\0\\#t
 hf aug-cc-pvdz iop(5/13=1,5/36=2,99/5=2) pseudo=read geom=check guess=
 (read,tcheck) scf=(maxcycle=1)\\title\\0,1\Cl,0,2.081345,2.181418,-0.0
 7389\C,0,1.574669,0.460567,-0.48542\C,0,0.110869,0.277855,-0.206298\C,
 0,2.454567,-0.487724,0.255854\C,0,-0.752489,-0.06264,-1.232911\C,0,-0.
 410558,0.408798,1.083319\C,0,3.326066,-1.289305,-0.340117\C,0,-2.10778
 3,-0.282725,-1.001269\C,0,-2.608023,-0.153527,0.287065\C,0,-1.748507,0
 .196684,1.330576\H,0,0.239895,0.699984,1.899427\H,0,-2.75043,-0.546933

 Normal termination of Gaussian 16 at Wed Apr  9 00:59:12 2025.
