 Gaussian 16, Revision C.01,

 ----------------------------------------------------------------------
 #t hf aug-cc-pvdz symm=none int=(grid=ultrafine) guess=(read,tcheck) s
 table=(opt,rrhf)
 ----------------------------------------------------------------------
 -----
 title
 -----
 Symbolic Z-matrix:
 Charge =  0 Multiplicity = 1

 SCF Done:  E(RHF) =  -857.052333905     A.U. after   15 cycles
 Normal termination of Gaussian 16 at Wed Apr  9 01:35:29 2025.
 Gaussian 16:  ES64L-G16RevC.01  3-Jul-2019

 ----------------------------------------------------------------------
 #t hf aug-cc-pvdz iop(5/13=1,5/36=2,99/5=2) pseudo=read geom=check gue
 ss=(read,tcheck) scf=(maxcycle=1)
 ----------------------------------------------------------------------
 -----
 title
 -----
 Structure from the checkpoint file:  "BH10_413_forward_mol2.chk"
 Charge =  0 Multiplicity = 1

                         Standard orientation:
 ---------------------------------------------------------------------
 Center     Atomic      Atomic             Coordinates (Angstroms)
 Number     Number       Type             X           Y           Z
 ---------------------------------------------------------------------
      1         16           0       -1.232660   -0.235035    0.141959
      2          6           0       -0.254425   -1.390641   -0.934291
      3          6           0        0.857752   -2.243894   -0.272366
      4          6           0        1.767207   -1.315070    0.482543
      5          6           0        1.312010    1.806067   -0.440986
      6          6           0        0.011510    2.410494   -0.011708
      7          6           0       -1.119819    1.487319   -0.504020
      8          6           0        2.361568   -0.302605   -0.155653
      9          6           0        2.004770    1.009205    0.377326
     10          8           0       -0.713826   -0.245790    1.507598
     11          8           0       -2.625117   -0.605474   -0.107077
     12          1           0       -1.039831   -2.011181   -1.364814
     13          1           0        0.170658   -0.769919   -1.722763
     14          1           0        1.363439   -2.769860   -1.088104
     15          1           0        0.417690   -2.995874    0.381908
     16          1           0       -0.182986    3.398897   -0.439597
     17          1           0       -0.038670    2.498928    1.074460
     18          1           0       -1.126803    1.395083   -1.592004
     19          1           0       -2.099499    1.862509   -0.202594
     20          1           0        1.426793    1.668785   -1.515614
     21          1           0        1.843284    1.075535    1.448498
     22          1           0        2.537500   -0.364788   -1.227993
     23          1           0        1.519093   -1.182701    1.528029
 ---------------------------------------------------------------------

 SCF Done:  E(RHF) =  -857.259282622     A.U. after    2 cycles

 The electronic state is 1-A.
 Alpha  occ. eigenvalues --  -93.77385 -20.55304 -20.54808 -11.29587 -11.29393
 Alpha  occ. eigenvalues --  -11.27231 -11.26766 -11.26497 -11.25928 -11.24929
 Alpha  occ. eigenvalues --  -11.24746  -9.04138  -6.38752  -6.38547  -6.38452
 Alpha  occ. eigenvalues --   -1.40494  -1.29284  -1.13841  -1.09745  -1.06465
 Alpha  occ. eigenvalues --   -0.98757  -0.95392  -0.87115  -0.81472  -0.78313
 Alpha  occ. eigenvalues --   -0.76624  -0.70694  -0.67017  -0.65625  -0.65479
 Alpha  occ. eigenvalues --   -0.65056  -0.63261  -0.60109  -0.59367  -0.58865
 Alpha  occ. eigenvalues --   -0.56340  -0.55427  -0.53279  -0.52520  -0.50858
 Alpha  occ. eigenvalues --   -0.49990  -0.49254  -0.48033  -0.43683  -0.42997
 Alpha  occ. eigenvalues --   -0.30410
 Alpha virt. eigenvalues --    0.02682   0.03530   0.04325   0.04595   0.05663
 Alpha virt. eigenvalues --    0.05709   0.06139   0.06886   0.07062   0.08168
 Alpha virt. eigenvalues --    0.08503   0.08824   0.09741   0.11135   0.11688

 Mulliken charges:
               1
     1  S    2.645227
     2  C   -0.243800
     3  C    0.370381
     4  C    0.540939
     5  C    0.405623
     6  C    0.326065
     7  C   -0.158767
     8  C    0.231970
     9  C    0.369374
    10  O   -1.243191
    11  O   -1.169590
    12  H   -0.011509
    13  H   -0.171054
    14  H    0.001455
    15  H   -0.123754
    16  H   -0.044860
    17  H   -0.108301
    18  H   -0.089609
    19  H   -0.022177
    20  H   -0.430953
    21  H   -0.339051
    22  H   -0.356918
    23  H   -0.377501
 Sum of Mulliken charges =  -0.00000

 Dipole moment (field-independent basis, Debye):
    X=              2.1819    Y=              0.9415    Z=             -3.6538  Tot=              4.3586

 Test job not archived.
 1\1\GINC-SE364\SP\RHF\Aug-CC-pVDZ\C8H12O2S1\OHZDE\09-Apr-2025\0\\#t hf
  aug-cc-pvdz iop(5/13=1,5/36=2,99/5=2) pseudo=read geom=check guess=(r
 ead,tcheck) scf=(maxcycle=1)\\title\\0,1\S,0,-1.23266,-0.235035,0.1419
 59\C,0,-0.254425,-1.390641,-0.934291\C,0,0.857753,-2.243894,-0.272366\
 C,0,1.767207,-1.315069,0.482543\C,0,1.312009,1.806067,-0.440986\C,0,0.
 011509,2.410494,-0.011708\C,0,-1.11982,1.487319,-0.50402\C,0,2.361568,
 -0.302604,-0.155653\C,0,2.00477,1.009206,0.377326\O,0,-0.713826,-0.245
 79,1.507598\O,0,-2.625117,-0.605475,-0.107077\H,0,-1.039831,-2.011181,

 Normal termination of Gaussian 16 at Wed Apr  9 01:35:47 2025.
