 Gaussian 16, Revision C.01,

 ----------------------------------------------------------------------
 #t hf aug-cc-pvdz symm=none int=(grid=ultrafine) guess=(read,tcheck) s
 table=(opt,rrhf)
 ----------------------------------------------------------------------
 -----
 title
 -----
 Symbolic Z-matrix:
 Charge = -1 Multiplicity = 1

 SCF Done:  E(RHF) =  -1631.07382020     A.U. after   14 cycles
 Normal termination of Gaussian 16 at Wed Apr  9 01:12:02 2025.
 Gaussian 16:  ES64L-G16RevC.01  3-Jul-2019

 ----------------------------------------------------------------------
 #t hf aug-cc-pvdz iop(5/13=1,5/36=2,99/5=2) pseudo=read geom=check gue
 ss=(read,tcheck) scf=(maxcycle=1)
 ----------------------------------------------------------------------
 -----
 title
 -----
 Structure from the checkpoint file:  "BH10_321_reverse_mol2.chk"
 Charge = -1 Multiplicity = 1

                         Standard orientation:
 ---------------------------------------------------------------------
 Center     Atomic      Atomic             Coordinates (Angstroms)
 Number     Number       Type             X           Y           Z
 ---------------------------------------------------------------------
      1          6           0        1.079662    1.410849    0.676999
      2         16           0        1.821360    1.202703   -0.977643
      3         16           0        1.929649   -1.902803    1.163788
      4          6           0        3.134912   -0.022225   -0.616118
      5          6           0        2.707857   -1.477757   -0.439678
      6          1           0        3.681156    0.319086    0.265626
      7          1           0        3.801638    0.076047   -1.480111
      8          1           0        3.614694   -2.082244   -0.554186
      9          1           0        2.052446   -1.749917   -1.275123
     10         16           0       -0.480943    2.318760    0.663222
     11          6           0       -1.619915    1.239585   -0.257605
     12          6           0       -1.697426   -0.224188    0.174866
     13          1           0       -1.391928    1.292038   -1.324689
     14          1           0       -2.591910    1.706463   -0.098773
     15          6           0       -3.122684   -0.755301   -0.099026
     16          8           0       -4.126986   -0.193750    0.262145
     17          8           0       -3.111223   -1.896629   -0.764916
     18          1           0       -2.122676   -2.036915   -0.915545
     19          7           0       -0.750043   -1.109336   -0.494846
     20          1           0       -1.563921   -0.286528    1.259634
     21          1           0       -0.224531   -0.611038   -1.205368
     22          1           0       -0.040141   -1.500482    0.153737
     23          1           0        1.740718    2.013158    1.300962
     24          1           0        0.984932    0.424372    1.133414
 ---------------------------------------------------------------------

 SCF Done:  E(RHF) =  -1631.26357191     A.U. after    2 cycles

 The electronic state is 1-A.
 Alpha  occ. eigenvalues --  -93.43175 -93.41752 -93.29569 -20.49540 -20.44369
 Alpha  occ. eigenvalues --  -15.50096 -11.27740 -11.18489 -11.17525 -11.17232
 Alpha  occ. eigenvalues --  -11.15076 -11.11985  -8.72915  -8.71510  -8.59276
 Alpha  occ. eigenvalues --   -6.07098  -6.06873  -6.06547  -6.05680  -6.05457
 Alpha  occ. eigenvalues --   -6.05210  -5.93447  -5.93106  -5.93032  -1.30573
 Alpha  occ. eigenvalues --   -1.21379  -1.06456  -0.97084  -0.93690  -0.88725
 Alpha  occ. eigenvalues --   -0.82439  -0.78234  -0.72045  -0.70112  -0.66163
 Alpha  occ. eigenvalues --   -0.63065  -0.62054  -0.57751  -0.56337  -0.52662
 Alpha  occ. eigenvalues --   -0.51687  -0.51214  -0.49365  -0.47577  -0.46898
 Alpha  occ. eigenvalues --   -0.45929  -0.42761  -0.41659  -0.39730  -0.38810
 Alpha  occ. eigenvalues --   -0.37653  -0.36143  -0.33928  -0.31787  -0.29482
 Alpha  occ. eigenvalues --   -0.28094  -0.23922  -0.23254  -0.14548  -0.14203
 Alpha virt. eigenvalues --    0.11671   0.12636   0.12707   0.13878   0.14076
 Alpha virt. eigenvalues --    0.14711   0.15137   0.15730   0.17023   0.17867
 Alpha virt. eigenvalues --    0.18406   0.18684   0.19546   0.20267   0.21062

 Mulliken charges:
               1
     1  C   -0.039444
     2  S    0.244756
     3  S   -0.569638
     4  C   -0.099247
     5  C    0.047788
     6  H   -0.098631
     7  H   -0.106107
     8  H   -0.137060
     9  H   -0.177285
    10  S    0.506784
    11  C    0.336242
    12  C   -0.050126
    13  H   -0.041919
    14  H   -0.123631
    15  C    0.744002
    16  O   -0.541616
    17  O   -0.528003
    18  H    0.389251
    19  N   -0.629246
    20  H    0.009921
    21  H    0.121554
    22  H    0.085477
    23  H   -0.171638
    24  H   -0.172182
 Sum of Mulliken charges =  -1.00000

 Dipole moment (field-independent basis, Debye):
    X=              0.9206    Y=              4.6522    Z=             -3.6484  Tot=              5.9834

 Test job not archived.
 1\1\GINC-SE457\SP\RHF\Aug-CC-pVDZ\C6H12N1O2S3(1-)\OHZDE\09-Apr-2025\0\
 \#t hf aug-cc-pvdz iop(5/13=1,5/36=2,99/5=2) pseudo=read geom=check gu
 ess=(read,tcheck) scf=(maxcycle=1)\\title\\-1,1\C,0,-1.079662,1.410849
 ,-0.676999\S,0,-1.82136,1.202703,0.977643\S,0,-1.929649,-1.902803,-1.1
 63788\C,0,-3.134912,-0.022225,0.616118\C,0,-2.707857,-1.477757,0.43967
 8\H,0,-3.681156,0.319086,-0.265626\H,0,-3.801638,0.076047,1.480111\H,0
 ,-3.614694,-2.082244,0.554186\H,0,-2.052446,-1.749917,1.275123\S,0,0.4
 80943,2.31876,-0.663222\C,0,1.619915,1.239585,0.257605\C,0,1.697426,-0

 Normal termination of Gaussian 16 at Wed Apr  9 01:12:24 2025.
