 Gaussian 16, Revision C.01,

 ----------------------------------------------------------------------
 #t hf aug-cc-pvdz symm=none int=(grid=ultrafine) guess=(read,tcheck) s
 table=(opt,rrhf)
 ----------------------------------------------------------------------
 -----
 title
 -----
 Symbolic Z-matrix:
 Charge =  0 Multiplicity = 1

 SCF Done:  E(RHF) =  -965.965940527     A.U. after   15 cycles
 Normal termination of Gaussian 16 at Wed Apr  9 01:23:53 2025.
 Gaussian 16:  ES64L-G16RevC.01  3-Jul-2019

 ----------------------------------------------------------------------
 #t hf aug-cc-pvdz iop(5/13=1,5/36=2,99/5=2) pseudo=read geom=check gue
 ss=(read,tcheck) scf=(maxcycle=1)
 ----------------------------------------------------------------------
 -----
 title
 -----
 Structure from the checkpoint file:  "BH10_344_reverse_mol2.chk"
 Charge =  0 Multiplicity = 1

                         Standard orientation:
 ---------------------------------------------------------------------
 Center     Atomic      Atomic             Coordinates (Angstroms)
 Number     Number       Type             X           Y           Z
 ---------------------------------------------------------------------
      1          6           0       -0.130998   -1.832230   -0.336168
      2          6           0        0.990238   -1.085813   -0.845927
      3          1           0        0.009853   -2.167562    0.689975
      4          1           0        1.060735   -0.828566   -1.894854
      5          1           0       -0.431079   -2.659142   -0.979103
      6         16           0        1.690127    0.048209    0.193063
      7          8           0        1.427588    1.446350   -0.238849
      8          8           0        1.311694   -0.290458    1.579958
      9          6           0        3.454961   -0.154658    0.082005
     10          6           0        4.239444    0.798143   -0.385226
     11          1           0        3.787887   -1.124638    0.429091
     12          1           0        5.312022    0.658156   -0.448716
     13          1           0        3.815687    1.741064   -0.709680
     14          6           0       -2.741483   -1.441233    0.078435
     15          6           0       -1.514732    0.331877   -0.286613
     16          6           0       -3.554357   -0.359449    0.183055
     17          1           0       -2.956623   -2.489885    0.192405
     18          1           0       -4.606221   -0.277714    0.397124
     19          7           0       -1.481151   -0.985919   -0.218873
     20          7           0       -2.764284    0.747189   -0.048330
     21          6           0       -3.193082    2.137824   -0.013339
     22          1           0       -3.618849    2.369559    0.962117
     23          1           0       -2.324803    2.771245   -0.180061
     24          1           0       -3.931072    2.323653   -0.793116
     25          1           0       -0.655739    0.969678   -0.469975
 ---------------------------------------------------------------------

 SCF Done:  E(RHF) =  -966.209895180     A.U. after    2 cycles

 The electronic state is 1-A.
 Alpha  occ. eigenvalues --  -93.72348 -20.50194 -20.50141 -15.73589 -15.70672
 Alpha  occ. eigenvalues --  -11.35841 -11.32229 -11.31681 -11.31259 -11.28980
 Alpha  occ. eigenvalues --  -11.24347 -11.23582 -11.16793  -8.99010  -6.33646
 Alpha  occ. eigenvalues --   -6.33461  -6.33348  -1.38205  -1.35005  -1.23510
 Alpha  occ. eigenvalues --   -1.22947  -1.07999  -1.04483  -1.03002  -0.99889
 Alpha  occ. eigenvalues --   -0.91144  -0.86474  -0.84408  -0.80295  -0.76613
 Alpha  occ. eigenvalues --   -0.71896  -0.69986  -0.67072  -0.66376  -0.65093
 Alpha  occ. eigenvalues --   -0.64295  -0.64049  -0.62512  -0.61451  -0.60247
 Alpha  occ. eigenvalues --   -0.59911  -0.58040  -0.56164  -0.53339  -0.52359
 Alpha  occ. eigenvalues --   -0.46997  -0.46176  -0.44038  -0.43510  -0.41200
 Alpha  occ. eigenvalues --   -0.38310  -0.37590  -0.27934
 Alpha virt. eigenvalues --    0.01592   0.02757   0.03556   0.04357   0.05075
 Alpha virt. eigenvalues --    0.05862   0.06223   0.06867   0.07415   0.07772
 Alpha virt. eigenvalues --    0.08367   0.09028   0.10051   0.10882   0.11058

 Mulliken charges:
               1
     1  C    0.573782
     2  C   -0.077540
     3  H   -0.123681
     4  H   -0.483928
     5  H   -0.237001
     6  S    2.776246
     7  O   -1.299430
     8  O   -1.250622
     9  C    0.317937
    10  C    0.558273
    11  H   -0.440235
    12  H   -0.271245
    13  H   -0.239290
    14  C    0.374968
    15  C    0.299958
    16  C    0.790195
    17  H   -0.353632
    18  H   -0.338671
    19  N   -0.328288
    20  N   -0.382441
    21  C    0.881801
    22  H   -0.090226
    23  H   -0.203651
    24  H   -0.082080
    25  H   -0.371200
 Sum of Mulliken charges =  -0.00000

 Dipole moment (field-independent basis, Debye):
    X=             -8.3491    Y=             -0.1005    Z=             -2.0868  Tot=              8.6065

 Test job not archived.
 1\1\GINC-SE112\SP\RHF\Aug-CC-pVDZ\C8H12N2O2S1\OHZDE\09-Apr-2025\0\\#t
 hf aug-cc-pvdz iop(5/13=1,5/36=2,99/5=2) pseudo=read geom=check guess=
 (read,tcheck) scf=(maxcycle=1)\\title\\0,1\C,0,-0.130998,-1.83223,-0.3
 36168\C,0,0.990238,-1.085813,-0.845927\H,0,0.009853,-2.167562,0.689975
 \H,0,1.060735,-0.828566,-1.894854\H,0,-0.431079,-2.659142,-0.979103\S,
 0,1.690127,0.048209,0.193063\O,0,1.427588,1.44635,-0.238849\O,0,1.3116
 94,-0.290458,1.579958\C,0,3.454961,-0.154658,0.082005\C,0,4.239444,0.7
 98143,-0.385226\H,0,3.787887,-1.124638,0.429091\H,0,5.312022,0.658156,

 Normal termination of Gaussian 16 at Wed Apr  9 01:24:15 2025.
