 Gaussian 16, Revision C.01,

 ----------------------------------------------------------------------
 #t hf aug-cc-pvdz symm=none int=(grid=ultrafine) guess=(read,tcheck) s
 table=(opt,rrhf)
 ----------------------------------------------------------------------
 -----
 title
 -----
 Symbolic Z-matrix:
 Charge =  0 Multiplicity = 1

 SCF Done:  E(RHF) =  -678.970159051     A.U. after   14 cycles
 Normal termination of Gaussian 16 at Wed Apr  9 01:17:46 2025.
 Gaussian 16:  ES64L-G16RevC.01  3-Jul-2019

 ----------------------------------------------------------------------
 #t hf aug-cc-pvdz iop(5/13=1,5/36=2,99/5=2) pseudo=read geom=check gue
 ss=(read,tcheck) scf=(maxcycle=1)
 ----------------------------------------------------------------------
 -----
 title
 -----
 Structure from the checkpoint file:  "BH10_286_forward_mol1.chk"
 Charge =  0 Multiplicity = 1

                         Standard orientation:
 ---------------------------------------------------------------------
 Center     Atomic      Atomic             Coordinates (Angstroms)
 Number     Number       Type             X           Y           Z
 ---------------------------------------------------------------------
      1          6           0       -0.601337   -0.408195    1.119966
      2          1           0        0.209042   -0.720382    1.791008
      3          5           0       -0.131037   -0.235199   -0.375342
      4          6           0       -1.128162    0.947143    1.630747
      5          1           0       -0.267893    1.615715    1.737611
      6          1           0       -1.555106    0.833701    2.633984
      7          6           0       -1.651061   -1.543940    1.105724
      8          1           0       -1.126483   -2.477343    0.869793
      9          6           0        2.258439    3.112454   -0.000806
     10          1           0        1.722333    3.548001   -0.837319
     11          1           0        2.779067    3.794123    0.659072
     12          6           0        2.271249    1.799177    0.210649
     13          6           0        1.558383    0.823208   -0.607274
     14          1           0        2.821751    1.403274    1.058840
     15          1           0       -2.077176   -1.678097    2.106649
     16          1           0        1.115871    1.167836   -1.533407
     17          6           0        1.814776   -0.540760   -0.544766
     18          8           0        0.823100   -1.300680   -0.915320
     19          8           0        2.846830   -1.060403    0.081688
     20          6           0        2.794005   -2.459950    0.408188
     21          1           0        1.893666   -2.680365    0.979406
     22          1           0        2.809286   -3.059614   -0.500273
     23          1           0        3.683498   -2.647334    1.002570
     24          6           0       -2.792342   -1.359790    0.092072
     25          1           0       -3.324374   -2.310223   -0.013416
     26          1           0       -3.526814   -0.660349    0.490177
     27          6           0       -1.300269    0.253953   -1.304165
     28          1           0       -0.978940    0.396375   -2.342621
     29          6           0       -2.336101   -0.895090   -1.300793
     30          1           0       -1.884105   -1.746608   -1.821921
     31          1           0       -3.214972   -0.610397   -1.890385
     32          6           0       -1.824554    1.602285   -0.775295
     33          1           0       -2.704143    1.918721   -1.347354
     34          1           0       -1.053408    2.357510   -0.967068
     35          6           0       -2.164867    1.630294    0.723732
     36          1           0       -2.269010    2.673153    1.038376
     37          1           0       -3.145295    1.182224    0.884170
 ---------------------------------------------------------------------

 SCF Done:  E(RHF) =  -679.177267167     A.U. after    2 cycles

 The electronic state is 1-A.
 Alpha  occ. eigenvalues --  -20.64437 -20.60096 -11.41829 -11.31637 -11.24874
 Alpha  occ. eigenvalues --  -11.23521 -11.22835 -11.21608 -11.21542 -11.21403
 Alpha  occ. eigenvalues --  -11.21285 -11.21140 -11.21072 -11.19204 -11.19053
 Alpha  occ. eigenvalues --   -7.61568  -1.45478  -1.36515  -1.09555  -1.08653
 Alpha  occ. eigenvalues --   -1.02223  -1.01800  -1.00799  -0.96016  -0.91706
 Alpha  occ. eigenvalues --   -0.90049  -0.82926  -0.79578  -0.78275  -0.77755
 Alpha  occ. eigenvalues --   -0.74911  -0.72496  -0.72464  -0.70630  -0.66553
 Alpha  occ. eigenvalues --   -0.64168  -0.62898  -0.62676  -0.61474  -0.58731
 Alpha  occ. eigenvalues --   -0.58082  -0.57572  -0.56788  -0.55915  -0.55256
 Alpha  occ. eigenvalues --   -0.55046  -0.53483  -0.52484  -0.50287  -0.49405
 Alpha  occ. eigenvalues --   -0.49308  -0.47388  -0.46423  -0.45865  -0.45029
 Alpha  occ. eigenvalues --   -0.43570  -0.41333  -0.40897  -0.37291  -0.31292
 Alpha virt. eigenvalues --    0.02743   0.03658   0.03991   0.04279   0.05159
 Alpha virt. eigenvalues --    0.05311   0.05463   0.05636   0.06113   0.07070
 Alpha virt. eigenvalues --    0.07113   0.07397   0.07786   0.08099   0.08225

 Mulliken charges:
               1
     1  C   -0.168434
     2  H   -0.456866
     3  B   -0.420912
     4  C    0.727561
     5  H   -0.019028
     6  H   -0.202024
     7  C    0.489308
     8  H   -0.102898
     9  C    0.740226
    10  H   -0.416051
    11  H   -0.366312
    12  C    0.815520
    13  C    0.987659
    14  H   -0.575239
    15  H   -0.177184
    16  H   -0.437438
    17  C    0.366937
    18  O   -0.873177
    19  O   -0.719091
    20  C    0.837396
    21  H   -0.120750
    22  H   -0.094202
    23  H   -0.264463
    24  C    0.202393
    25  H   -0.159652
    26  H   -0.100989
    27  C   -0.428043
    28  H   -0.165048
    29  C    0.680806
    30  H    0.006363
    31  H   -0.173075
    32  C    0.783176
    33  H   -0.187905
    34  H   -0.003295
    35  C    0.271070
    36  H   -0.185043
    37  H   -0.091298
 Sum of Mulliken charges =  -0.00000

 Dipole moment (field-independent basis, Debye):
    X=              1.5453    Y=             -1.4361    Z=              0.5964  Tot=              2.1923

 Test job not archived.
 1\1\GINC-SE329\SP\RHF\Aug-CC-pVDZ\C13H21B1O2\OHZDE\09-Apr-2025\0\\#t h
 f aug-cc-pvdz iop(5/13=1,5/36=2,99/5=2) pseudo=read geom=check guess=(
 read,tcheck) scf=(maxcycle=1)\\title\\0,1\C,0,-0.601337,-0.408195,1.11
 9966\H,0,0.209042,-0.720382,1.791008\B,0,-0.131037,-0.235199,-0.375342
 \C,0,-1.128162,0.947143,1.630747\H,0,-0.267893,1.615715,1.737611\H,0,-
 1.555106,0.833701,2.633984\C,0,-1.651061,-1.54394,1.105724\H,0,-1.1264
 83,-2.477343,0.869793\C,0,2.258439,3.112454,-0.000806\H,0,1.722333,3.5
 48001,-0.837319\H,0,2.779067,3.794123,0.659072\C,0,2.271249,1.799177,0

 Normal termination of Gaussian 16 at Wed Apr  9 01:18:52 2025.
