 Gaussian 16, Revision C.01,

 ----------------------------------------------------------------------
 #t hf aug-cc-pvdz symm=none int=(grid=ultrafine) guess=(read,tcheck) s
 table=(opt,rrhf)
 ----------------------------------------------------------------------
 -----
 title
 -----
 Symbolic Z-matrix:
 Charge =  0 Multiplicity = 1

 SCF Done:  E(RHF) =  -728.996602506     A.U. after   13 cycles
 Normal termination of Gaussian 16 at Wed Apr  9 00:54:55 2025.
 Gaussian 16:  ES64L-G16RevC.01  3-Jul-2019

 ----------------------------------------------------------------------
 #t hf aug-cc-pvdz iop(5/13=1,5/36=2,99/5=2) pseudo=read geom=check gue
 ss=(read,tcheck) scf=(maxcycle=1)
 ----------------------------------------------------------------------
 -----
 title
 -----
 Structure from the checkpoint file:  "BH10_136_reverse_mol3.chk"
 Charge =  0 Multiplicity = 1

                         Standard orientation:
 ---------------------------------------------------------------------
 Center     Atomic      Atomic             Coordinates (Angstroms)
 Number     Number       Type             X           Y           Z
 ---------------------------------------------------------------------
      1          8           0        1.267110    1.595611    0.000012
      2          6           0        1.237446    0.418137    0.000007
      3          6           0        0.035284   -0.478687    0.000024
      4          6           0       -1.280071    0.286811   -0.000009
      5          1           0        0.121928   -1.134956    0.871205
      6          1           0       -1.318356    0.943159    0.873733
      7          6           0       -2.485973   -0.647020    0.000019
      8          1           0       -1.318348    0.943096   -0.873799
      9          6           0       -3.809599    0.108456   -0.000022
     10          1           0       -2.437606   -1.302954    0.875886
     11          1           0       -2.437592   -1.303024   -0.875795
     12          1           0       -3.897131    0.748008    0.881882
     13          1           0       -4.659104   -0.577028    0.000002
     14          1           0       -3.897120    0.747933   -0.881980
     15          1           0        0.121939   -1.135019   -0.871107
     16         17           0        2.788352   -0.518840   -0.000014
 ---------------------------------------------------------------------

 SCF Done:  E(RHF) =  -729.100786738     A.U. after    2 cycles

 The electronic state is 1-A.
 Alpha  occ. eigenvalues -- -103.66680 -20.60983 -11.41903 -11.27584 -11.24864
 Alpha  occ. eigenvalues --  -11.24430 -11.23322 -10.70048  -8.35751  -8.35464
 Alpha  occ. eigenvalues --   -8.35453  -1.42097  -1.16466  -1.09789  -1.02409
 Alpha  occ. eigenvalues --   -0.91347  -0.81818  -0.77520  -0.69407  -0.68224
 Alpha  occ. eigenvalues --   -0.67535  -0.62926  -0.60281  -0.57458  -0.55409
 Alpha  occ. eigenvalues --   -0.52219  -0.51655  -0.49447  -0.48675  -0.47553
 Alpha  occ. eigenvalues --   -0.47134  -0.45739
 Alpha virt. eigenvalues --    0.03101   0.04265   0.04370   0.04763   0.06534
 Alpha virt. eigenvalues --    0.07041   0.07328   0.07502   0.09804   0.09904
 Alpha virt. eigenvalues --    0.10523   0.11276   0.11560   0.13573   0.14437

 Mulliken charges:
               1
     1  O   -0.353164
     2  C   -0.026753
     3  C    0.316328
     4  C    0.238796
     5  H    0.019732
     6  H   -0.159234
     7  C    0.301771
     8  H   -0.159240
     9  C    0.496898
    10  H   -0.145884
    11  H   -0.145883
    12  H   -0.072525
    13  H   -0.057963
    14  H   -0.072529
    15  H    0.019716
    16  Cl  -0.200067
 Sum of Mulliken charges =  -0.00000

 Dipole moment (field-independent basis, Debye):
    X=             -2.8475    Y=             -2.1038    Z=              0.0000  Tot=              3.5404

 Test job not archived.
 1\1\GINC-SE073\SP\RHF\Aug-CC-pVDZ\C5H9Cl1O1\OHZDE\09-Apr-2025\0\\#t hf
  aug-cc-pvdz iop(5/13=1,5/36=2,99/5=2) pseudo=read geom=check guess=(r
 ead,tcheck) scf=(maxcycle=1)\\title\\0,1\O,0,1.26711,1.595611,0.000012
 \C,0,1.237446,0.418137,0.000007\C,0,0.035284,-0.478687,0.000024\C,0,-1
 .280071,0.286811,-0.000009\H,0,0.121928,-1.134956,0.871205\H,0,-1.3183
 56,0.943159,0.873733\C,0,-2.485973,-0.64702,0.000019\H,0,-1.318348,0.9
 43096,-0.873799\C,0,-3.809599,0.108456,-0.000022\H,0,-2.437606,-1.3029
 54,0.875886\H,0,-2.437592,-1.303024,-0.875795\H,0,-3.897131,0.748008,0

 Normal termination of Gaussian 16 at Wed Apr  9 00:55:01 2025.
