 Gaussian 16, Revision C.01,

 ----------------------------------------------------------------------
 #t hf aug-cc-pvdz symm=none int=(grid=ultrafine) guess=(read,tcheck) s
 table=(opt,rrhf)
 ----------------------------------------------------------------------
 -----
 title
 -----
 Symbolic Z-matrix:
 Charge =  0 Multiplicity = 1

 SCF Done:  E(RHF) =  -1310.45451640     A.U. after   17 cycles
 Normal termination of Gaussian 16 at Wed Apr  9 02:03:52 2025.
 Gaussian 16:  ES64L-G16RevC.01  3-Jul-2019

 ----------------------------------------------------------------------
 #t hf aug-cc-pvdz iop(5/13=1,5/36=2,99/5=2) pseudo=read geom=check gue
 ss=(read,tcheck) scf=(maxcycle=1)
 ----------------------------------------------------------------------
 -----
 title
 -----
 Structure from the checkpoint file:  "BH10_88_forward_mol1.chk"
 Charge =  0 Multiplicity = 1

                         Standard orientation:
 ---------------------------------------------------------------------
 Center     Atomic      Atomic             Coordinates (Angstroms)
 Number     Number       Type             X           Y           Z
 ---------------------------------------------------------------------
      1          6           0        0.080678   -0.433051   -0.314444
      2          6           0        0.315333   -0.210657    1.100274
      3          6           0       -1.573670   -2.458912   -0.151011
      4          8           0       -2.045119   -1.869222   -1.245082
      5          6           0       -2.144360   -1.913152    0.993942
      6          6           0       -2.831004   -0.794902    0.582237
      7          6           0       -2.568408   -0.658541   -0.807726
      8          6           0       -0.960827    0.315059   -0.909126
      9          6           0       -1.342538    1.680537   -0.385936
     10          8           0       -0.272612    2.476911   -0.341786
     11          8           0       -2.460368    2.049469   -0.140438
     12          8           0       -0.416993    0.463616    1.800805
     13          8           0        1.411874   -0.820236    1.603130
     14          6           0        1.660193   -0.591247    2.991841
     15          6           0       -0.501333    3.792476    0.174486
     16         16           0        1.216649   -1.341810   -1.324517
     17          6           0        2.332938   -0.017518   -1.916790
     18          6           0        3.046857    0.727341   -0.800283
     19          8           0        3.810199   -0.119679    0.028534
     20          1           0       -0.975789   -3.344849   -0.296343
     21          1           0       -1.987602   -2.260240    2.002039
     22          1           0       -3.329820   -0.057778    1.187243
     23          1           0       -3.217517   -0.170756   -1.519160
     24          1           0        2.576354   -1.130607    3.218515
     25          1           0        0.834528   -0.968051    3.595231
     26          1           0        1.786620    0.473331    3.186759
     27          1           0        0.462491    4.292729    0.136226
     28          1           0       -0.860259    3.726479    1.201205
     29          1           0       -1.234973    4.320288   -0.433957
     30          1           0       -0.895199    0.341850   -1.994655
     31          1           0        1.768674    0.682744   -2.536576
     32          1           0        3.056851   -0.535595   -2.549036
     33          1           0        2.315928    1.300567   -0.217558
     34          1           0        3.744304    1.442283   -1.242882
     35          1           0        3.190029   -0.714898    0.469142
 ---------------------------------------------------------------------

 SCF Done:  E(RHF) =  -1310.75826929     A.U. after    2 cycles

 The electronic state is 1-A.
 Alpha  occ. eigenvalues --  -93.52456 -20.65790 -20.61917 -20.60996 -20.56332
 Alpha  occ. eigenvalues --  -20.54948 -20.54235 -11.40239 -11.38110 -11.36689
 Alpha  occ. eigenvalues --  -11.33290 -11.29603 -11.29434 -11.29257 -11.28566
 Alpha  occ. eigenvalues --  -11.27606 -11.26778 -11.25518 -11.25371  -8.82112
 Alpha  occ. eigenvalues --   -6.16364  -6.16115  -6.15828  -1.45630  -1.43018
 Alpha  occ. eigenvalues --   -1.41227  -1.33245  -1.31322  -1.30489  -1.12422
 Alpha  occ. eigenvalues --   -1.10096  -1.04836  -1.02453  -0.99717  -0.96718
 Alpha  occ. eigenvalues --   -0.92059  -0.87383  -0.84030  -0.82656  -0.80746
 Alpha  occ. eigenvalues --   -0.79151  -0.78205  -0.76630  -0.73878  -0.70946
 Alpha  occ. eigenvalues --   -0.69961  -0.69290  -0.68626  -0.67803  -0.66891
 Alpha  occ. eigenvalues --   -0.65364  -0.63946  -0.63071  -0.61546  -0.60941
 Alpha  occ. eigenvalues --   -0.59886  -0.59566  -0.58606  -0.57255  -0.56734
 Alpha  occ. eigenvalues --   -0.55938  -0.55169  -0.54019  -0.53545  -0.53130
 Alpha  occ. eigenvalues --   -0.49884  -0.48700  -0.47819  -0.47749  -0.46575
 Alpha  occ. eigenvalues --   -0.45606  -0.44717  -0.42819  -0.40303  -0.34187
 Alpha  occ. eigenvalues --   -0.30581
 Alpha virt. eigenvalues --    0.02996   0.03483   0.03526   0.04088   0.04489
 Alpha virt. eigenvalues --    0.04897   0.05151   0.05613   0.05754   0.06336
 Alpha virt. eigenvalues --    0.07062   0.07496   0.07827   0.08050   0.08406

 Mulliken charges:
               1
     1  C    0.468678
     2  C    0.129941
     3  C    0.905013
     4  O   -0.681182
     5  C    0.940014
     6  C    0.422907
     7  C    0.824667
     8  C   -0.299365
     9  C    0.715542
    10  O   -0.597920
    11  O   -0.534542
    12  O   -0.602869
    13  O   -0.794646
    14  C    1.061139
    15  C    0.878315
    16  S    0.208211
    17  C   -0.019234
    18  C    1.070252
    19  O   -0.617943
    20  H   -0.455029
    21  H   -0.424084
    22  H   -0.341531
    23  H   -0.375539
    24  H   -0.305892
    25  H   -0.181759
    26  H   -0.042654
    27  H   -0.263506
    28  H   -0.036308
    29  H   -0.149261
    30  H   -0.350429
    31  H   -0.133665
    32  H   -0.153817
    33  H   -0.256820
    34  H   -0.248027
    35  H    0.241340
 Sum of Mulliken charges =  -0.00000

 Dipole moment (field-independent basis, Debye):
    X=             -2.3010    Y=             -0.4418    Z=              0.3621  Tot=              2.3708

 Test job not archived.
 1\1\GINC-SE457\SP\RHF\Aug-CC-pVDZ\C12H16O6S1\OHZDE\09-Apr-2025\0\\#t h
 f aug-cc-pvdz iop(5/13=1,5/36=2,99/5=2) pseudo=read geom=check guess=(
 read,tcheck) scf=(maxcycle=1)\\title\\0,1\C,0,0.080678,-0.433051,-0.31
 4444\C,0,0.315333,-0.210657,1.100274\C,0,-1.57367,-2.458912,-0.151011\
 O,0,-2.045119,-1.869222,-1.245082\C,0,-2.14436,-1.913152,0.993942\C,0,
 -2.831004,-0.794902,0.582237\C,0,-2.568408,-0.658541,-0.807726\C,0,-0.
 960827,0.315059,-0.909126\C,0,-1.342538,1.680537,-0.385936\O,0,-0.2726
 12,2.476911,-0.341786\O,0,-2.460368,2.049469,-0.140438\O,0,-0.416993,0

 Normal termination of Gaussian 16 at Wed Apr  9 02:05:01 2025.
