 Gaussian 16, Revision C.01,

 ----------------------------------------------------------------------
 #t hf aug-cc-pvdz symm=none int=(grid=ultrafine) guess=(read,tcheck) s
 table=(opt,rrhf)
 ----------------------------------------------------------------------
 -----
 title
 -----
 Symbolic Z-matrix:
 Charge = -1 Multiplicity = 1

 SCF Done:  E(RHF) =  -366.297262142     A.U. after   14 cycles
 Normal termination of Gaussian 16 at Wed Apr  9 01:06:15 2025.
 Gaussian 16:  ES64L-G16RevC.01  3-Jul-2019

 ----------------------------------------------------------------------
 #t hf aug-cc-pvdz iop(5/13=1,5/36=2,99/5=2) pseudo=read geom=check gue
 ss=(read,tcheck) scf=(maxcycle=1)
 ----------------------------------------------------------------------
 -----
 title
 -----
 Structure from the checkpoint file:  "BH10_318_forward_mol1.chk"
 Charge = -1 Multiplicity = 1

                         Standard orientation:
 ---------------------------------------------------------------------
 Center     Atomic      Atomic             Coordinates (Angstroms)
 Number     Number       Type             X           Y           Z
 ---------------------------------------------------------------------
      1          6           0       -1.226248    0.146570    0.000004
      2          8           0       -1.039082    1.359028    0.000048
      3          6           0       -2.647181   -0.413201   -0.000011
      4          1           0       -2.793194   -1.043206    0.880027
      5          1           0       -2.793179   -1.043210   -0.880048
      6          1           0       -3.373519    0.398821   -0.000016
      7          8           0       -0.325508   -0.769973   -0.000031
      8          6           0        1.428098   -0.268785   -0.000011
      9          1           0        1.726937   -1.298271   -0.000053
     10          1           0        1.384239    0.279193   -0.921389
     11          1           0        1.384239    0.279118    0.921412
     12          9           0        3.339242    0.103068    0.000004
 ---------------------------------------------------------------------

 SCF Done:  E(RHF) =  -366.415024277     A.U. after    2 cycles

 The electronic state is 1-A.
 Alpha  occ. eigenvalues --  -25.75640 -20.39305 -20.37697 -11.21652 -11.15347
 Alpha  occ. eigenvalues --  -11.10877  -1.24523  -1.21428  -1.11550  -0.85613
 Alpha  occ. eigenvalues --   -0.77491  -0.59154  -0.52009  -0.50165  -0.49316
 Alpha  occ. eigenvalues --   -0.44998  -0.44705  -0.42556  -0.39257  -0.36408
 Alpha  occ. eigenvalues --   -0.33844  -0.33694  -0.29904  -0.29181  -0.27531
 Alpha virt. eigenvalues --    0.12376   0.14274   0.14431   0.16149   0.17442
 Alpha virt. eigenvalues --    0.18089   0.19752   0.24092   0.25375   0.25887
 Alpha virt. eigenvalues --    0.26265   0.26304   0.27966   0.28067   0.30128

 Mulliken charges:
               1
     1  C    0.230734
     2  O   -0.589197
     3  C    0.304757
     4  H   -0.013578
     5  H   -0.013585
     6  H   -0.065055
     7  O   -0.636898
     8  C    0.851709
     9  H   -0.131936
    10  H   -0.036515
    11  H   -0.036514
    12  F   -0.863923
 Sum of Mulliken charges =  -1.00000

 Dipole moment (field-independent basis, Debye):
    X=             -8.3977    Y=             -2.5511    Z=             -0.0001  Tot=              8.7766

 Test job not archived.
 1\1\GINC-SE458\SP\RHF\Aug-CC-pVDZ\C3H6F1O2(1-)\OHZDE\09-Apr-2025\0\\#t
  hf aug-cc-pvdz iop(5/13=1,5/36=2,99/5=2) pseudo=read geom=check guess
 =(read,tcheck) scf=(maxcycle=1)\\title\\-1,1\C,0,-1.226248,0.14657,0.0
 00004\O,0,-1.039082,1.359028,0.000048\C,0,-2.647181,-0.413201,-0.00001
 1\H,0,-2.793194,-1.043206,0.880027\H,0,-2.793179,-1.04321,-0.880048\H,
 0,-3.373519,0.398821,-0.000016\O,0,-0.325508,-0.769973,-0.000031\C,0,1
 .428098,-0.268785,-0.000011\H,0,1.726937,-1.298271,-0.000053\H,0,1.384
 239,0.279193,-0.921389\H,0,1.384239,0.279118,0.921412\F,0,3.339242,0.1

 Normal termination of Gaussian 16 at Wed Apr  9 01:06:19 2025.
