 Gaussian 16, Revision C.01,

 ----------------------------------------------------------------------
 #t hf aug-cc-pvdz symm=none int=(grid=ultrafine) guess=(read,tcheck) s
 table=opt
 ----------------------------------------------------------------------
 -----
 title
 -----
 Symbolic Z-matrix:
 Charge =  0 Multiplicity = 2

 SCF Done:  E(UHF) =  -2378.29845756     A.U. after   26 cycles
 Normal termination of Gaussian 16 at Wed Apr  9 01:10:31 2025.
 Gaussian 16:  ES64L-G16RevC.01  3-Jul-2019

 ----------------------------------------------------------------------
 #t hf aug-cc-pvdz iop(5/13=1,5/36=2,99/5=2) pseudo=read geom=check gue
 ss=(read,tcheck) scf=(maxcycle=1)
 ----------------------------------------------------------------------
 -----
 title
 -----
 Structure from the checkpoint file:  "BH10_166_forward_mol1.chk"
 Charge =  0 Multiplicity = 2

                         Standard orientation:
 ---------------------------------------------------------------------
 Center     Atomic      Atomic             Coordinates (Angstroms)
 Number     Number       Type             X           Y           Z
 ---------------------------------------------------------------------
      1          7           0        2.581719    0.645655   -0.993468
      2          1           0        3.188550    0.003068   -1.490533
      3          6           0        1.614037    0.046548   -0.138935
      4          1           0        0.506599    0.608669   -0.442239
      5          6           0        1.382519   -1.407938   -0.472642
      6          6           0        1.774105    0.303281    1.369405
      7          1           0        0.923109   -1.485740   -1.458324
      8          1           0        0.712314   -1.846511    0.259311
      9         16           0        2.910139   -2.409342   -0.561542
     10          8           0        1.898950   -0.649321    2.116162
     11          1           0        3.217124   -2.280758    0.741330
     12          7           0        1.755821    1.583170    1.762416
     13          1           0        1.651085    2.333173    1.087221
     14          1           0        1.869551    1.778461    2.744369
     15          6           0        2.705811    1.973360   -1.248128
     16          1           0        3.480513    2.189672   -1.997988
     17          8           0        2.046154    2.844506   -0.723119
     18          8           0       -0.553297    1.065272   -0.967463
     19          8           0       -1.377828   -0.033193   -1.137633
     20          6           0       -2.335023   -0.108660   -0.131634
     21         17           0       -3.288987   -1.526551   -0.576222
     22         17           0       -1.568357   -0.352122    1.463214
     23         17           0       -3.344679    1.348673   -0.087760
 ---------------------------------------------------------------------

 SCF Done:  E(UHF) =  -2378.55741643     A.U. after    2 cycles

 The electronic state is 2-A.
 Alpha  occ. eigenvalues -- -103.70520-103.69961-103.69854 -93.54853 -20.72578
 Alpha  occ. eigenvalues --  -20.71489 -20.57712 -20.55325 -15.69168 -15.65265
 Alpha  occ. eigenvalues --  -11.51184 -11.39847 -11.38356 -11.34199 -11.29324
 Alpha  occ. eigenvalues --  -10.73866 -10.73291 -10.73208  -8.84617  -8.39584
 Alpha  occ. eigenvalues --   -8.39236  -8.39234  -8.39015  -8.38936  -8.38685
 Alpha  occ. eigenvalues --   -8.38664  -8.38582  -8.38578  -6.18835  -6.18616
 Alpha  occ. eigenvalues --   -6.18273  -1.53935  -1.39107  -1.36999  -1.31856
 Alpha  occ. eigenvalues --   -1.25522  -1.21417  -1.19182  -1.17529  -1.17251
 Alpha  occ. eigenvalues --   -1.09007  -0.99018  -0.89081  -0.87945  -0.86999
 Alpha  occ. eigenvalues --   -0.83470  -0.79249  -0.76665  -0.75829  -0.75297
 Alpha  occ. eigenvalues --   -0.74863  -0.70406  -0.69656  -0.66332  -0.64948
 Alpha  occ. eigenvalues --   -0.64104  -0.62713  -0.60504  -0.59965  -0.59406
 Alpha  occ. eigenvalues --   -0.58549  -0.57286  -0.55807  -0.52637  -0.52197
 Alpha  occ. eigenvalues --   -0.52015  -0.51082  -0.49071  -0.48901  -0.48662
 Alpha  occ. eigenvalues --   -0.48141  -0.47443  -0.45894  -0.42959  -0.40193
 Alpha  occ. eigenvalues --   -0.37594
 Alpha virt. eigenvalues --    0.02791   0.03972   0.04674   0.05298   0.06428
 Alpha virt. eigenvalues --    0.07230   0.07429   0.07732   0.08301   0.09000
 Alpha virt. eigenvalues --    0.09040   0.09985   0.10507   0.10857   0.11762

  Beta  occ. eigenvalues -- -103.70528-103.69959-103.69851 -93.54811 -20.71452
  Beta  occ. eigenvalues --  -20.69196 -20.57595 -20.55130 -15.69193 -15.65268
  Beta  occ. eigenvalues --  -11.51194 -11.39857 -11.38429 -11.32766 -11.29483
  Beta  occ. eigenvalues --  -10.73875 -10.73290 -10.73206  -8.84571  -8.39610
  Beta  occ. eigenvalues --   -8.39249  -8.39238  -8.39004  -8.38926  -8.38687
  Beta  occ. eigenvalues --   -8.38663  -8.38580  -8.38576  -6.18731  -6.18517
  Beta  occ. eigenvalues --   -6.18246  -1.50530  -1.38839  -1.36591  -1.28560
  Beta  occ. eigenvalues --   -1.24678  -1.19129  -1.18523  -1.17223  -1.16179
  Beta  occ. eigenvalues --   -1.07964  -0.97241  -0.88207  -0.87578  -0.86661
  Beta  occ. eigenvalues --   -0.79555  -0.76348  -0.75873  -0.75004  -0.74425
  Beta  occ. eigenvalues --   -0.73014  -0.70057  -0.66795  -0.64777  -0.64468
  Beta  occ. eigenvalues --   -0.62154  -0.61022  -0.60128  -0.59215  -0.58620
  Beta  occ. eigenvalues --   -0.56100  -0.55114  -0.52757  -0.52168  -0.51801
  Beta  occ. eigenvalues --   -0.51342  -0.48844  -0.48720  -0.48479  -0.47732
  Beta  occ. eigenvalues --   -0.47510  -0.46237  -0.42296  -0.41893  -0.37405
  Beta virt. eigenvalues --   -0.00401   0.02808   0.03977   0.04717   0.05306
  Beta virt. eigenvalues --    0.06430   0.07236   0.07455   0.07761   0.08313
  Beta virt. eigenvalues --    0.09052   0.09165   0.10009   0.10587   0.10881

 Mulliken charges and spin densities:
               1          2
     1  N   -0.222989  -0.024263
     2  H    0.013017   0.006543
     3  C   -0.955848   0.732510
     4  H    0.330062  -0.292515
     5  C    0.717664  -0.107897
     6  C    0.867981  -0.098649
     7  H   -0.058968   0.010134
     8  H   -0.109258  -0.001420
     9  S    0.316598   0.039428
    10  O   -0.559229   0.037974
    11  H    0.136333  -0.003018
    12  N   -0.110072   0.001957
    13  H    0.073985   0.001173
    14  H   -0.035086  -0.002090
    15  C    0.707718  -0.014132
    16  H   -0.277607  -0.001176
    17  O   -0.478674   0.026082
    18  O   -0.267311   0.728859
    19  O   -0.364925  -0.038014
    20  C    0.156812   0.002242
    21  Cl   0.050358  -0.005542
    22  Cl  -0.014036   0.001013
    23  Cl   0.083474   0.000800
 Sum of Mulliken charges =  -0.00000   1.00000

 Dipole moment (field-independent basis, Debye):
    X=              1.6858    Y=              0.6166    Z=             -1.5797  Tot=              2.3911
                          Isotropic Fermi Contact Couplings
        Atom                 a.u.       MegaHertz       Gauss      10(-4) cm-1
     1  N(14)             -0.01478      -4.77522      -1.70392      -1.59284
     2  H(1)               0.00298      13.34178       4.76068       4.45034
     3  C(13)              0.17416     195.78747      69.86184      65.30767
     4  H(1)              -0.06427    -287.29082    -102.51251     -95.82990
     5  C(13)             -0.02639     -29.66592     -10.58554      -9.89549
     6  C(13)             -0.01047     -11.77042      -4.19998      -3.92619
     7  H(1)               0.00380      16.97674       6.05772       5.66283
     8  H(1)               0.00120       5.35911       1.91226       1.78761

 Normal termination of Gaussian 16 at Wed Apr  9 01:11:03 2025.
