 Gaussian 16, Revision C.01,

 ----------------------------------------------------------------------
 #t hf aug-cc-pvdz symm=none int=(grid=ultrafine) guess=(read,tcheck) s
 table=(opt,rrhf)
 ----------------------------------------------------------------------
 -----
 title
 -----
 Symbolic Z-matrix:
 Charge =  0 Multiplicity = 1

 SCF Done:  E(RHF) =  -907.765687278     A.U. after   14 cycles
 Normal termination of Gaussian 16 at Wed Apr  9 01:23:06 2025.
 Gaussian 16:  ES64L-G16RevC.01  3-Jul-2019

 ----------------------------------------------------------------------
 #t hf aug-cc-pvdz iop(5/13=1,5/36=2,99/5=2) pseudo=read geom=check gue
 ss=(read,tcheck) scf=(maxcycle=1)
 ----------------------------------------------------------------------
 -----
 title
 -----
 Structure from the checkpoint file:  "BH10_358_forward_mol2.chk"
 Charge =  0 Multiplicity = 1

                         Standard orientation:
 ---------------------------------------------------------------------
 Center     Atomic      Atomic             Coordinates (Angstroms)
 Number     Number       Type             X           Y           Z
 ---------------------------------------------------------------------
      1          6           0        2.618024    0.239804   -0.700101
      2          6           0        1.833182   -0.812192    0.056827
      3          6           0        0.566464   -1.201488   -0.686128
      4          8           0        3.013380    1.227813   -0.145451
      5          8           0        1.535740   -0.325159    1.346136
      6          1           0        2.473140   -1.704565    0.127071
      7          1           0        2.048192    0.493750    1.460028
      8          8           0       -0.232377   -0.042780   -0.885519
      9          1           0        0.026205   -1.970880   -0.131291
     10          1           0        0.821707   -1.600754   -1.669589
     11         15           0       -1.542102    0.285478    0.001569
     12          8           0       -2.617459   -0.829351   -0.416284
     13          1           0       -3.337580   -0.455123   -0.934813
     14          8           0       -1.165593   -0.229463    1.450798
     15          1           0       -0.210152   -0.166874    1.661098
     16          8           0       -1.986036    1.664202   -0.198844
     17          1           0        2.822752    0.043433   -1.766320
 ---------------------------------------------------------------------

 SCF Done:  E(RHF) =  -908.021070892     A.U. after    2 cycles

 The electronic state is 1-A.
 Alpha  occ. eigenvalues --  -81.44766 -20.62438 -20.61945 -20.61811 -20.61660
 Alpha  occ. eigenvalues --  -20.60492 -20.52335 -11.38371 -11.34748 -11.34385
 Alpha  occ. eigenvalues --   -7.92599  -5.07281  -5.07221  -5.07162  -1.42293
 Alpha  occ. eigenvalues --   -1.40197  -1.37179  -1.35646  -1.34348  -1.25889
 Alpha  occ. eigenvalues --   -1.07773  -0.94383  -0.86276  -0.83953  -0.79318
 Alpha  occ. eigenvalues --   -0.76149  -0.74319  -0.73499  -0.72142  -0.68578
 Alpha  occ. eigenvalues --   -0.66564  -0.65343  -0.63525  -0.61056  -0.59787
 Alpha  occ. eigenvalues --   -0.59188  -0.57787  -0.56530  -0.55448  -0.54471
 Alpha  occ. eigenvalues --   -0.50124  -0.49005  -0.48482  -0.47837
 Alpha virt. eigenvalues --    0.02101   0.03821   0.03903   0.04740   0.05693
 Alpha virt. eigenvalues --    0.06441   0.07755   0.08021   0.09890   0.10201
 Alpha virt. eigenvalues --    0.10995   0.11809   0.13063   0.13121   0.13383

 Mulliken charges:
               1
     1  C    0.734733
     2  C    0.383563
     3  C    0.667641
     4  O   -0.482830
     5  O   -0.718949
     6  H   -0.029041
     7  H    0.250072
     8  O   -0.956625
     9  H   -0.131146
    10  H   -0.223036
    11  P    2.456427
    12  O   -0.672799
    13  H    0.163903
    14  O   -0.689058
    15  H    0.234876
    16  O   -0.842140
    17  H   -0.145592
 Sum of Mulliken charges =  -0.00000

 Dipole moment (field-independent basis, Debye):
    X=              3.1381    Y=             -5.4790    Z=             -2.2328  Tot=              6.6972

 Test job not archived.
 1\1\GINC-SE044\SP\RHF\Aug-CC-pVDZ\C3H7O6P1\OHZDE\09-Apr-2025\0\\#t hf
 aug-cc-pvdz iop(5/13=1,5/36=2,99/5=2) pseudo=read geom=check guess=(re
 ad,tcheck) scf=(maxcycle=1)\\title\\0,1\C,0,2.618024,0.239804,-0.70010
 1\C,0,1.833182,-0.812192,0.056827\C,0,0.566464,-1.201488,-0.686128\O,0
 ,3.01338,1.227813,-0.145451\O,0,1.53574,-0.325159,1.346136\H,0,2.47314
 ,-1.704565,0.127071\H,0,2.048192,0.49375,1.460028\O,0,-0.232377,-0.042
 78,-0.885519\H,0,0.026205,-1.97088,-0.131291\H,0,0.821707,-1.600754,-1
 .669589\P,0,-1.542102,0.285478,0.001569\O,0,-2.617459,-0.829351,-0.416

 Normal termination of Gaussian 16 at Wed Apr  9 01:23:16 2025.
