 Gaussian 16, Revision C.01,

 ----------------------------------------------------------------------
 #t hf aug-cc-pvdz symm=none int=(grid=ultrafine) guess=(read,tcheck) s
 table=(opt,rrhf)
 ----------------------------------------------------------------------
 -----
 title
 -----
 Symbolic Z-matrix:
 Charge =  0 Multiplicity = 1

 SCF Done:  E(RHF) =  -702.122567154     A.U. after   13 cycles
 Normal termination of Gaussian 16 at Wed Apr  9 01:18:27 2025.
 Gaussian 16:  ES64L-G16RevC.01  3-Jul-2019

 ----------------------------------------------------------------------
 #t hf aug-cc-pvdz iop(5/13=1,5/36=2,99/5=2) pseudo=read geom=check gue
 ss=(read,tcheck) scf=(maxcycle=1)
 ----------------------------------------------------------------------
 -----
 title
 -----
 Structure from the checkpoint file:  "BH10_344_forward_mol2.chk"
 Charge =  0 Multiplicity = 1

                         Standard orientation:
 ---------------------------------------------------------------------
 Center     Atomic      Atomic             Coordinates (Angstroms)
 Number     Number       Type             X           Y           Z
 ---------------------------------------------------------------------
      1          6           0       -2.414506   -0.803625    0.004131
      2          6           0       -1.248911   -0.713170    0.616173
      3         16           0        0.000000    0.393490   -0.000000
      4          8           0       -0.553839    1.107462   -1.142959
      5          8           0        0.553834    1.107463    1.142961
      6          6           0        1.248914   -0.713166   -0.616175
      7          6           0        2.414508   -0.803623   -0.004130
      8          1           0        0.966305   -1.237523   -1.520426
      9          1           0        3.197288   -1.445930   -0.388676
     10          1           0        2.611909   -0.223410    0.890125
     11          1           0       -0.966298   -1.237531    1.520421
     12          1           0       -2.611910   -0.223409   -0.890122
     13          1           0       -3.197284   -1.445935    0.388676
 ---------------------------------------------------------------------

 SCF Done:  E(RHF) =  -702.291500652     A.U. after    2 cycles

 The electronic state is 1-A.
 Alpha  occ. eigenvalues --  -93.78393 -20.55650 -20.55649 -11.29072 -11.29053
 Alpha  occ. eigenvalues --  -11.28658 -11.28656  -9.05084  -6.39729  -6.39514
 Alpha  occ. eigenvalues --   -6.39437  -1.41414  -1.30082  -1.10163  -1.08204
 Alpha  occ. eigenvalues --   -0.93429  -0.83885  -0.77165  -0.72566  -0.69424
 Alpha  occ. eigenvalues --   -0.67415  -0.66493  -0.62785  -0.58385  -0.58070
 Alpha  occ. eigenvalues --   -0.52118  -0.51303  -0.49436  -0.45727  -0.44703
 Alpha  occ. eigenvalues --   -0.41315
 Alpha virt. eigenvalues --    0.02822   0.03601   0.04544   0.05386   0.05977
 Alpha virt. eigenvalues --    0.06714   0.07198   0.09477   0.10864   0.11862
 Alpha virt. eigenvalues --    0.11909   0.12359   0.13914   0.14432   0.15493

 Mulliken charges:
               1
     1  C    0.475230
     2  C    0.035504
     3  S    2.825320
     4  O   -1.141742
     5  O   -1.141741
     6  C    0.035505
     7  C    0.475231
     8  H   -0.354073
     9  H   -0.220902
    10  H   -0.206680
    11  H   -0.354072
    12  H   -0.206679
    13  H   -0.220902
 Sum of Mulliken charges =  -0.00000

 Dipole moment (field-independent basis, Debye):
    X=              0.0000    Y=             -5.3486    Z=             -0.0000  Tot=              5.3486

 Test job not archived.
 1\1\GINC-SE423\SP\RHF\Aug-CC-pVDZ\C4H6O2S1\OHZDE\09-Apr-2025\0\\#t hf
 aug-cc-pvdz iop(5/13=1,5/36=2,99/5=2) pseudo=read geom=check guess=(re
 ad,tcheck) scf=(maxcycle=1)\\title\\0,1\C,0,-2.414506,-0.803625,0.0041
 31\C,0,-1.248911,-0.71317,0.616173\S,0,0.,0.39349,0.\O,0,-0.553839,1.1
 07462,-1.142959\O,0,0.553834,1.107463,1.142961\C,0,1.248914,-0.713166,
 -0.616175\C,0,2.414508,-0.803623,-0.00413\H,0,0.966305,-1.237523,-1.52
 0426\H,0,3.197288,-1.44593,-0.388676\H,0,2.611909,-0.22341,0.890125\H,
 0,-0.966298,-1.237531,1.520421\H,0,-2.61191,-0.223409,-0.890122\H,0,-3

 Normal termination of Gaussian 16 at Wed Apr  9 01:18:32 2025.
