 Gaussian 16, Revision C.01,

 ----------------------------------------------------------------------
 #t hf aug-cc-pvdz symm=none int=(grid=ultrafine) guess=(read,tcheck) s
 table=opt
 ----------------------------------------------------------------------
 -----
 title
 -----
 Symbolic Z-matrix:
 Charge =  0 Multiplicity = 2

 SCF Done:  E(UHF) =  -515.207450593     A.U. after   15 cycles
 Normal termination of Gaussian 16 at Wed Apr  9 00:55:06 2025.
 Gaussian 16:  ES64L-G16RevC.01  3-Jul-2019

 ----------------------------------------------------------------------
 #t hf aug-cc-pvdz iop(5/13=1,5/36=2,99/5=2) pseudo=read geom=check gue
 ss=(read,tcheck) scf=(maxcycle=1)
 ----------------------------------------------------------------------
 -----
 title
 -----
 Structure from the checkpoint file:  "BH10_143_reverse_mol2.chk"
 Charge =  0 Multiplicity = 2

                         Standard orientation:
 ---------------------------------------------------------------------
 Center     Atomic      Atomic             Coordinates (Angstroms)
 Number     Number       Type             X           Y           Z
 ---------------------------------------------------------------------
      1         16           0        1.814164   -0.091051   -0.000045
      2          6           0        0.125264    0.534687    0.000012
      3          6           0       -0.969256   -0.524014    0.000001
      4          6           0       -2.363119    0.095118    0.000062
      5          1           0        0.037731    1.194577   -0.870616
      6          1           0        0.037781    1.194503    0.870703
      7          1           0       -0.842793   -1.166971    0.874839
      8          1           0       -0.842841   -1.166905   -0.874892
      9          1           0       -2.519053    0.721376   -0.882372
     10          1           0       -2.519008    0.721306    0.882553
     11          1           0       -3.135772   -0.675813    0.000051
 ---------------------------------------------------------------------

 SCF Done:  E(UHF) =  -515.263768461     A.U. after    2 cycles

 The electronic state is 2-A.
 Alpha  occ. eigenvalues --  -93.54719 -11.27274 -11.24053 -11.23259  -8.84454
 Alpha  occ. eigenvalues --   -6.19794  -6.18134  -6.17681  -1.08408  -0.99295
 Alpha  occ. eigenvalues --   -0.87024  -0.80323  -0.65675  -0.59511  -0.57032
 Alpha  occ. eigenvalues --   -0.56356  -0.50399  -0.49140  -0.46749  -0.42242
 Alpha  occ. eigenvalues --   -0.36532
 Alpha virt. eigenvalues --    0.03491   0.04729   0.04874   0.05403   0.07322
 Alpha virt. eigenvalues --    0.07647   0.08057   0.08441   0.11517   0.13064
 Alpha virt. eigenvalues --    0.14984   0.15150   0.15806   0.16569   0.16703

  Beta  occ. eigenvalues --  -93.53824 -11.27403 -11.24051 -11.23265  -8.83457
  Beta  occ. eigenvalues --   -6.17605  -6.17134  -6.15859  -1.07565  -0.96907
  Beta  occ. eigenvalues --   -0.84020  -0.76908  -0.64839  -0.59270  -0.55765
  Beta  occ. eigenvalues --   -0.55719  -0.50332  -0.48724  -0.45639  -0.34332
  Beta virt. eigenvalues --    0.02076   0.03508   0.04737   0.05103   0.05463
  Beta virt. eigenvalues --    0.07345   0.07662   0.08449   0.08591   0.11604
  Beta virt. eigenvalues --    0.13089   0.15214   0.15833   0.16191   0.16650

 Mulliken charges and spin densities:
               1          2
     1  S    0.266958   1.082124
     2  C   -0.212434  -0.120843
     3  C    0.093478  -0.000015
     4  C    0.319985  -0.000410
     5  H   -0.066499   0.023429
     6  H   -0.066485   0.023430
     7  H   -0.062924  -0.003025
     8  H   -0.062926  -0.003024
     9  H   -0.061020  -0.000502
    10  H   -0.061022  -0.000502
    11  H   -0.087112  -0.000661
 Sum of Mulliken charges =  -0.00000   1.00000

 Dipole moment (field-independent basis, Debye):
    X=             -1.8338    Y=              0.5023    Z=              0.0001  Tot=              1.9013
                          Isotropic Fermi Contact Couplings
        Atom                 a.u.       MegaHertz       Gauss      10(-4) cm-1
     1  S(33)              0.18639      64.02068      22.84417      21.35500
     2  C(13)             -0.02741     -30.81070     -10.99402     -10.27734
     3  C(13)             -0.00034      -0.38358      -0.13687      -0.12795
     4  C(13)             -0.00154      -1.72712      -0.61628      -0.57610
     5  H(1)               0.01253      56.01673      19.98816      18.68517
     6  H(1)               0.01253      56.02105      19.98970      18.68661
     7  H(1)              -0.00032      -1.43742      -0.51291      -0.47947
     8  H(1)              -0.00032      -1.43745      -0.51292      -0.47948

 Normal termination of Gaussian 16 at Wed Apr  9 00:55:10 2025.
