 Gaussian 16, Revision C.01,

 ----------------------------------------------------------------------
 #t hf aug-cc-pvdz symm=none int=(grid=ultrafine) guess=(read,tcheck) s
 table=(opt,rrhf)
 ----------------------------------------------------------------------
 -----
 title
 -----
 Symbolic Z-matrix:
 Charge =  0 Multiplicity = 1

 SCF Done:  E(RHF) =  -703.133695262     A.U. after   15 cycles
 Normal termination of Gaussian 16 at Wed Apr  9 00:57:13 2025.
 Gaussian 16:  ES64L-G16RevC.01  3-Jul-2019

 ----------------------------------------------------------------------
 #t hf aug-cc-pvdz iop(5/13=1,5/36=2,99/5=2) pseudo=read geom=check gue
 ss=(read,tcheck) scf=(maxcycle=1)
 ----------------------------------------------------------------------
 -----
 title
 -----
 Structure from the checkpoint file:  "BH10_180_reverse_mol3.chk"
 Charge =  0 Multiplicity = 1

                         Standard orientation:
 ---------------------------------------------------------------------
 Center     Atomic      Atomic             Coordinates (Angstroms)
 Number     Number       Type             X           Y           Z
 ---------------------------------------------------------------------
      1          6           0       -1.831862    0.016550    0.005511
      2          6           0       -1.144844   -1.190839   -0.000185
      3          6           0        0.242309   -1.195638   -0.009971
      4          6           0        0.952824   -0.002038   -0.007534
      5          6           0        0.252637    1.202236   -0.016128
      6          6           0       -1.130559    1.216513   -0.002972
      7         16           0        2.742790   -0.016432   -0.071300
      8          1           0       -1.690526   -2.128734   -0.000060
      9          1           0        0.777878   -2.136258   -0.018251
     10          1           0        0.800380    2.135819   -0.034222
     11          1           0       -1.682752    2.147351   -0.006167
     12          8           0       -3.190665    0.086032    0.015125
     13          1           0       -3.567840   -0.798019    0.012444
     14          1           0        2.960509    0.073807    1.253742
 ---------------------------------------------------------------------

 SCF Done:  E(RHF) =  -703.246153007     A.U. after    2 cycles

 The electronic state is 1-A.
 Alpha  occ. eigenvalues --  -93.54056 -20.61482 -11.32517 -11.27217 -11.26273
 Alpha  occ. eigenvalues --  -11.26081 -11.25220 -11.24647  -8.83756  -6.17960
 Alpha  occ. eigenvalues --   -6.17750  -6.17412  -1.38036  -1.15939  -1.04218
 Alpha  occ. eigenvalues --   -1.02971  -0.93626  -0.86450  -0.82170  -0.75820
 Alpha  occ. eigenvalues --   -0.69241  -0.65484  -0.62493  -0.61808  -0.60753
 Alpha  occ. eigenvalues --   -0.59294  -0.55388  -0.51137  -0.50377  -0.46439
 Alpha  occ. eigenvalues --   -0.36762  -0.35824  -0.33012
 Alpha virt. eigenvalues --    0.02910   0.04126   0.04399   0.05620   0.06273
 Alpha virt. eigenvalues --    0.07072   0.08744   0.09384   0.10354   0.11051
 Alpha virt. eigenvalues --    0.12117   0.12528   0.13080   0.13287   0.13809

 Mulliken charges:
               1
     1  C    0.246102
     2  C    0.664913
     3  C    0.115541
     4  C    0.057513
     5  C    0.228840
     6  C    0.759632
     7  S    0.220537
     8  H   -0.567519
     9  H   -0.433219
    10  H   -0.450730
    11  H   -0.484615
    12  O   -0.561097
    13  H    0.132291
    14  H    0.071812
 Sum of Mulliken charges =  -0.00000

 Dipole moment (field-independent basis, Debye):
    X=             -1.3860    Y=             -1.3480    Z=              0.7800  Tot=              2.0848

 Test job not archived.
 1\1\GINC-SE083\SP\RHF\Aug-CC-pVDZ\C6H6O1S1\OHZDE\09-Apr-2025\0\\#t hf
 aug-cc-pvdz iop(5/13=1,5/36=2,99/5=2) pseudo=read geom=check guess=(re
 ad,tcheck) scf=(maxcycle=1)\\title\\0,1\C,0,-1.831862,0.01655,0.005511
 \C,0,-1.144844,-1.190839,-0.000185\C,0,0.242309,-1.195638,-0.009971\C,
 0,0.952824,-0.002038,-0.007534\C,0,0.252637,1.202236,-0.016128\C,0,-1.
 130559,1.216513,-0.002972\S,0,2.74279,-0.016432,-0.0713\H,0,-1.690526,
 -2.128734,-0.00006\H,0,0.777878,-2.136258,-0.018251\H,0,0.80038,2.1358
 19,-0.034222\H,0,-1.682752,2.147351,-0.006167\O,0,-3.190665,0.086032,0

 Normal termination of Gaussian 16 at Wed Apr  9 00:57:21 2025.
