 Gaussian 16, Revision C.01,

 ----------------------------------------------------------------------
 #t hf aug-cc-pvdz symm=none int=(grid=ultrafine) guess=(read,tcheck) s
 table=opt
 ----------------------------------------------------------------------
 -----
 title
 -----
 Symbolic Z-matrix:
 Charge =  0 Multiplicity = 2

 SCF Done:  E(UHF) =  -1698.75750868     A.U. after   30 cycles
 Normal termination of Gaussian 16 at Wed Apr  9 02:27:48 2025.
 Gaussian 16:  ES64L-G16RevC.01  3-Jul-2019

 ----------------------------------------------------------------------
 #t hf aug-cc-pvdz iop(5/13=1,5/36=2,99/5=2) pseudo=read geom=check gue
 ss=(read,tcheck) scf=(maxcycle=1)
 ----------------------------------------------------------------------
 -----
 title
 -----
 Structure from the checkpoint file:  "BH10_223_forward_mol1.chk"
 Charge =  0 Multiplicity = 2

                         Standard orientation:
 ---------------------------------------------------------------------
 Center     Atomic      Atomic             Coordinates (Angstroms)
 Number     Number       Type             X           Y           Z
 ---------------------------------------------------------------------
      1          8           0        1.138493   -0.526179   -0.526241
      2          6           0       -0.172127    0.080708   -0.507390
      3          6           0        0.038458    1.559178   -0.112569
      4          6           0        1.539989    1.757178   -0.339668
      5          6           0        2.078874    0.374950    0.039351
      6          6           0       -1.038508   -0.710009    0.428945
      7          1           0       -0.553994    0.018685   -1.530396
      8          1           0       -0.769565   -0.613053    1.476998
      9          1           0       -1.196941   -1.739294    0.114120
     10          8           0       -0.194754    1.815266    1.254191
     11          8           0        2.086705    2.812128    0.385673
     12          7           0        3.384297    0.063416   -0.461950
     13          1           0        2.135350    0.271816    1.126472
     14          6           0        4.442513   -0.400810    0.285684
     15          6           0        3.828122    0.096311   -1.767310
     16          1           0        1.737417    1.937327   -1.399120
     17          1           0       -0.566245    2.226852   -0.728538
     18          1           0       -1.125641    2.079975    1.350366
     19          1           0        1.572337    2.878131    1.202746
     20          8           0       -2.828087    2.339686    0.761155
     21          6           0       -3.601681    1.594883    0.199016
     22          8           0       -4.424018    2.067751   -0.727755
     23          6           0       -3.597446    0.128393    0.497605
     24          6           0       -4.290394   -0.869343   -0.413131
     25          1           0       -2.322785   -0.199365    0.424386
     26          1           0       -3.772587   -0.043431    1.558458
     27          6           0       -5.798880   -0.763247   -0.371261
     28          1           0       -3.977494   -1.877552   -0.137326
     29          1           0       -3.991414   -0.707027   -1.453118
     30         16           0       -6.637113   -2.164956    0.253089
     31          6           0       -8.345675   -1.580950    0.144498
     32          1           0       -8.477057   -0.692868    0.757946
     33          1           0       -8.973003   -2.388767    0.516316
     34          1           0       -8.599104   -1.356331   -0.888704
     35          8           0       -6.379376    0.240016   -0.739094
     36          7           0        5.061387   -0.289547   -1.906651
     37          6           0        5.467911   -0.604794   -0.624274
     38          6           0        6.678939   -1.075819   -0.097370
     39          7           0        6.762606   -1.296052    1.216895
     40          6           0        5.687910   -1.059587    1.975932
     41          7           0        4.497771   -0.614465    1.598930
     42          7           0        7.754100   -1.318677   -0.874349
     43          1           0        7.722408   -1.111769   -1.857473
     44          1           0        8.612014   -1.611468   -0.439824
     45          1           0        5.812558   -1.258294    3.035264
     46          1           0        3.181224    0.405362   -2.573578
     47          1           0       -5.174525    1.456051   -0.906312
 ---------------------------------------------------------------------

 SCF Done:  E(UHF) =  -1699.16626910     A.U. after    2 cycles

 The electronic state is 2-A.
 Alpha  occ. eigenvalues --  -93.59050 -20.62558 -20.61845 -20.59013 -20.57490
 Alpha  occ. eigenvalues --  -20.57484 -20.57168 -15.68015 -15.64025 -15.62261
 Alpha  occ. eigenvalues --  -15.61037 -15.60461 -11.41970 -11.41837 -11.33863
 Alpha  occ. eigenvalues --  -11.33862 -11.32038 -11.31436 -11.31285 -11.31150
 Alpha  occ. eigenvalues --  -11.30373 -11.30287 -11.30230 -11.30055 -11.30052
 Alpha  occ. eigenvalues --  -11.27046 -11.24874  -8.88974  -6.23146  -6.22881
 Alpha  occ. eigenvalues --   -6.22585  -1.43855  -1.41651  -1.38158  -1.34742
 Alpha  occ. eigenvalues --   -1.34115  -1.32796  -1.31646  -1.26432  -1.21037
 Alpha  occ. eigenvalues --   -1.16202  -1.13012  -1.11596  -1.08937  -1.06162
 Alpha  occ. eigenvalues --   -1.03428  -1.01744  -0.99428  -0.95104  -0.92331
 Alpha  occ. eigenvalues --   -0.88378  -0.86612  -0.86309  -0.85530  -0.82588
 Alpha  occ. eigenvalues --   -0.79091  -0.78768  -0.77496  -0.76166  -0.75063
 Alpha  occ. eigenvalues --   -0.73079  -0.71878  -0.71271  -0.70956  -0.69918
 Alpha  occ. eigenvalues --   -0.69323  -0.67950  -0.66784  -0.66477  -0.65768
 Alpha  occ. eigenvalues --   -0.65195  -0.64860  -0.62965  -0.62374  -0.62171
 Alpha  occ. eigenvalues --   -0.61794  -0.61434  -0.60615  -0.60190  -0.59423
 Alpha  occ. eigenvalues --   -0.59195  -0.58512  -0.58066  -0.57513  -0.55890
 Alpha  occ. eigenvalues --   -0.55297  -0.54720  -0.54254  -0.52021  -0.51710
 Alpha  occ. eigenvalues --   -0.50760  -0.49049  -0.48779  -0.48447  -0.47455
 Alpha  occ. eigenvalues --   -0.46866  -0.45283  -0.44683  -0.43235  -0.41144
 Alpha  occ. eigenvalues --   -0.40099  -0.39468  -0.36855  -0.35466  -0.29935
 Alpha virt. eigenvalues --    0.01889   0.02575   0.03282   0.03818   0.03958
 Alpha virt. eigenvalues --    0.04231   0.04825   0.05298   0.05417   0.06038
 Alpha virt. eigenvalues --    0.06480   0.06531   0.06948   0.07353   0.07432

  Beta  occ. eigenvalues --  -93.59048 -20.62527 -20.61810 -20.58757 -20.57487
  Beta  occ. eigenvalues --  -20.57260 -20.57168 -15.68005 -15.64025 -15.62263
  Beta  occ. eigenvalues --  -15.61035 -15.60459 -11.42150 -11.41769 -11.33865
  Beta  occ. eigenvalues --  -11.33864 -11.32037 -11.31436 -11.31433 -11.31151
  Beta  occ. eigenvalues --  -11.30410 -11.30358 -11.30058 -11.30051 -11.28543
  Beta  occ. eigenvalues --  -11.25064 -11.24872  -8.88971  -6.23138  -6.22877
  Beta  occ. eigenvalues --   -6.22588  -1.43667  -1.41547  -1.37774  -1.34543
  Beta  occ. eigenvalues --   -1.33835  -1.32660  -1.31629  -1.26418  -1.21035
  Beta  occ. eigenvalues --   -1.16117  -1.11767  -1.11566  -1.08158  -1.04623
  Beta  occ. eigenvalues --   -1.02885  -1.01395  -0.97759  -0.92723  -0.91931
  Beta  occ. eigenvalues --   -0.88374  -0.86608  -0.85984  -0.85046  -0.81700
  Beta  occ. eigenvalues --   -0.78933  -0.78399  -0.77243  -0.75511  -0.74794
  Beta  occ. eigenvalues --   -0.72991  -0.71269  -0.70801  -0.70505  -0.69735
  Beta  occ. eigenvalues --   -0.69052  -0.67832  -0.66234  -0.65926  -0.65502
  Beta  occ. eigenvalues --   -0.64862  -0.64654  -0.62511  -0.62071  -0.61918
  Beta  occ. eigenvalues --   -0.61642  -0.60924  -0.60129  -0.59621  -0.59154
  Beta  occ. eigenvalues --   -0.58356  -0.57880  -0.57584  -0.55496  -0.55366
  Beta  occ. eigenvalues --   -0.54844  -0.54538  -0.54023  -0.51500  -0.50702
  Beta  occ. eigenvalues --   -0.49481  -0.48796  -0.48485  -0.48079  -0.47401
  Beta  occ. eigenvalues --   -0.46116  -0.45084  -0.44454  -0.43201  -0.41087
  Beta  occ. eigenvalues --   -0.39977  -0.39462  -0.35601  -0.29930
  Beta virt. eigenvalues --    0.01868   0.02581   0.03249   0.03669   0.03861
  Beta virt. eigenvalues --    0.03998   0.04341   0.04904   0.05307   0.05664
  Beta virt. eigenvalues --    0.06047   0.06522   0.06541   0.06952   0.07437

 Mulliken charges and spin densities:
               1          2
     1  O   -0.817286   0.021160
     2  C    0.445640  -0.144153
     3  C    0.511513   0.024198
     4  C    0.995315   0.000243
     5  C    0.948392   0.016680
     6  C    0.624566   1.005462
     7  H   -0.428429   0.014331
     8  H    0.038504  -0.038046
     9  H   -0.110049  -0.058258
    10  O   -0.696234  -0.004997
    11  O   -0.655464   0.000036
    12  N    0.065485  -0.001009
    13  H   -0.387530   0.001309
    14  C    0.173601   0.003117
    15  C    0.642665   0.001231
    16  H   -0.309863   0.000278
    17  H   -0.129952   0.000515
    18  H    0.256042  -0.001754
    19  H    0.188283   0.000085
    20  O   -0.569028   0.050056
    21  C    0.824552  -0.130923
    22  O   -0.501398   0.005921
    23  C   -0.422272   0.817823
    24  C    0.632562  -0.143951
    25  H   -0.523882  -0.446896
    26  H    0.023098  -0.056166
    27  C    0.322830   0.033490
    28  H   -0.137359   0.008520
    29  H    0.021532   0.012434
    30  S    0.384767   0.003487
    31  C    0.172758   0.000751
    32  H   -0.031466  -0.000118
    33  H   -0.107948   0.000165
    34  H   -0.033258   0.000026
    35  O   -0.708158   0.006761
    36  N   -0.839201  -0.000853
    37  C    1.213414   0.000443
    38  C    0.063020  -0.000575
    39  N   -0.458061   0.000644
    40  C    0.359021  -0.000936
    41  N   -0.168306   0.000239
    42  N   -0.123430  -0.000126
    43  H   -0.017259   0.000010
    44  H   -0.041988   0.000009
    45  H   -0.515269   0.000094
    46  H   -0.438060   0.000233
    47  H    0.263591  -0.000989
 Sum of Mulliken charges =  -0.00000   1.00000

 Dipole moment (field-independent basis, Debye):
    X=             -8.8562    Y=             -5.0914    Z=             -1.7459  Tot=             10.3636
                          Isotropic Fermi Contact Couplings
        Atom                 a.u.       MegaHertz       Gauss      10(-4) cm-1
     1  O(17)              0.05970     -36.19254     -12.91440     -12.07253
     2  C(13)             -0.01980     -22.26276      -7.94391      -7.42606
     3  C(13)              0.00299       3.36548       1.20089       1.12260
     4  C(13)             -0.00050      -0.55660      -0.19861      -0.18566
     5  C(13)             -0.00057      -0.63878      -0.22793      -0.21307
     6  C(13)              0.25223     283.55796     101.18053      94.58475
     7  H(1)               0.00131       5.84530       2.08575       1.94978
     8  H(1)              -0.01339     -59.86911     -21.36279     -19.97019

 Normal termination of Gaussian 16 at Wed Apr  9 02:30:18 2025.
