 Gaussian 16, Revision C.01,

 ----------------------------------------------------------------------
 #t hf aug-cc-pvdz symm=none int=(grid=ultrafine) guess=(read,tcheck) s
 table=(opt,rrhf)
 ----------------------------------------------------------------------
 -----
 title
 -----
 Symbolic Z-matrix:
 Charge =  0 Multiplicity = 1

 SCF Done:  E(RHF) =  -592.718502051     A.U. after   12 cycles

 1\1\GINC-SE059\Stability\RHF\Aug-CC-pVDZ\C5H10S1\OHZDE\09-Apr-2025\0\\
 #t hf aug-cc-pvdz symm=none int=(grid=ultrafine) guess=(read,tcheck) s
 table=(opt,rrhf)\\title\\0,1\C,0,0.436791,-1.197103,0.150177\C,0,-0.34
 8044,-0.000099,-0.384956\S,0,-2.134554,-0.00002,-0.030783\C,0,1.907046
 ,-0.777126,-0.01391\C,0,1.907143,0.777079,-0.013306\C,0,0.436734,1.197
 209,0.149634\H,0,0.188551,-2.126623,-0.362561\H,0,0.194297,-1.333514,1
 .208641\H,0,-0.306557,-0.000384,-1.478477\H,0,2.305839,-1.154779,-0.95
 7468\H,0,2.532984,-1.189156,0.778542\H,0,2.307176,1.155476,-0.956029\H

 Normal termination of Gaussian 16 at Wed Apr  9 00:57:29 2025.
 Gaussian 16:  ES64L-G16RevC.01  3-Jul-2019

 ----------------------------------------------------------------------
 #t hf aug-cc-pvdz iop(5/13=1,5/36=2,99/5=2) pseudo=read geom=check gue
 ss=(read,tcheck) scf=(maxcycle=1)
 ----------------------------------------------------------------------
 -----
 title
 -----
 Structure from the checkpoint file:  "BH10_186_reverse_mol3.chk"
 Charge =  0 Multiplicity = 1

                         Standard orientation:
 ---------------------------------------------------------------------
 Center     Atomic      Atomic             Coordinates (Angstroms)
 Number     Number       Type             X           Y           Z
 ---------------------------------------------------------------------
      1          6           0        0.436791   -1.197103    0.150177
      2          6           0       -0.348044   -0.000099   -0.384956
      3         16           0       -2.134554   -0.000020   -0.030783
      4          6           0        1.907046   -0.777126   -0.013910
      5          6           0        1.907143    0.777079   -0.013306
      6          6           0        0.436734    1.197209    0.149634
      7          1           0        0.188551   -2.126623   -0.362561
      8          1           0        0.194297   -1.333514    1.208641
      9          1           0       -0.306557   -0.000384   -1.478477
     10          1           0        2.305839   -1.154779   -0.957468
     11          1           0        2.532984   -1.189156    0.778542
     12          1           0        2.307176    1.155476   -0.956029
     13          1           0        2.532185    1.188313    0.780267
     14          1           0        0.188816    2.126351   -0.363944
     15          1           0        0.193691    1.334496    1.207849
     16          1           0       -2.022137    0.000381    1.309870
 ---------------------------------------------------------------------

 SCF Done:  E(RHF) =  -592.797375830     A.U. after    2 cycles

 The electronic state is 1-A.
 Alpha  occ. eigenvalues --  -93.52771 -11.26938 -11.23373 -11.23362 -11.23213
 Alpha  occ. eigenvalues --  -11.23170  -8.82528  -6.16705  -6.16502  -6.16158
 Alpha  occ. eigenvalues --   -1.12880  -1.00472  -0.96761  -0.89680  -0.78379
 Alpha  occ. eigenvalues --   -0.77925  -0.66806  -0.63740  -0.58583  -0.58217
 Alpha  occ. eigenvalues --   -0.52569  -0.50077  -0.49129  -0.48176  -0.47540
 Alpha  occ. eigenvalues --   -0.46349  -0.43558  -0.34741
 Alpha virt. eigenvalues --    0.03484   0.04297   0.04715   0.05009   0.06598
 Alpha virt. eigenvalues --    0.06727   0.06895   0.06933   0.07612   0.09139
 Alpha virt. eigenvalues --    0.10907   0.12773   0.13873   0.13934   0.14304

 Mulliken charges:
               1
     1  C    0.320449
     2  C   -0.404523
     3  S    0.370401
     4  C    0.269576
     5  C    0.270051
     6  C    0.319935
     7  H   -0.138260
     8  H   -0.152129
     9  H   -0.187952
    10  H   -0.122143
    11  H   -0.101998
    12  H   -0.121806
    13  H   -0.101727
    14  H   -0.138374
    15  H   -0.152268
    16  H    0.070768
 Sum of Mulliken charges =  -0.00000

 Dipole moment (field-independent basis, Debye):
    X=              1.9440    Y=              0.0001    Z=              0.4079  Tot=              1.9864

 Test job not archived.
 1\1\GINC-SE059\SP\RHF\Aug-CC-pVDZ\C5H10S1\OHZDE\09-Apr-2025\0\\#t hf a
 ug-cc-pvdz iop(5/13=1,5/36=2,99/5=2) pseudo=read geom=check guess=(rea
 d,tcheck) scf=(maxcycle=1)\\title\\0,1\C,0,0.436791,-1.197103,0.150177
 \C,0,-0.348044,-0.000099,-0.384956\S,0,-2.134554,-0.00002,-0.030783\C,
 0,1.907046,-0.777126,-0.01391\C,0,1.907143,0.777079,-0.013306\C,0,0.43
 6734,1.197209,0.149634\H,0,0.188551,-2.126623,-0.362561\H,0,0.194297,-
 1.333514,1.208641\H,0,-0.306557,-0.000384,-1.478477\H,0,2.305839,-1.15
 4779,-0.957468\H,0,2.532984,-1.189156,0.778542\H,0,2.307176,1.155476,-

 Normal termination of Gaussian 16 at Wed Apr  9 00:57:35 2025.
