 Gaussian 16, Revision C.01,

 ----------------------------------------------------------------------
 #t hf aug-cc-pvdz symm=none int=(grid=ultrafine) guess=(read,tcheck) s
 table=(opt,rrhf)
 ----------------------------------------------------------------------
 -----
 title
 -----
 Symbolic Z-matrix:
 Charge =  0 Multiplicity = 1

 SCF Done:  E(RHF) =  -1000.85429166     A.U. after   18 cycles
 Normal termination of Gaussian 16 at Wed Apr  9 02:11:28 2025.
 Gaussian 16:  ES64L-G16RevC.01  3-Jul-2019

 ----------------------------------------------------------------------
 #t hf aug-cc-pvdz iop(5/13=1,5/36=2,99/5=2) pseudo=read geom=check gue
 ss=(read,tcheck) scf=(maxcycle=1)
 ----------------------------------------------------------------------
 -----
 title
 -----
 Structure from the checkpoint file:  "BH10_85_reverse_mol1.chk"
 Charge =  0 Multiplicity = 1

                         Standard orientation:
 ---------------------------------------------------------------------
 Center     Atomic      Atomic             Coordinates (Angstroms)
 Number     Number       Type             X           Y           Z
 ---------------------------------------------------------------------
      1          6           0        0.246730   -0.933914   -0.867100
      2          6           0       -2.064613   -0.705235   -0.073119
      3          6           0        0.705443    0.075458   -0.038460
      4          1           0        0.309343    0.069146    0.969262
      5          6           0       -2.073369    0.752011   -0.154547
      6          6           0       -3.441444    1.396746   -0.286521
      7          6           0       -1.029834   -1.439900   -0.651143
      8          1           0       -1.302968   -2.418788   -1.034517
      9          1           0        0.837714   -1.278868   -1.706980
     10          6           0       -0.991964    2.821695   -0.673869
     11          6           0       -3.302427   -1.458251    0.184307
     12          6           0        1.984333    0.809595   -0.197266
     13          6           0        2.102112    1.992178    0.774428
     14          1           0        2.142708    1.646459    1.811090
     15          1           0        1.247412    2.662533    0.695462
     16          1           0        2.079059    1.159158   -1.231847
     17          1           0        3.004926    2.574038    0.585639
     18          7           0       -0.994171    1.456059   -0.190524
     19         14           0        3.462028   -0.393252    0.075946
     20          6           0        3.613134   -1.624192   -1.331071
     21          6           0        5.031499    0.638063    0.136403
     22          6           0        3.222026   -1.298790    1.699575
     23          1           0       -0.016686    3.022360   -1.121307
     24          1           0       -1.119772    3.528533    0.152998
     25          1           0       -1.751277    3.031555   -1.432425
     26          1           0        5.143961    1.251177   -0.761742
     27          1           0        5.906336   -0.014429    0.199649
     28          1           0        5.054451    1.303312    1.001641
     29          1           0        3.610455   -1.129360   -2.305611
     30          1           0        2.808056   -2.359714   -1.320856
     31          1           0        4.557607   -2.168007   -1.242593
     32          1           0        2.316837   -1.909837    1.678545
     33          1           0        3.143302   -0.608665    2.542915
     34          1           0        4.066759   -1.963456    1.897978
     35          6           0       -4.605011   -0.709445    0.381927
     36          6           0       -4.420358    0.764184    0.696509
     37          1           0       -5.177251   -1.234444    1.147846
     38          1           0       -5.162228   -0.823014   -0.555678
     39          1           0       -4.035874    0.886951    1.713998
     40          1           0       -5.378188    1.287404    0.655290
     41          1           0       -3.811887    1.268533   -1.310278
     42          1           0       -3.368389    2.467122   -0.100517
     43          8           0       -3.308893   -2.677226    0.217767
 ---------------------------------------------------------------------

 SCF Done:  E(RHF) =  -1001.09399723     A.U. after    2 cycles

 The electronic state is 1-A.
 Alpha  occ. eigenvalues --  -69.05415 -20.52120 -15.61140 -11.31576 -11.29952
 Alpha  occ. eigenvalues --  -11.29590 -11.26151 -11.25967 -11.24533 -11.24139
 Alpha  occ. eigenvalues --  -11.23589 -11.23516 -11.23149 -11.21662 -11.21398
 Alpha  occ. eigenvalues --  -11.21103 -11.21060 -11.20887  -6.80674  -3.91430
 Alpha  occ. eigenvalues --   -3.91405  -3.91398  -1.31856  -1.20728  -1.10412
 Alpha  occ. eigenvalues --   -1.09458  -1.05304  -0.99155  -0.97351  -0.96231
 Alpha  occ. eigenvalues --   -0.93993  -0.92468  -0.92340  -0.89486  -0.84693
 Alpha  occ. eigenvalues --   -0.81228  -0.76715  -0.75483  -0.68491  -0.67175
 Alpha  occ. eigenvalues --   -0.66539  -0.64579  -0.63644  -0.61757  -0.60889
 Alpha  occ. eigenvalues --   -0.60156  -0.59712  -0.59292  -0.58527  -0.57517
 Alpha  occ. eigenvalues --   -0.57141  -0.57051  -0.56028  -0.55300  -0.54774
 Alpha  occ. eigenvalues --   -0.54284  -0.53816  -0.53552  -0.53137  -0.51883
 Alpha  occ. eigenvalues --   -0.50796  -0.49861  -0.48523  -0.47380  -0.46590
 Alpha  occ. eigenvalues --   -0.43673  -0.43576  -0.43489  -0.39981  -0.39702
 Alpha  occ. eigenvalues --   -0.34444  -0.28118
 Alpha virt. eigenvalues --    0.02473   0.02992   0.03546   0.03811   0.04807
 Alpha virt. eigenvalues --    0.04942   0.05037   0.05852   0.05937   0.06310
 Alpha virt. eigenvalues --    0.06504   0.06736   0.07082   0.07382   0.07748

 Mulliken charges:
               1
     1  C    0.741460
     2  C    0.693147
     3  C    0.193338
     4  H   -0.603930
     5  C   -1.111267
     6  C    0.681618
     7  C   -0.000524
     8  H   -0.655230
     9  H   -0.674024
    10  C    0.993017
    11  C   -0.336803
    12  C    0.671561
    13  C    0.952389
    14  H    0.005705
    15  H   -0.350795
    16  H   -0.363908
    17  H   -0.100380
    18  N   -0.099893
    19  Si   0.100905
    20  C    0.911473
    21  C    0.740990
    22  C    0.862312
    23  H   -0.359457
    24  H   -0.129785
    25  H   -0.210185
    26  H   -0.229063
    27  H   -0.386535
    28  H   -0.285657
    29  H   -0.213497
    30  H   -0.300010
    31  H   -0.379081
    32  H   -0.173648
    33  H   -0.270566
    34  H   -0.371917
    35  C    0.335310
    36  C    0.659325
    37  H    0.022796
    38  H    0.106184
    39  H   -0.139738
    40  H   -0.038336
    41  H   -0.092665
    42  H   -0.176709
    43  O   -0.617927
 Sum of Mulliken charges =  -0.00000

 Dipole moment (field-independent basis, Debye):
    X=              2.2768    Y=              5.2163    Z=             -0.6693  Tot=              5.7307

 Test job not archived.
 1\1\GINC-SE195\SP\RHF\Aug-CC-pVDZ\C15H25N1O1Si1\OHZDE\09-Apr-2025\0\\#
 t hf aug-cc-pvdz iop(5/13=1,5/36=2,99/5=2) pseudo=read geom=check gues
 s=(read,tcheck) scf=(maxcycle=1)\\title\\0,1\C,0,0.24673,-0.933914,-0.
 8671\C,0,-2.064613,-0.705235,-0.073119\C,0,0.705443,0.075458,-0.03846\
 H,0,0.309343,0.069146,0.969262\C,0,-2.073369,0.752011,-0.154547\C,0,-3
 .441444,1.396746,-0.286521\C,0,-1.029834,-1.4399,-0.651143\H,0,-1.3029
 68,-2.418788,-1.034517\H,0,0.837714,-1.278868,-1.70698\C,0,-0.991964,2
 .821695,-0.673869\C,0,-3.302427,-1.458251,0.184307\C,0,1.984333,0.8095

 Normal termination of Gaussian 16 at Wed Apr  9 02:13:02 2025.
