 Gaussian 16, Revision C.01,

 ----------------------------------------------------------------------
 #t hf aug-cc-pvdz symm=none int=(grid=ultrafine) guess=(read,tcheck) s
 table=opt
 ----------------------------------------------------------------------
 -----
 title
 -----
 Symbolic Z-matrix:
 Charge =  0 Multiplicity = 2

 SCF Done:  E(UHF) =  -1028.92530245     A.U. after   20 cycles
 Normal termination of Gaussian 16 at Wed Apr  9 01:14:28 2025.
 Gaussian 16:  ES64L-G16RevC.01  3-Jul-2019

 ----------------------------------------------------------------------
 #t hf aug-cc-pvdz iop(5/13=1,5/36=2,99/5=2) pseudo=read geom=check gue
 ss=(read,tcheck) scf=(maxcycle=1)
 ----------------------------------------------------------------------
 -----
 title
 -----
 Structure from the checkpoint file:  "BH10_204_forward_mol1.chk"
 Charge =  0 Multiplicity = 2

                         Standard orientation:
 ---------------------------------------------------------------------
 Center     Atomic      Atomic             Coordinates (Angstroms)
 Number     Number       Type             X           Y           Z
 ---------------------------------------------------------------------
      1          7           0       -0.567708    0.423515   -0.476262
      2         16           0       -0.357362   -1.199621   -0.692778
      3          8           0        0.105650   -1.785441    0.753468
      4          6           0        1.488244   -1.662821    1.143176
      5          6           0        1.798075   -0.289752    1.722751
      6          1           0        2.118603   -1.904571    0.287325
      7          1           0        1.614730   -2.432479    1.902344
      8          6           0        1.710881    0.861851    0.745054
      9          1           0        2.818090   -0.333530    2.126472
     10          1           0        1.133973   -0.114083    2.572148
     11          1           0        0.588273    0.770013    0.144312
     12          6           0        2.730513    0.921075   -0.368441
     13          1           0        1.595770    1.822492    1.251232
     14          6           0       -1.740021    0.969792    0.257336
     15          6           0       -2.069747    0.249677    1.565585
     16          6           0       -1.393872    2.433503    0.537169
     17          6           0       -2.937994    0.921561   -0.701985
     18          1           0       -3.784045    1.435387   -0.240136
     19          1           0       -3.225430   -0.104024   -0.922778
     20          1           0       -2.691505    1.424819   -1.637870
     21          1           0       -2.337670   -0.792283    1.394753
     22          1           0       -2.916393    0.746040    2.044109
     23          1           0       -1.225956    0.278938    2.256545
     24          1           0       -2.269838    2.944831    0.938993
     25          1           0       -0.590090    2.520977    1.269444
     26          1           0       -1.086862    2.937976   -0.380049
     27          8           0        0.766232   -1.356198   -1.586809
     28          8           0       -1.623258   -1.834031   -0.951621
     29          6           0        2.464806    2.057884   -1.348669
     30          1           0        2.748266   -0.026704   -0.909687
     31          1           0        3.721406    1.043836    0.090442
     32          1           0        3.236877    2.099926   -2.118384
     33          1           0        1.502952    1.915279   -1.844144
     34          1           0        2.446306    3.025224   -0.838950
 ---------------------------------------------------------------------

 SCF Done:  E(UHF) =  -1029.20528335     A.U. after    2 cycles

 The electronic state is 2-A.
 Alpha  occ. eigenvalues --  -93.83631 -20.62511 -20.56880 -20.56495 -15.68282
 Alpha  occ. eigenvalues --  -11.31543 -11.29881 -11.27256 -11.25916 -11.23929
 Alpha  occ. eigenvalues --  -11.23812 -11.23074 -11.22646 -11.22569  -9.09395
 Alpha  occ. eigenvalues --   -6.44081  -6.44001  -6.43881  -1.46949  -1.34807
 Alpha  occ. eigenvalues --   -1.32092  -1.22389  -1.11090  -1.06937  -1.03090
 Alpha  occ. eigenvalues --   -0.95790  -0.94876  -0.94064  -0.88301  -0.84161
 Alpha  occ. eigenvalues --   -0.81591  -0.77702  -0.74788  -0.70234  -0.70176
 Alpha  occ. eigenvalues --   -0.68069  -0.66264  -0.64985  -0.63131  -0.62092
 Alpha  occ. eigenvalues --   -0.61863  -0.60116  -0.59727  -0.56960  -0.56861
 Alpha  occ. eigenvalues --   -0.56198  -0.55427  -0.54296  -0.53716  -0.52963
 Alpha  occ. eigenvalues --   -0.52089  -0.51763  -0.51090  -0.50915  -0.50012
 Alpha  occ. eigenvalues --   -0.49183  -0.48704  -0.48214  -0.47586  -0.43789
 Alpha  occ. eigenvalues --   -0.38907
 Alpha virt. eigenvalues --    0.02355   0.03432   0.03721   0.04325   0.05118
 Alpha virt. eigenvalues --    0.05344   0.05833   0.06331   0.06682   0.07330
 Alpha virt. eigenvalues --    0.07540   0.07979   0.08145   0.08614   0.09360

  Beta  occ. eigenvalues --  -93.83673 -20.62531 -20.56708 -20.56517 -15.65792
  Beta  occ. eigenvalues --  -11.31507 -11.30019 -11.26043 -11.25706 -11.24039
  Beta  occ. eigenvalues --  -11.23782 -11.23066 -11.22630 -11.22447  -9.09452
  Beta  occ. eigenvalues --   -6.44120  -6.44030  -6.43999  -1.46704  -1.34724
  Beta  occ. eigenvalues --   -1.31921  -1.17812  -1.09287  -1.05457  -1.02718
  Beta  occ. eigenvalues --   -0.94868  -0.94514  -0.93401  -0.87415  -0.83609
  Beta  occ. eigenvalues --   -0.79772  -0.76996  -0.73125  -0.70006  -0.68313
  Beta  occ. eigenvalues --   -0.66014  -0.65164  -0.64516  -0.62602  -0.61799
  Beta  occ. eigenvalues --   -0.61190  -0.59326  -0.59076  -0.56570  -0.56002
  Beta  occ. eigenvalues --   -0.55504  -0.55044  -0.53532  -0.52500  -0.52143
  Beta  occ. eigenvalues --   -0.51560  -0.51122  -0.50668  -0.49875  -0.49386
  Beta  occ. eigenvalues --   -0.48721  -0.48356  -0.47744  -0.46113  -0.40743
  Beta virt. eigenvalues --    0.02343   0.03133   0.03645   0.03729   0.04807
  Beta virt. eigenvalues --    0.05122   0.05533   0.05836   0.06337   0.06715
  Beta virt. eigenvalues --    0.07338   0.07546   0.07981   0.08147   0.08666

 Mulliken charges and spin densities:
               1          2
     1  N   -1.127857   0.873817
     2  S    2.968540  -0.054903
     3  O   -0.948605  -0.006795
     4  C    1.083892   0.014818
     5  C    0.491966  -0.102832
     6  H   -0.085470  -0.001796
     7  H   -0.292123  -0.000482
     8  C   -0.398726   0.838191
     9  H   -0.084323   0.022940
    10  H   -0.115400  -0.002018
    11  H   -0.490331  -0.383610
    12  C    0.452733  -0.112403
    13  H   -0.109272  -0.071017
    14  C   -3.274808  -0.138602
    15  C    1.254088   0.011890
    16  C    1.316765   0.011846
    17  C    1.271588   0.049318
    18  H    0.038298   0.004778
    19  H    0.026693   0.001103
    20  H   -0.000906  -0.000835
    21  H   -0.029701  -0.000409
    22  H    0.037418  -0.001306
    23  H   -0.028698  -0.002349
    24  H   -0.055340  -0.001814
    25  H   -0.064950  -0.004775
    26  H    0.007159   0.000264
    27  O   -1.051905  -0.005319
    28  O   -1.003476   0.021380
    29  C    0.656747   0.008575
    30  H   -0.056217   0.006990
    31  H   -0.111322   0.025025
    32  H   -0.114276  -0.001175
    33  H   -0.088496   0.001678
    34  H   -0.073683  -0.000171
 Sum of Mulliken charges =  -0.00000   1.00000

 Dipole moment (field-independent basis, Debye):
    X=              2.0818    Y=              3.6099    Z=              4.2906  Tot=              5.9812
                          Isotropic Fermi Contact Couplings
        Atom                 a.u.       MegaHertz       Gauss      10(-4) cm-1
     1  N(14)              0.34111     110.21493      39.32743      36.76374
     2  S(33)             -0.06777     -23.27844      -8.30632      -7.76485
     3  O(17)             -0.00573       3.47332       1.23937       1.15857
     4  C(13)              0.00827       9.30265       3.31942       3.10303
     5  C(13)             -0.02424     -27.25417      -9.72497      -9.09101
     6  H(1)              -0.00030      -1.33546      -0.47652      -0.44546
     7  H(1)              -0.00054      -2.43254      -0.86799      -0.81141
     8  C(13)              0.18692     210.13224      74.98041      70.09257

 1\1\GINC-SE096\SP\UHF\Aug-CC-pVDZ\C9H20N1O3S1(2)\OHZDE\09-Apr-2025\0\\
 #t hf aug-cc-pvdz iop(5/13=1,5/36=2,99/5=2) pseudo=read geom=check gue
 ss=(read,tcheck) scf=(maxcycle=1)\\title\\0,2\N,0,-0.567708,0.423515,-
 0.476262\S,0,-0.357362,-1.199621,-0.692778\O,0,0.10565,-1.785441,0.753
 468\C,0,1.488244,-1.662821,1.143176\C,0,1.798075,-0.289752,1.722751\H,
 0,2.118603,-1.904571,0.287325\H,0,1.614731,-2.432479,1.902344\C,0,1.71
 0881,0.861851,0.745054\H,0,2.81809,-0.333529,2.126472\H,0,1.133973,-0.
 114083,2.572148\H,0,0.588273,0.770013,0.144312\C,0,2.730513,0.921076,-

 Normal termination of Gaussian 16 at Wed Apr  9 01:15:25 2025.
