 Gaussian 16, Revision C.01,

 ----------------------------------------------------------------------
 #t hf aug-cc-pvdz symm=none int=(grid=ultrafine) guess=(read,tcheck) s
 table=(opt,rrhf)
 ----------------------------------------------------------------------
 -----
 title
 -----
 Symbolic Z-matrix:
 Charge =  0 Multiplicity = 1

 SCF Done:  E(RHF) =  -678.893542095     A.U. after   15 cycles
 Normal termination of Gaussian 16 at Wed Apr  9 01:18:21 2025.
 Gaussian 16:  ES64L-G16RevC.01  3-Jul-2019

 ----------------------------------------------------------------------
 #t hf aug-cc-pvdz iop(5/13=1,5/36=2,99/5=2) pseudo=read geom=check gue
 ss=(read,tcheck) scf=(maxcycle=1)
 ----------------------------------------------------------------------
 -----
 title
 -----
 Structure from the checkpoint file:  "BH10_282_forward_mol1.chk"
 Charge =  0 Multiplicity = 1

                         Standard orientation:
 ---------------------------------------------------------------------
 Center     Atomic      Atomic             Coordinates (Angstroms)
 Number     Number       Type             X           Y           Z
 ---------------------------------------------------------------------
      1          6           0       -1.971191   -0.346818   -1.232411
      2          6           0       -0.756032    0.365443    0.971413
      3          6           0       -2.225515    1.143353   -1.552998
      4          1           0       -1.462002    1.458891   -2.270632
      5          1           0       -3.192321    1.250254   -2.059619
      6          1           0        0.151515    0.356398    1.582578
      7          1           0       -1.917903   -0.869154   -2.194055
      8          1           0        0.299287    0.116284   -1.175297
      9          6           0       -1.033066    1.847067    0.636262
     10          1           0       -0.111034    2.251862    0.209314
     11          1           0       -1.224041    2.412399    1.556396
     12          5           0       -0.552694   -0.335809   -0.450920
     13          6           0        0.876554   -1.648108   -0.258831
     14          6           0        2.147706   -1.406424   -0.067318
     15          1           0        2.788875   -2.268241    0.081883
     16          6           0       -0.291711   -2.273059   -0.341913
     17          1           0       -0.652604   -2.654366   -1.288324
     18          1           0       -0.812255   -2.576141    0.556651
     19          6           0        2.827164   -0.091441   -0.037220
     20          8           0        2.323773    0.996853   -0.047959
     21          8           0        4.156737   -0.292295    0.018535
     22          6           0        4.956766    0.892561    0.063327
     23          1           0        4.704737    1.487187    0.941190
     24          1           0        5.986185    0.548810    0.114537
     25          1           0        4.795703    1.493111   -0.831691
     26          6           0       -1.870802   -0.314617    1.784837
     27          1           0       -1.507570   -1.294801    2.120389
     28          1           0       -2.057597    0.246992    2.707720
     29          6           0       -3.095127   -0.991632   -0.404954
     30          1           0       -2.947784   -2.077854   -0.403238
     31          1           0       -4.058861   -0.832005   -0.902610
     32          6           0       -2.191158    2.093335   -0.344697
     33          1           0       -3.141700    2.038914    0.186776
     34          1           0       -2.126411    3.121841   -0.713159
     35          6           0       -3.208346   -0.502324    1.049526
     36          1           0       -3.826958   -1.209187    1.611701
     37          1           0       -3.759337    0.437374    1.069343
 ---------------------------------------------------------------------

 SCF Done:  E(RHF) =  -679.099914947     A.U. after    2 cycles

 The electronic state is 1-A.
 Alpha  occ. eigenvalues --  -20.62641 -20.56754 -11.40893 -11.34258 -11.30251
 Alpha  occ. eigenvalues --  -11.29265 -11.28650 -11.21082 -11.20878 -11.20827
 Alpha  occ. eigenvalues --  -11.20450 -11.20085 -11.19727 -11.19467 -11.17862
 Alpha  occ. eigenvalues --   -7.55331  -1.43404  -1.33679  -1.13880  -1.08315
 Alpha  occ. eigenvalues --   -1.04167  -1.01354  -0.99899  -0.97529  -0.90526
 Alpha  occ. eigenvalues --   -0.89253  -0.83163  -0.77742  -0.76748  -0.76000
 Alpha  occ. eigenvalues --   -0.74392  -0.71678  -0.70696  -0.69523  -0.67036
 Alpha  occ. eigenvalues --   -0.66160  -0.64617  -0.62532  -0.61531  -0.58034
 Alpha  occ. eigenvalues --   -0.57356  -0.56777  -0.56309  -0.55933  -0.54885
 Alpha  occ. eigenvalues --   -0.54625  -0.52195  -0.49893  -0.48867  -0.48299
 Alpha  occ. eigenvalues --   -0.47120  -0.45808  -0.45364  -0.44950  -0.44184
 Alpha  occ. eigenvalues --   -0.43059  -0.40755  -0.38376  -0.37954  -0.36010
 Alpha virt. eigenvalues --    0.02516   0.03479   0.03961   0.04118   0.04853
 Alpha virt. eigenvalues --    0.05296   0.05546   0.05904   0.06040   0.06551
 Alpha virt. eigenvalues --    0.07116   0.07186   0.07516   0.07821   0.08332

 Mulliken charges:
               1
     1  C   -0.528053
     2  C   -0.599198
     3  C    0.597692
     4  H   -0.039518
     5  H   -0.150453
     6  H   -0.307588
     7  H   -0.227629
     8  H    0.041311
     9  C    0.538195
    10  H    0.073499
    11  H   -0.164267
    12  B   -0.767071
    13  C   -1.207171
    14  C    1.353328
    15  H   -0.468120
    16  C    1.336432
    17  H   -0.158259
    18  H   -0.071170
    19  C    0.082119
    20  O   -0.351568
    21  O   -0.605896
    22  C    0.880331
    23  H   -0.081057
    24  H   -0.285394
    25  H   -0.097356
    26  C    0.889716
    27  H   -0.126665
    28  H   -0.154543
    29  C    0.900057
    30  H   -0.074680
    31  H   -0.141064
    32  C    0.235986
    33  H   -0.134159
    34  H   -0.164361
    35  C    0.237706
    36  H   -0.172670
    37  H   -0.088462
 Sum of Mulliken charges =  -0.00000

 Dipole moment (field-independent basis, Debye):
    X=              2.5866    Y=             -3.2510    Z=              0.0325  Tot=              4.1546

 Test job not archived.
 1\1\GINC-SE229\SP\RHF\Aug-CC-pVDZ\C13H21B1O2\OHZDE\09-Apr-2025\0\\#t h
 f aug-cc-pvdz iop(5/13=1,5/36=2,99/5=2) pseudo=read geom=check guess=(
 read,tcheck) scf=(maxcycle=1)\\title\\0,1\C,0,-1.971191,-0.346818,-1.2
 32411\C,0,-0.756032,0.365443,0.971413\C,0,-2.225515,1.143353,-1.552998
 \H,0,-1.462002,1.458891,-2.270632\H,0,-3.192321,1.250254,-2.059619\H,0
 ,0.151515,0.356398,1.582578\H,0,-1.917903,-0.869154,-2.194055\H,0,0.29
 9287,0.116284,-1.175297\C,0,-1.033066,1.847067,0.636262\H,0,-0.111034,
 2.251862,0.209314\H,0,-1.224041,2.412399,1.556396\B,0,-0.552694,-0.335

 Normal termination of Gaussian 16 at Wed Apr  9 01:19:24 2025.
