 Gaussian 16, Revision C.01,

 ----------------------------------------------------------------------
 #t hf aug-cc-pvdz symm=none int=(grid=ultrafine) guess=(read,tcheck) s
 table=(opt,rrhf)
 ----------------------------------------------------------------------
 -----
 title
 -----
 Symbolic Z-matrix:
 Charge =  0 Multiplicity = 1

 SCF Done:  E(RHF) =  -778.934783087     A.U. after   15 cycles
 Normal termination of Gaussian 16 at Wed Apr  9 01:50:53 2025.
 Gaussian 16:  ES64L-G16RevC.01  3-Jul-2019

 ----------------------------------------------------------------------
 #t hf aug-cc-pvdz iop(5/13=1,5/36=2,99/5=2) pseudo=read geom=check gue
 ss=(read,tcheck) scf=(maxcycle=1)
 ----------------------------------------------------------------------
 -----
 title
 -----
 Structure from the checkpoint file:  "BH10_93_forward_mol1.chk"
 Charge =  0 Multiplicity = 1

                         Standard orientation:
 ---------------------------------------------------------------------
 Center     Atomic      Atomic             Coordinates (Angstroms)
 Number     Number       Type             X           Y           Z
 ---------------------------------------------------------------------
      1          6           0       -0.132916    0.495284    1.254942
      2          6           0       -0.623141    1.649136    0.707817
      3          6           0       -0.132954    0.495326   -1.254922
      4          6           0       -0.623163    1.649160   -0.707744
      5          1           0        0.075912    0.308241   -2.298220
      6          1           0       -1.066972    2.440227   -1.296375
      7          1           0       -1.066933    2.440184    1.296488
      8          1           0        0.075981    0.308165    2.298228
      9         16           0        0.924336   -0.266683   -0.000018
     10          6           0       -1.772543   -0.992009    0.687050
     11          6           0       -1.772563   -0.991986   -0.687029
     12          1           0       -1.256074   -1.777834    1.220977
     13          1           0       -1.256111   -1.777794   -1.220997
     14          1           0       -2.524502   -0.442746    1.236284
     15          1           0       -2.524539   -0.442705   -1.236222
     16          8           0        2.223203    0.394285   -0.000027
     17          8           0        0.913990   -1.721569   -0.000042
 ---------------------------------------------------------------------

 SCF Done:  E(RHF) =  -779.121949938     A.U. after    2 cycles

 The electronic state is 1-A.
 Alpha  occ. eigenvalues --  -93.78254 -20.55818 -20.55370 -11.30435 -11.30418
 Alpha  occ. eigenvalues --  -11.27972 -11.27877 -11.26414 -11.26288  -9.04951
 Alpha  occ. eigenvalues --   -6.39556  -6.39385  -6.39299  -1.41348  -1.29620
 Alpha  occ. eigenvalues --   -1.17315  -1.04170  -1.01884  -0.95339  -0.82158
 Alpha  occ. eigenvalues --   -0.79821  -0.78388  -0.73445  -0.68501  -0.65201
 Alpha  occ. eigenvalues --   -0.64617  -0.63993  -0.61014  -0.60298  -0.58534
 Alpha  occ. eigenvalues --   -0.54456  -0.53514  -0.51334  -0.51042  -0.47555
 Alpha  occ. eigenvalues --   -0.45045  -0.36029  -0.34594
 Alpha virt. eigenvalues --    0.02493   0.03373   0.04115   0.04259   0.04814
 Alpha virt. eigenvalues --    0.05380   0.05932   0.06632   0.08370   0.09909
 Alpha virt. eigenvalues --    0.10570   0.12160   0.12609   0.12783   0.13301

 Mulliken charges:
               1
     1  C    0.244380
     2  C    0.278124
     3  C    0.244382
     4  C    0.278127
     5  H   -0.444811
     6  H   -0.372964
     7  H   -0.372963
     8  H   -0.444810
     9  S    2.765785
    10  C    0.600305
    11  C    0.600305
    12  H   -0.220923
    13  H   -0.220924
    14  H   -0.282314
    15  H   -0.282313
    16  O   -1.178867
    17  O   -1.190522
 Sum of Mulliken charges =  -0.00000

 Dipole moment (field-independent basis, Debye):
    X=             -5.3987    Y=              2.6975    Z=              0.0001  Tot=              6.0351

 Test job not archived.
 1\1\GINC-SE457\SP\RHF\Aug-CC-pVDZ\C6H8O2S1\OHZDE\09-Apr-2025\0\\#t hf
 aug-cc-pvdz iop(5/13=1,5/36=2,99/5=2) pseudo=read geom=check guess=(re
 ad,tcheck) scf=(maxcycle=1)\\title\\0,1\C,0,-0.132916,0.495284,1.25494
 2\C,0,-0.623141,1.649136,0.707817\C,0,-0.132954,0.495326,-1.254922\C,0
 ,-0.623163,1.64916,-0.707744\H,0,0.075912,0.308241,-2.29822\H,0,-1.066
 972,2.440227,-1.296375\H,0,-1.066933,2.440184,1.296488\H,0,0.075981,0.
 308165,2.298228\S,0,0.924336,-0.266683,-0.000018\C,0,-1.772543,-0.9920
 09,0.68705\C,0,-1.772563,-0.991986,-0.687029\H,0,-1.256074,-1.777834,1

 Normal termination of Gaussian 16 at Wed Apr  9 01:51:02 2025.
