 Gaussian 16, Revision C.01,

 ----------------------------------------------------------------------
 #t hf aug-cc-pvdz symm=none int=(grid=ultrafine) guess=(read,tcheck) s
 table=(opt,rrhf)
 ----------------------------------------------------------------------
 -----
 title
 -----
 Symbolic Z-matrix:
 Charge =  0 Multiplicity = 1

 SCF Done:  E(RHF) =  -679.010147894     A.U. after   15 cycles
 Normal termination of Gaussian 16 at Wed Apr  9 01:18:10 2025.
 Gaussian 16:  ES64L-G16RevC.01  3-Jul-2019

 ----------------------------------------------------------------------
 #t hf aug-cc-pvdz iop(5/13=1,5/36=2,99/5=2) pseudo=read geom=check gue
 ss=(read,tcheck) scf=(maxcycle=1)
 ----------------------------------------------------------------------
 -----
 title
 -----
 Structure from the checkpoint file:  "BH10_285_reverse_mol2.chk"
 Charge =  0 Multiplicity = 1

                         Standard orientation:
 ---------------------------------------------------------------------
 Center     Atomic      Atomic             Coordinates (Angstroms)
 Number     Number       Type             X           Y           Z
 ---------------------------------------------------------------------
      1          6           0       -0.805876    0.213597    1.198498
      2          1           0       -0.179997    0.657042    1.985749
      3          5           0       -0.231574    0.513426   -0.273739
      4          6           0       -2.187233    0.894902    1.294687
      5          1           0       -2.032905    1.979605    1.283937
      6          1           0       -2.651516    0.672996    2.263323
      7          6           0       -0.851542   -1.303278    1.460698
      8          1           0        0.180089   -1.662547    1.547605
      9          6           0        0.180178    2.047907   -0.604795
     10          6           0        1.446354    2.474837    0.048738
     11          6           0        2.452712    1.632107    0.318625
     12          1           0       -1.319004   -1.507262    2.432028
     13          6           0        2.293619    0.231535   -0.001256
     14          8           0        1.231744   -0.299638   -0.355187
     15          8           0        3.381338   -0.500086    0.106845
     16          6           0        3.253031   -1.904811   -0.174815
     17          1           0        2.524514   -2.355274    0.497370
     18          1           0        2.935358   -2.051409   -1.205932
     19          1           0        4.242797   -2.319710   -0.010934
     20          6           0       -1.567898   -2.132260    0.382561
     21          1           0       -1.314060   -3.188695    0.520915
     22          1           0       -2.645186   -2.075529    0.539828
     23          6           0       -1.192090   -0.210768   -1.327064
     24          1           0       -0.831842   -0.071488   -2.355637
     25          6           0       -1.238152   -1.726625   -1.063320
     26          1           0       -0.257180   -2.137638   -1.324578
     27          1           0       -1.956478   -2.210055   -1.737202
     28          6           0       -2.566194    0.483721   -1.235027
     29          1           0       -3.282023    0.005705   -1.914739
     30          1           0       -2.450814    1.510978   -1.600247
     31          6           0       -3.177494    0.529027    0.175570
     32          1           0       -4.000253    1.251399    0.182152
     33          1           0       -3.639102   -0.432417    0.400492
     34          1           0        0.323642    2.173009   -1.689618
     35          1           0       -0.615589    2.748555   -0.343612
     36          1           0        1.589945    3.523194    0.300651
     37          1           0        3.396312    1.940857    0.745273
 ---------------------------------------------------------------------

 SCF Done:  E(RHF) =  -679.215567455     A.U. after    2 cycles

 The electronic state is 1-A.
 Alpha  occ. eigenvalues --  -20.65273 -20.60846 -11.43413 -11.31939 -11.29299
 Alpha  occ. eigenvalues --  -11.25429 -11.20072 -11.19991 -11.19892 -11.19861
 Alpha  occ. eigenvalues --  -11.19841 -11.19790 -11.19542 -11.16964 -11.16672
 Alpha  occ. eigenvalues --   -7.55217  -1.46842  -1.36860  -1.10898  -1.07646
 Alpha  occ. eigenvalues --   -1.02392  -1.00693  -0.98875  -0.94859  -0.89852
 Alpha  occ. eigenvalues --   -0.88471  -0.85148  -0.82414  -0.77340  -0.75993
 Alpha  occ. eigenvalues --   -0.75168  -0.71995  -0.71191  -0.69206  -0.67352
 Alpha  occ. eigenvalues --   -0.64002  -0.61797  -0.61492  -0.60420  -0.58256
 Alpha  occ. eigenvalues --   -0.57324  -0.56655  -0.56320  -0.55385  -0.54864
 Alpha  occ. eigenvalues --   -0.53870  -0.53313  -0.52013  -0.50912  -0.48207
 Alpha  occ. eigenvalues --   -0.47602  -0.45258  -0.44784  -0.44289  -0.43870
 Alpha  occ. eigenvalues --   -0.43369  -0.39520  -0.39207  -0.36850  -0.34160
 Alpha virt. eigenvalues --    0.02463   0.03430   0.03973   0.04525   0.04962
 Alpha virt. eigenvalues --    0.05085   0.05545   0.05719   0.06211   0.06512
 Alpha virt. eigenvalues --    0.06978   0.07375   0.07702   0.07868   0.08290

 Mulliken charges:
               1
     1  C   -0.160643
     2  H   -0.267599
     3  B   -1.202004
     4  C    0.597958
     5  H   -0.008038
     6  H   -0.170719
     7  C    0.540264
     8  H   -0.070657
     9  C    0.577866
    10  C    0.175869
    11  C    1.252161
    12  H   -0.178503
    13  C    0.189276
    14  O   -0.827444
    15  O   -0.625055
    16  C    0.904413
    17  H   -0.080060
    18  H   -0.088050
    19  H   -0.308828
    20  C    0.277756
    21  H   -0.199255
    22  H   -0.098864
    23  C   -0.192663
    24  H   -0.203357
    25  C    0.614122
    26  H    0.023666
    27  H   -0.209550
    28  C    0.594590
    29  H   -0.164297
    30  H    0.095835
    31  C    0.424963
    32  H   -0.188423
    33  H   -0.075838
    34  H    0.136276
    35  H    0.008088
    36  H   -0.489785
    37  H   -0.603474
 Sum of Mulliken charges =  -0.00000

 Dipole moment (field-independent basis, Debye):
    X=              4.3377    Y=              0.5784    Z=              0.0447  Tot=              4.3763

 Test job not archived.
 1\1\GINC-SE227\SP\RHF\Aug-CC-pVDZ\C13H21B1O2\OHZDE\09-Apr-2025\0\\#t h
 f aug-cc-pvdz iop(5/13=1,5/36=2,99/5=2) pseudo=read geom=check guess=(
 read,tcheck) scf=(maxcycle=1)\\title\\0,1\C,0,-0.805876,0.213597,1.198
 498\H,0,-0.179997,0.657042,1.985749\B,0,-0.231574,0.513426,-0.273739\C
 ,0,-2.187233,0.894902,1.294687\H,0,-2.032905,1.979605,1.283937\H,0,-2.
 651516,0.672996,2.263323\C,0,-0.851542,-1.303278,1.460698\H,0,0.180089
 ,-1.662547,1.547605\C,0,0.180178,2.047907,-0.604795\C,0,1.446354,2.474
 837,0.048738\C,0,2.452712,1.632107,0.318625\H,0,-1.319004,-1.507262,2.

 Normal termination of Gaussian 16 at Wed Apr  9 01:19:16 2025.
