 Gaussian 16, Revision C.01,

 ----------------------------------------------------------------------
 #t hf aug-cc-pvdz symm=none int=(grid=ultrafine) guess=(read,tcheck) s
 table=(opt,rrhf)
 ----------------------------------------------------------------------
 -----
 title
 -----
 Symbolic Z-matrix:
 Charge = -1 Multiplicity = 1

 SCF Done:  E(RHF) =  -1360.55472592     A.U. after   15 cycles
 Normal termination of Gaussian 16 at Wed Apr  9 01:18:12 2025.
 Gaussian 16:  ES64L-G16RevC.01  3-Jul-2019

 ----------------------------------------------------------------------
 #t hf aug-cc-pvdz iop(5/13=1,5/36=2,99/5=2) pseudo=read geom=check gue
 ss=(read,tcheck) scf=(maxcycle=1)
 ----------------------------------------------------------------------
 -----
 title
 -----
 Structure from the checkpoint file:  "BH10_313_reverse_mol2.chk"
 Charge = -1 Multiplicity = 1

                         Standard orientation:
 ---------------------------------------------------------------------
 Center     Atomic      Atomic             Coordinates (Angstroms)
 Number     Number       Type             X           Y           Z
 ---------------------------------------------------------------------
      1          6           0       -1.338214    0.951634    0.207348
      2          6           0       -2.627850    0.166180    0.096681
      3          6           0       -2.371471   -1.258855    0.551374
      4          1           0       -2.953904    0.167287   -0.944820
      5          1           0       -3.404044    0.641878    0.696003
      6          6           0       -1.145265   -1.873864   -0.136652
      7          6           0       -0.124080   -1.025923   -0.523983
      8          8           0       -0.329921    0.407702   -0.590916
      9          6           0       -1.481029    2.391377   -0.303241
     10          6           0        1.014977   -1.428364   -1.352937
     11          1           0        0.966826   -0.778702    1.167608
     12          8           0        2.358363   -1.297360   -0.733946
     13          1           0        1.072677   -0.848784   -2.279101
     14          1           0        0.927931   -2.488754   -1.571244
     15         15           0        2.760906   -0.082396    0.211192
     16          8           0        4.170692   -0.064605    0.605792
     17          8           0        1.715967   -0.195515    1.439659
     18          8           0        2.327753    1.260636   -0.553441
     19          1           0        1.362371    1.324929   -0.671367
     20          8           0       -1.165119   -3.125155   -0.258923
     21          8           0       -3.485560   -2.081010    0.282249
     22          1           0       -2.166597   -1.256021    1.629022
     23          1           0       -3.065088   -2.931739    0.051813
     24          8           0       -2.501105    2.930034   -0.630409
     25          8           0       -0.289007    3.015190   -0.311030
     26          1           0       -0.429783    3.919349   -0.621233
     27          8           0       -0.962793    1.005892    1.566416
     28          1           0       -0.000558    1.106930    1.620285
 ---------------------------------------------------------------------

 SCF Done:  E(RHF) =  -1360.94081308     A.U. after    2 cycles

 The electronic state is 1-A.
 Alpha  occ. eigenvalues --  -81.31811 -20.55110 -20.49904 -20.49316 -20.49274
 Alpha  occ. eigenvalues --  -20.48470 -20.48302 -20.47606 -20.44788 -20.40044
 Alpha  occ. eigenvalues --  -20.38483 -11.31924 -11.28222 -11.19438 -11.18909
 Alpha  occ. eigenvalues --  -11.17671 -11.13780 -11.13679  -7.79647  -4.94342
 Alpha  occ. eigenvalues --   -4.94274  -4.94222  -1.35941  -1.29728  -1.26319
 Alpha  occ. eigenvalues --   -1.25727  -1.22139  -1.21637  -1.21386  -1.20712
 Alpha  occ. eigenvalues --   -1.15847  -1.13514  -0.96187  -0.93516  -0.86251
 Alpha  occ. eigenvalues --   -0.80226  -0.75652  -0.72873  -0.69656  -0.67589
 Alpha  occ. eigenvalues --   -0.66072  -0.64592  -0.64101  -0.62177  -0.60157
 Alpha  occ. eigenvalues --   -0.58241  -0.57323  -0.56232  -0.55703  -0.54597
 Alpha  occ. eigenvalues --   -0.54260  -0.53632  -0.50842  -0.49765  -0.49518
 Alpha  occ. eigenvalues --   -0.47234  -0.46813  -0.45974  -0.45887  -0.44596
 Alpha  occ. eigenvalues --   -0.43761  -0.43326  -0.43018  -0.41880  -0.41613
 Alpha  occ. eigenvalues --   -0.40205  -0.38806  -0.38061  -0.37100  -0.37017
 Alpha  occ. eigenvalues --   -0.36636  -0.34048  -0.28363  -0.18498
 Alpha virt. eigenvalues --    0.10541   0.12648   0.12749   0.13665   0.14077
 Alpha virt. eigenvalues --    0.14690   0.15039   0.15723   0.15948   0.17377
 Alpha virt. eigenvalues --    0.18402   0.19022   0.19707   0.20148   0.20774

 Mulliken charges:
               1
     1  C   -0.006867
     2  C    0.498927
     3  C    0.665563
     4  H    0.025428
     5  H    0.023724
     6  C   -0.119570
     7  C   -0.088776
     8  O   -0.817768
     9  C    0.766217
    10  C    1.054956
    11  H    0.378051
    12  O   -0.965058
    13  H   -0.147306
    14  H   -0.213693
    15  P    2.458289
    16  O   -0.907880
    17  O   -0.761301
    18  O   -0.626550
    19  H    0.257183
    20  O   -0.801050
    21  O   -0.679433
    22  H    0.016891
    23  H    0.193779
    24  O   -0.461687
    25  O   -0.616354
    26  H    0.238903
    27  O   -0.564387
    28  H    0.199770
 Sum of Mulliken charges =  -1.00000

 Dipole moment (field-independent basis, Debye):
    X=             -3.0694    Y=              5.5958    Z=             -1.7261  Tot=              6.6116

 Test job not archived.
 1\1\GINC-SE090\SP\RHF\Aug-CC-pVDZ\C7H10O10P1(1-)\OHZDE\09-Apr-2025\0\\
 #t hf aug-cc-pvdz iop(5/13=1,5/36=2,99/5=2) pseudo=read geom=check gue
 ss=(read,tcheck) scf=(maxcycle=1)\\title\\-1,1\C,0,-1.338214,0.951634,
 0.207348\C,0,-2.62785,0.16618,0.096681\C,0,-2.371471,-1.258855,0.55137
 4\H,0,-2.953904,0.167288,-0.94482\H,0,-3.404044,0.641879,0.696003\C,0,
 -1.145265,-1.873864,-0.136652\C,0,-0.12408,-1.025923,-0.523983\O,0,-0.
 329921,0.407702,-0.590916\C,0,-1.481029,2.391377,-0.303241\C,0,1.01497
 7,-1.428364,-1.352937\H,0,0.966826,-0.778702,1.167608\O,0,2.358363,-1.

 Normal termination of Gaussian 16 at Wed Apr  9 01:18:56 2025.
