 Gaussian 16, Revision C.01,

 ----------------------------------------------------------------------
 #t hf aug-cc-pvdz symm=none int=(grid=ultrafine) guess=(read,tcheck) s
 table=(opt,rrhf)
 ----------------------------------------------------------------------
 -----
 title
 -----
 Symbolic Z-matrix:
 Charge =  0 Multiplicity = 1

 SCF Done:  E(RHF) =  -631.981292709     A.U. after   14 cycles
 Normal termination of Gaussian 16 at Wed Apr  9 00:57:52 2025.
 Gaussian 16:  ES64L-G16RevC.01  3-Jul-2019

 ----------------------------------------------------------------------
 #t hf aug-cc-pvdz iop(5/13=1,5/36=2,99/5=2) pseudo=read geom=check gue
 ss=(read,tcheck) scf=(maxcycle=1)
 ----------------------------------------------------------------------
 -----
 title
 -----
 Structure from the checkpoint file:  "BH10-RE_121_mol3.chk"
 Charge =  0 Multiplicity = 1

                         Standard orientation:
 ---------------------------------------------------------------------
 Center     Atomic      Atomic             Coordinates (Angstroms)
 Number     Number       Type             X           Y           Z
 ---------------------------------------------------------------------
      1          6           0        2.282669    0.501780   -0.067957
      2          6           0        2.666425   -0.968414   -0.282045
      3          8           0        3.432548   -1.466427    0.683492
      4          8           0        2.325169   -1.597322   -1.243890
      5          6           0        0.874373    0.768781   -0.590944
      6          1           0        2.968706    1.071376   -0.701446
      7          7           0        2.540900    0.891493    1.314488
      8          1           0        3.531195   -0.746696    1.343051
      9          6           0       -0.243060    0.102129    0.180035
     10          1           0        1.736331    0.735067    1.911133
     11          1           0        2.787925    1.869714    1.385072
     12          1           0       -0.040593   -0.973007    0.208786
     13          6           0       -1.615731    0.348597   -0.437287
     14          1           0       -0.244161    0.463894    1.214035
     15          1           0       -1.617632   -0.033904   -1.463830
     16          1           0       -1.789997    1.426165   -0.504826
     17          6           0       -2.738627   -0.305664    0.357902
     18          1           0       -2.556879   -1.385342    0.425945
     19          6           0       -4.111772   -0.069987   -0.252149
     20          1           0       -2.746878    0.072510    1.384642
     21          1           0       -4.106934   -0.421398   -1.295097
     22          1           0       -4.310463    1.005204   -0.282935
     23          7           0       -5.150324   -0.692918    0.563484
     24          1           0       -5.056771   -1.702129    0.565564
     25          1           0       -6.076425   -0.472901    0.218895
     26          9           0        0.689686    2.162849   -0.541635
     27          1           0        0.833974    0.482450   -1.642222
 ---------------------------------------------------------------------

 SCF Done:  E(RHF) =  -632.179767379     A.U. after    2 cycles

 The electronic state is 1-A.
 Alpha  occ. eigenvalues --  -26.11258 -20.61957 -20.56119 -15.65302 -15.60598
 Alpha  occ. eigenvalues --  -11.39918 -11.33615 -11.30923 -11.25991 -11.24971
 Alpha  occ. eigenvalues --  -11.23760 -11.23120  -1.64332  -1.42704  -1.33613
 Alpha  occ. eigenvalues --   -1.20363  -1.15217  -1.09210  -1.03344  -0.97331
 Alpha  occ. eigenvalues --   -0.90247  -0.84913  -0.82844  -0.80686  -0.77163
 Alpha  occ. eigenvalues --   -0.75248  -0.73312  -0.71028  -0.69488  -0.67807
 Alpha  occ. eigenvalues --   -0.66629  -0.65053  -0.64353  -0.62628  -0.61349
 Alpha  occ. eigenvalues --   -0.58574  -0.57663  -0.57581  -0.55081  -0.52334
 Alpha  occ. eigenvalues --   -0.51599  -0.49711  -0.48930  -0.48395  -0.47826
 Alpha  occ. eigenvalues --   -0.47000  -0.43183  -0.38516
 Alpha virt. eigenvalues --    0.02805   0.03332   0.03657   0.04362   0.05017
 Alpha virt. eigenvalues --    0.05409   0.05618   0.06754   0.07492   0.08024
 Alpha virt. eigenvalues --    0.08149   0.09273   0.10173   0.10500   0.11028

 Mulliken charges:
               1
     1  C    0.200301
     2  C    0.681025
     3  O   -0.486517
     4  O   -0.502460
     5  C    0.906319
     6  H    0.053342
     7  N   -0.469461
     8  H    0.266126
     9  C    0.009734
    10  H    0.076027
    11  H    0.079708
    12  H   -0.176976
    13  C    0.050924
    14  H   -0.256701
    15  H   -0.180857
    16  H   -0.130269
    17  C    0.466689
    18  H   -0.168134
    19  C    1.271822
    20  H   -0.120558
    21  H   -0.163619
    22  H   -0.220250
    23  N   -0.345176
    24  H   -0.004488
    25  H   -0.029052
    26  F   -0.510588
    27  H   -0.296913
 Sum of Mulliken charges =  -0.00000

 Dipole moment (field-independent basis, Debye):
    X=             -1.0726    Y=              2.2807    Z=              1.5944  Tot=              2.9823

 Test job not archived.
 1\1\GINC-SE112\SP\RHF\Aug-CC-pVDZ\C7H15F1N2O2\OHZDE\09-Apr-2025\0\\#t
 hf aug-cc-pvdz iop(5/13=1,5/36=2,99/5=2) pseudo=read geom=check guess=
 (read,tcheck) scf=(maxcycle=1)\\title\\0,1\C,0,2.282669,0.50178,-0.067
 957\C,0,2.666425,-0.968414,-0.282045\O,0,3.432548,-1.466427,0.683492\O
 ,0,2.325169,-1.597322,-1.24389\C,0,0.874373,0.768781,-0.590944\H,0,2.9
 68706,1.071376,-0.701446\N,0,2.5409,0.891493,1.314488\H,0,3.531195,-0.
 746696,1.343051\C,0,-0.24306,0.102129,0.180035\H,0,1.736331,0.735067,1
 .911133\H,0,2.787925,1.869714,1.385072\H,0,-0.040593,-0.973007,0.20878

 Normal termination of Gaussian 16 at Wed Apr  9 00:58:13 2025.
