 Gaussian 16, Revision C.01,

 ----------------------------------------------------------------------
 #t hf aug-cc-pvdz symm=none int=(grid=ultrafine) guess=(read,tcheck) s
 table=(opt,rrhf)
 ----------------------------------------------------------------------
 -----
 title
 -----
 Symbolic Z-matrix:
 Charge =  0 Multiplicity = 1

 SCF Done:  E(RHF) =  -770.039688272     A.U. after   14 cycles
 Normal termination of Gaussian 16 at Wed Apr  9 00:56:21 2025.
 Gaussian 16:  ES64L-G16RevC.01  3-Jul-2019

 ----------------------------------------------------------------------
 #t hf aug-cc-pvdz iop(5/13=1,5/36=2,99/5=2) pseudo=read geom=check gue
 ss=(read,tcheck) scf=(maxcycle=1)
 ----------------------------------------------------------------------
 -----
 title
 -----
 Structure from the checkpoint file:  "BH10_137_reverse_mol3.chk"
 Charge =  0 Multiplicity = 1

                         Standard orientation:
 ---------------------------------------------------------------------
 Center     Atomic      Atomic             Coordinates (Angstroms)
 Number     Number       Type             X           Y           Z
 ---------------------------------------------------------------------
      1          6           0        0.220867    0.028630   -0.016066
      2          6           0       -1.202930   -0.524757   -0.018620
      3          6           0       -2.007949    0.680427   -0.548871
      4          6           0       -1.294186    1.911104    0.013154
      5          6           0        0.193912    1.537900   -0.062208
      6          6           0        1.303884   -0.726606    0.003549
      7          6           0       -1.622428   -0.853486    1.423080
      8          6           0       -1.380319   -1.759515   -0.897984
      9          1           0       -3.062760    0.623526   -0.271217
     10          1           0       -1.955612    0.692164   -1.642438
     11          1           0       -1.591279    2.081307    1.050542
     12          1           0       -1.525280    2.822407   -0.539398
     13          1           0        0.795728    1.983367    0.732017
     14          1           0        0.634495    1.873069   -1.006655
     15          1           0       -1.509460    0.006392    2.085814
     16          1           0       -1.008688   -1.661820    1.825396
     17          1           0       -2.668979   -1.168876    1.450899
     18          1           0       -1.039141   -1.567320   -1.917051
     19          1           0       -2.434237   -2.046929   -0.937374
     20          1           0       -0.823223   -2.614908   -0.508964
     21         17           0        2.918815   -0.057551    0.017296
     22          1           0        1.303475   -1.806197    0.008187
 ---------------------------------------------------------------------

 SCF Done:  E(RHF) =  -770.152405508     A.U. after    2 cycles

 The electronic state is 1-A.
 Alpha  occ. eigenvalues -- -103.65350 -11.28343 -11.25380 -11.25223 -11.23738
 Alpha  occ. eigenvalues --  -11.23341 -11.23226 -11.22975 -11.22905 -10.68629
 Alpha  occ. eigenvalues --   -8.34363  -8.34070  -8.34055  -1.17746  -1.13706
 Alpha  occ. eigenvalues --   -1.03381  -1.00581  -0.93689  -0.91177  -0.84930
 Alpha  occ. eigenvalues --   -0.78003  -0.71043  -0.66570  -0.65548  -0.61586
 Alpha  occ. eigenvalues --   -0.59913  -0.57810  -0.56740  -0.55588  -0.53512
 Alpha  occ. eigenvalues --   -0.52682  -0.51282  -0.49083  -0.48747  -0.46617
 Alpha  occ. eigenvalues --   -0.46367  -0.45564  -0.44846  -0.34782
 Alpha virt. eigenvalues --    0.03331   0.03971   0.04475   0.04566   0.06024
 Alpha virt. eigenvalues --    0.06143   0.06324   0.06862   0.06964   0.08578
 Alpha virt. eigenvalues --    0.08866   0.09043   0.09189   0.10484   0.11920

 Mulliken charges:
               1
     1  C    0.460544
     2  C   -2.823922
     3  C    0.858760
     4  C    0.614870
     5  C    0.255530
     6  C    0.302485
     7  C    0.920334
     8  C    1.216930
     9  H   -0.130772
    10  H   -0.165209
    11  H   -0.144282
    12  H   -0.089531
    13  H   -0.044819
    14  H    0.029880
    15  H   -0.098861
    16  H   -0.010644
    17  H   -0.069829
    18  H   -0.006981
    19  H   -0.017358
    20  H   -0.092330
    21  Cl  -0.438306
    22  H   -0.526491
 Sum of Mulliken charges =  -0.00000

 Dipole moment (field-independent basis, Debye):
    X=             -2.6221    Y=             -0.0452    Z=             -0.0463  Tot=              2.6229

 Test job not archived.
 1\1\GINC-SE112\SP\RHF\Aug-CC-pVDZ\C8H13Cl1\OHZDE\09-Apr-2025\0\\#t hf
 aug-cc-pvdz iop(5/13=1,5/36=2,99/5=2) pseudo=read geom=check guess=(re
 ad,tcheck) scf=(maxcycle=1)\\title\\0,1\C,0,0.220867,0.02863,-0.016066
 \C,0,-1.20293,-0.524757,-0.01862\C,0,-2.007949,0.680427,-0.548871\C,0,
 -1.294186,1.911104,0.013154\C,0,0.193912,1.5379,-0.062208\C,0,1.303884
 ,-0.726606,0.003549\C,0,-1.622428,-0.853486,1.42308\C,0,-1.380319,-1.7
 59515,-0.897984\H,0,-3.06276,0.623526,-0.271217\H,0,-1.955612,0.692164
 ,-1.642438\H,0,-1.591279,2.081307,1.050542\H,0,-1.52528,2.822407,-0.53

 Normal termination of Gaussian 16 at Wed Apr  9 00:56:34 2025.
