 Gaussian 16, Revision C.01,

 ----------------------------------------------------------------------
 #t hf aug-cc-pvdz symm=none int=(grid=ultrafine) guess=(read,tcheck) s
 table=opt
 ----------------------------------------------------------------------
 -----
 title
 -----
 Symbolic Z-matrix:
 Charge =  0 Multiplicity = 2

 SCF Done:  E(UHF) =  -811.781572759     A.U. after   24 cycles
 Normal termination of Gaussian 16 at Wed Apr  9 00:56:45 2025.
 Gaussian 16:  ES64L-G16RevC.01  3-Jul-2019

 ----------------------------------------------------------------------
 #t hf aug-cc-pvdz iop(5/13=1,5/36=2,99/5=2) pseudo=read geom=check gue
 ss=(read,tcheck) scf=(maxcycle=1)
 ----------------------------------------------------------------------
 -----
 title
 -----
 Structure from the checkpoint file:  "BH10_152_reverse_mol2.chk"
 Charge =  0 Multiplicity = 2

                         Standard orientation:
 ---------------------------------------------------------------------
 Center     Atomic      Atomic             Coordinates (Angstroms)
 Number     Number       Type             X           Y           Z
 ---------------------------------------------------------------------
      1          7           0       -0.641872   -1.093621   -0.298929
      2          1           0        0.013284   -1.512445   -0.946766
      3          6           0       -0.107384   -0.113245    0.630670
      4          1           0       -0.743867   -0.131447    1.518681
      5          6           0        1.321067   -0.458200    1.022266
      6          6           0       -0.158801    1.300075    0.021932
      7          1           0        1.702474    0.285839    1.719720
      8          1           0        1.333813   -1.430677    1.524681
      9         16           0        2.444592   -0.605012   -0.378702
     10          8           0        0.853669    1.869001   -0.338325
     11          7           0       -1.397656    1.822720   -0.066387
     12          1           0       -1.509064    2.712287   -0.526635
     13          1           0       -2.208402    1.257120    0.155853
     14          6           0       -1.962301   -1.323785   -0.428765
     15          1           0       -2.197881   -2.110129   -1.161544
     16          8           0       -2.826497   -0.734392    0.195304
 ---------------------------------------------------------------------

 SCF Done:  E(UHF) =  -811.926528150     A.U. after    2 cycles

 The electronic state is 2-A.
 Alpha  occ. eigenvalues --  -93.55758 -20.56513 -20.54931 -15.67934 -15.65017
 Alpha  occ. eigenvalues --  -11.38818 -11.37400 -11.31563 -11.29083  -8.85453
 Alpha  occ. eigenvalues --   -6.20828  -6.19138  -6.18709  -1.37695  -1.36312
 Alpha  occ. eigenvalues --   -1.23727  -1.18572  -1.08551  -0.98124  -0.86299
 Alpha  occ. eigenvalues --   -0.85314  -0.79591  -0.76099  -0.74150  -0.69726
 Alpha  occ. eigenvalues --   -0.68250  -0.64409  -0.63122  -0.59838  -0.59096
 Alpha  occ. eigenvalues --   -0.57869  -0.57163  -0.49650  -0.48412  -0.47157
 Alpha  occ. eigenvalues --   -0.43781  -0.42234  -0.40535  -0.37814
 Alpha virt. eigenvalues --    0.02900   0.03527   0.03933   0.05345   0.06143
 Alpha virt. eigenvalues --    0.07111   0.08008   0.08846   0.09213   0.11481
 Alpha virt. eigenvalues --    0.12282   0.12787   0.13074   0.13329   0.14242

  Beta  occ. eigenvalues --  -93.54832 -20.56511 -20.54772 -15.67940 -15.65015
  Beta  occ. eigenvalues --  -11.38818 -11.37421 -11.31529 -11.29216  -8.84417
  Beta  occ. eigenvalues --   -6.18589  -6.18139  -6.16795  -1.37677  -1.36065
  Beta  occ. eigenvalues --   -1.23686  -1.18504  -1.07460  -0.95365  -0.85656
  Beta  occ. eigenvalues --   -0.81762  -0.78606  -0.75812  -0.73776  -0.69540
  Beta  occ. eigenvalues --   -0.67849  -0.63876  -0.62981  -0.59460  -0.58908
  Beta  occ. eigenvalues --   -0.56936  -0.56742  -0.48449  -0.47358  -0.46835
  Beta  occ. eigenvalues --   -0.42414  -0.41448  -0.35611
  Beta virt. eigenvalues --    0.02271   0.03053   0.03540   0.04100   0.05474
  Beta virt. eigenvalues --    0.06186   0.07163   0.08102   0.08912   0.09285
  Beta virt. eigenvalues --    0.11615   0.12370   0.13077   0.13257   0.13409

 Mulliken charges and spin densities:
               1          2
     1  N   -0.461787   0.022857
     2  H   -0.006672  -0.021464
     3  C    0.351338  -0.047634
     4  H   -0.175245  -0.001362
     5  C    0.317857  -0.121105
     6  C    0.501976   0.027748
     7  H   -0.124712   0.009013
     8  H    0.031286   0.020594
     9  S    0.272872   1.102410
    10  O   -0.504865   0.005291
    11  N   -0.121424  -0.004661
    12  H   -0.032663   0.001072
    13  H    0.062650  -0.000502
    14  C    0.626866   0.007772
    15  H   -0.232358  -0.000279
    16  O   -0.505119   0.000250
 Sum of Mulliken charges =  -0.00000   1.00000

 Dipole moment (field-independent basis, Debye):
    X=             -1.1676    Y=             -2.3937    Z=              0.2165  Tot=              2.6720
                          Isotropic Fermi Contact Couplings
        Atom                 a.u.       MegaHertz       Gauss      10(-4) cm-1
     1  N(14)             -0.00250      -0.80805      -0.28833      -0.26954
     2  H(1)               0.00015       0.68001       0.24264       0.22683
     3  C(13)              0.00464       5.21676       1.86147       1.74012
     4  H(1)              -0.00076      -3.39069      -1.20988      -1.13101
     5  C(13)             -0.02762     -31.04581     -11.07792     -10.35577
     6  C(13)             -0.00253      -2.84228      -1.01420      -0.94808
     7  H(1)               0.00352      15.71342       5.60694       5.24143
     8  H(1)               0.01495      66.83046      23.84677      22.29224

 Normal termination of Gaussian 16 at Wed Apr  9 00:56:55 2025.
