 Gaussian 16, Revision C.01,

 ----------------------------------------------------------------------
 #t hf aug-cc-pvdz symm=none int=(grid=ultrafine) guess=(read,tcheck) s
 table=(opt,rrhf)
 ----------------------------------------------------------------------
 -----
 title
 -----
 Symbolic Z-matrix:
 Charge =  0 Multiplicity = 1

 SCF Done:  E(RHF) =  -827.557196823     A.U. after   13 cycles
 Normal termination of Gaussian 16 at Wed Apr  9 00:55:06 2025.
 Gaussian 16:  ES64L-G16RevC.01  3-Jul-2019

 ----------------------------------------------------------------------
 #t hf aug-cc-pvdz iop(5/13=1,5/36=2,99/5=2) pseudo=read geom=check gue
 ss=(read,tcheck) scf=(maxcycle=1)
 ----------------------------------------------------------------------
 -----
 title
 -----
 Structure from the checkpoint file:  "BH10_111_forward_mol2.chk"
 Charge =  0 Multiplicity = 1

                         Standard orientation:
 ---------------------------------------------------------------------
 Center     Atomic      Atomic             Coordinates (Angstroms)
 Number     Number       Type             X           Y           Z
 ---------------------------------------------------------------------
      1          6           0        1.934642    0.000105    0.839308
      2          6           0        0.480419    0.000060    0.500790
      3          6           0       -0.206643    1.199461    0.337518
      4          6           0       -0.206594   -1.199384    0.337619
      5          1           0        0.319811    2.139281    0.457012
      6          6           0       -1.555310    1.209774    0.018225
      7          6           0       -1.555259   -1.209779    0.018326
      8          6           0       -2.201945   -0.000022   -0.135294
      9          1           0        0.319901   -2.139172    0.457191
     10          1           0       -2.104913    2.132789   -0.110408
     11          1           0       -2.104824   -2.132827   -0.110230
     12          9           0       -3.513787   -0.000063   -0.442844
     13          1           0        2.219813   -0.886547    1.399075
     14          1           0        2.219804    0.886891    1.398867
     15         17           0        2.977567   -0.000067   -0.647345
 ---------------------------------------------------------------------

 SCF Done:  E(RHF) =  -827.691126978     A.U. after    2 cycles

 The electronic state is 1-A.
 Alpha  occ. eigenvalues -- -103.65098 -26.14146 -11.34878 -11.31662 -11.26938
 Alpha  occ. eigenvalues --  -11.26906 -11.26716 -11.26222 -11.26221 -10.68378
 Alpha  occ. eigenvalues --   -8.34093  -8.33803  -8.33797  -1.68142  -1.18637
 Alpha  occ. eigenvalues --   -1.15439  -1.05327  -1.04151  -0.93913  -0.87884
 Alpha  occ. eigenvalues --   -0.84704  -0.77921  -0.75699  -0.75571  -0.68794
 Alpha  occ. eigenvalues --   -0.65954  -0.63854  -0.62142  -0.59512  -0.58786
 Alpha  occ. eigenvalues --   -0.55269  -0.52185  -0.51643  -0.45200  -0.44958
 Alpha  occ. eigenvalues --   -0.36638  -0.35210
 Alpha virt. eigenvalues --    0.03254   0.03761   0.04079   0.05605   0.05910
 Alpha virt. eigenvalues --    0.07898   0.08064   0.08687   0.09159   0.09784
 Alpha virt. eigenvalues --    0.11459   0.12542   0.12604   0.13826   0.14249

 Mulliken charges:
               1
     1  C    0.257747
     2  C    0.896043
     3  C    0.281759
     4  C    0.281618
     5  H   -0.539717
     6  C    0.348666
     7  C    0.348659
     8  C    0.229038
     9  H   -0.539708
    10  H   -0.409573
    11  H   -0.409574
    12  F   -0.329401
    13  H   -0.130681
    14  H   -0.130708
    15  Cl  -0.154168
 Sum of Mulliken charges =  -0.00000

 Dipole moment (field-independent basis, Debye):
    X=              0.2718    Y=              0.0002    Z=              2.1108  Tot=              2.1282

 Test job not archived.
 1\1\GINC-SE404\SP\RHF\Aug-CC-pVDZ\C7H6Cl1F1\OHZDE\09-Apr-2025\0\\#t hf
  aug-cc-pvdz iop(5/13=1,5/36=2,99/5=2) pseudo=read geom=check guess=(r
 ead,tcheck) scf=(maxcycle=1)\\title\\0,1\C,0,1.934642,0.000105,0.83930
 8\C,0,0.480419,0.00006,0.50079\C,0,-0.206643,1.199461,0.337518\C,0,-0.
 206594,-1.199384,0.337619\H,0,0.319811,2.139281,0.457012\C,0,-1.55531,
 1.209774,0.018225\C,0,-1.555259,-1.209779,0.018326\C,0,-2.201945,-0.00
 0022,-0.135294\H,0,0.319901,-2.139172,0.457191\H,0,-2.104913,2.132789,
 -0.110408\H,0,-2.104824,-2.132827,-0.11023\F,0,-3.513787,-0.000063,-0.

 Normal termination of Gaussian 16 at Wed Apr  9 00:55:13 2025.
