 Gaussian 16, Revision C.01,

 ----------------------------------------------------------------------
 #t hf aug-cc-pvdz symm=none int=(grid=ultrafine) guess=(read,tcheck) s
 table=(opt,rrhf)
 ----------------------------------------------------------------------
 -----
 title
 -----
 Symbolic Z-matrix:
 Charge =  0 Multiplicity = 1

 SCF Done:  E(RHF) =  -1749.93723048     A.U. after   16 cycles
 Normal termination of Gaussian 16 at Wed Apr  9 01:03:55 2025.
 Gaussian 16:  ES64L-G16RevC.01  3-Jul-2019

 ----------------------------------------------------------------------
 #t hf aug-cc-pvdz iop(5/13=1,5/36=2,99/5=2) pseudo=read geom=check gue
 ss=(read,tcheck) scf=(maxcycle=1)
 ----------------------------------------------------------------------
 -----
 title
 -----
 Structure from the checkpoint file:  "BH10_277_reverse_mol2.chk"
 Charge =  0 Multiplicity = 1

                         Standard orientation:
 ---------------------------------------------------------------------
 Center     Atomic      Atomic             Coordinates (Angstroms)
 Number     Number       Type             X           Y           Z
 ---------------------------------------------------------------------
      1          6           0       -3.314440    1.414702   -0.490479
      2          6           0       -2.199422    0.615585   -0.631229
      3          6           0       -2.208000   -0.691319   -0.112320
      4          6           0       -3.349857   -1.163504    0.555299
      5          6           0       -4.467773   -0.361977    0.678986
      6          6           0       -4.447086    0.926141    0.156715
      7          1           0       -3.304354    2.425417   -0.877271
      8          1           0       -1.307779    1.008513   -1.102945
      9          1           0       -3.349143   -2.166363    0.966562
     10          1           0       -5.349773   -0.730727    1.186255
     11          1           0       -5.318947    1.560679    0.261430
     12          6           0       -1.092896   -1.574200   -0.256544
     13          6           0        0.135588   -1.302298   -0.903037
     14          6           0        0.803484   -0.908512    0.496882
     15          1           0       -1.188599   -2.542622    0.228525
     16          1           0        0.163404   -0.462042   -1.587014
     17          1           0        0.683845   -2.159760   -1.279480
     18          5           0        2.081217    0.095147    0.145339
     19         17           0        2.886179    0.425382    1.775338
     20         17           0        1.416881    1.680124   -0.605617
     21         17           0        3.232351   -0.752988   -1.032051
     22          1           0        1.143865   -1.803321    1.013508
     23          1           0        0.161800   -0.326006    1.157693
 ---------------------------------------------------------------------

 SCF Done:  E(RHF) =  -1750.09477949     A.U. after    2 cycles

 The electronic state is 1-A.
 Alpha  occ. eigenvalues -- -103.60024-103.59580-103.59201 -11.39232 -11.32008
 Alpha  occ. eigenvalues --  -11.31520 -11.31134 -11.31001 -11.29695 -11.29394
 Alpha  occ. eigenvalues --  -11.28988 -11.25848 -10.63473 -10.63037 -10.62655
 Alpha  occ. eigenvalues --   -8.29158  -8.28978  -8.28958  -8.28725  -8.28529
 Alpha  occ. eigenvalues --   -8.28518  -8.28345  -8.28140  -8.28131  -7.68426
 Alpha  occ. eigenvalues --   -1.22306  -1.16303  -1.11919  -1.07795  -1.07147
 Alpha  occ. eigenvalues --   -1.06982  -1.06676  -0.95587  -0.90012  -0.88824
 Alpha  occ. eigenvalues --   -0.83891  -0.77409  -0.73270  -0.70702  -0.67776
 Alpha  occ. eigenvalues --   -0.66244  -0.65326  -0.63725  -0.61362  -0.58591
 Alpha  occ. eigenvalues --   -0.57262  -0.56510  -0.55345  -0.55000  -0.51445
 Alpha  occ. eigenvalues --   -0.50103  -0.49845  -0.43397  -0.43283  -0.42393
 Alpha  occ. eigenvalues --   -0.40658  -0.40447  -0.39907  -0.39225  -0.37462
 Alpha virt. eigenvalues --   -0.02738   0.00945   0.01986   0.02966   0.04207
 Alpha virt. eigenvalues --    0.04323   0.05196   0.05976   0.06461   0.07086
 Alpha virt. eigenvalues --    0.07286   0.08064   0.08417   0.09339   0.09886

 Mulliken charges:
               1
     1  C    0.232969
     2  C    0.454425
     3  C    0.798243
     4  C    0.469779
     5  C    0.454041
     6  C    0.683481
     7  H   -0.446251
     8  H   -0.665589
     9  H   -0.593265
    10  H   -0.429987
    11  H   -0.420235
    12  C    0.970033
    13  C    0.429820
    14  C    0.328758
    15  H   -0.501322
    16  H   -0.335528
    17  H   -0.133190
    18  B    1.017244
    19  Cl  -0.559578
    20  Cl  -0.572531
    21  Cl  -0.550030
    22  H   -0.304551
    23  H   -0.326735
 Sum of Mulliken charges =  -0.00000

 Dipole moment (field-independent basis, Debye):
    X=            -13.7893    Y=             -4.2625    Z=             -0.4240  Tot=             14.4393

 Test job not archived.
 1\1\GINC-SE462\SP\RHF\Aug-CC-pVDZ\C9H10B1Cl3\OHZDE\09-Apr-2025\0\\#t h
 f aug-cc-pvdz iop(5/13=1,5/36=2,99/5=2) pseudo=read geom=check guess=(
 read,tcheck) scf=(maxcycle=1)\\title\\0,1\C,0,3.31444,-1.414702,-0.490
 479\C,0,2.199422,-0.615585,-0.631229\C,0,2.208,0.691319,-0.11232\C,0,3
 .349857,1.163504,0.555299\C,0,4.467773,0.361977,0.678986\C,0,4.447086,
 -0.926141,0.156715\H,0,3.304354,-2.425417,-0.877271\H,0,1.307779,-1.00
 8513,-1.102945\H,0,3.349143,2.166363,0.966562\H,0,5.349773,0.730727,1.
 186255\H,0,5.318947,-1.560679,0.26143\C,0,1.092896,1.5742,-0.256544\C,

 Normal termination of Gaussian 16 at Wed Apr  9 01:04:16 2025.
