 Gaussian 16, Revision C.01,

 ----------------------------------------------------------------------
 #t hf aug-cc-pvdz symm=none int=(grid=ultrafine) guess=(read,tcheck) s
 table=(opt,rrhf)
 ----------------------------------------------------------------------
 -----
 title
 -----
 Symbolic Z-matrix:
 Charge =  0 Multiplicity = 1

 SCF Done:  E(RHF) =  -1000.89959144     A.U. after   16 cycles
 Normal termination of Gaussian 16 at Wed Apr  9 02:03:49 2025.
 Gaussian 16:  ES64L-G16RevC.01  3-Jul-2019

 ----------------------------------------------------------------------
 #t hf aug-cc-pvdz iop(5/13=1,5/36=2,99/5=2) pseudo=read geom=check gue
 ss=(read,tcheck) scf=(maxcycle=1)
 ----------------------------------------------------------------------
 -----
 title
 -----
 Structure from the checkpoint file:  "BH10_84_forward_mol2.chk"
 Charge =  0 Multiplicity = 1

                         Standard orientation:
 ---------------------------------------------------------------------
 Center     Atomic      Atomic             Coordinates (Angstroms)
 Number     Number       Type             X           Y           Z
 ---------------------------------------------------------------------
      1          6           0       -0.234304   -0.149218    0.669519
      2          6           0        2.173314   -0.550409    0.031958
      3          6           0       -1.405148   -0.734324    0.969644
      4          6           0        2.598668    0.858057   -0.155477
      5          6           0        0.925351   -0.945334    0.377263
      6          6           0        4.069940    1.185184    0.023660
      7          6           0        2.154727    3.109625   -0.658072
      8          6           0        3.171416   -1.641337   -0.161734
      9          6           0       -2.693853   -0.042987    1.225299
     10          1           0       -3.229322   -0.602078    2.003145
     11          6           0       -2.556271    1.419365    1.657035
     12          1           0       -1.906933    1.510392    2.531547
     13          1           0       -2.126423    2.037997    0.866625
     14          1           0       -3.528015    1.843819    1.915543
     15          7           0        1.733138    1.736254   -0.476481
     16         14           0       -3.795771   -0.212965   -0.335515
     17          6           0       -5.518626    0.405830    0.084025
     18          6           0       -3.053663    0.809776   -1.718855
     19          6           0       -3.879828   -2.019570   -0.835865
     20          1           0       -3.092086    1.878425   -1.495816
     21          1           0       -3.598149    0.649097   -2.652918
     22          1           0       -2.008283    0.542932   -1.889925
     23          1           0       -5.513383    1.462118    0.361998
     24          1           0       -5.953375   -0.157110    0.913985
     25          1           0       -6.186489    0.295977   -0.774418
     26          1           0        1.296691    3.708373   -0.962070
     27          1           0        2.925532    3.208018   -1.431886
     28          1           0        2.559646    3.544201    0.264070
     29          1           0       -4.223897   -2.649807   -0.011480
     30          1           0       -2.905293   -2.392210   -1.158940
     31          1           0       -4.576569   -2.156984   -1.666760
     32          6           0        4.617541   -1.225662   -0.309860
     33          6           0        4.911146    0.017136    0.518976
     34          8           0        2.857728   -2.813925   -0.190372
     35          1           0        4.457873    1.531982   -0.942008
     36          1           0        4.156761    2.039252    0.701040
     37          1           0        4.685786   -0.186769    1.570365
     38          1           0        5.971308    0.273070    0.468601
     39          1           0        5.237334   -2.078991   -0.035229
     40          1           0        4.800269   -1.018870   -1.371838
     41          1           0       -0.139202    0.924423    0.609195
     42          1           0       -1.439173   -1.822397    0.977878
     43          1           0        0.799933   -2.022523    0.459744
 ---------------------------------------------------------------------

 SCF Done:  E(RHF) =  -1001.14006342     A.U. after    2 cycles

 The electronic state is 1-A.
 Alpha  occ. eigenvalues --  -69.04652 -20.53965 -15.60470 -11.32976 -11.29300
 Alpha  occ. eigenvalues --  -11.26553 -11.26045 -11.25344 -11.24742 -11.24544
 Alpha  occ. eigenvalues --  -11.23944 -11.23333 -11.23034 -11.22818 -11.22746
 Alpha  occ. eigenvalues --  -11.21021 -11.20912 -11.20412  -6.79946  -3.90705
 Alpha  occ. eigenvalues --   -3.90688  -3.90678  -1.33656  -1.20441  -1.10676
 Alpha  occ. eigenvalues --   -1.09416  -1.05435  -0.99364  -0.97906  -0.95727
 Alpha  occ. eigenvalues --   -0.93376  -0.92152  -0.91838  -0.89581  -0.85751
 Alpha  occ. eigenvalues --   -0.80938  -0.76712  -0.74065  -0.69939  -0.67441
 Alpha  occ. eigenvalues --   -0.65883  -0.65050  -0.63595  -0.61689  -0.60904
 Alpha  occ. eigenvalues --   -0.60469  -0.60132  -0.58660  -0.57673  -0.57544
 Alpha  occ. eigenvalues --   -0.56855  -0.56709  -0.56492  -0.55236  -0.54275
 Alpha  occ. eigenvalues --   -0.53908  -0.53793  -0.53286  -0.52923  -0.51559
 Alpha  occ. eigenvalues --   -0.50634  -0.49371  -0.48913  -0.48453  -0.45909
 Alpha  occ. eigenvalues --   -0.43356  -0.43060  -0.42894  -0.41300  -0.38450
 Alpha  occ. eigenvalues --   -0.37871  -0.30111
 Alpha virt. eigenvalues --    0.02646   0.02966   0.03793   0.03873   0.04695
 Alpha virt. eigenvalues --    0.04828   0.05024   0.05565   0.05965   0.06129
 Alpha virt. eigenvalues --    0.06256   0.06524   0.06823   0.07152   0.07282

 Mulliken charges:
               1
     1  C    0.504713
     2  C    1.208736
     3  C    1.100705
     4  C   -0.530565
     5  C   -0.649897
     6  C    0.104765
     7  C    1.007260
     8  C   -0.190693
     9  C   -0.094373
    10  H   -0.163252
    11  C    0.910476
    12  H   -0.044670
    13  H   -0.044912
    14  H   -0.193031
    15  N   -0.559167
    16  Si   0.343745
    17  C    0.716676
    18  C    0.853103
    19  C    0.730905
    20  H   -0.285170
    21  H   -0.363649
    22  H   -0.217705
    23  H   -0.280824
    24  H   -0.268269
    25  H   -0.342849
    26  H   -0.365359
    27  H   -0.142360
    28  H   -0.127622
    29  H   -0.250165
    30  H   -0.261174
    31  H   -0.318978
    32  C    0.504975
    33  C    0.622602
    34  O   -0.570391
    35  H    0.077367
    36  H    0.030201
    37  H   -0.076520
    38  H   -0.042192
    39  H   -0.057714
    40  H    0.053617
    41  H   -0.919783
    42  H   -0.654561
    43  H   -0.754000
 Sum of Mulliken charges =  -0.00000

 Dipole moment (field-independent basis, Debye):
    X=             -0.3512    Y=              3.3503    Z=              0.8341  Tot=              3.4704

 Test job not archived.
 1\1\GINC-SE334\SP\RHF\Aug-CC-pVDZ\C15H25N1O1Si1\OHZDE\09-Apr-2025\0\\#
 t hf aug-cc-pvdz iop(5/13=1,5/36=2,99/5=2) pseudo=read geom=check gues
 s=(read,tcheck) scf=(maxcycle=1)\\title\\0,1\C,0,-0.234304,-0.149218,0
 .669519\C,0,2.173314,-0.550409,0.031958\C,0,-1.405148,-0.734324,0.9696
 44\C,0,2.598668,0.858057,-0.155477\C,0,0.925351,-0.945334,0.377263\C,0
 ,4.06994,1.185184,0.02366\C,0,2.154727,3.109625,-0.658072\C,0,3.171416
 ,-1.641337,-0.161734\C,0,-2.693853,-0.042987,1.225299\H,0,-3.229322,-0
 .602078,2.003145\C,0,-2.556271,1.419365,1.657035\H,0,-1.906933,1.51039

 Normal termination of Gaussian 16 at Wed Apr  9 02:05:11 2025.
