 Gaussian 16, Revision C.01,

 ----------------------------------------------------------------------
 #t hf aug-cc-pvdz symm=none int=(grid=ultrafine) guess=(read,tcheck) s
 table=(opt,rrhf)
 ----------------------------------------------------------------------
 -----
 title
 -----
 Symbolic Z-matrix:
 Charge = -1 Multiplicity = 1

 SCF Done:  E(RHF) =  -989.813102823     A.U. after   14 cycles
 Normal termination of Gaussian 16 at Wed Apr  9 01:03:51 2025.
 Gaussian 16:  ES64L-G16RevC.01  3-Jul-2019

 ----------------------------------------------------------------------
 #t hf aug-cc-pvdz iop(5/13=1,5/36=2,99/5=2) pseudo=read geom=check gue
 ss=(read,tcheck) scf=(maxcycle=1)
 ----------------------------------------------------------------------
 -----
 title
 -----
 Structure from the checkpoint file:  "BH10_247_reverse_mol3.chk"
 Charge = -1 Multiplicity = 1

                         Standard orientation:
 ---------------------------------------------------------------------
 Center     Atomic      Atomic             Coordinates (Angstroms)
 Number     Number       Type             X           Y           Z
 ---------------------------------------------------------------------
      1          6           0        6.187026    0.737423    0.686647
      2          6           0        5.064525    1.141310   -0.275210
      3          1           0        6.916776    1.543139    0.822383
      4          1           0        6.722525   -0.139572    0.310780
      5          1           0        5.775820    0.474973    1.664364
      6          6           0        4.067881    0.048355   -0.522059
      7          6           0        2.767270    0.115797   -0.187230
      8          6           0        1.757620   -0.883647   -0.381358
      9          6           0        0.461225   -0.676412    0.021876
     10          8           0       -0.041866    0.289406    0.643840
     11         16           0       -0.692926   -2.048891   -0.494993
     12          6           0       -2.023572   -1.873065    0.736258
     13          6           0       -3.178024   -0.971091    0.323409
     14          1           0       -1.572689   -1.507107    1.659889
     15          1           0       -2.403282   -2.879811    0.918275
     16          7           0       -2.728648    0.399316    0.226925
     17          1           0       -3.985115   -1.042773    1.062002
     18          1           0       -3.594590   -1.299309   -0.634148
     19          6           0       -3.557209    1.398791   -0.093540
     20          8           0       -4.762300    1.251257   -0.291975
     21          6           0       -2.906843    2.763319   -0.195077
     22          1           0       -3.083775    3.158871   -1.196583
     23          1           0       -1.834544    2.730712   -0.000982
     24          1           0       -3.388790    3.436076    0.516514
     25          1           0       -1.714421    0.551391    0.361688
     26          1           0        4.541316    2.015447    0.126496
     27          1           0        5.523140    1.467613   -1.219891
     28          1           0        2.017352   -1.825262   -0.849774
     29          1           0        4.450005   -0.856509   -0.995510
     30          1           0        2.411567    1.029179    0.288689
 ---------------------------------------------------------------------

 SCF Done:  E(RHF) =  -990.014949395     A.U. after    2 cycles

 The electronic state is 1-A.
 Alpha  occ. eigenvalues --  -93.39081 -20.40447 -20.37596 -15.50505 -11.23388
 Alpha  occ. eigenvalues --  -11.19142 -11.15413 -11.14686 -11.12971 -11.12539
 Alpha  occ. eigenvalues --  -11.12241 -11.10441 -11.08428 -11.05380  -8.68895
 Alpha  occ. eigenvalues --   -6.03064  -6.02832  -6.02544  -1.21437  -1.16403
 Alpha  occ. eigenvalues --   -1.07055  -0.95197  -0.93475  -0.89845  -0.87473
 Alpha  occ. eigenvalues --   -0.83121  -0.78985  -0.73402  -0.69136  -0.66431
 Alpha  occ. eigenvalues --   -0.62045  -0.57172  -0.56186  -0.54357  -0.52879
 Alpha  occ. eigenvalues --   -0.51237  -0.50615  -0.48799  -0.47829  -0.46820
 Alpha  occ. eigenvalues --   -0.45811  -0.45476  -0.43327  -0.42537  -0.41386
 Alpha  occ. eigenvalues --   -0.40636  -0.39460  -0.39067  -0.38648  -0.36949
 Alpha  occ. eigenvalues --   -0.34916  -0.32844  -0.31335  -0.27060  -0.26121
 Alpha  occ. eigenvalues --   -0.24723  -0.22216  -0.11946
 Alpha virt. eigenvalues --    0.10470   0.11739   0.11883   0.12121   0.12541
 Alpha virt. eigenvalues --    0.13178   0.13443   0.14319   0.14528   0.14723
 Alpha virt. eigenvalues --    0.14985   0.15969   0.16695   0.17057   0.18408

 Mulliken charges:
               1
     1  C    0.339408
     2  C    0.146316
     3  H   -0.112589
     4  H   -0.081618
     5  H   -0.075593
     6  C    0.818712
     7  C   -0.026874
     8  C    1.327372
     9  C   -0.789110
    10  O   -0.843882
    11  S    0.270036
    12  C    0.130420
    13  C    0.884986
    14  H   -0.110365
    15  H   -0.164451
    16  N   -0.225659
    17  H   -0.173279
    18  H   -0.218132
    19  C    0.012518
    20  O   -0.635720
    21  C    0.434603
    22  H    0.015067
    23  H   -0.244482
    24  H    0.012518
    25  H    0.123564
    26  H   -0.113067
    27  H   -0.000912
    28  H   -0.553916
    29  H   -0.514888
    30  H   -0.630983
 Sum of Mulliken charges =  -1.00000

 Dipole moment (field-independent basis, Debye):
    X=              1.9858    Y=              0.2337    Z=              1.1128  Tot=              2.2883

 Test job not archived.
 1\1\GINC-SE424\SP\RHF\Aug-CC-pVDZ\C10H16N1O2S1(1-)\OHZDE\09-Apr-2025\0
 \\#t hf aug-cc-pvdz iop(5/13=1,5/36=2,99/5=2) pseudo=read geom=check g
 uess=(read,tcheck) scf=(maxcycle=1)\\title\\-1,1\C,0,6.187026,0.737423
 ,0.686647\C,0,5.064525,1.14131,-0.27521\H,0,6.916776,1.543139,0.822383
 \H,0,6.722525,-0.139572,0.31078\H,0,5.77582,0.474973,1.664364\C,0,4.06
 7881,0.048355,-0.522059\C,0,2.76727,0.115797,-0.18723\C,0,1.75762,-0.8
 83647,-0.381358\C,0,0.461225,-0.676412,0.021876\O,0,-0.041866,0.289406
 ,0.64384\S,0,-0.692926,-2.048891,-0.494993\C,0,-2.023572,-1.873065,0.7

 Normal termination of Gaussian 16 at Wed Apr  9 01:04:19 2025.
