 Gaussian 16, Revision C.01,

 ----------------------------------------------------------------------
 #t hf aug-cc-pvdz symm=none int=(grid=ultrafine) guess=(read,tcheck) s
 table=opt
 ----------------------------------------------------------------------
 -----
 title
 -----
 Symbolic Z-matrix:
 Charge =  0 Multiplicity = 2

 SCF Done:  E(UHF) =  -722.039462993     A.U. after   22 cycles
 Normal termination of Gaussian 16 at Wed Apr  9 00:57:36 2025.
 Gaussian 16:  ES64L-G16RevC.01  3-Jul-2019

 ----------------------------------------------------------------------
 #t hf aug-cc-pvdz iop(5/13=1,5/36=2,99/5=2) pseudo=read geom=check gue
 ss=(read,tcheck) scf=(maxcycle=1)
 ----------------------------------------------------------------------
 -----
 title
 -----
 Structure from the checkpoint file:  "BH10_169_reverse_mol2.chk"
 Charge =  0 Multiplicity = 2

                         Standard orientation:
 ---------------------------------------------------------------------
 Center     Atomic      Atomic             Coordinates (Angstroms)
 Number     Number       Type             X           Y           Z
 ---------------------------------------------------------------------
      1          6           0       -1.771319   -1.290705   -0.819498
      2         16           0       -2.128092    0.306439   -0.038520
      3          6           0       -0.654647    0.472683    1.052066
      4          6           0        0.594036    0.646301    0.279658
      5          6           0        0.877229    1.938375   -0.407345
      6          6           0        1.490735   -0.502168    0.174440
      7          8           0        1.219479   -1.589562    0.671503
      8          1           0       -0.924725   -1.225677   -1.500828
      9          1           0       -1.571285   -2.050345   -0.066044
     10          1           0       -2.661983   -1.563759   -1.384288
     11          1           0        0.005768    2.591516   -0.377261
     12          1           0        1.141683    1.793833   -1.459342
     13          1           0        1.710618    2.471844    0.068643
     14          1           0       -0.872002    1.357330    1.654519
     15          1           0       -0.597682   -0.401354    1.696820
     16          7           0        2.649932   -0.322685   -0.537494
     17          1           0        2.983033    0.590745   -0.790630
     18          1           0        3.314490   -1.078777   -0.510762
 ---------------------------------------------------------------------

 SCF Done:  E(UHF) =  -722.161396856     A.U. after    2 cycles

 The electronic state is 2-A.
 Alpha  occ. eigenvalues --  -93.52449 -20.54683 -15.64812 -11.36177 -11.27591
 Alpha  occ. eigenvalues --  -11.26714 -11.25307 -11.25128  -8.82176  -6.16437
 Alpha  occ. eigenvalues --   -6.16134  -6.15774  -1.35845  -1.18256  -1.11080
 Alpha  occ. eigenvalues --   -1.02574  -0.95240  -0.90268  -0.81246  -0.76073
 Alpha  occ. eigenvalues --   -0.71899  -0.68197  -0.64671  -0.63552  -0.59624
 Alpha  occ. eigenvalues --   -0.58640  -0.58030  -0.57830  -0.56491  -0.53293
 Alpha  occ. eigenvalues --   -0.50157  -0.46149  -0.44198  -0.43888  -0.35510
 Alpha  occ. eigenvalues --   -0.33300
 Alpha virt. eigenvalues --    0.02641   0.03967   0.04478   0.04786   0.05984
 Alpha virt. eigenvalues --    0.06654   0.07070   0.07403   0.08361   0.09647
 Alpha virt. eigenvalues --    0.10521   0.11038   0.12258   0.13660   0.14004

  Beta  occ. eigenvalues --  -93.52339 -20.53633 -15.64812 -11.36685 -11.27089
  Beta  occ. eigenvalues --  -11.25424 -11.25317 -11.25311  -8.82048  -6.16163
  Beta  occ. eigenvalues --   -6.15914  -6.15683  -1.34047  -1.17544  -1.08116
  Beta  occ. eigenvalues --   -1.01456  -0.95197  -0.88477  -0.80624  -0.75568
  Beta  occ. eigenvalues --   -0.70592  -0.67132  -0.63001  -0.60548  -0.58776
  Beta  occ. eigenvalues --   -0.57994  -0.57722  -0.56208  -0.55471  -0.52778
  Beta  occ. eigenvalues --   -0.49093  -0.44739  -0.42858  -0.40017  -0.33471
  Beta virt. eigenvalues --    0.02655   0.03956   0.04482   0.04727   0.05733
  Beta virt. eigenvalues --    0.06100   0.06733   0.07120   0.07551   0.08369
  Beta virt. eigenvalues --    0.09655   0.10636   0.11226   0.12318   0.13692

 Mulliken charges and spin densities:
               1          2
     1  C    0.157320  -0.001528
     2  S    0.357475   0.087924
     3  C    0.275640  -0.244752
     4  C   -0.188501   1.424949
     5  C    0.589074  -0.218351
     6  C    0.424439  -0.349478
     7  O   -0.572706   0.228358
     8  H   -0.098317  -0.005830
     9  H   -0.079319   0.000888
    10  H   -0.141537  -0.001387
    11  H   -0.216065   0.001401
    12  H    0.053071   0.019425
    13  H    0.064641   0.037087
    14  H   -0.113520   0.019491
    15  H   -0.288225   0.003016
    16  N   -0.195522   0.000374
    17  H   -0.035628   0.001781
    18  H    0.007680  -0.003370
 Sum of Mulliken charges =  -0.00000   1.00000

 Dipole moment (field-independent basis, Debye):
    X=              2.7013    Y=              2.5768    Z=             -1.3053  Tot=              3.9549
                          Isotropic Fermi Contact Couplings
        Atom                 a.u.       MegaHertz       Gauss      10(-4) cm-1
     1  C(13)             -0.00194      -2.17684      -0.77675      -0.72612
     2  S(33)              0.04869      16.72294       5.96716       5.57817
     3  C(13)             -0.06754     -75.92724     -27.09273     -25.32660
     4  C(13)              0.20352     228.79205      81.63869      76.31681
     5  C(13)             -0.05537     -62.24232     -22.20961     -20.76180
     6  C(13)             -0.08137     -91.47602     -32.64092     -30.51311
     7  O(17)              0.09222     -55.90114     -19.94692     -18.64661
     8  H(1)              -0.00005      -0.22572      -0.08054      -0.07529

 1\1\GINC-SE332\SP\UHF\Aug-CC-pVDZ\C5H10N1O1S1(2)\OHZDE\09-Apr-2025\0\\
 #t hf aug-cc-pvdz iop(5/13=1,5/36=2,99/5=2) pseudo=read geom=check gue
 ss=(read,tcheck) scf=(maxcycle=1)\\title\\0,2\C,0,-1.771319,-1.290705,
 -0.819498\S,0,-2.128092,0.306438,-0.03852\C,0,-0.654647,0.472683,1.052
 066\C,0,0.594036,0.646301,0.279658\C,0,0.877229,1.938375,-0.407345\C,0
 ,1.490735,-0.502168,0.17444\O,0,1.219479,-1.589562,0.671503\H,0,-0.924
 725,-1.225677,-1.500828\H,0,-1.571285,-2.050345,-0.066044\H,0,-2.66198
 3,-1.56376,-1.384288\H,0,0.005768,2.591516,-0.377261\H,0,1.141683,1.79

 Normal termination of Gaussian 16 at Wed Apr  9 00:57:44 2025.
