 Gaussian 16, Revision C.01,

 ----------------------------------------------------------------------
 #t hf aug-cc-pvdz symm=none int=(grid=ultrafine) guess=(read,tcheck) s
 table=opt
 ----------------------------------------------------------------------
 -----
 title
 -----
 Symbolic Z-matrix:
 Charge =  0 Multiplicity = 2

 SCF Done:  E(UHF) =  -782.931202668     A.U. after   20 cycles
 Normal termination of Gaussian 16 at Wed Apr  9 00:57:11 2025.
 Gaussian 16:  ES64L-G16RevC.01  3-Jul-2019

 ----------------------------------------------------------------------
 #t hf aug-cc-pvdz iop(5/13=1,5/36=2,99/5=2) pseudo=read geom=check gue
 ss=(read,tcheck) scf=(maxcycle=1)
 ----------------------------------------------------------------------
 -----
 title
 -----
 Structure from the checkpoint file:  "BH10-RE_128_mol1.chk"
 Charge =  0 Multiplicity = 2

                         Standard orientation:
 ---------------------------------------------------------------------
 Center     Atomic      Atomic             Coordinates (Angstroms)
 Number     Number       Type             X           Y           Z
 ---------------------------------------------------------------------
      1          6           0        3.200838    0.401652   -0.050926
      2          6           0        2.777169   -0.851885    0.633600
      3          6           0        2.192984    1.478916   -0.255847
      4          6           0        1.425170   -1.366906    0.120386
      5          6           0        0.393408   -0.241251    0.108821
      6          6           0        0.852220    0.926769   -0.759184
      7          6           0       -2.326383    0.277813    0.264722
      8          6           0       -3.773988    0.037907   -0.077811
      9          8           0       -1.953528    1.195607    0.947022
     10          1           0        2.681918   -0.665595    1.717302
     11          1           0        3.536882   -1.629991    0.529413
     12          1           0        2.567668    2.238422   -0.945870
     13          1           0        2.010156    2.001597    0.698563
     14          1           0        1.076610   -2.193007    0.744069
     15          1           0        1.548586   -1.756119   -0.895482
     16          1           0        0.215699    0.113021    1.127030
     17          1           0        0.097169    1.713845   -0.751095
     18          1           0        0.961269    0.579453   -1.791142
     19          1           0       -4.378570    0.201668    0.814162
     20          1           0       -3.948210   -0.962100   -0.473045
     21          1           0       -4.072391    0.771778   -0.829783
     22         16           0       -1.210812   -0.911155   -0.453980
     23          1           0        4.255919    0.622553   -0.159191
 ---------------------------------------------------------------------

 SCF Done:  E(UHF) =  -783.067558234     A.U. after    2 cycles

 The electronic state is 2-A.
 Alpha  occ. eigenvalues --  -93.54154 -20.56859 -11.37257 -11.27007 -11.25339
 Alpha  occ. eigenvalues --  -11.23961 -11.23636 -11.23489 -11.23175 -11.23066
 Alpha  occ. eigenvalues --   -8.84092  -6.18270  -6.18021  -6.17746  -1.36940
 Alpha  occ. eigenvalues --   -1.12962  -1.05332  -1.01921  -1.01010  -0.94057
 Alpha  occ. eigenvalues --   -0.84798  -0.82189  -0.75487  -0.73652  -0.66637
 Alpha  occ. eigenvalues --   -0.65870  -0.64336  -0.62345  -0.61345  -0.60502
 Alpha  occ. eigenvalues --   -0.58364  -0.56172  -0.54739  -0.53956  -0.52579
 Alpha  occ. eigenvalues --   -0.52268  -0.49564  -0.47616  -0.45930  -0.43183
 Alpha  occ. eigenvalues --   -0.41378  -0.36606  -0.33178
 Alpha virt. eigenvalues --    0.03473   0.03735   0.04303   0.04823   0.05522
 Alpha virt. eigenvalues --    0.05833   0.06219   0.06771   0.07007   0.07609
 Alpha virt. eigenvalues --    0.08307   0.09103   0.09298   0.11272   0.12282

  Beta  occ. eigenvalues --  -93.54152 -20.56859 -11.37257 -11.27028 -11.25339
  Beta  occ. eigenvalues --  -11.23875 -11.23808 -11.23396 -11.23070 -11.21149
  Beta  occ. eigenvalues --   -8.84089  -6.18266  -6.18017  -6.17743  -1.36940
  Beta  occ. eigenvalues --   -1.12078  -1.04361  -1.00887  -1.00658  -0.92713
  Beta  occ. eigenvalues --   -0.84668  -0.80398  -0.73651  -0.73008  -0.66355
  Beta  occ. eigenvalues --   -0.65481  -0.64068  -0.62274  -0.60797  -0.59330
  Beta  occ. eigenvalues --   -0.57119  -0.55414  -0.54395  -0.53477  -0.52416
  Beta  occ. eigenvalues --   -0.51723  -0.48880  -0.47076  -0.45468  -0.42896
  Beta  occ. eigenvalues --   -0.41357  -0.36577
  Beta virt. eigenvalues --    0.03438   0.03752   0.04313   0.04849   0.05475
  Beta virt. eigenvalues --    0.05819   0.06215   0.06677   0.07021   0.07618
  Beta virt. eigenvalues --    0.08298   0.08844   0.09300   0.10781   0.11716

 Mulliken charges and spin densities:
               1          2
     1  C    0.541226   1.522219
     2  C    0.231345  -0.281112
     3  C    0.159710  -0.275571
     4  C    0.614657   0.010625
     5  C   -0.810391   0.008069
     6  C    0.294642   0.008411
     7  C   -0.410895   0.000519
     8  C    0.546622   0.000517
     9  O   -0.526741  -0.000322
    10  H   -0.025962   0.048441
    11  H   -0.104293   0.003852
    12  H   -0.113385   0.004237
    13  H   -0.016836   0.047501
    14  H   -0.169211   0.002262
    15  H   -0.081183  -0.001382
    16  H   -0.177971  -0.000810
    17  H   -0.141769   0.002260
    18  H   -0.102458  -0.002247
    19  H    0.005014   0.000049
    20  H   -0.063038  -0.000012
    21  H    0.073421   0.000031
    22  S    0.697820   0.001451
    23  H   -0.420324  -0.098987
 Sum of Mulliken charges =  -0.00000   1.00000

 Dipole moment (field-independent basis, Debye):
    X=              0.1209    Y=             -1.1447    Z=             -0.8497  Tot=              1.4307
                          Isotropic Fermi Contact Couplings
        Atom                 a.u.       MegaHertz       Gauss      10(-4) cm-1
     1  C(13)              0.23264     261.52983      93.32035      87.23696
     2  C(13)             -0.05969     -67.10659     -23.94530     -22.38435
     3  C(13)             -0.05923     -66.58146     -23.75792     -22.20918
     4  C(13)              0.02149      24.15612       8.61950       8.05761
     5  C(13)             -0.00433      -4.86725      -1.73676      -1.62354
     6  C(13)              0.02111      23.72693       8.46636       7.91445
     7  C(13)              0.00006       0.07226       0.02579       0.02410
     8  C(13)              0.00013       0.14446       0.05155       0.04819

 Normal termination of Gaussian 16 at Wed Apr  9 00:57:28 2025.
