 Gaussian 16, Revision C.01,

 ----------------------------------------------------------------------
 #t hf aug-cc-pvdz symm=none int=(grid=ultrafine) guess=(read,tcheck) s
 table=(opt,rrhf)
 ----------------------------------------------------------------------
 -----
 title
 -----
 Symbolic Z-matrix:
 Charge =  0 Multiplicity = 1

 SCF Done:  E(RHF) =  -837.362058929     A.U. after   15 cycles
 Normal termination of Gaussian 16 at Wed Apr  9 01:23:01 2025.
 Gaussian 16:  ES64L-G16RevC.01  3-Jul-2019

 ----------------------------------------------------------------------
 #t hf aug-cc-pvdz iop(5/13=1,5/36=2,99/5=2) pseudo=read geom=check gue
 ss=(read,tcheck) scf=(maxcycle=1)
 ----------------------------------------------------------------------
 -----
 title
 -----
 Structure from the checkpoint file:  "BH10_345_forward_mol3.chk"
 Charge =  0 Multiplicity = 1

                         Standard orientation:
 ---------------------------------------------------------------------
 Center     Atomic      Atomic             Coordinates (Angstroms)
 Number     Number       Type             X           Y           Z
 ---------------------------------------------------------------------
      1          7           0        0.019836    1.048464    0.035810
      2          6           0        1.367835    0.661517   -0.218113
      3          6           0        1.632344   -0.640758   -0.076742
      4         16           0        0.197539   -1.555506    0.468495
      5          6           0       -0.792631   -0.114729    0.097635
      6          6           0        2.327683    1.735131   -0.614929
      7          1           0        1.921033    2.313550   -1.447668
      8          1           0        3.284377    1.317200   -0.921663
      9          1           0        2.520632    2.428830    0.207488
     10          6           0        2.902313   -1.390876   -0.290455
     11          1           0        3.728144   -0.717223   -0.515619
     12          1           0        2.809169   -2.104658   -1.113028
     13          1           0        3.169308   -1.958102    0.605624
     14          6           0       -0.144824    1.995338    1.143601
     15          1           0        0.211480    1.581459    2.095745
     16          1           0       -1.197538    2.250879    1.244763
     17          1           0        0.403558    2.911853    0.927147
     18          6           0       -2.085548   -0.170413   -0.222796
     19          6           0       -2.905346    0.996736   -0.644932
     20          1           0       -3.593682    1.309725    0.145564
     21          1           0       -3.506495    0.717717   -1.512686
     22          1           0       -2.262298    1.835521   -0.907854
     23          8           0       -2.800318   -1.335366   -0.182499
     24          1           0       -2.195566   -2.086657   -0.134039
 ---------------------------------------------------------------------

 SCF Done:  E(RHF) =  -837.518935648     A.U. after    2 cycles

 The electronic state is 1-A.
 Alpha  occ. eigenvalues --  -93.53854 -20.59348 -15.63858 -11.30047 -11.28071
 Alpha  occ. eigenvalues --  -11.27876 -11.26636 -11.26551 -11.24456 -11.24344
 Alpha  occ. eigenvalues --  -11.23336  -8.83685  -6.17860  -6.17735  -6.17303
 Alpha  occ. eigenvalues --   -1.35708  -1.24376  -1.08557  -1.05721  -1.00543
 Alpha  occ. eigenvalues --   -0.97931  -0.92779  -0.91145  -0.84584  -0.78452
 Alpha  occ. eigenvalues --   -0.73508  -0.68700  -0.64224  -0.62632  -0.61932
 Alpha  occ. eigenvalues --   -0.61126  -0.59055  -0.58648  -0.58292  -0.57051
 Alpha  occ. eigenvalues --   -0.55635  -0.55329  -0.54968  -0.53711  -0.52344
 Alpha  occ. eigenvalues --   -0.49691  -0.46806  -0.45769  -0.37956  -0.35667
 Alpha  occ. eigenvalues --   -0.26844
 Alpha virt. eigenvalues --    0.03195   0.03650   0.04144   0.04374   0.05788
 Alpha virt. eigenvalues --    0.05936   0.06223   0.06821   0.07157   0.07617
 Alpha virt. eigenvalues --    0.08649   0.08974   0.10112   0.11001   0.11579

 Mulliken charges:
               1
     1  N   -0.416790
     2  C   -0.162931
     3  C   -0.898376
     4  S    0.269089
     5  C    0.027682
     6  C    0.414582
     7  H    0.110566
     8  H   -0.072941
     9  H    0.083006
    10  C    0.395687
    11  H   -0.069101
    12  H    0.112124
    13  H    0.082844
    14  C    0.830871
    15  H   -0.074498
    16  H   -0.289693
    17  H   -0.246785
    18  C   -0.321959
    19  C    0.758188
    20  H    0.085041
    21  H   -0.060777
    22  H   -0.107456
    23  O   -0.575855
    24  H    0.127480
 Sum of Mulliken charges =  -0.00000

 Dipole moment (field-independent basis, Debye):
    X=              2.2184    Y=              1.9414    Z=             -0.1221  Tot=              2.9505

 Test job not archived.
 1\1\GINC-SE116\SP\RHF\Aug-CC-pVDZ\C8H13N1O1S1\OHZDE\09-Apr-2025\0\\#t
 hf aug-cc-pvdz iop(5/13=1,5/36=2,99/5=2) pseudo=read geom=check guess=
 (read,tcheck) scf=(maxcycle=1)\\title\\0,1\N,0,0.019836,1.048464,0.035
 81\C,0,1.367835,0.661517,-0.218113\C,0,1.632344,-0.640758,-0.076742\S,
 0,0.197539,-1.555506,0.468495\C,0,-0.792631,-0.114729,0.097635\C,0,2.3
 27683,1.735131,-0.614929\H,0,1.921033,2.31355,-1.447668\H,0,3.284377,1
 .3172,-0.921663\H,0,2.520632,2.42883,0.207488\C,0,2.902313,-1.390876,-
 0.290455\H,0,3.728144,-0.717223,-0.515619\H,0,2.809169,-2.104658,-1.11

 Normal termination of Gaussian 16 at Wed Apr  9 01:23:20 2025.
