 Gaussian 16, Revision C.01,

 ----------------------------------------------------------------------
 #t hf aug-cc-pvdz symm=none int=(grid=ultrafine) guess=(read,tcheck) s
 table=opt
 ----------------------------------------------------------------------
 -----
 title
 -----
 Symbolic Z-matrix:
 Charge =  0 Multiplicity = 2

 SCF Done:  E(UHF) =  -1001.55543166     A.U. after   26 cycles
 Normal termination of Gaussian 16 at Wed Apr  9 01:04:58 2025.
 Gaussian 16:  ES64L-G16RevC.01  3-Jul-2019

 ----------------------------------------------------------------------
 #t hf aug-cc-pvdz iop(5/13=1,5/36=2,99/5=2) pseudo=read geom=check gue
 ss=(read,tcheck) scf=(maxcycle=1)
 ----------------------------------------------------------------------
 -----
 title
 -----
 Structure from the checkpoint file:  "BH10_164_forward_mol1.chk"
 Charge =  0 Multiplicity = 2

                         Standard orientation:
 ---------------------------------------------------------------------
 Center     Atomic      Atomic             Coordinates (Angstroms)
 Number     Number       Type             X           Y           Z
 ---------------------------------------------------------------------
      1          7           0        0.438813   -0.848048    1.337963
      2          1           0        1.113459   -0.641860    2.069599
      3          6           0        0.372635    0.127123    0.322777
      4          1           0       -0.794334    0.769090    0.361163
      5          6           0        0.375199   -0.371524   -1.107207
      6          6           0        1.337848    1.245191    0.664944
      7          1           0       -0.404013   -1.113195   -1.250498
      8          1           0        0.184200    0.450517   -1.793311
      9         16           0        1.992099   -1.062680   -1.613448
     10          8           0        2.109460    1.135884    1.598689
     11          1           0        1.937956   -2.155418   -0.833491
     12          7           0        1.261343    2.336915   -0.129804
     13          1           0        0.410009    2.519720   -0.639838
     14          1           0        1.826893    3.128216    0.136093
     15          6           0       -0.379210   -1.923630    1.458832
     16          1           0       -0.149976   -2.527757    2.350321
     17          8           0       -1.268957   -2.210725    0.686827
     18          8           0       -1.736774    1.507478    0.187174
     19          8           0       -2.427137    1.006331   -0.895791
     20          6           0       -3.423305    0.093136   -0.439701
     21          1           0       -3.975442   -0.187295   -1.336390
     22          1           0       -4.082329    0.590411    0.273311
     23          1           0       -2.952838   -0.785122    0.008029
 ---------------------------------------------------------------------

 SCF Done:  E(UHF) =  -1001.76311178     A.U. after    2 cycles

 The electronic state is 2-A.
 Alpha  occ. eigenvalues --  -93.54448 -20.67568 -20.65264 -20.56813 -20.56602
 Alpha  occ. eigenvalues --  -15.68141 -15.66556 -11.39180 -11.38834 -11.33650
 Alpha  occ. eigenvalues --  -11.29023 -11.28891  -8.84181  -6.18408  -6.18176
 Alpha  occ. eigenvalues --   -6.17802  -1.47708  -1.38517  -1.37771  -1.24735
 Alpha  occ. eigenvalues --   -1.21016  -1.20035  -1.08531  -0.99113  -0.92752
 Alpha  occ. eigenvalues --   -0.88588  -0.85623  -0.80464  -0.78922  -0.77043
 Alpha  occ. eigenvalues --   -0.73539  -0.69991  -0.69493  -0.68653  -0.67097
 Alpha  occ. eigenvalues --   -0.66206  -0.65305  -0.62398  -0.61443  -0.59389
 Alpha  occ. eigenvalues --   -0.58931  -0.55883  -0.55328  -0.52105  -0.51686
 Alpha  occ. eigenvalues --   -0.48371  -0.47948  -0.47519  -0.45858  -0.44499
 Alpha  occ. eigenvalues --   -0.38951  -0.36273
 Alpha virt. eigenvalues --    0.03079   0.03477   0.04285   0.04790   0.05987
 Alpha virt. eigenvalues --    0.06225   0.06486   0.07320   0.07608   0.08615
 Alpha virt. eigenvalues --    0.09232   0.10228   0.11238   0.11644   0.12945

  Beta  occ. eigenvalues --  -93.54387 -20.65108 -20.64671 -20.56586 -20.56394
  Beta  occ. eigenvalues --  -15.68097 -15.66545 -11.39337 -11.38878 -11.32003
  Beta  occ. eigenvalues --  -11.29176 -11.28906  -8.84111  -6.18265  -6.18041
  Beta  occ. eigenvalues --   -6.17748  -1.43773  -1.38046  -1.37365  -1.23550
  Beta  occ. eigenvalues --   -1.20410  -1.15109  -1.07281  -0.97307  -0.91978
  Beta  occ. eigenvalues --   -0.88160  -0.85462  -0.78860  -0.77490  -0.73506
  Beta  occ. eigenvalues --   -0.71406  -0.68752  -0.68335  -0.67776  -0.66320
  Beta  occ. eigenvalues --   -0.65041  -0.63244  -0.61487  -0.59284  -0.58603
  Beta  occ. eigenvalues --   -0.56599  -0.54644  -0.53198  -0.50090  -0.49241
  Beta  occ. eigenvalues --   -0.47487  -0.46779  -0.45116  -0.43652  -0.41442
  Beta  occ. eigenvalues --   -0.36581
  Beta virt. eigenvalues --    0.01124   0.03113   0.03483   0.04289   0.04834
  Beta virt. eigenvalues --    0.05997   0.06234   0.06498   0.07367   0.07625
  Beta virt. eigenvalues --    0.08622   0.09296   0.10372   0.11257   0.11808

 Mulliken charges and spin densities:
               1          2
     1  N   -0.369218   0.021853
     2  H   -0.006978  -0.000643
     3  C    0.397287   0.813880
     4  H    0.366291  -0.326562
     5  C    0.183518  -0.107385
     6  C    0.436852  -0.130748
     7  H   -0.113830   0.004784
     8  H   -0.174074   0.005975
     9  S    0.340192   0.054257
    10  O   -0.547963   0.046133
    11  H    0.078522  -0.005134
    12  N   -0.115977   0.002669
    13  H    0.052060  -0.000147
    14  H   -0.014058  -0.001802
    15  C    0.634035  -0.020802
    16  H   -0.329785  -0.000896
    17  O   -0.451778   0.050213
    18  O   -0.395645   0.617224
    19  O   -0.501558  -0.018832
    20  C    1.031148  -0.006257
    21  H   -0.157057  -0.001003
    22  H   -0.103525   0.000747
    23  H   -0.238460   0.002478
 Sum of Mulliken charges =  -0.00000   1.00000

 Dipole moment (field-independent basis, Debye):
    X=             -0.8318    Y=              0.5175    Z=              0.5809  Tot=              1.1389
                          Isotropic Fermi Contact Couplings
        Atom                 a.u.       MegaHertz       Gauss      10(-4) cm-1
     1  N(14)             -0.00730      -2.35757      -0.84124      -0.78640
     2  H(1)               0.00090       4.01759       1.43358       1.34012
     3  C(13)              0.20150     226.52822      80.83090      75.56168
     4  H(1)              -0.07153    -319.72020    -114.08412    -106.64718
     5  C(13)             -0.02164     -24.32934      -8.68131      -8.11539
     6  C(13)             -0.02774     -31.18760     -11.12851     -10.40306
     7  H(1)               0.00237      10.58721       3.77778       3.53151
     8  H(1)               0.00186       8.31060       2.96543       2.77212

 1\1\GINC-SE090\SP\UHF\Aug-CC-pVDZ\C5H11N2O4S1(2)\OHZDE\09-Apr-2025\0\\
 #t hf aug-cc-pvdz iop(5/13=1,5/36=2,99/5=2) pseudo=read geom=check gue
 ss=(read,tcheck) scf=(maxcycle=1)\\title\\0,2\N,0,0.438813,-0.848048,1
 .337963\H,0,1.113459,-0.64186,2.069599\C,0,0.372635,0.127123,0.322777\
 H,0,-0.794334,0.76909,0.361163\C,0,0.375199,-0.371524,-1.107207\C,0,1.
 337848,1.245191,0.664944\H,0,-0.404013,-1.113195,-1.250498\H,0,0.1842,
 0.450517,-1.793311\S,0,1.992099,-1.06268,-1.613448\O,0,2.10946,1.13588
 4,1.598689\H,0,1.937956,-2.155418,-0.833491\N,0,1.261343,2.336915,-0.1

 Normal termination of Gaussian 16 at Wed Apr  9 01:05:19 2025.
