 Gaussian 16, Revision C.01,

 ----------------------------------------------------------------------
 #t hf aug-cc-pvdz symm=none int=(grid=ultrafine) guess=(read,tcheck) s
 table=(opt,rrhf)
 ----------------------------------------------------------------------
 -----
 title
 -----
 Symbolic Z-matrix:
 Charge =  0 Multiplicity = 1

 SCF Done:  E(RHF) =  -726.890422276     A.U. after   17 cycles
 Normal termination of Gaussian 16 at Wed Apr  9 01:09:05 2025.
 Gaussian 16:  ES64L-G16RevC.01  3-Jul-2019

 ----------------------------------------------------------------------
 #t hf aug-cc-pvdz iop(5/13=1,5/36=2,99/5=2) pseudo=read geom=check gue
 ss=(read,tcheck) scf=(maxcycle=1)
 ----------------------------------------------------------------------
 -----
 title
 -----
 Structure from the checkpoint file:  "BH10_312_forward_mol1.chk"
 Charge =  0 Multiplicity = 1

                         Standard orientation:
 ---------------------------------------------------------------------
 Center     Atomic      Atomic             Coordinates (Angstroms)
 Number     Number       Type             X           Y           Z
 ---------------------------------------------------------------------
      1          6           0       -2.175398   -1.198349   -0.402162
      2          6           0       -3.544157   -1.092293   -0.214017
      3          6           0       -4.109364    0.121710    0.158172
      4          6           0       -3.288391    1.225240    0.351229
      5          6           0       -1.915264    1.111979    0.193798
      6          6           0       -1.330898   -0.104889   -0.180432
      7          1           0       -1.737402   -2.135495   -0.724833
      8          1           0       -4.177663   -1.956974   -0.375422
      9          1           0       -5.181557    0.209001    0.286636
     10          1           0       -3.720483    2.179079    0.632133
     11          1           0       -1.279245    1.976168    0.347310
     12          6           0        0.111113   -0.242377   -0.379767
     13          6           0        1.005383    0.214487    0.526270
     14          1           0        0.827599    0.675176    1.496246
     15          1           0        1.582868   -0.664949   -1.264718
     16         15           0        2.570685   -0.125993   -0.215875
     17          6           0        3.658201   -1.220939    0.765284
     18          1           0        3.929513   -0.748502    1.711300
     19          1           0        3.126646   -2.148853    0.974714
     20          1           0        4.568881   -1.447660    0.209028
     21          6           0        3.601813    1.350644   -0.528986
     22          1           0        3.034750    2.052470   -1.140033
     23          1           0        3.874362    1.838783    0.408587
     24          1           0        4.513232    1.070358   -1.059160
 ---------------------------------------------------------------------

 SCF Done:  E(RHF) =  -727.034127538     A.U. after    2 cycles

 The electronic state is 1-A.
 Alpha  occ. eigenvalues --  -81.30472 -11.26254 -11.26238 -11.22395 -11.22346
 Alpha  occ. eigenvalues --  -11.22329 -11.22014 -11.21824 -11.21633 -11.20943
 Alpha  occ. eigenvalues --  -11.19953  -7.80712  -4.94869  -4.94742  -4.94649
 Alpha  occ. eigenvalues --   -1.12561  -1.04523  -1.01353  -0.98885  -0.96819
 Alpha  occ. eigenvalues --   -0.96449  -0.82728  -0.80596  -0.74745  -0.70778
 Alpha  occ. eigenvalues --   -0.67613  -0.63324  -0.61898  -0.61022  -0.60869
 Alpha  occ. eigenvalues --   -0.59391  -0.58795  -0.58279  -0.56906  -0.52125
 Alpha  occ. eigenvalues --   -0.50903  -0.49150  -0.48064  -0.47006  -0.45110
 Alpha  occ. eigenvalues --   -0.36933  -0.32466  -0.32087  -0.26054
 Alpha virt. eigenvalues --    0.02414   0.03917   0.04062   0.04427   0.05212
 Alpha virt. eigenvalues --    0.05326   0.06489   0.06602   0.06939   0.06952
 Alpha virt. eigenvalues --    0.07234   0.08848   0.09111   0.10546   0.10874

 Mulliken charges:
               1
     1  C    0.656912
     2  C    0.282133
     3  C    0.536824
     4  C    0.128167
     5  C    0.319035
     6  C    1.016052
     7  H   -0.526362
     8  H   -0.447751
     9  H   -0.443133
    10  H   -0.456466
    11  H   -0.582985
    12  C   -1.447533
    13  C    0.672071
    14  H   -0.566186
    15  H    0.579924
    16  P    0.348714
    17  C    0.336694
    18  H   -0.079956
    19  H   -0.152090
    20  H   -0.117622
    21  C    0.301495
    22  H   -0.159990
    23  H   -0.073908
    24  H   -0.124039
 Sum of Mulliken charges =   0.00000

 Dipole moment (field-independent basis, Debye):
    X=              5.7804    Y=              0.5552    Z=              0.9525  Tot=              5.8846

 Test job not archived.
 1\1\GINC-SE128\SP\RHF\Aug-CC-pVDZ\C10H13P1\OHZDE\09-Apr-2025\0\\#t hf
 aug-cc-pvdz iop(5/13=1,5/36=2,99/5=2) pseudo=read geom=check guess=(re
 ad,tcheck) scf=(maxcycle=1)\\title\\0,1\C,0,-2.175398,-1.198349,-0.402
 162\C,0,-3.544157,-1.092293,-0.214017\C,0,-4.109364,0.12171,0.158172\C
 ,0,-3.288391,1.22524,0.351229\C,0,-1.915264,1.111979,0.193798\C,0,-1.3
 30898,-0.104889,-0.180432\H,0,-1.737402,-2.135495,-0.724833\H,0,-4.177
 663,-1.956974,-0.375422\H,0,-5.181557,0.209001,0.286636\H,0,-3.720483,
 2.179079,0.632133\H,0,-1.279245,1.976168,0.34731\C,0,0.111113,-0.24237

 Normal termination of Gaussian 16 at Wed Apr  9 01:09:23 2025.
