 Gaussian 16, Revision C.01,

 ----------------------------------------------------------------------
 #t hf aug-cc-pvdz symm=none int=(grid=ultrafine) guess=(read,tcheck) s
 table=(opt,rrhf)
 ----------------------------------------------------------------------
 -----
 title
 -----
 Symbolic Z-matrix:
 Charge =  0 Multiplicity = 1

 SCF Done:  E(RHF) =  -997.665339196     A.U. after   18 cycles
 Normal termination of Gaussian 16 at Wed Apr  9 01:59:44 2025.
 Gaussian 16:  ES64L-G16RevC.01  3-Jul-2019

 ----------------------------------------------------------------------
 #t hf aug-cc-pvdz iop(5/13=1,5/36=2,99/5=2) pseudo=read geom=check gue
 ss=(read,tcheck) scf=(maxcycle=1)
 ----------------------------------------------------------------------
 -----
 title
 -----
 Structure from the checkpoint file:  "BH10_83_forward_mol1.chk"
 Charge =  0 Multiplicity = 1

                         Standard orientation:
 ---------------------------------------------------------------------
 Center     Atomic      Atomic             Coordinates (Angstroms)
 Number     Number       Type             X           Y           Z
 ---------------------------------------------------------------------
      1          6           0        0.084594   -0.970723   -0.893587
      2          6           0        2.303971   -0.720893    0.029777
      3          6           0       -0.441546   -0.028215   -0.002747
      4          1           0       -0.179796   -0.175677    1.035946
      5          6           0        2.204227    0.684789    0.228658
      6          6           0        1.369259   -1.448344   -0.699881
      7          6           0        3.622070    1.198035    0.324280
      8          1           0        1.730727   -2.312127   -1.250556
      9          1           0       -0.459692   -1.244203   -1.789423
     10          6           0       -1.697154    0.722911   -0.234978
     11          1           0       -1.704555    1.565148    0.466857
     12          6           0       -1.850546    1.254131   -1.662677
     13          1           0       -0.980436    1.849935   -1.949491
     14          1           0       -1.944479    0.447757   -2.392098
     15          1           0       -2.736521    1.884802   -1.755619
     16          7           0        1.127607    1.387507    0.236734
     17          6           0        1.185890    2.825834    0.075623
     18          1           0        1.675835    3.131478   -0.856060
     19          1           0        0.171785    3.226554    0.072995
     20          1           0        1.719496    3.290770    0.911979
     21          8           0        4.451628    0.045925    0.371258
     22          1           0        3.783986    1.790269    1.227784
     23          1           0        3.887322    1.804452   -0.546919
     24          6           0        3.714408   -1.091687    0.119139
     25          8           0        4.240958   -2.159752   -0.001448
     26         14           0       -3.203533   -0.329253    0.321684
     27          6           0       -2.877020   -0.983927    2.047759
     28          6           0       -4.701646    0.801371    0.335248
     29          6           0       -3.482803   -1.748663   -0.869021
     30          1           0       -3.755340   -1.506404    2.435174
     31          1           0       -2.043638   -1.690056    2.057574
     32          1           0       -2.640903   -0.176532    2.745822
     33          1           0       -4.549656    1.658160    0.996555
     34          1           0       -4.930959    1.183965   -0.661824
     35          1           0       -5.584623    0.263699    0.690350
     36          1           0       -3.670454   -1.395954   -1.885835
     37          1           0       -2.622636   -2.420514   -0.896607
     38          1           0       -4.352165   -2.335629   -0.561353
 ---------------------------------------------------------------------

 SCF Done:  E(RHF) =  -997.907808884     A.U. after    2 cycles

 The electronic state is 1-A.
 Alpha  occ. eigenvalues --  -69.06087 -20.60280 -20.53342 -15.62919 -11.37334
 Alpha  occ. eigenvalues --  -11.31431 -11.31332 -11.31062 -11.27872 -11.27563
 Alpha  occ. eigenvalues --  -11.24370 -11.24271 -11.22882 -11.22517 -11.22101
 Alpha  occ. eigenvalues --  -11.21921 -11.21716  -6.81373  -3.92130  -3.92100
 Alpha  occ. eigenvalues --   -3.92092  -1.40483  -1.31746  -1.22108  -1.11962
 Alpha  occ. eigenvalues --   -1.08057  -1.01912  -0.98185  -0.96932  -0.95142
 Alpha  occ. eigenvalues --   -0.93266  -0.93086  -0.91825  -0.85300  -0.79437
 Alpha  occ. eigenvalues --   -0.76532  -0.72746  -0.69734  -0.69084  -0.67336
 Alpha  occ. eigenvalues --   -0.65775  -0.65000  -0.62563  -0.61480  -0.61020
 Alpha  occ. eigenvalues --   -0.59941  -0.59239  -0.58540  -0.57892  -0.57673
 Alpha  occ. eigenvalues --   -0.56747  -0.56301  -0.55376  -0.55299  -0.55060
 Alpha  occ. eigenvalues --   -0.54478  -0.54148  -0.52074  -0.50733  -0.49592
 Alpha  occ. eigenvalues --   -0.47185  -0.44968  -0.44482  -0.44299  -0.44251
 Alpha  occ. eigenvalues --   -0.40818  -0.36704  -0.29493
 Alpha virt. eigenvalues --    0.02032   0.02924   0.03330   0.03856   0.04689
 Alpha virt. eigenvalues --    0.04937   0.05327   0.05546   0.05930   0.06526
 Alpha virt. eigenvalues --    0.06735   0.06941   0.07038   0.07774   0.07884

 Mulliken charges:
               1
     1  C    0.902268
     2  C    0.225930
     3  C    0.875293
     4  H   -0.610019
     5  C   -1.020106
     6  C   -0.065854
     7  C    1.246468
     8  H   -0.506523
     9  H   -0.739406
    10  C    0.007596
    11  H   -0.128590
    12  C    0.895993
    13  H   -0.154421
    14  H   -0.090999
    15  H   -0.119145
    16  N   -0.276335
    17  C    1.052159
    18  H   -0.115828
    19  H   -0.428309
    20  H   -0.160760
    21  O   -0.689078
    22  H   -0.007675
    23  H    0.009377
    24  C    0.487532
    25  O   -0.501221
    26  Si  -0.058376
    27  C    0.818314
    28  C    0.765082
    29  C    0.840611
    30  H   -0.372320
    31  H   -0.223891
    32  H   -0.210570
    33  H   -0.241102
    34  H   -0.279027
    35  H   -0.335102
    36  H   -0.225097
    37  H   -0.207565
    38  H   -0.359303
 Sum of Mulliken charges =  -0.00000

 Dipole moment (field-independent basis, Debye):
    X=             -6.6259    Y=              5.1284    Z=             -0.4049  Tot=              8.3886

 Test job not archived.
 1\1\GINC-SE404\SP\RHF\Aug-CC-pVDZ\C13H21N1O2Si1\OHZDE\09-Apr-2025\0\\#
 t hf aug-cc-pvdz iop(5/13=1,5/36=2,99/5=2) pseudo=read geom=check gues
 s=(read,tcheck) scf=(maxcycle=1)\\title\\0,1\C,0,0.084594,-0.970723,-0
 .893587\C,0,2.303971,-0.720893,0.029777\C,0,-0.441546,-0.028215,-0.002
 747\H,0,-0.179796,-0.175677,1.035946\C,0,2.204227,0.684789,0.228658\C,
 0,1.369259,-1.448344,-0.699881\C,0,3.62207,1.198035,0.32428\H,0,1.7307
 27,-2.312127,-1.250556\H,0,-0.459692,-1.244203,-1.789423\C,0,-1.697154
 ,0.722911,-0.234978\H,0,-1.704555,1.565148,0.466857\C,0,-1.850546,1.25

 Normal termination of Gaussian 16 at Wed Apr  9 02:00:53 2025.
