 Gaussian 16, Revision C.01,

 ----------------------------------------------------------------------
 #t hf aug-cc-pvdz symm=none int=(grid=ultrafine) guess=(read,tcheck) s
 table=opt
 ----------------------------------------------------------------------
 -----
 title
 -----
 Symbolic Z-matrix:
 Charge =  0 Multiplicity = 2

 SCF Done:  E(UHF) =  -1465.25667415     A.U. after   26 cycles

 1\1\GINC-SE159\Stability\UHF\Aug-CC-pVDZ\C7H13S3\OHZDE\09-Apr-2025\0\\
 #t hf aug-cc-pvdz symm=none int=(grid=ultrafine) guess=(read,tcheck) s
 table=opt\\title\\0,2\C,0,-0.000741,-0.613596,0.488632\H,0,0.325088,-0
 .299122,1.484572\H,0,-0.164122,-1.695266,0.543243\C,0,-1.305519,0.0755
 25,0.11099\H,0,-1.138309,1.154662,0.033144\C,0,-3.737675,0.470855,0.73
 5013\H,0,-4.480641,0.360221,1.532467\H,0,-1.625414,-0.268196,-0.878819
 \H,0,-3.614366,1.549968,0.596869\C,0,-2.420347,-0.192141,1.114163\H,0,
 -2.577898,-1.269826,1.217616\H,0,-2.118984,0.180111,2.099986\C,0,1.125

 Normal termination of Gaussian 16 at Wed Apr  9 01:01:15 2025.
 Gaussian 16:  ES64L-G16RevC.01  3-Jul-2019

 ----------------------------------------------------------------------
 #t hf aug-cc-pvdz iop(5/13=1,5/36=2,99/5=2) pseudo=read geom=check gue
 ss=(read,tcheck) scf=(maxcycle=1)
 ----------------------------------------------------------------------
 -----
 title
 -----
 Structure from the checkpoint file:  "BH10_168_forward_mol2.chk"
 Charge =  0 Multiplicity = 2

                         Standard orientation:
 ---------------------------------------------------------------------
 Center     Atomic      Atomic             Coordinates (Angstroms)
 Number     Number       Type             X           Y           Z
 ---------------------------------------------------------------------
      1          6           0       -0.000741   -0.613596    0.488632
      2          1           0        0.325088   -0.299122    1.484572
      3          1           0       -0.164122   -1.695266    0.543243
      4          6           0       -1.305519    0.075525    0.110990
      5          1           0       -1.138309    1.154662    0.033144
      6          6           0       -3.737675    0.470855    0.735013
      7          1           0       -4.480641    0.360221    1.532467
      8          1           0       -1.625414   -0.268196   -0.878819
      9          1           0       -3.614366    1.549968    0.596869
     10          6           0       -2.420347   -0.192141    1.114163
     11          1           0       -2.577898   -1.269826    1.217616
     12          1           0       -2.118984    0.180111    2.099986
     13          6           0        1.125446   -0.351379   -0.505038
     14          6           0        3.110246    1.102969    0.579284
     15          6           0        3.818648   -0.144094    0.089892
     16          1           0        3.751518    1.983005    0.517820
     17          1           0        2.769499    0.986080    1.608498
     18          1           0        4.340110    0.050754   -0.846430
     19          1           0        4.531170   -0.516054    0.827565
     20         16           0        1.699458    1.384816   -0.528656
     21         16           0        2.566158   -1.445587   -0.153915
     22         16           0       -4.535746   -0.173064   -0.748428
     23          1           0        0.784078   -0.563812   -1.518160
 ---------------------------------------------------------------------

 SCF Done:  E(UHF) =  -1465.39592354     A.U. after    2 cycles

 The electronic state is 2-A.
 Alpha  occ. eigenvalues --  -93.54837 -93.53530 -93.53176 -11.30192 -11.28132
 Alpha  occ. eigenvalues --  -11.27847 -11.27470 -11.24201 -11.24197 -11.23382
 Alpha  occ. eigenvalues --   -8.84562  -8.83313  -8.82948  -6.19921  -6.18242
 Alpha  occ. eigenvalues --   -6.17808  -6.17466  -6.17282  -6.17120  -6.16941
 Alpha  occ. eigenvalues --   -6.16903  -6.16557  -1.13129  -1.09489  -1.05108
 Alpha  occ. eigenvalues --   -0.98886  -0.96843  -0.91791  -0.84868  -0.80351
 Alpha  occ. eigenvalues --   -0.78687  -0.76688  -0.66805  -0.64938  -0.63105
 Alpha  occ. eigenvalues --   -0.62433  -0.61063  -0.56893  -0.55842  -0.54876
 Alpha  occ. eigenvalues --   -0.54221  -0.50653  -0.49591  -0.48092  -0.47113
 Alpha  occ. eigenvalues --   -0.46535  -0.46272  -0.42171  -0.41336  -0.36739
 Alpha  occ. eigenvalues --   -0.34972  -0.34309
 Alpha virt. eigenvalues --    0.03255   0.03736   0.04637   0.04808   0.05331
 Alpha virt. eigenvalues --    0.05537   0.06101   0.06731   0.07813   0.08039
 Alpha virt. eigenvalues --    0.08252   0.08902   0.09598   0.10404   0.11504

  Beta  occ. eigenvalues --  -93.53940 -93.53530 -93.53176 -11.30192 -11.28132
  Beta  occ. eigenvalues --  -11.27847 -11.27598 -11.24201 -11.24195 -11.23374
  Beta  occ. eigenvalues --   -8.83564  -8.83313  -8.82948  -6.17709  -6.17466
  Beta  occ. eigenvalues --   -6.17282  -6.17259  -6.17120  -6.16941  -6.16903
  Beta  occ. eigenvalues --   -6.16557  -6.15986  -1.13118  -1.09016  -1.04395
  Beta  occ. eigenvalues --   -0.97549  -0.96833  -0.89586  -0.83042  -0.79873
  Beta  occ. eigenvalues --   -0.76829  -0.75912  -0.66696  -0.64638  -0.62697
  Beta  occ. eigenvalues --   -0.61695  -0.60826  -0.56586  -0.55683  -0.54563
  Beta  occ. eigenvalues --   -0.53902  -0.50242  -0.49253  -0.48063  -0.46959
  Beta  occ. eigenvalues --   -0.46276  -0.45450  -0.41342  -0.34995  -0.34612
  Beta  occ. eigenvalues --   -0.34210
  Beta virt. eigenvalues --    0.02076   0.03268   0.03780   0.04663   0.04866
  Beta virt. eigenvalues --    0.05430   0.05607   0.06131   0.06745   0.07876
  Beta virt. eigenvalues --    0.08086   0.08380   0.08949   0.09620   0.10437

 Mulliken charges and spin densities:
               1          2
     1  C    0.087204  -0.007250
     2  H   -0.218769  -0.000182
     3  H   -0.118589  -0.000738
     4  C    0.020638  -0.000910
     5  H   -0.165295  -0.001555
     6  C    0.319020  -0.121069
     7  H   -0.039989   0.024072
     8  H   -0.194410   0.000424
     9  H   -0.097719   0.015027
    10  C    0.245757  -0.000947
    11  H   -0.171139  -0.002163
    12  H   -0.127804   0.002989
    13  C    0.034091  -0.004880
    14  C   -0.006580   0.000028
    15  C   -0.055074  -0.000034
    16  H   -0.073167  -0.000002
    17  H   -0.129080  -0.000005
    18  H   -0.106357  -0.000003
    19  H   -0.048333   0.000001
    20  S    0.383964  -0.000382
    21  S    0.488420  -0.000169
    22  S    0.218694   1.098531
    23  H   -0.245482  -0.000784
 Sum of Mulliken charges =  -0.00000   1.00000

 Dipole moment (field-independent basis, Debye):
    X=              1.4612    Y=              1.0454    Z=              2.3377  Tot=              2.9483
                          Isotropic Fermi Contact Couplings
        Atom                 a.u.       MegaHertz       Gauss      10(-4) cm-1
     1  C(13)             -0.00023      -0.25867      -0.09230      -0.08628
     2  H(1)               0.00012       0.53450       0.19072       0.17829
     3  H(1)               0.00002       0.06727       0.02400       0.02244
     4  C(13)             -0.00017      -0.19588      -0.06989      -0.06534
     5  H(1)              -0.00002      -0.07310      -0.02608      -0.02438
     6  C(13)             -0.02735     -30.74773     -10.97156     -10.25634
     7  H(1)               0.01492      66.70815      23.80313      22.25145
     8  H(1)               0.00026       1.15094       0.41069       0.38391

 Normal termination of Gaussian 16 at Wed Apr  9 01:01:34 2025.
