 Gaussian 16, Revision C.01,

 ----------------------------------------------------------------------
 #t hf aug-cc-pvdz symm=none int=(grid=ultrafine) guess=(read,tcheck) s
 table=(opt,rrhf)
 ----------------------------------------------------------------------
 -----
 title
 -----
 Symbolic Z-matrix:
 Charge =  0 Multiplicity = 1

 SCF Done:  E(RHF) =  -1125.22519297     A.U. after   15 cycles
 Normal termination of Gaussian 16 at Wed Apr  9 02:04:09 2025.
 Gaussian 16:  ES64L-G16RevC.01  3-Jul-2019

 ----------------------------------------------------------------------
 #t hf aug-cc-pvdz iop(5/13=1,5/36=2,99/5=2) pseudo=read geom=check gue
 ss=(read,tcheck) scf=(maxcycle=1)
 ----------------------------------------------------------------------
 -----
 title
 -----
 Structure from the checkpoint file:  "BH10_302_forward_mol1.chk"
 Charge =  0 Multiplicity = 1

                         Standard orientation:
 ---------------------------------------------------------------------
 Center     Atomic      Atomic             Coordinates (Angstroms)
 Number     Number       Type             X           Y           Z
 ---------------------------------------------------------------------
      1          6           0        1.464571    2.484376    0.157466
      2          6           0        0.480151    1.860386    1.168136
      3          6           0       -0.897948    0.904185   -1.424954
      4          1           0        2.340174    1.837289    0.048701
      5          6           0       -0.812764    2.698229    1.295381
      6          1           0       -1.073186    2.780394    2.355545
      7          1           0       -0.614148    3.723006    0.963938
      8          1           0       -1.333241    0.415303   -2.299778
      9          1           0        0.992874    1.943797    2.130770
     10          6           0       -2.049641    2.147735    0.587386
     11          1           0       -2.325702    1.217499    1.085426
     12          1           0       -2.883527    2.833783    0.769630
     13          6           0       -1.980031    1.885449   -0.919628
     14          1           0       -2.959840    1.491812   -1.209431
     15          1           0       -1.884745    2.833709   -1.457889
     16          6           0        0.345617    1.616827   -1.998886
     17          1           0        1.133696    0.869543   -2.149727
     18          6           0        0.909043    2.800599   -1.223522
     19          1           0        1.709964    3.250542   -1.818958
     20          1           0        0.141067    3.574862   -1.140302
     21          1           0        0.081854    1.979349   -2.998572
     22          1           0        1.833045    3.422678    0.588893
     23          6           0       -0.556048   -0.230497   -0.420367
     24          1           0        0.173314   -0.862409   -0.950409
     25         14           0       -1.981186   -1.493611   -0.320221
     26          6           0       -3.506265   -1.002839    0.675878
     27          1           0       -4.212503   -1.838416    0.658197
     28          1           0       -3.286506   -0.787758    1.723493
     29          1           0       -4.017687   -0.134009    0.258262
     30          6           0       -1.399284   -3.147456    0.380788
     31          1           0       -1.340077   -3.156416    1.472085
     32          1           0       -2.121518   -3.919623    0.101606
     33          1           0       -0.426878   -3.443742   -0.020030
     34          6           0       -2.571852   -1.844896   -2.075039
     35          1           0       -3.270695   -2.685745   -2.070120
     36          1           0       -3.089689   -0.993014   -2.521061
     37          1           0       -1.739764   -2.111178   -2.732202
     38          5           0        0.191759    0.286732    0.903669
     39          6           0        1.846038   -0.460656    1.322886
     40          1           0        2.394551    0.330019    1.810056
     41          6           0        0.733331   -1.079473    1.909762
     42          1           0        0.456112   -2.027884    1.469864
     43          6           0       -0.242177   -0.360953    2.591643
     44          1           0        0.000456    0.464532    3.243852
     45          1           0       -1.185637   -0.854632    2.781370
     46          6           0        2.554681   -1.191811    0.264876
     47          8           0        2.162516   -2.196522   -0.280530
     48          8           0        3.698734   -0.575119   -0.072399
     49          6           0        4.435973   -1.173755   -1.141072
     50          1           0        3.837136   -1.192533   -2.051585
     51          1           0        5.315984   -0.550486   -1.275103
     52          1           0        4.722545   -2.192950   -0.882737
 ---------------------------------------------------------------------

 SCF Done:  E(RHF) =  -1125.50241159     A.U. after    2 cycles

 The electronic state is 1-A.
 Alpha  occ. eigenvalues --  -69.03345 -20.61818 -20.55608 -11.39388 -11.30257
 Alpha  occ. eigenvalues --  -11.29708 -11.25639 -11.25372 -11.22216 -11.21708
 Alpha  occ. eigenvalues --  -11.21589 -11.21533 -11.21351 -11.21304 -11.21245
 Alpha  occ. eigenvalues --  -11.20793 -11.20015 -11.19838 -11.19557 -11.18300
 Alpha  occ. eigenvalues --   -7.61115  -6.78657  -3.89338  -3.89336  -3.89310
 Alpha  occ. eigenvalues --   -1.42391  -1.32521  -1.15175  -1.09538  -1.03323
 Alpha  occ. eigenvalues --   -1.02963  -1.01557  -0.96022  -0.94894  -0.93887
 Alpha  occ. eigenvalues --   -0.91261  -0.90834  -0.90697  -0.86657  -0.82171
 Alpha  occ. eigenvalues --   -0.79687  -0.78277  -0.76646  -0.74181  -0.70686
 Alpha  occ. eigenvalues --   -0.69594  -0.68775  -0.66308  -0.64653  -0.63537
 Alpha  occ. eigenvalues --   -0.63149  -0.61807  -0.61152  -0.59575  -0.58873
 Alpha  occ. eigenvalues --   -0.58029  -0.57140  -0.56961  -0.56331  -0.56122
 Alpha  occ. eigenvalues --   -0.55584  -0.55370  -0.54275  -0.53952  -0.53579
 Alpha  occ. eigenvalues --   -0.53043  -0.52636  -0.51893  -0.49945  -0.48850
 Alpha  occ. eigenvalues --   -0.48478  -0.47903  -0.47416  -0.47230  -0.46099
 Alpha  occ. eigenvalues --   -0.45222  -0.43771  -0.42719  -0.42400  -0.41410
 Alpha  occ. eigenvalues --   -0.40370  -0.39882  -0.38238  -0.34374
 Alpha virt. eigenvalues --    0.02622   0.03502   0.03588   0.03903   0.04801
 Alpha virt. eigenvalues --    0.04916   0.05144   0.05253   0.05381   0.06505
 Alpha virt. eigenvalues --    0.06526   0.06753   0.06978   0.06995   0.07091

 Mulliken charges:
               1
     1  C    0.876308
     2  C   -0.656337
     3  C    0.061618
     4  H   -0.170493
     5  C    0.556639
     6  H   -0.163741
     7  H   -0.175805
     8  H   -0.266368
     9  H   -0.162376
    10  C    0.816352
    11  H   -0.214810
    12  H   -0.290726
    13  C    0.606571
    14  H   -0.222129
    15  H   -0.237285
    16  C    1.000954
    17  H   -0.043806
    18  C    0.218367
    19  H   -0.244073
    20  H    0.025235
    21  H   -0.235490
    22  H   -0.172635
    23  C    0.385712
    24  H   -0.181947
    25  Si  -0.986900
    26  C    1.208951
    27  H   -0.604195
    28  H   -0.207158
    29  H   -0.250280
    30  C    1.045581
    31  H   -0.209557
    32  H   -0.611156
    33  H   -0.244942
    34  C    1.103595
    35  H   -0.529524
    36  H   -0.258072
    37  H   -0.297157
    38  B   -0.860052
    39  C    1.087571
    40  H   -0.619273
    41  C    0.281119
    42  H   -0.557398
    43  C    1.332857
    44  H   -0.119352
    45  H   -0.292670
    46  C    0.210290
    47  O   -0.519367
    48  O   -0.652034
    49  C    0.944125
    50  H   -0.100256
    51  H   -0.274983
    52  H   -0.129499
 Sum of Mulliken charges =  -0.00000

 Dipole moment (field-independent basis, Debye):
    X=              0.8903    Y=              0.8041    Z=              1.1756  Tot=              1.6797

 Test job not archived.
 1\1\GINC-SE455\SP\RHF\Aug-CC-pVDZ\C17H31B1O2Si1\OHZDE\09-Apr-2025\0\\#
 t hf aug-cc-pvdz iop(5/13=1,5/36=2,99/5=2) pseudo=read geom=check gues
 s=(read,tcheck) scf=(maxcycle=1)\\title\\0,1\C,0,1.464571,2.484376,0.1
 57466\C,0,0.480151,1.860386,1.168136\C,0,-0.897948,0.904185,-1.424954\
 H,0,2.340174,1.837289,0.048701\C,0,-0.812764,2.698229,1.295381\H,0,-1.
 073186,2.780394,2.355545\H,0,-0.614148,3.723006,0.963938\H,0,-1.333241
 ,0.415303,-2.299778\H,0,0.992874,1.943797,2.13077\C,0,-2.049641,2.1477
 35,0.587386\H,0,-2.325702,1.217499,1.085426\H,0,-2.883527,2.833783,0.7

 Normal termination of Gaussian 16 at Wed Apr  9 02:07:08 2025.
