 Gaussian 16, Revision C.01,

 ----------------------------------------------------------------------
 #t hf aug-cc-pvdz symm=none int=(grid=ultrafine) guess=(read,tcheck) s
 table=(opt,rrhf)
 ----------------------------------------------------------------------
 -----
 title
 -----
 Symbolic Z-matrix:
 Charge =  0 Multiplicity = 1

 SCF Done:  E(RHF) =  -589.523627606     A.U. after   14 cycles
 Normal termination of Gaussian 16 at Wed Apr  9 01:20:08 2025.
 Gaussian 16:  ES64L-G16RevC.01  3-Jul-2019

 ----------------------------------------------------------------------
 #t hf aug-cc-pvdz iop(5/13=1,5/36=2,99/5=2) pseudo=read geom=check gue
 ss=(read,tcheck) scf=(maxcycle=1)
 ----------------------------------------------------------------------
 -----
 title
 -----
 Structure from the checkpoint file:  "BH10_350_forward_mol2.chk"
 Charge =  0 Multiplicity = 1

                         Standard orientation:
 ---------------------------------------------------------------------
 Center     Atomic      Atomic             Coordinates (Angstroms)
 Number     Number       Type             X           Y           Z
 ---------------------------------------------------------------------
      1          6           0       -0.745946    0.268767   -0.004698
      2          8           0       -0.626695    1.465026   -0.004914
      3          6           0       -2.078309   -0.434348    0.005276
      4          1           0       -2.586853   -0.194575    0.940857
      5          1           0       -1.982420   -1.515470   -0.086567
      6          1           0       -2.683299   -0.045760   -0.814795
      7         16           0        0.656837   -0.826938   -0.004811
      8          6           0        1.987967    0.396177    0.007441
      9          1           0        1.923579    1.030072   -0.873932
     10          1           0        2.924713   -0.158277    0.000329
     11          1           0        1.926170    1.011235    0.902287
 ---------------------------------------------------------------------

 SCF Done:  E(RHF) =  -589.607250237     A.U. after    2 cycles

 The electronic state is 1-A.
 Alpha  occ. eigenvalues --  -93.55002 -20.57132 -11.37469 -11.26963 -11.25618
 Alpha  occ. eigenvalues --   -8.84931  -6.19071  -6.18835  -6.18534  -1.37219
 Alpha  occ. eigenvalues --   -1.06102  -1.01259  -0.89098  -0.73836  -0.66204
 Alpha  occ. eigenvalues --   -0.64937  -0.62813  -0.59358  -0.59079  -0.54843
 Alpha  occ. eigenvalues --   -0.52853  -0.48325  -0.41743  -0.37174
 Alpha virt. eigenvalues --    0.03540   0.04194   0.05493   0.05646   0.06722
 Alpha virt. eigenvalues --    0.07161   0.08872   0.11314   0.11656   0.12910
 Alpha virt. eigenvalues --    0.13547   0.13794   0.14237   0.16167   0.16289

 Mulliken charges:
               1
     1  C   -0.211291
     2  O   -0.520485
     3  C    0.450269
     4  H    0.048316
     5  H   -0.073916
     6  H    0.026650
     7  S    0.368269
     8  C    0.082385
     9  H   -0.029706
    10  H   -0.108916
    11  H   -0.031575
 Sum of Mulliken charges =  -0.00000

 Dipole moment (field-independent basis, Debye):
    X=              0.1317    Y=             -1.7281    Z=              0.0292  Tot=              1.7333

 Test job not archived.
 1\1\GINC-SE403\SP\RHF\Aug-CC-pVDZ\C3H6O1S1\OHZDE\09-Apr-2025\0\\#t hf
 aug-cc-pvdz iop(5/13=1,5/36=2,99/5=2) pseudo=read geom=check guess=(re
 ad,tcheck) scf=(maxcycle=1)\\title\\0,1\C,0,-0.745946,0.268767,-0.0046
 98\O,0,-0.626695,1.465026,-0.004914\C,0,-2.078309,-0.434348,0.005276\H
 ,0,-2.586853,-0.194575,0.940857\H,0,-1.98242,-1.51547,-0.086567\H,0,-2
 .683299,-0.04576,-0.814795\S,0,0.656837,-0.826938,-0.004811\C,0,1.9879
 67,0.396178,0.007441\H,0,1.923579,1.030073,-0.873932\H,0,2.924713,-0.1
 58276,0.000329\H,0,1.92617,1.011236,0.902287\\Version=ES64L-G16RevC.01

 Normal termination of Gaussian 16 at Wed Apr  9 01:20:11 2025.
