 Gaussian 16, Revision C.01,

 ----------------------------------------------------------------------
 #t hf aug-cc-pvdz symm=none int=(grid=ultrafine) guess=(read,tcheck) s
 table=(opt,rrhf)
 ----------------------------------------------------------------------
 -----
 title
 -----
 Symbolic Z-matrix:
 Charge =  0 Multiplicity = 1

 SCF Done:  E(RHF) =  -1125.27065551     A.U. after   14 cycles
 Normal termination of Gaussian 16 at Wed Apr  9 02:13:46 2025.
 Gaussian 16:  ES64L-G16RevC.01  3-Jul-2019

 ----------------------------------------------------------------------
 #t hf aug-cc-pvdz iop(5/13=1,5/36=2,99/5=2) pseudo=read geom=check gue
 ss=(read,tcheck) scf=(maxcycle=1)
 ----------------------------------------------------------------------
 -----
 title
 -----
 Structure from the checkpoint file:  "BH10_298_reverse_mol2.chk"
 Charge =  0 Multiplicity = 1

                         Standard orientation:
 ---------------------------------------------------------------------
 Center     Atomic      Atomic             Coordinates (Angstroms)
 Number     Number       Type             X           Y           Z
 ---------------------------------------------------------------------
      1          6           0       -0.995073   -2.773659   -0.480642
      2          6           0       -0.184826   -1.573462   -1.054403
      3          6           0       -2.409676    0.024917    0.401260
      4          1           0       -0.294902   -3.582805   -0.259241
      5          6           0       -0.879833   -0.906619   -2.263217
      6          1           0       -0.367776    0.029594   -2.512017
      7          1           0       -0.735834   -1.560443   -3.130220
      8          1           0       -3.023258    0.699244    1.005242
      9          1           0        0.750305   -1.986348   -1.441922
     10          6           0       -2.376507   -0.643664   -2.131389
     11          1           0       -2.743626   -0.271490   -3.093105
     12          1           0       -2.895310   -1.592828   -1.973321
     13          6           0       -2.802209    0.344880   -1.051443
     14          1           0       -2.437591    1.340327   -1.315884
     15          1           0       -3.894877    0.415920   -1.083597
     16          6           0       -2.844117   -1.404492    0.812064
     17          1           0       -3.239713   -1.361472    1.831553
     18          6           0       -1.782639   -2.508622    0.808949
     19          1           0       -1.066714   -2.302299    1.610146
     20          1           0       -2.274586   -3.441203    1.103092
     21          1           0       -3.689809   -1.704435    0.184212
     22          1           0       -1.662547   -3.164570   -1.254607
     23          6           0       -0.933527    0.341695    0.750742
     24          1           0       -0.809942    0.259525    1.843327
     25         14           0       -0.502946    2.203326    0.543278
     26          6           0        0.032678    2.685351   -1.194397
     27          1           0       -0.754455    2.564308   -1.939523
     28          1           0        0.333526    3.737128   -1.200372
     29          1           0        0.896260    2.096848   -1.508857
     30          6           0        0.895116    2.682726    1.706822
     31          1           0        0.944468    3.772874    1.780500
     32          1           0        0.745993    2.294522    2.717575
     33          1           0        1.862953    2.336455    1.341454
     34          6           0       -2.013118    3.214866    1.027156
     35          1           0       -2.337811    2.982367    2.044762
     36          1           0       -1.766467    4.279701    0.995584
     37          1           0       -2.862275    3.053032    0.361010
     38          5           0        0.138879   -0.591179    0.132686
     39          6           0        1.730952   -1.964901    1.511786
     40          6           0        1.609599   -0.647104    0.801248
     41          6           0        1.574635   -2.121606    2.818657
     42          1           0        1.366633   -1.281189    3.473134
     43          1           0        1.653746   -3.097560    3.281188
     44          6           0        2.651158   -0.507073   -0.267886
     45          8           0        3.223136   -1.400600   -0.834348
     46          8           0        2.848494    0.791310   -0.577280
     47          6           0        3.786925    1.048333   -1.625820
     48          1           0        3.467848    0.565928   -2.549588
     49          1           0        3.805505    2.128694   -1.744524
     50          1           0        4.773836    0.675840   -1.352818
     51          1           0        1.725335    0.169475    1.512025
     52          1           0        1.947669   -2.820886    0.881561
 ---------------------------------------------------------------------

 SCF Done:  E(RHF) =  -1125.54762840     A.U. after    2 cycles

 The electronic state is 1-A.
 Alpha  occ. eigenvalues --  -69.04668 -20.61703 -20.55625 -11.38935 -11.29698
 Alpha  occ. eigenvalues --  -11.25005 -11.23258 -11.23182 -11.23110 -11.22451
 Alpha  occ. eigenvalues --  -11.22308 -11.22104 -11.22082 -11.22026 -11.21983
 Alpha  occ. eigenvalues --  -11.20528 -11.20426 -11.20382 -11.19933 -11.19422
 Alpha  occ. eigenvalues --   -7.60080  -6.79955  -3.90626  -3.90611  -3.90605
 Alpha  occ. eigenvalues --   -1.42250  -1.32486  -1.10731  -1.08070  -1.03739
 Alpha  occ. eigenvalues --   -1.03424  -1.00475  -0.97318  -0.94855  -0.93168
 Alpha  occ. eigenvalues --   -0.91830  -0.91725  -0.91249  -0.87629  -0.79887
 Alpha  occ. eigenvalues --   -0.79702  -0.78849  -0.75816  -0.72243  -0.70743
 Alpha  occ. eigenvalues --   -0.69158  -0.68912  -0.66615  -0.64587  -0.63369
 Alpha  occ. eigenvalues --   -0.62321  -0.61329  -0.60103  -0.59844  -0.58646
 Alpha  occ. eigenvalues --   -0.57910  -0.57582  -0.57223  -0.56756  -0.56555
 Alpha  occ. eigenvalues --   -0.56256  -0.55419  -0.54781  -0.54087  -0.53586
 Alpha  occ. eigenvalues --   -0.53156  -0.53005  -0.51634  -0.50289  -0.49281
 Alpha  occ. eigenvalues --   -0.48815  -0.48022  -0.47830  -0.46777  -0.46652
 Alpha  occ. eigenvalues --   -0.45177  -0.44644  -0.43310  -0.43231  -0.42060
 Alpha  occ. eigenvalues --   -0.41679  -0.40827  -0.38630  -0.35638
 Alpha virt. eigenvalues --    0.02587   0.03419   0.03615   0.03800   0.04746
 Alpha virt. eigenvalues --    0.04847   0.05063   0.05265   0.05345   0.06546
 Alpha virt. eigenvalues --    0.06645   0.06755   0.06851   0.06916   0.07291

 Mulliken charges:
               1
     1  C    0.491197
     2  C   -0.074269
     3  C   -0.129407
     4  H   -0.225880
     5  C    0.708789
     6  H   -0.061890
     7  H   -0.219180
     8  H   -0.301664
     9  H   -0.092916
    10  C    0.394413
    11  H   -0.245671
    12  H   -0.008517
    13  C    0.787999
    14  H   -0.229406
    15  H   -0.169506
    16  C    0.445176
    17  H   -0.157283
    18  C    0.867415
    19  H    0.236298
    20  H   -0.325502
    21  H   -0.125654
    22  H   -0.181710
    23  C    0.428364
    24  H   -0.357550
    25  Si  -0.852783
    26  C    1.344940
    27  H   -0.317241
    28  H   -0.480150
    29  H   -0.468579
    30  C    1.153649
    31  H   -0.585638
    32  H   -0.210233
    33  H   -0.302161
    34  C    1.153877
    35  H   -0.375506
    36  H   -0.521109
    37  H   -0.288756
    38  B   -0.762027
    39  C    0.718991
    40  C    0.465444
    41  C    1.236766
    42  H   -0.388981
    43  H   -0.439051
    44  C    0.053797
    45  O   -0.476422
    46  O   -0.623200
    47  C    1.033931
    48  H   -0.003232
    49  H   -0.268354
    50  H   -0.183982
    51  H   -0.598474
    52  H   -0.469164
 Sum of Mulliken charges =  -0.00000

 Dipole moment (field-independent basis, Debye):
    X=             -1.1598    Y=              1.7707    Z=              0.3366  Tot=              2.1434

 Test job not archived.
 1\1\GINC-SE131\SP\RHF\Aug-CC-pVDZ\C17H31B1O2Si1\OHZDE\09-Apr-2025\0\\#
 t hf aug-cc-pvdz iop(5/13=1,5/36=2,99/5=2) pseudo=read geom=check gues
 s=(read,tcheck) scf=(maxcycle=1)\\title\\0,1\C,0,-0.995073,-2.773659,-
 0.480642\C,0,-0.184826,-1.573462,-1.054403\C,0,-2.409676,0.024917,0.40
 126\H,0,-0.294902,-3.582805,-0.259241\C,0,-0.879833,-0.906619,-2.26321
 7\H,0,-0.367776,0.029594,-2.512017\H,0,-0.735834,-1.560443,-3.13022\H,
 0,-3.023258,0.699244,1.005242\H,0,0.750305,-1.986348,-1.441922\C,0,-2.
 376507,-0.643664,-2.131389\H,0,-2.743626,-0.27149,-3.093105\H,0,-2.895

 Normal termination of Gaussian 16 at Wed Apr  9 02:16:57 2025.
