 Gaussian 16, Revision C.01,

 ----------------------------------------------------------------------
 #t hf aug-cc-pvdz symm=none int=(grid=ultrafine) guess=(read,tcheck) s
 table=(opt,rrhf)
 ----------------------------------------------------------------------
 -----
 title
 -----
 Symbolic Z-matrix:
 Charge = -1 Multiplicity = 1

 SCF Done:  E(RHF) =  -1631.01883562     A.U. after   15 cycles
 Normal termination of Gaussian 16 at Wed Apr  9 01:12:39 2025.
 Gaussian 16:  ES64L-G16RevC.01  3-Jul-2019

 ----------------------------------------------------------------------
 #t hf aug-cc-pvdz iop(5/13=1,5/36=2,99/5=2) pseudo=read geom=check gue
 ss=(read,tcheck) scf=(maxcycle=1)
 ----------------------------------------------------------------------
 -----
 title
 -----
 Structure from the checkpoint file:  "BH10_321_forward_mol1.chk"
 Charge = -1 Multiplicity = 1

                         Standard orientation:
 ---------------------------------------------------------------------
 Center     Atomic      Atomic             Coordinates (Angstroms)
 Number     Number       Type             X           Y           Z
 ---------------------------------------------------------------------
      1          6           0       -1.615799    0.990391    0.010902
      2         16           0       -1.344081   -0.508329   -0.896821
      3         16           0       -3.890726    0.403885    0.830837
      4          1           0       -2.083478    1.816245   -0.483423
      5          1           0       -1.346704    1.053036    1.046968
      6          6           0       -2.322625   -1.700105    0.071524
      7          6           0       -3.776943   -1.272675    0.145543
      8          1           0       -2.187491   -2.659920   -0.438626
      9          1           0       -1.895977   -1.776225    1.073143
     10          1           0       -4.219903   -1.315557   -0.852682
     11          1           0       -4.321644   -1.972236    0.787404
     12         16           0        0.501740    2.051390   -0.505523
     13          6           0        1.565020    0.983185    0.512142
     14          6           0        2.657625    0.289501   -0.304731
     15          1           0        0.949171    0.208885    0.986914
     16          1           0        2.038135    1.553967    1.309772
     17          6           0        3.597487   -0.525319    0.593621
     18          8           0        4.124346   -0.091635    1.584269
     19          8           0        3.798052   -1.770034    0.155793
     20          1           0        3.247181   -1.809868   -0.668770
     21          7           0        2.138302   -0.588000   -1.362132
     22          1           0        3.282925    1.062153   -0.759822
     23          1           0        1.158697   -0.796645   -1.170456
     24          1           0        2.132261   -0.095504   -2.245889
 ---------------------------------------------------------------------

 SCF Done:  E(RHF) =  -1631.20576882     A.U. after    2 cycles

 The electronic state is 1-A.
 Alpha  occ. eigenvalues --  -93.43424 -93.34398 -93.33318 -20.50366 -20.44644
 Alpha  occ. eigenvalues --  -15.52273 -11.28043 -11.22206 -11.18102 -11.16334
 Alpha  occ. eigenvalues --  -11.14148 -11.13770  -8.73165  -8.64120  -8.63055
 Alpha  occ. eigenvalues --   -6.07342  -6.07145  -6.06833  -5.98268  -5.97990
 Alpha  occ. eigenvalues --   -5.97801  -5.97186  -5.96908  -5.96705  -1.30960
 Alpha  occ. eigenvalues --   -1.21798  -1.07352  -0.97762  -0.90850  -0.88258
 Alpha  occ. eigenvalues --   -0.80958  -0.79766  -0.71221  -0.69355  -0.65812
 Alpha  occ. eigenvalues --   -0.64288  -0.62933  -0.58047  -0.56348  -0.53507
 Alpha  occ. eigenvalues --   -0.52474  -0.51665  -0.50879  -0.48761  -0.47533
 Alpha  occ. eigenvalues --   -0.45439  -0.42493  -0.41659  -0.41555  -0.38302
 Alpha  occ. eigenvalues --   -0.36880  -0.34586  -0.32543  -0.31332  -0.30467
 Alpha  occ. eigenvalues --   -0.26344  -0.22392  -0.18248  -0.17267  -0.14244
 Alpha virt. eigenvalues --    0.11187   0.12004   0.13139   0.13203   0.14106
 Alpha virt. eigenvalues --    0.14393   0.14639   0.15402   0.15832   0.17355
 Alpha virt. eigenvalues --    0.17723   0.18076   0.19520   0.20084   0.20630

 Mulliken charges:
               1
     1  C    0.292957
     2  S    0.551559
     3  S   -0.188074
     4  H   -0.217107
     5  H   -0.220642
     6  C   -0.218120
     7  C   -0.074681
     8  H   -0.102635
     9  H   -0.111789
    10  H   -0.107407
    11  H   -0.047177
    12  S   -0.184752
    13  C    0.438330
    14  C   -0.137261
    15  H   -0.219273
    16  H   -0.122528
    17  C    0.631165
    18  O   -0.524070
    19  O   -0.496999
    20  H    0.311284
    21  N   -0.544722
    22  H    0.045040
    23  H    0.151543
    24  H    0.095361
 Sum of Mulliken charges =  -1.00000

 Dipole moment (field-independent basis, Debye):
    X=              1.7685    Y=             -4.3318    Z=             -3.8892  Tot=              6.0843

 Test job not archived.
 1\1\GINC-SE403\SP\RHF\Aug-CC-pVDZ\C6H12N1O2S3(1-)\OHZDE\09-Apr-2025\0\
 \#t hf aug-cc-pvdz iop(5/13=1,5/36=2,99/5=2) pseudo=read geom=check gu
 ess=(read,tcheck) scf=(maxcycle=1)\\title\\-1,1\C,0,-1.615799,0.990391
 ,0.010902\S,0,-1.344081,-0.508329,-0.896821\S,0,-3.890726,0.403885,0.8
 30837\H,0,-2.083478,1.816245,-0.483423\H,0,-1.346704,1.053036,1.046968
 \C,0,-2.322625,-1.700105,0.071524\C,0,-3.776943,-1.272675,0.145543\H,0
 ,-2.187491,-2.65992,-0.438626\H,0,-1.895977,-1.776225,1.073143\H,0,-4.
 219903,-1.315557,-0.852682\H,0,-4.321644,-1.972236,0.787404\S,0,0.5017

 Normal termination of Gaussian 16 at Wed Apr  9 01:12:59 2025.
