 Gaussian 16, Revision C.01,

 ----------------------------------------------------------------------
 #t hf aug-cc-pvdz symm=none int=(grid=ultrafine) guess=(read,tcheck) s
 table=opt
 ----------------------------------------------------------------------
 -----
 title
 -----
 Symbolic Z-matrix:
 Charge =  0 Multiplicity = 2

 SCF Done:  E(UHF) =  -1806.41024702     A.U. after   18 cycles
 Normal termination of Gaussian 16 at Wed Apr  9 03:26:55 2025.
 Gaussian 16:  ES64L-G16RevC.01  3-Jul-2019

 ----------------------------------------------------------------------
 #t hf aug-cc-pvdz iop(5/13=1,5/36=2,99/5=2) pseudo=read geom=check gue
 ss=(read,tcheck) scf=(maxcycle=1)
 ----------------------------------------------------------------------
 -----
 title
 -----
 Structure from the checkpoint file:  "BH10_304_reverse_mol2.chk"
 Charge =  0 Multiplicity = 2

                         Standard orientation:
 ---------------------------------------------------------------------
 Center     Atomic      Atomic             Coordinates (Angstroms)
 Number     Number       Type             X           Y           Z
 ---------------------------------------------------------------------
      1          6           0        0.997667   -0.203641   -1.566773
      2          6           0        2.370922   -0.276744   -1.014786
      3          9           0        2.639817   -1.477058   -0.401432
      4         14           0       -0.303791    0.011911   -0.147047
      5         14           0        0.028332    2.120006    0.839169
      6         14           0       -0.118639   -1.653094    1.503288
      7         14           0       -2.462150   -0.039737   -1.082438
      8          6           0       -0.567230    3.487145   -0.317913
      9          1           0       -0.364709    4.471730    0.113388
     10          1           0       -0.062783    3.441231   -1.286471
     11          1           0       -1.641919    3.420890   -0.501193
     12          6           0       -0.938243    2.236092    2.453624
     13          1           0       -0.837650    3.235558    2.886321
     14          1           0       -2.002653    2.042881    2.306146
     15          1           0       -0.569063    1.519350    3.190594
     16          6           0        1.849336    2.426327    1.212912
     17          1           0        1.973556    3.375979    1.741890
     18          1           0        2.270636    1.634669    1.835510
     19          1           0        2.440505    2.475050    0.296399
     20          6           0       -1.702654   -1.637888    2.530710
     21          1           0       -2.575269   -1.910350    1.932796
     22          1           0       -1.627643   -2.358483    3.350256
     23          1           0       -1.892900   -0.656222    2.969937
     24          6           0        0.084713   -3.365084    0.747323
     25          1           0        1.029839   -3.438279    0.206704
     26          1           0        0.084457   -4.128726    1.530632
     27          1           0       -0.725839   -3.599727    0.053577
     28          6           0        1.333721   -1.308682    2.651075
     29          1           0        2.271270   -1.283731    2.093364
     30          1           0        1.219312   -0.353658    3.169121
     31          1           0        1.413314   -2.090306    3.412247
     32          6           0       -3.023186   -1.806677   -1.429786
     33          1           0       -3.073037   -2.395225   -0.510870
     34          1           0       -4.020073   -1.810943   -1.880079
     35          1           0       -2.346220   -2.321707   -2.114481
     36          6           0       -3.699922    0.744687    0.104341
     37          1           0       -4.711699    0.680505   -0.306221
     38          1           0       -3.702855    0.243189    1.074362
     39          1           0       -3.480225    1.800720    0.275677
     40          6           0       -2.492819    0.935307   -2.697577
     41          1           0       -3.497647    0.929699   -3.129787
     42          1           0       -2.205759    1.976976   -2.537750
     43          1           0       -1.812292    0.515206   -3.441654
     44          6           0        0.687207   -1.387384   -2.504916
     45          1           0        1.439578   -1.471517   -3.294180
     46          1           0        0.671658   -2.330020   -1.957817
     47          1           0       -0.283976   -1.262081   -2.984986
     48          6           0        3.581469    0.343330   -1.612529
     49          6           0        4.769832    0.419351   -0.655763
     50          1           0        3.305744    1.342895   -1.959347
     51          1           0        3.876459   -0.220409   -2.513255
     52          1           0        5.633688    0.868478   -1.148912
     53          1           0        4.525531    1.019792    0.222261
     54          1           0        5.054539   -0.575879   -0.313123
     55          1           0        0.948378    0.721944   -2.149416
 ---------------------------------------------------------------------

 SCF Done:  E(UHF) =  -1806.70672781     A.U. after    2 cycles

 The electronic state is 2-A.
 Alpha  occ. eigenvalues --  -69.03807 -69.03722 -69.03366 -69.01548 -26.11467
 Alpha  occ. eigenvalues --  -11.31466 -11.24208 -11.23211 -11.23114 -11.22629
 Alpha  occ. eigenvalues --  -11.20799 -11.20734 -11.20670 -11.20644 -11.20598
 Alpha  occ. eigenvalues --  -11.20504 -11.20288 -11.19878 -11.19848  -6.79147
 Alpha  occ. eigenvalues --   -6.79059  -6.78689  -6.77336  -3.89862  -3.89858
 Alpha  occ. eigenvalues --   -3.89850  -3.89788  -3.89782  -3.89761  -3.89413
 Alpha  occ. eigenvalues --   -3.89403  -3.89396  -3.88005  -3.87927  -3.87917
 Alpha  occ. eigenvalues --   -1.65278  -1.09185  -1.02553  -0.96311  -0.95474
 Alpha  occ. eigenvalues --   -0.95031  -0.93676  -0.91870  -0.91741  -0.91604
 Alpha  occ. eigenvalues --   -0.91512  -0.91122  -0.90915  -0.85254  -0.82102
 Alpha  occ. eigenvalues --   -0.75625  -0.74157  -0.69353  -0.65797  -0.62062
 Alpha  occ. eigenvalues --   -0.61348  -0.61093  -0.59838  -0.59439  -0.58453
 Alpha  occ. eigenvalues --   -0.57563  -0.57539  -0.57078  -0.56612  -0.56251
 Alpha  occ. eigenvalues --   -0.55789  -0.55502  -0.55372  -0.54958  -0.54298
 Alpha  occ. eigenvalues --   -0.54147  -0.53976  -0.53750  -0.53456  -0.53394
 Alpha  occ. eigenvalues --   -0.53162  -0.52974  -0.52830  -0.52460  -0.51879
 Alpha  occ. eigenvalues --   -0.50886  -0.50211  -0.49529  -0.43747  -0.43302
 Alpha  occ. eigenvalues --   -0.42995  -0.42679  -0.42282  -0.42124  -0.40456
 Alpha  occ. eigenvalues --   -0.33695  -0.33158  -0.32394
 Alpha virt. eigenvalues --    0.02630   0.03370   0.03442   0.03578   0.04669
 Alpha virt. eigenvalues --    0.04938   0.05097   0.05160   0.05422   0.06332
 Alpha virt. eigenvalues --    0.06533   0.06654   0.06778   0.06963   0.07168

  Beta  occ. eigenvalues --  -69.03801 -69.03724 -69.03368 -69.01511 -26.11134
  Beta  occ. eigenvalues --  -11.28746 -11.24459 -11.23435 -11.22912 -11.22555
  Beta  occ. eigenvalues --  -11.20798 -11.20735 -11.20665 -11.20643 -11.20600
  Beta  occ. eigenvalues --  -11.20497 -11.20287 -11.19878 -11.19849  -6.79137
  Beta  occ. eigenvalues --   -6.79062  -6.78691  -6.77276  -3.89858  -3.89852
  Beta  occ. eigenvalues --   -3.89825  -3.89788  -3.89784  -3.89768  -3.89414
  Beta  occ. eigenvalues --   -3.89404  -3.89400  -3.87907  -3.87889  -3.87881
  Beta  occ. eigenvalues --   -1.64232  -1.06574  -1.02264  -0.96281  -0.95454
  Beta  occ. eigenvalues --   -0.95027  -0.91886  -0.91739  -0.91599  -0.91537
  Beta  occ. eigenvalues --   -0.91317  -0.91066  -0.90896  -0.84858  -0.81445
  Beta  occ. eigenvalues --   -0.73859  -0.70903  -0.68708  -0.63679  -0.61594
  Beta  occ. eigenvalues --   -0.61175  -0.60896  -0.59657  -0.59250  -0.58383
  Beta  occ. eigenvalues --   -0.57559  -0.57506  -0.56766  -0.56573  -0.56135
  Beta  occ. eigenvalues --   -0.55631  -0.55489  -0.55316  -0.54532  -0.54202
  Beta  occ. eigenvalues --   -0.54088  -0.53781  -0.53636  -0.53442  -0.53158
  Beta  occ. eigenvalues --   -0.52968  -0.52823  -0.52453  -0.52360  -0.51304
  Beta  occ. eigenvalues --   -0.50636  -0.49744  -0.48851  -0.43616  -0.43291
  Beta  occ. eigenvalues --   -0.42991  -0.42662  -0.42257  -0.42123  -0.38491
  Beta  occ. eigenvalues --   -0.33270  -0.33117
  Beta virt. eigenvalues --    0.02622   0.03361   0.03445   0.03574   0.04647
  Beta virt. eigenvalues --    0.04937   0.05100   0.05159   0.05421   0.06333
  Beta virt. eigenvalues --    0.06526   0.06654   0.06764   0.06947   0.07168

 Mulliken charges and spin densities:
               1          2
     1  C    1.177875  -0.115069
     2  C   -1.151326   1.205643
     3  F   -0.608409   0.023914
     4  Si   2.615545  -0.014089
     5  Si  -0.013817   0.003343
     6  Si   0.344253   0.009436
     7  Si   0.046513   0.026364
     8  C    1.002137  -0.000335
     9  H   -0.486647  -0.000187
    10  H   -0.389384  -0.000111
    11  H   -0.434007   0.000176
    12  C    1.129201  -0.000520
    13  H   -0.410349  -0.000129
    14  H   -0.501692  -0.000173
    15  H   -0.451870   0.000085
    16  C    1.130486   0.005892
    17  H   -0.430540   0.002429
    18  H   -0.521623  -0.000998
    19  H   -0.510921  -0.005016
    20  C    1.073701  -0.000231
    21  H   -0.488683  -0.000338
    22  H   -0.454940   0.000571
    23  H   -0.464436   0.000008
    24  C    0.922613  -0.001787
    25  H   -0.372014  -0.001503
    26  H   -0.494063   0.000162
    27  H   -0.423939  -0.000207
    28  C    1.089354   0.005078
    29  H   -0.433307  -0.003257
    30  H   -0.486093   0.002360
    31  H   -0.426028   0.001369
    32  C    1.050244  -0.001485
    33  H   -0.447927  -0.000025
    34  H   -0.466189   0.000175
    35  H   -0.448532   0.000005
    36  C    1.074876   0.002801
    37  H   -0.490081   0.000751
    38  H   -0.467052  -0.000191
    39  H   -0.452271  -0.000314
    40  C    1.002288  -0.003356
    41  H   -0.453768  -0.000136
    42  H   -0.445625   0.000359
    43  H   -0.438019  -0.000029
    44  C    0.905642   0.044035
    45  H   -0.193424  -0.006149
    46  H   -0.172065  -0.007011
    47  H   -0.300833  -0.000102
    48  C    0.412576  -0.241146
    49  C    0.732003   0.032426
    50  H   -0.127510  -0.001605
    51  H   -0.007606   0.050361
    52  H   -0.093679  -0.002767
    53  H   -0.158292   0.008823
    54  H   -0.078048  -0.002621
    55  H   -0.514300  -0.015677
 Sum of Mulliken charges =  -0.00000   1.00000

 Dipole moment (field-independent basis, Debye):
    X=             -0.0962    Y=              1.3062    Z=             -1.2079  Tot=              1.7817
                          Isotropic Fermi Contact Couplings
        Atom                 a.u.       MegaHertz       Gauss      10(-4) cm-1
     1  C(13)             -0.03733     -41.97038     -14.97608     -13.99981
     2  C(13)              0.32128     361.18019     128.87807     120.47674
     3  F(19)              0.04514     189.93560      67.77374      63.35570
     4  Si(29)             0.04682     -41.60721     -14.84649     -13.87867
     5  Si(29)            -0.00216       1.91716       0.68409       0.63949
     6  Si(29)            -0.00171       1.51854       0.54185       0.50653
     7  Si(29)             0.00672      -5.96816      -2.12959      -1.99076
     8  C(13)              0.00006       0.06803       0.02428       0.02269

 1\1\GINC-SE009\SP\UHF\Aug-CC-pVDZ\C14H36F1Si4(2)\OHZDE\09-Apr-2025\0\\
 #t hf aug-cc-pvdz iop(5/13=1,5/36=2,99/5=2) pseudo=read geom=check gue
 ss=(read,tcheck) scf=(maxcycle=1)\\title\\0,2\C,0,0.997667,-0.203641,-
 1.566773\C,0,2.370922,-0.276744,-1.014786\F,0,2.639817,-1.477058,-0.40
 1432\Si,0,-0.303791,0.011911,-0.147047\Si,0,0.028332,2.120006,0.839169
 \Si,0,-0.118639,-1.653094,1.503288\Si,0,-2.46215,-0.039737,-1.082438\C
 ,0,-0.56723,3.487145,-0.317913\H,0,-0.364709,4.47173,0.113388\H,0,-0.0
 62783,3.441231,-1.286471\H,0,-1.641919,3.42089,-0.501193\C,0,-0.938243

 Normal termination of Gaussian 16 at Wed Apr  9 03:30:44 2025.
