 Gaussian 16, Revision C.01,

 ----------------------------------------------------------------------
 #t hf aug-cc-pvdz symm=none int=(grid=ultrafine) guess=(read,tcheck) s
 table=(opt,rrhf)
 ----------------------------------------------------------------------
 -----
 title
 -----
 Symbolic Z-matrix:
 Charge =  0 Multiplicity = 1

 SCF Done:  E(RHF) =  -551.581902172     A.U. after   13 cycles
 Normal termination of Gaussian 16 at Wed Apr  9 00:56:02 2025.
 Gaussian 16:  ES64L-G16RevC.01  3-Jul-2019

 ----------------------------------------------------------------------
 #t hf aug-cc-pvdz iop(5/13=1,5/36=2,99/5=2) pseudo=read geom=check gue
 ss=(read,tcheck) scf=(maxcycle=1)
 ----------------------------------------------------------------------
 -----
 title
 -----
 Structure from the checkpoint file:  "BH10_175_reverse_mol3.chk"
 Charge =  0 Multiplicity = 1

                         Standard orientation:
 ---------------------------------------------------------------------
 Center     Atomic      Atomic             Coordinates (Angstroms)
 Number     Number       Type             X           Y           Z
 ---------------------------------------------------------------------
      1         16           0        0.000000    0.227448   -0.443016
      2          6           0        1.354258   -0.801431    0.184664
      3          1           0        1.257897   -0.891887    1.266726
      4          1           0        1.331930   -1.778305   -0.299472
      5          1           0        2.281546   -0.286876   -0.060773
      6          6           0       -1.354262   -0.801426    0.184664
      7          8           0        0.000003    1.486512    0.382416
      8          1           0       -1.331937   -1.778301   -0.299471
      9          1           0       -2.281548   -0.286867   -0.060774
     10          1           0       -1.257901   -0.891881    1.266726
 ---------------------------------------------------------------------

 SCF Done:  E(RHF) =  -551.675018529     A.U. after    2 cycles

 The electronic state is 1-A.
 Alpha  occ. eigenvalues --  -93.65706 -20.51479 -11.27536 -11.27520  -8.94120
 Alpha  occ. eigenvalues --   -6.28388  -6.28219  -6.27910  -1.29521  -1.05430
 Alpha  occ. eigenvalues --   -0.97447  -0.81393  -0.64656  -0.63276  -0.62652
 Alpha  occ. eigenvalues --   -0.59169  -0.56979  -0.55053  -0.52288  -0.43287
 Alpha  occ. eigenvalues --   -0.37759
 Alpha virt. eigenvalues --    0.02963   0.04396   0.05159   0.05767   0.07072
 Alpha virt. eigenvalues --    0.07476   0.08580   0.11655   0.13012   0.13620
 Alpha virt. eigenvalues --    0.14574   0.15324   0.16265   0.16648   0.17194

 Mulliken charges:
               1
     1  S    1.036073
     2  C    0.105191
     3  H   -0.036642
     4  H   -0.032324
     5  H   -0.032137
     6  C    0.105190
     7  O   -1.044249
     8  H   -0.032323
     9  H   -0.032136
    10  H   -0.036642
 Sum of Mulliken charges =  -0.00000

 Dipole moment (field-independent basis, Debye):
    X=             -0.0000    Y=             -4.8249    Z=             -0.7008  Tot=              4.8755

 Test job not archived.
 1\1\GINC-SE070\SP\RHF\Aug-CC-pVDZ\C2H6O1S1\OHZDE\09-Apr-2025\0\\#t hf
 aug-cc-pvdz iop(5/13=1,5/36=2,99/5=2) pseudo=read geom=check guess=(re
 ad,tcheck) scf=(maxcycle=1)\\title\\0,1\S,0,0.,0.227448,-0.443016\C,0,
 1.35426,-0.801428,0.184664\H,0,1.257899,-0.891884,1.266726\H,0,1.33193
 4,-1.778302,-0.299472\H,0,2.281547,-0.286871,-0.060773\C,0,-1.35426,-0
 .801429,0.184664\O,0,0.,1.486512,0.382416\H,0,-1.331933,-1.778304,-0.2
 99471\H,0,-2.281547,-0.286872,-0.060774\H,0,-1.257899,-0.891883,1.2667
 26\\Version=ES64L-G16RevC.01\State=1-A\HF=-551.6750185\RMSD=5.217e-03\

 Normal termination of Gaussian 16 at Wed Apr  9 00:56:05 2025.
