 Gaussian 16, Revision C.01,

 ----------------------------------------------------------------------
 #t hf aug-cc-pvdz symm=none int=(grid=ultrafine) guess=(read,tcheck) s
 table=(opt,rrhf)
 ----------------------------------------------------------------------
 -----
 title
 -----
 Symbolic Z-matrix:
 Charge =  0 Multiplicity = 1

 SCF Done:  E(RHF) =  -1035.36557436     A.U. after   16 cycles
 Normal termination of Gaussian 16 at Wed Apr  9 01:42:44 2025.
 Gaussian 16:  ES64L-G16RevC.01  3-Jul-2019

 ----------------------------------------------------------------------
 #t hf aug-cc-pvdz iop(5/13=1,5/36=2,99/5=2) pseudo=read geom=check gue
 ss=(read,tcheck) scf=(maxcycle=1)
 ----------------------------------------------------------------------
 -----
 title
 -----
 Structure from the checkpoint file:  "BH10_289_reverse_mol2.chk"
 Charge =  0 Multiplicity = 1

                         Standard orientation:
 ---------------------------------------------------------------------
 Center     Atomic      Atomic             Coordinates (Angstroms)
 Number     Number       Type             X           Y           Z
 ---------------------------------------------------------------------
      1          6           0        1.667873   -2.462403   -0.497620
      2          1           0        1.235812   -3.456192   -0.623136
      3          1           0        0.240747   -1.826575   -2.018115
      4          6           0        0.550646   -1.259276    1.088944
      5          8           0        0.194651   -0.888290    2.166956
      6          6           0       -2.100006    0.093591    0.720074
      7          8           0       -3.120109    0.950433    0.266550
      8          8           0       -1.327898    0.209494   -1.552267
      9          1           0       -4.560248    3.731986    0.149421
     10          1           0       -5.017585    2.342154   -0.847101
     11          1           0       -1.711886    4.056214    0.417408
     12          1           0       -1.034885    3.005904   -0.809703
     13          6           0       -3.334172   -2.003204    0.032465
     14          1           0        1.059459    0.416881   -2.370559
     15          6           0        2.624399    0.434626   -0.901028
     16          6           0        4.748913    0.682370    0.227789
     17          6           0        2.913393    2.109054    0.819245
     18          1           0        1.101028    1.811274   -0.278559
     19          1           0        4.848790    2.197269    1.745758
     20          1           0        4.371581   -0.737946   -1.329394
     21          1           0        2.722097   -2.480395   -0.762019
     22          6           0        0.872997   -1.389420   -1.246018
     23          7           0        0.018520   -0.915569   -0.155947
     24          8           0        1.572365   -2.105832    0.888871
     25          6           0       -1.119493   -0.163767   -0.423924
     26          5           0       -2.937718    2.266431   -0.047374
     27          6           0       -4.197740    3.017659   -0.599020
     28          1           0       -3.948948    3.611967   -1.483444
     29          6           0       -1.562712    3.007463    0.150881
     30          1           0       -0.894306    2.560496    0.890504
     31          6           0       -3.013649   -3.260856   -0.236459
     32          6           0       -2.761527   -1.216926    1.171306
     33          6           0        1.733899   -0.283994   -1.879192
     34          1           0        2.336195   -0.755090   -2.660889
     35          6           0        3.951419    0.053647   -0.717885
     36          6           0        4.229106    1.707797    1.004491
     37          6           0        2.121169    1.479922   -0.129062
     38          1           0        2.502093    2.916615    1.412713
     39          1           0        5.778848    0.371975    0.356328
     40          1           0       -2.045926   -1.814307    1.734990
     41          1           0       -3.556842   -0.923190    1.861584
     42          1           0       -3.452792   -3.792082   -1.072236
     43          1           0       -2.309907   -3.810203    0.381721
     44          1           0       -4.042212   -1.477894   -0.601689
     45          1           0       -1.561320    0.523819    1.564115
 ---------------------------------------------------------------------

 SCF Done:  E(RHF) =  -1035.68270519     A.U. after    2 cycles

 The electronic state is 1-A.
 Alpha  occ. eigenvalues --  -20.63609 -20.57441 -20.57100 -20.56721 -15.69081
 Alpha  occ. eigenvalues --  -11.44231 -11.38993 -11.32681 -11.31445 -11.31221
 Alpha  occ. eigenvalues --  -11.25730 -11.25461 -11.25011 -11.24889 -11.24864
 Alpha  occ. eigenvalues --  -11.24646 -11.24606 -11.24561 -11.24493 -11.23572
 Alpha  occ. eigenvalues --  -11.20059 -11.19020  -7.61900  -1.45847  -1.39150
 Alpha  occ. eigenvalues --   -1.35912  -1.33527  -1.24328  -1.15810  -1.09544
 Alpha  occ. eigenvalues --   -1.07777  -1.03047  -1.01787  -1.01043  -0.96104
 Alpha  occ. eigenvalues --   -0.95291  -0.92832  -0.91766  -0.88048  -0.86786
 Alpha  occ. eigenvalues --   -0.83864  -0.80886  -0.78622  -0.77060  -0.74908
 Alpha  occ. eigenvalues --   -0.73472  -0.72099  -0.71143  -0.69368  -0.67589
 Alpha  occ. eigenvalues --   -0.66291  -0.65376  -0.65201  -0.63766  -0.63170
 Alpha  occ. eigenvalues --   -0.62466  -0.62182  -0.61220  -0.59773  -0.59130
 Alpha  occ. eigenvalues --   -0.58939  -0.58282  -0.56810  -0.56568  -0.55928
 Alpha  occ. eigenvalues --   -0.54868  -0.53514  -0.53043  -0.52610  -0.52213
 Alpha  occ. eigenvalues --   -0.51631  -0.51134  -0.50290  -0.50009  -0.49465
 Alpha  occ. eigenvalues --   -0.49224  -0.48512  -0.47992  -0.45362  -0.43401
 Alpha  occ. eigenvalues --   -0.42779  -0.37207  -0.34748  -0.34085
 Alpha virt. eigenvalues --    0.02474   0.03299   0.03476   0.03916   0.04472
 Alpha virt. eigenvalues --    0.04694   0.05159   0.05585   0.05771   0.06176
 Alpha virt. eigenvalues --    0.06522   0.07182   0.07363   0.07547   0.07799

 Mulliken charges:
               1
     1  C    1.548697
     2  H   -0.192140
     3  H   -0.423704
     4  C    0.491987
     5  O   -0.450153
     6  C    0.510903
     7  O   -1.121793
     8  O   -0.608170
     9  H   -0.066263
    10  H   -0.364021
    11  H   -0.393504
    12  H   -0.108067
    13  C    1.132989
    14  H   -0.086565
    15  C   -0.106277
    16  C    0.057674
    17  C   -0.455344
    18  H   -0.659411
    19  H   -0.475201
    20  H   -0.660184
    21  H   -0.241153
    22  C   -0.235280
    23  N    0.421094
    24  O   -0.763324
    25  C   -0.475636
    26  B    0.589859
    27  C    0.642999
    28  H   -0.179643
    29  C    0.762589
    30  H   -0.329348
    31  C    0.547380
    32  C    0.562271
    33  C    0.303672
    34  H   -0.187125
    35  C    1.213704
    36  C    0.708097
    37  C    1.710855
    38  H   -0.576167
    39  H   -0.486895
    40  H   -0.195217
    41  H   -0.030145
    42  H   -0.360569
    43  H   -0.434586
    44  H   -0.438162
    45  H   -0.100726
 Sum of Mulliken charges =  -0.00000

 Dipole moment (field-independent basis, Debye):
    X=              2.4475    Y=             -1.5687    Z=             -1.8547  Tot=              3.4483

 Test job not archived.
 1\1\GINC-SE132\SP\RHF\Aug-CC-pVDZ\C17H22B1N1O4\OHZDE\09-Apr-2025\0\\#t
  hf aug-cc-pvdz iop(5/13=1,5/36=2,99/5=2) pseudo=read geom=check guess
 =(read,tcheck) scf=(maxcycle=1)\\title\\0,1\C,0,1.667873,-2.462403,-0.
 49762\H,0,1.235812,-3.456192,-0.623136\H,0,0.240747,-1.826575,-2.01811
 5\C,0,0.550646,-1.259276,1.088944\O,0,0.194651,-0.88829,2.166956\C,0,-
 2.100006,0.093591,0.720074\O,0,-3.120109,0.950433,0.26655\O,0,-1.32789
 8,0.209494,-1.552267\H,0,-4.560248,3.731986,0.149421\H,0,-5.017585,2.3
 42154,-0.847101\H,0,-1.711886,4.056214,0.417408\H,0,-1.034885,3.005904

 Normal termination of Gaussian 16 at Wed Apr  9 01:45:03 2025.
