 Gaussian 16, Revision C.01,

 ----------------------------------------------------------------------
 #t hf aug-cc-pvdz symm=none int=(grid=ultrafine) guess=(read,tcheck) s
 table=(opt,rrhf)
 ----------------------------------------------------------------------
 -----
 title
 -----
 Symbolic Z-matrix:
 Charge =  0 Multiplicity = 1

 SCF Done:  E(RHF) =  -1512.97738407     A.U. after   12 cycles
 Normal termination of Gaussian 16 at Wed Apr  9 01:20:02 2025.
 Gaussian 16:  ES64L-G16RevC.01  3-Jul-2019

 ----------------------------------------------------------------------
 #t hf aug-cc-pvdz iop(5/13=1,5/36=2,99/5=2) pseudo=read geom=check gue
 ss=(read,tcheck) scf=(maxcycle=1)
 ----------------------------------------------------------------------
 -----
 title
 -----
 Structure from the checkpoint file:  "BH10_293_forward_mol2.chk"
 Charge =  0 Multiplicity = 1

                         Standard orientation:
 ---------------------------------------------------------------------
 Center     Atomic      Atomic             Coordinates (Angstroms)
 Number     Number       Type             X           Y           Z
 ---------------------------------------------------------------------
      1         14           0       -0.001297   -0.000582   -0.783101
      2         14           0        1.120783    1.922582   -0.042876
      3         14           0        1.106070   -1.931925   -0.042894
      4         14           0       -2.227730    0.008606   -0.043123
      5          6           0       -2.988203    1.722644   -0.233086
      6          1           0       -4.037014    1.716141    0.077277
      7          1           0       -2.466529    2.461782    0.379202
      8          1           0       -2.949795    2.063602   -1.270349
      9          6           0       -3.247251   -1.224860   -1.035366
     10          1           0       -2.848494   -2.237489   -0.944073
     11          1           0       -4.284238   -1.240245   -0.687641
     12          1           0       -3.254308   -0.966078   -2.096720
     13          6           0       -2.280186   -0.474708    1.778492
     14          1           0       -1.673126    0.196245    2.390445
     15          1           0       -3.304984   -0.435447    2.158353
     16          1           0       -1.909656   -1.490738    1.932746
     17          6           0        0.005886   -3.450464   -0.232662
     18          1           0        0.539673   -4.353886    0.076098
     19          1           0       -0.894510   -3.372145    0.380913
     20          1           0       -0.309511   -3.588103   -1.269585
     21          6           0        2.685484   -2.196542   -1.033354
     22          1           0        3.360670   -1.342738   -0.944209
     23          1           0        3.219567   -3.084241   -0.682248
     24          1           0        2.466262   -2.336091   -2.094440
     25          6           0        1.548832   -1.734090    1.779144
     26          1           0        0.663390   -1.544536    2.390055
     27          1           0        2.027661   -2.640653    2.159902
     28          1           0        2.242646   -0.904592    1.933882
     29          6           0        2.985585    1.724080   -0.230266
     30          1           0        3.502675    2.637073    0.078732
     31          1           0        3.365590    0.904464    0.383854
     32          1           0        3.262879    1.518898   -1.266923
     33          6           0        0.567003    3.423871   -1.035602
     34          1           0       -0.509540    3.585843   -0.949334
     35          1           0        1.071161    4.328613   -0.683761
     36          1           0        0.799870    3.302416   -2.096039
     37          6           0        0.725667    2.211638    1.777930
     38          1           0        1.276367    3.076505    2.158513
     39          1           0       -0.338658    2.405740    1.929337
     40          1           0        0.996364    1.349248    2.391207
     41          1           0       -0.000875   -0.000538   -2.278651
 ---------------------------------------------------------------------

 SCF Done:  E(RHF) =  -1513.18224688     A.U. after    2 cycles

 The electronic state is 1-A.
 Alpha  occ. eigenvalues --  -69.03986 -69.03982 -69.03982 -69.01378 -11.20781
 Alpha  occ. eigenvalues --  -11.20777 -11.20777 -11.20740 -11.20737 -11.20736
 Alpha  occ. eigenvalues --  -11.20572 -11.20569 -11.20566  -6.79279  -6.79275
 Alpha  occ. eigenvalues --   -6.79273  -6.77179  -3.90032  -3.90029  -3.90028
 Alpha  occ. eigenvalues --   -3.90024  -3.90021  -3.90019  -3.90015  -3.90011
 Alpha  occ. eigenvalues --   -3.90009  -3.87869  -3.87824  -3.87824  -0.96425
 Alpha  occ. eigenvalues --   -0.95480  -0.95477  -0.91941  -0.91758  -0.91756
 Alpha  occ. eigenvalues --   -0.91576  -0.91573  -0.91435  -0.69761  -0.61413
 Alpha  occ. eigenvalues --   -0.61408  -0.59074  -0.57661  -0.57653  -0.56871
 Alpha  occ. eigenvalues --   -0.56576  -0.56573  -0.56039  -0.55746  -0.55741
 Alpha  occ. eigenvalues --   -0.54990  -0.54221  -0.54218  -0.54128  -0.53836
 Alpha  occ. eigenvalues --   -0.53831  -0.53496  -0.53011  -0.52995  -0.52993
 Alpha  occ. eigenvalues --   -0.44161  -0.43369  -0.43368  -0.42801  -0.42797
 Alpha  occ. eigenvalues --   -0.42491  -0.40426  -0.33720  -0.33715
 Alpha virt. eigenvalues --    0.02774   0.03705   0.03707   0.04222   0.05204
 Alpha virt. eigenvalues --    0.05205   0.05613   0.05615   0.05720   0.06832
 Alpha virt. eigenvalues --    0.07135   0.07287   0.07288   0.07466   0.07467

 Mulliken charges:
               1
     1  Si  -0.701242
     2  Si   1.591057
     3  Si   1.591748
     4  Si   1.586810
     5  C    0.669712
     6  H   -0.374046
     7  H   -0.440750
     8  H   -0.368435
     9  C    0.515541
    10  H   -0.377499
    11  H   -0.361620
    12  H   -0.376339
    13  C    0.981715
    14  H   -0.417103
    15  H   -0.341045
    16  H   -0.439165
    17  C    0.669038
    18  H   -0.374605
    19  H   -0.440127
    20  H   -0.368292
    21  C    0.516125
    22  H   -0.378999
    23  H   -0.360141
    24  H   -0.377658
    25  C    0.984113
    26  H   -0.418906
    27  H   -0.340492
    28  H   -0.439919
    29  C    0.672171
    30  H   -0.374396
    31  H   -0.442236
    32  H   -0.367896
    33  C    0.515645
    34  H   -0.377748
    35  H   -0.360910
    36  H   -0.377426
    37  C    0.983517
    38  H   -0.340291
    39  H   -0.441002
    40  H   -0.417658
    41  H   -0.081247
 Sum of Mulliken charges =  -0.00000

 Dipole moment (field-independent basis, Debye):
    X=             -0.0035    Y=             -0.0017    Z=              0.4944  Tot=              0.4944

 Test job not archived.
 1\1\GINC-SE342\SP\RHF\Aug-CC-pVDZ\C9H28Si4\OHZDE\09-Apr-2025\0\\#t hf
 aug-cc-pvdz iop(5/13=1,5/36=2,99/5=2) pseudo=read geom=check guess=(re
 ad,tcheck) scf=(maxcycle=1)\\title\\0,1\Si,0,0.001297,0.000582,-0.7831
 01\Si,0,-1.120691,-1.922635,-0.042876\Si,0,-1.106162,1.931872,-0.04289
 4\Si,0,2.227731,-0.0085,-0.043123\C,0,2.988285,-1.722501,-0.233086\H,0
 ,4.037096,-1.715948,0.077277\H,0,2.466647,-2.461664,0.379202\H,0,2.949
 894,-2.063461,-1.270349\C,0,3.247193,1.225015,-1.035366\H,0,2.848387,2
 .237625,-0.944073\H,0,4.284179,1.24045,-0.687641\H,0,3.254262,0.966233

 Normal termination of Gaussian 16 at Wed Apr  9 01:21:13 2025.
