 Gaussian 16, Revision C.01,

 ----------------------------------------------------------------------
 #t hf aug-cc-pvdz symm=none int=(grid=ultrafine) guess=(read,tcheck) s
 table=opt
 ----------------------------------------------------------------------
 -----
 title
 -----
 Symbolic Z-matrix:
 Charge =  0 Multiplicity = 2

 SCF Done:  E(UHF) =  -1247.52659526     A.U. after   19 cycles
 Normal termination of Gaussian 16 at Wed Apr  9 01:05:15 2025.
 Gaussian 16:  ES64L-G16RevC.01  3-Jul-2019

 ----------------------------------------------------------------------
 #t hf aug-cc-pvdz iop(5/13=1,5/36=2,99/5=2) pseudo=read geom=check gue
 ss=(read,tcheck) scf=(maxcycle=1)
 ----------------------------------------------------------------------
 -----
 title
 -----
 Structure from the checkpoint file:  "BH10_182_forward_mol2.chk"
 Charge =  0 Multiplicity = 2

                         Standard orientation:
 ---------------------------------------------------------------------
 Center     Atomic      Atomic             Coordinates (Angstroms)
 Number     Number       Type             X           Y           Z
 ---------------------------------------------------------------------
      1          7           0        1.371440    0.089016   -0.085823
      2         16           0        0.652350    1.600634    0.057605
      3          8           0       -0.788271    1.275184   -0.496546
      4          6           0       -1.658618    0.404434    0.287595
      5          6           0       -2.962999    0.299927   -0.462581
      6          1           0       -1.783248    0.851389    1.274505
      7          1           0       -1.164310   -0.564141    0.384208
      8          6           0       -3.953956   -0.601119    0.268119
      9          1           0       -2.765840   -0.091542   -1.464153
     10          1           0       -3.382959    1.301817   -0.585842
     11          6           0       -5.285557   -0.729885   -0.464510
     12          6           0        2.794754    0.137428    0.060434
     13          1           0        3.080847    0.566216    1.029681
     14          6           0        3.366135   -1.260337   -0.032359
     15          9           0        2.886076   -2.059541    0.927163
     16          9           0        4.701170   -1.211565    0.105212
     17          9           0        3.096840   -1.830383   -1.211634
     18          8           0        1.253303    2.518208   -0.870005
     19          8           0        0.597310    1.879083    1.474380
     20          6           0       -6.275871   -1.628954    0.265774
     21          1           0       -5.105371   -1.121190   -1.471158
     22          1           0       -5.720524    0.266180   -0.597184
     23          1           0       -5.876881   -2.639760    0.384187
     24          1           0       -7.219728   -1.706178   -0.277240
     25          1           0       -6.497289   -1.241923    1.263834
     26          1           0        3.250146    0.758211   -0.721016
     27          1           0       -4.133880   -0.209791    1.275976
     28          1           0       -3.517486   -1.597908    0.399162
 ---------------------------------------------------------------------

 SCF Done:  E(UHF) =  -1247.89566800     A.U. after    2 cycles

 The electronic state is 2-A.
 Alpha  occ. eigenvalues --  -93.86547 -26.17908 -26.17829 -26.17817 -20.65376
 Alpha  occ. eigenvalues --  -20.59828 -20.59686 -15.74035 -11.54078 -11.33573
 Alpha  occ. eigenvalues --  -11.32643 -11.25275 -11.24664 -11.24069 -11.23189
 Alpha  occ. eigenvalues --   -9.12388  -6.47054  -6.47048  -6.46850  -1.77825
 Alpha  occ. eigenvalues --   -1.70569  -1.70556  -1.50604  -1.37982  -1.35078
 Alpha  occ. eigenvalues --   -1.27355  -1.10376  -1.08701  -1.04196  -0.98370
 Alpha  occ. eigenvalues --   -0.95261  -0.89993  -0.89796  -0.87063  -0.85246
 Alpha  occ. eigenvalues --   -0.82453  -0.81024  -0.78956  -0.78885  -0.77096
 Alpha  occ. eigenvalues --   -0.75141  -0.74526  -0.73893  -0.72994  -0.72823
 Alpha  occ. eigenvalues --   -0.70425  -0.69045  -0.65582  -0.64402  -0.62920
 Alpha  occ. eigenvalues --   -0.60539  -0.60255  -0.59278  -0.58188  -0.56885
 Alpha  occ. eigenvalues --   -0.56003  -0.54014  -0.53163  -0.52999  -0.51007
 Alpha  occ. eigenvalues --   -0.50740  -0.50019  -0.49151  -0.48238  -0.48032
 Alpha virt. eigenvalues --    0.03088   0.04034   0.04241   0.04327   0.04891
 Alpha virt. eigenvalues --    0.05570   0.06439   0.06553   0.06990   0.07453
 Alpha virt. eigenvalues --    0.08282   0.09409   0.09870   0.10084   0.10790

  Beta  occ. eigenvalues --  -93.86613 -26.17917 -26.17829 -26.17818 -20.65407
  Beta  occ. eigenvalues --  -20.59600 -20.59594 -15.70769 -11.54069 -11.33858
  Beta  occ. eigenvalues --  -11.32644 -11.25275 -11.24664 -11.24069 -11.23189
  Beta  occ. eigenvalues --   -9.12475  -6.47131  -6.47086  -6.47047  -1.77833
  Beta  occ. eigenvalues --   -1.70582  -1.70567  -1.50213  -1.37887  -1.34624
  Beta  occ. eigenvalues --   -1.20239  -1.10333  -1.07129  -1.04090  -0.97926
  Beta  occ. eigenvalues --   -0.94943  -0.89927  -0.89746  -0.86770  -0.85139
  Beta  occ. eigenvalues --   -0.81604  -0.80549  -0.78839  -0.78749  -0.76096
  Beta  occ. eigenvalues --   -0.74726  -0.74314  -0.73475  -0.72954  -0.71398
  Beta  occ. eigenvalues --   -0.69650  -0.65481  -0.64878  -0.63746  -0.62607
  Beta  occ. eigenvalues --   -0.60471  -0.59325  -0.58437  -0.57344  -0.56433
  Beta  occ. eigenvalues --   -0.54596  -0.53632  -0.53114  -0.52455  -0.50304
  Beta  occ. eigenvalues --   -0.49172  -0.48324  -0.48228  -0.47331
  Beta virt. eigenvalues --    0.02914   0.03091   0.04075   0.04245   0.04374
  Beta virt. eigenvalues --    0.04898   0.05588   0.06442   0.06557   0.07062
  Beta virt. eigenvalues --    0.07479   0.08286   0.09432   0.09878   0.10146

 Mulliken charges and spin densities:
               1          2
     1  N   -0.910343   1.168839
     2  S    3.096142  -0.086689
     3  O   -0.996212  -0.011128
     4  C    0.846796   0.001064
     5  C    0.126736  -0.000719
     6  H   -0.154636  -0.001126
     7  H   -0.201214  -0.000734
     8  C    0.165523   0.000455
     9  H   -0.167073  -0.000262
    10  H   -0.150102   0.000068
    11  C    0.296418  -0.000125
    12  C    0.235318  -0.219846
    13  H   -0.023428   0.059422
    14  C    1.120973  -0.001388
    15  F   -0.320470   0.000200
    16  F   -0.302643   0.000231
    17  F   -0.330342  -0.000559
    18  O   -0.976337   0.007499
    19  O   -1.012205   0.027909
    20  C    0.591214  -0.000006
    21  H   -0.152666   0.000020
    22  H   -0.155693  -0.000020
    23  H   -0.086139  -0.000000
    24  H   -0.060659  -0.000002
    25  H   -0.082377   0.000000
    26  H   -0.055187   0.056811
    27  H   -0.177206   0.000170
    28  H   -0.164188  -0.000083
 Sum of Mulliken charges =  -0.00000   1.00000

 Dipole moment (field-independent basis, Debye):
    X=             -2.6739    Y=             -1.5895    Z=              0.3041  Tot=              3.1255
                          Isotropic Fermi Contact Couplings
        Atom                 a.u.       MegaHertz       Gauss      10(-4) cm-1
     1  N(14)              0.29270      94.57249      33.74582      31.54599
     2  S(33)             -0.08856     -30.41826     -10.85399     -10.14644
     3  O(17)             -0.00407       2.46559       0.87978       0.82243
     4  C(13)             -0.00041      -0.46190      -0.16482      -0.15407
     5  C(13)              0.00003       0.03702       0.01321       0.01235
     6  H(1)               0.00002       0.10587       0.03778       0.03532
     7  H(1)               0.00021       0.94670       0.33780       0.31578
     8  C(13)             -0.00005      -0.05451      -0.01945      -0.01818

 Normal termination of Gaussian 16 at Wed Apr  9 01:05:44 2025.
