 Gaussian 16, Revision C.01,

 ----------------------------------------------------------------------
 #t hf aug-cc-pvdz symm=none int=(grid=ultrafine) guess=(read,tcheck) s
 table=(opt,rrhf)
 ----------------------------------------------------------------------
 -----
 title
 -----
 Symbolic Z-matrix:
 Charge =  0 Multiplicity = 1

 SCF Done:  E(RHF) =  -1155.56506024     A.U. after   16 cycles
 Normal termination of Gaussian 16 at Wed Apr  9 02:47:41 2025.
 Gaussian 16:  ES64L-G16RevC.01  3-Jul-2019

 ----------------------------------------------------------------------
 #t hf aug-cc-pvdz iop(5/13=1,5/36=2,99/5=2) pseudo=read geom=check gue
 ss=(read,tcheck) scf=(maxcycle=1)
 ----------------------------------------------------------------------
 -----
 title
 -----
 Structure from the checkpoint file:  "BH10_401_forward_mol2.chk"
 Charge =  0 Multiplicity = 1

                         Standard orientation:
 ---------------------------------------------------------------------
 Center     Atomic      Atomic             Coordinates (Angstroms)
 Number     Number       Type             X           Y           Z
 ---------------------------------------------------------------------
      1          6           0       -0.114498   -2.591609   -0.405885
      2          1           0       -0.581837   -3.319622   -1.091710
      3          6           0        0.929545   -1.795482   -1.152948
      4          6           0       -0.313455    0.325631   -0.823835
      5          1           0       -0.425665    1.037071   -0.005703
      6          1           0       -0.371172    0.889338   -1.759071
      7          6           0       -1.488154   -0.667728   -0.749526
      8          1           0       -1.644391   -1.111516   -1.750025
      9          7           0       -1.107792   -1.714065    0.194347
     10          6           0        2.147976    0.222862   -0.301657
     11          6           0        1.630259   -2.313245   -2.153148
     12          6           0        3.406863   -0.529183   -0.086710
     13          6           0        3.559525   -1.505675    0.800924
     14          6           0        1.026817   -0.376281   -0.730791
     15          6           0        4.832207   -2.253863    1.039887
     16          1           0        5.145018   -2.185651    2.086031
     17          1           0        4.707995   -3.318003    0.815585
     18          1           0        5.641878   -1.869960    0.416268
     19          6           0       -2.220287   -2.452407    0.753864
     20          1           0       -2.823435   -2.938203   -0.035327
     21          1           0       -1.816906   -3.247408    1.385649
     22          6           0       -2.768984    0.043506   -0.369275
     23          6           0       -3.520986   -0.337251    0.740425
     24          6           0       -3.091006   -1.517028    1.570576
     25          1           0       -2.521400   -1.174334    2.439874
     26          1           0       -3.970161   -2.047309    1.945055
     27          1           0        0.368476   -3.158673    0.397343
     28          6           0       -4.680845    0.369843    1.053536
     29          1           0       -5.264468    0.065678    1.916087
     30          6           0       -3.207194    1.110339   -1.154075
     31          1           0       -2.636870    1.397688   -2.030188
     32          6           0       -5.099759    1.438615    0.281096
     33          1           0       -6.004446    1.975572    0.539521
     34          6           0       -4.359210    1.807529   -0.835594
     35          1           0       -4.682016    2.633574   -1.457669
     36         14           0        2.237709    2.044836    0.214318
     37          6           0        1.530110    2.214180    1.946747
     38          1           0        2.073260    1.570558    2.642962
     39          1           0        1.612301    3.243510    2.306308
     40          1           0        0.476871    1.928297    1.986611
     41          6           0        4.046117    2.555237    0.244481
     42          1           0        4.505812    2.471109   -0.743757
     43          1           0        4.136918    3.597440    0.561945
     44          1           0        4.626935    1.942399    0.936579
     45          6           0        1.343035    3.202308   -0.969602
     46          1           0        1.610270    2.988212   -2.007565
     47          1           0        0.257597    3.144007   -0.882866
     48          1           0        1.635473    4.235174   -0.760631
     49          1           0        2.384393   -1.733033   -2.669198
     50          1           0        1.480445   -3.337952   -2.475913
     51          1           0        2.698433   -1.801241    1.396770
     52          1           0        4.278853   -0.207773   -0.654774
 ---------------------------------------------------------------------

 SCF Done:  E(RHF) =  -1155.84508959     A.U. after    2 cycles

 The electronic state is 1-A.
 Alpha  occ. eigenvalues --  -69.03830 -15.61208 -11.27123 -11.26363 -11.26058
 Alpha  occ. eigenvalues --  -11.24622 -11.24496 -11.24381 -11.24381 -11.23993
 Alpha  occ. eigenvalues --  -11.23915 -11.23833 -11.23753 -11.23472 -11.23256
 Alpha  occ. eigenvalues --  -11.22744 -11.22580 -11.22516 -11.22328 -11.21236
 Alpha  occ. eigenvalues --  -11.20081 -11.19935 -11.19844  -6.79104  -3.89863
 Alpha  occ. eigenvalues --   -3.89846  -3.89824  -1.22702  -1.14815  -1.11039
 Alpha  occ. eigenvalues --   -1.06521  -1.05562  -1.04231  -1.00772  -0.99169
 Alpha  occ. eigenvalues --   -0.96012  -0.94843  -0.92463  -0.91156  -0.91023
 Alpha  occ. eigenvalues --   -0.89321  -0.85811  -0.83288  -0.81438  -0.80439
 Alpha  occ. eigenvalues --   -0.75702  -0.74441  -0.69770  -0.68601  -0.67181
 Alpha  occ. eigenvalues --   -0.65746  -0.64696  -0.63504  -0.62782  -0.61147
 Alpha  occ. eigenvalues --   -0.60629  -0.59731  -0.58855  -0.58440  -0.57047
 Alpha  occ. eigenvalues --   -0.56825  -0.56334  -0.56093  -0.55689  -0.55515
 Alpha  occ. eigenvalues --   -0.55083  -0.53849  -0.53680  -0.52942  -0.52888
 Alpha  occ. eigenvalues --   -0.52565  -0.52320  -0.51912  -0.51679  -0.49512
 Alpha  occ. eigenvalues --   -0.48967  -0.48059  -0.46294  -0.46113  -0.42925
 Alpha  occ. eigenvalues --   -0.42321  -0.41930  -0.37809  -0.36574  -0.35209
 Alpha  occ. eigenvalues --   -0.33195  -0.32432  -0.30341
 Alpha virt. eigenvalues --    0.02813   0.03283   0.03385   0.03679   0.04440
 Alpha virt. eigenvalues --    0.04698   0.05207   0.05237   0.05452   0.05953
 Alpha virt. eigenvalues --    0.06073   0.06628   0.06908   0.07010   0.07453

 Mulliken charges:
               1
     1  C    0.679799
     2  H   -0.116876
     3  C   -0.608032
     4  C   -0.231292
     5  H   -0.276828
     6  H   -0.125900
     7  C    0.216876
     8  H   -0.055696
     9  N   -0.645615
    10  C   -0.689452
    11  C    1.503733
    12  C    1.646351
    13  C   -0.013637
    14  C   -0.562888
    15  C    0.374798
    16  H    0.037223
    17  H    0.052909
    18  H   -0.173859
    19  C    1.233972
    20  H   -0.159328
    21  H   -0.282630
    22  C    0.115016
    23  C   -0.268437
    24  C    0.663072
    25  H    0.083371
    26  H   -0.037371
    27  H   -0.307300
    28  C    1.049084
    29  H   -0.638459
    30  C    0.722455
    31  H   -0.730744
    32  C    0.232898
    33  H   -0.480517
    34  C    0.056292
    35  H   -0.543042
    36  Si   0.487505
    37  C    1.011614
    38  H   -0.309046
    39  H   -0.329549
    40  H   -0.268285
    41  C    0.848761
    42  H   -0.338036
    43  H   -0.475576
    44  H   -0.231459
    45  C    1.122367
    46  H   -0.207761
    47  H   -0.373975
    48  H   -0.332779
    49  H   -0.476818
    50  H   -0.620394
    51  H   -0.581298
    52  H   -0.645219
 Sum of Mulliken charges =  -0.00000

 Dipole moment (field-independent basis, Debye):
    X=             -0.5404    Y=             -0.8797    Z=              0.0052  Tot=              1.0324

 Test job not archived.
 1\1\GINC-SE177\SP\RHF\Aug-CC-pVDZ\C21H29N1Si1\OHZDE\09-Apr-2025\0\\#t
 hf aug-cc-pvdz iop(5/13=1,5/36=2,99/5=2) pseudo=read geom=check guess=
 (read,tcheck) scf=(maxcycle=1)\\title\\0,1\C,0,-0.114498,-2.591609,-0.
 405885\H,0,-0.581837,-3.319622,-1.09171\C,0,0.929545,-1.795482,-1.1529
 48\C,0,-0.313455,0.325631,-0.823835\H,0,-0.425665,1.037071,-0.005703\H
 ,0,-0.371172,0.889338,-1.759071\C,0,-1.488154,-0.667728,-0.749526\H,0,
 -1.644391,-1.111516,-1.750025\N,0,-1.107792,-1.714065,0.194347\C,0,2.1
 47976,0.222862,-0.301657\C,0,1.630259,-2.313245,-2.153148\C,0,3.406863

 Normal termination of Gaussian 16 at Wed Apr  9 02:50:51 2025.
