 Gaussian 16, Revision C.01,

 ----------------------------------------------------------------------
 #t hf aug-cc-pvdz symm=none int=(grid=ultrafine) guess=(read,tcheck) s
 table=(opt,rrhf)
 ----------------------------------------------------------------------
 -----
 title
 -----
 Symbolic Z-matrix:
 Charge =  0 Multiplicity = 1

 SCF Done:  E(RHF) =  -770.002403058     A.U. after   15 cycles
 Normal termination of Gaussian 16 at Wed Apr  9 00:56:31 2025.
 Gaussian 16:  ES64L-G16RevC.01  3-Jul-2019

 ----------------------------------------------------------------------
 #t hf aug-cc-pvdz iop(5/13=1,5/36=2,99/5=2) pseudo=read geom=check gue
 ss=(read,tcheck) scf=(maxcycle=1)
 ----------------------------------------------------------------------
 -----
 title
 -----
 Structure from the checkpoint file:  "BH10_137_forward_mol2.chk"
 Charge =  0 Multiplicity = 1

                         Standard orientation:
 ---------------------------------------------------------------------
 Center     Atomic      Atomic             Coordinates (Angstroms)
 Number     Number       Type             X           Y           Z
 ---------------------------------------------------------------------
      1         17           0       -2.255519   -1.052391   -0.198672
      2          6           0       -1.251120    0.478745    0.020711
      3          6           0       -1.859217    1.533672   -0.890036
      4          6           0        0.182643    0.172496   -0.407945
      5          6           0       -1.363163    0.885663    1.481295
      6          1           0       -2.393811    1.140267    1.729555
      7          1           0       -0.736607    1.764161    1.659743
      8          1           0       -1.039233    0.089353    2.149467
      9          1           0       -1.804403    1.226982   -1.934985
     10          1           0       -1.308724    2.471355   -0.775125
     11          1           0       -2.904083    1.712735   -0.635586
     12          1           0        0.731474    1.119861   -0.378771
     13          1           0        0.164325   -0.143992   -1.455064
     14          6           0        0.931960   -0.863394    0.419448
     15          1           0        1.027631   -0.529092    1.454825
     16          6           0        2.334402   -1.144084   -0.135554
     17          1           0        0.371326   -1.800202    0.431806
     18          1           0        2.257775   -1.503848   -1.166471
     19          1           0        2.800649   -1.948518    0.439288
     20          6           0        3.211129    0.023077   -0.104855
     21          6           0        3.917612    0.988939   -0.067060
     22          1           0        4.552022    1.840911   -0.037292
 ---------------------------------------------------------------------

 SCF Done:  E(RHF) =  -770.117069482     A.U. after    2 cycles

 The electronic state is 1-A.
 Alpha  occ. eigenvalues -- -103.63462 -11.31465 -11.26438 -11.24750 -11.24235
 Alpha  occ. eigenvalues --  -11.24176 -11.23858 -11.23823 -11.23416 -10.66787
 Alpha  occ. eigenvalues --   -8.32488  -8.32236  -8.32230  -1.17045  -1.09187
 Alpha  occ. eigenvalues --   -1.04694  -1.00922  -0.95154  -0.94645  -0.84555
 Alpha  occ. eigenvalues --   -0.75441  -0.72218  -0.66853  -0.64800  -0.63417
 Alpha  occ. eigenvalues --   -0.61796  -0.59478  -0.57962  -0.56378  -0.54390
 Alpha  occ. eigenvalues --   -0.52344  -0.51100  -0.49162  -0.48517  -0.47750
 Alpha  occ. eigenvalues --   -0.43626  -0.43491  -0.39257  -0.39158
 Alpha virt. eigenvalues --    0.03163   0.04004   0.04056   0.04474   0.05984
 Alpha virt. eigenvalues --    0.06083   0.06350   0.06915   0.07523   0.08354
 Alpha virt. eigenvalues --    0.09129   0.09393   0.10409   0.11016   0.11603

 Mulliken charges:
               1
     1  Cl  -0.271678
     2  C   -2.106624
     3  C    1.149452
     4  C    0.595415
     5  C    0.966181
     6  H   -0.074083
     7  H    0.037764
     8  H   -0.069755
     9  H   -0.021146
    10  H    0.014192
    11  H   -0.030762
    12  H   -0.111009
    13  H   -0.165013
    14  C    0.225660
    15  H   -0.191800
    16  C    0.138338
    17  H   -0.140730
    18  H    0.024705
    19  H    0.065325
    20  C   -0.554474
    21  C    1.078503
    22  H   -0.558462
 Sum of Mulliken charges =  -0.00000

 Dipole moment (field-independent basis, Debye):
    X=              0.9558    Y=              1.6224    Z=              0.3699  Tot=              1.9190

 Test job not archived.
 1\1\GINC-SE095\SP\RHF\Aug-CC-pVDZ\C8H13Cl1\OHZDE\09-Apr-2025\0\\#t hf
 aug-cc-pvdz iop(5/13=1,5/36=2,99/5=2) pseudo=read geom=check guess=(re
 ad,tcheck) scf=(maxcycle=1)\\title\\0,1\Cl,0,-2.255519,-1.052391,-0.19
 8672\C,0,-1.25112,0.478745,0.020711\C,0,-1.859217,1.533672,-0.890036\C
 ,0,0.182643,0.172496,-0.407945\C,0,-1.363163,0.885663,1.481295\H,0,-2.
 393811,1.140267,1.729555\H,0,-0.736607,1.764161,1.659743\H,0,-1.039233
 ,0.089353,2.149467\H,0,-1.804403,1.226982,-1.934985\H,0,-1.308724,2.47
 1355,-0.775125\H,0,-2.904083,1.712736,-0.635586\H,0,0.731474,1.119861,

 Normal termination of Gaussian 16 at Wed Apr  9 00:56:44 2025.
