 Gaussian 16, Revision C.01,

 ----------------------------------------------------------------------
 #t hf aug-cc-pvdz symm=none int=(grid=ultrafine) guess=(read,tcheck) s
 table=(opt,rrhf)
 ----------------------------------------------------------------------
 -----
 title
 -----
 Symbolic Z-matrix:
 Charge =  0 Multiplicity = 1

 SCF Done:  E(RHF) =  -650.225382215     A.U. after   16 cycles
 Normal termination of Gaussian 16 at Wed Apr  9 00:58:37 2025.
 Gaussian 16:  ES64L-G16RevC.01  3-Jul-2019

 ----------------------------------------------------------------------
 #t hf aug-cc-pvdz iop(5/13=1,5/36=2,99/5=2) pseudo=read geom=check gue
 ss=(read,tcheck) scf=(maxcycle=1)
 ----------------------------------------------------------------------
 -----
 title
 -----
 Structure from the checkpoint file:  "BH10_109_forward_mol2.chk"
 Charge =  0 Multiplicity = 1

                         Standard orientation:
 ---------------------------------------------------------------------
 Center     Atomic      Atomic             Coordinates (Angstroms)
 Number     Number       Type             X           Y           Z
 ---------------------------------------------------------------------
      1          6           0        2.528616    0.008368    0.000061
      2          6           0        3.089589   -0.616341   -1.265909
      3          6           0        1.012332    0.014220    0.000018
      4          6           0        3.089506   -0.616179    1.266150
      5          1           0        2.710059   -0.092247   -2.143495
      6          1           0        2.804114   -1.666476   -1.339432
      7          1           0        4.178251   -0.550253   -1.256446
      8          6           0        0.303515    1.210673   -0.000041
      9          6           0        0.312899   -1.192665    0.000044
     10          1           0        2.804004   -1.666297    1.339798
     11          1           0        2.709933   -0.091957    2.143641
     12          1           0        4.178170   -0.550113    1.256743
     13          6           0       -1.069468   -1.211024    0.000016
     14          6           0       -1.746706   -0.003336   -0.000045
     15          6           0       -1.082654    1.208663   -0.000075
     16          1           0        0.842474    2.147015   -0.000062
     17          1           0       -1.649142    2.128919   -0.000125
     18          1           0        0.847885   -2.134195    0.000088
     19          1           0       -1.625885   -2.137211    0.000040
     20          7           0       -3.219010   -0.012843   -0.000076
     21          8           0       -3.775874   -1.093837    0.000041
     22          8           0       -3.790718    1.059704   -0.000219
     23          9           0        2.960019    1.351279   -0.000012
 ---------------------------------------------------------------------

 SCF Done:  E(RHF) =  -650.424231431     A.U. after    2 cycles

 The electronic state is 1-A.
 Alpha  occ. eigenvalues --  -26.11491 -20.61676 -20.61654 -15.92014 -11.35457
 Alpha  occ. eigenvalues --  -11.31694 -11.28754 -11.28497 -11.28347 -11.27467
 Alpha  occ. eigenvalues --  -11.26859 -11.25219 -11.25212  -1.64761  -1.55816
 Alpha  occ. eigenvalues --   -1.37147  -1.19885  -1.12473  -1.06322  -1.05002
 Alpha  occ. eigenvalues --   -0.97104  -0.95845  -0.87921  -0.86106  -0.82136
 Alpha  occ. eigenvalues --   -0.79243  -0.76254  -0.74377  -0.73822  -0.73256
 Alpha  occ. eigenvalues --   -0.71629  -0.66638  -0.65565  -0.64031  -0.62764
 Alpha  occ. eigenvalues --   -0.60773  -0.59584  -0.57975  -0.56678  -0.54010
 Alpha  occ. eigenvalues --   -0.53457  -0.51658  -0.51555  -0.51498  -0.50471
 Alpha  occ. eigenvalues --   -0.47657  -0.37625  -0.37483
 Alpha virt. eigenvalues --    0.02539   0.03378   0.03810   0.03995   0.04196
 Alpha virt. eigenvalues --    0.05634   0.06058   0.06402   0.06549   0.07202
 Alpha virt. eigenvalues --    0.08375   0.08913   0.09997   0.11283   0.12147

 Mulliken charges:
               1
     1  C   -1.464577
     2  C    0.694808
     3  C    0.608152
     4  C    0.694795
     5  H    0.009356
     6  H    0.021050
     7  H   -0.031235
     8  C    0.466473
     9  C    0.593262
    10  H    0.021048
    11  H    0.009357
    12  H   -0.031240
    13  C    0.275714
    14  C    1.353172
    15  C    0.492752
    16  H   -0.626101
    17  H   -0.452489
    18  H   -0.712086
    19  H   -0.461355
    20  N    0.055750
    21  O   -0.551213
    22  O   -0.545902
    23  F   -0.419492
 Sum of Mulliken charges =  -0.00000

 Dipole moment (field-independent basis, Debye):
    X=              5.1808    Y=             -2.0384    Z=              0.0003  Tot=              5.5674

 Test job not archived.
 1\1\GINC-SE131\SP\RHF\Aug-CC-pVDZ\C9H10F1N1O2\OHZDE\09-Apr-2025\0\\#t
 hf aug-cc-pvdz iop(5/13=1,5/36=2,99/5=2) pseudo=read geom=check guess=
 (read,tcheck) scf=(maxcycle=1)\\title\\0,1\C,0,2.528616,0.008368,0.000
 061\C,0,3.089589,-0.616341,-1.265909\C,0,1.012332,0.01422,0.000018\C,0
 ,3.089506,-0.616179,1.26615\H,0,2.710059,-0.092247,-2.143495\H,0,2.804
 114,-1.666476,-1.339432\H,0,4.178251,-0.550253,-1.256446\C,0,0.303515,
 1.210673,-0.000041\C,0,0.312899,-1.192665,0.000044\H,0,2.804004,-1.666
 297,1.339798\H,0,2.709933,-0.091957,2.143641\H,0,4.17817,-0.550113,1.2

 Normal termination of Gaussian 16 at Wed Apr  9 00:58:56 2025.
