 Gaussian 16, Revision C.01,

 ----------------------------------------------------------------------
 #t hf aug-cc-pvdz symm=none int=(grid=ultrafine) guess=(read,tcheck) s
 table=(opt,rrhf)
 ----------------------------------------------------------------------
 -----
 title
 -----
 Symbolic Z-matrix:
 Charge =  0 Multiplicity = 1

 SCF Done:  E(RHF) =  -1444.34010676     A.U. after   20 cycles
 Normal termination of Gaussian 16 at Wed Apr  9 02:30:32 2025.
 Gaussian 16:  ES64L-G16RevC.01  3-Jul-2019

 ----------------------------------------------------------------------
 #t hf aug-cc-pvdz iop(5/13=1,5/36=2,99/5=2) pseudo=read geom=check gue
 ss=(read,tcheck) scf=(maxcycle=1)
 ----------------------------------------------------------------------
 -----
 title
 -----
 Structure from the checkpoint file:  "BH10_377_forward_mol1.chk"
 Charge =  0 Multiplicity = 1

                         Standard orientation:
 ---------------------------------------------------------------------
 Center     Atomic      Atomic             Coordinates (Angstroms)
 Number     Number       Type             X           Y           Z
 ---------------------------------------------------------------------
      1          6           0       -5.386186   -2.165413    0.331917
      2          6           0       -4.758030   -0.943563    0.517684
      3          6           0       -3.485932   -0.700217   -0.003443
      4          6           0       -2.850809   -1.731280   -0.702892
      5          6           0       -3.482552   -2.949558   -0.893713
      6          6           0       -4.753211   -3.174631   -0.379612
      7          1           0       -6.374621   -2.328789    0.744669
      8          1           0       -5.260926   -0.160371    1.074113
      9          1           0       -1.844583   -1.588886   -1.075864
     10          1           0       -2.972339   -3.734917   -1.438862
     11          1           0       -5.241214   -4.130361   -0.526079
     12          6           0       -2.853487    0.610125    0.229817
     13          1           0       -3.443363    1.300300    0.817174
     14          6           0       -1.962096    1.144087   -0.698522
     15          1           0       -1.657709    0.533970   -1.537483
     16          6           0       -0.465731    2.762371   -1.706765
     17          6           0       -1.625212    3.333501    0.379757
     18          6           0        0.893995    3.000015   -1.054590
     19          1           0       -0.806361    3.678519   -2.202860
     20          1           0       -0.408468    1.976795   -2.458781
     21          6           0       -0.291554    3.575373    1.083535
     22          1           0       -2.002600    4.272242   -0.041461
     23          1           0       -2.368117    2.962031    1.079535
     24          6           0        0.780674    4.009007    0.086168
     25          1           0        1.597853    3.347480   -1.814665
     26          1           0        1.273066    2.050369   -0.670153
     27          1           0       -0.431742    4.332930    1.858211
     28          1           0        0.015688    2.654926    1.587179
     29          1           0        1.743163    4.121839    0.589456
     30          1           0        0.521029    4.993219   -0.321670
     31          7           0       -1.466279    2.381102   -0.714251
     32          7           0       -0.077653   -0.208632    0.361268
     33          7           0       -0.619117   -0.113339    1.526922
     34          7           0       -1.678544    0.217934    1.890632
     35          6           0        1.252018   -0.577857    0.285237
     36          6           0        2.155000   -0.775737    1.333287
     37          6           0        1.768499   -0.736495   -1.005187
     38          6           0        3.475666   -1.120086    1.103763
     39          6           0        3.083310   -1.074620   -1.245339
     40          6           0        3.950232   -1.272090   -0.184942
     41          9           0        1.764480   -0.626393    2.602713
     42          9           0        4.298585   -1.299269    2.135081
     43          9           0        5.222745   -1.600041   -0.404311
     44          9           0        3.520923   -1.209681   -2.496069
     45          9           0        0.958247   -0.542209   -2.056461
 ---------------------------------------------------------------------

 SCF Done:  E(RHF) =  -1444.79282089     A.U. after    2 cycles

 The electronic state is 1-A.
 Alpha  occ. eigenvalues --  -26.16837 -26.16577 -26.16473 -26.16406 -26.15844
 Alpha  occ. eigenvalues --  -15.77955 -15.74168 -15.67956 -15.66551 -11.37501
 Alpha  occ. eigenvalues --  -11.37413 -11.36775 -11.36530 -11.36481 -11.33592
 Alpha  occ. eigenvalues --  -11.33022 -11.29364 -11.29314 -11.25383 -11.24972
 Alpha  occ. eigenvalues --  -11.24890 -11.24870 -11.24814 -11.24039 -11.24009
 Alpha  occ. eigenvalues --  -11.23566 -11.23425 -11.23336  -1.71574  -1.71109
 Alpha  occ. eigenvalues --   -1.70368  -1.69976  -1.69675  -1.41631  -1.27567
 Alpha  occ. eigenvalues --   -1.23913  -1.18547  -1.14880  -1.10643  -1.07636
 Alpha  occ. eigenvalues --   -1.06492  -1.05824  -1.04621  -1.00745  -0.99145
 Alpha  occ. eigenvalues --   -0.95287  -0.94211  -0.92128  -0.88482  -0.87179
 Alpha  occ. eigenvalues --   -0.86222  -0.85624  -0.84354  -0.82641  -0.80783
 Alpha  occ. eigenvalues --   -0.80363  -0.80272  -0.80133  -0.79391  -0.78733
 Alpha  occ. eigenvalues --   -0.77791  -0.77725  -0.76765  -0.76748  -0.76373
 Alpha  occ. eigenvalues --   -0.74845  -0.74493  -0.72622  -0.70783  -0.70325
 Alpha  occ. eigenvalues --   -0.67386  -0.66516  -0.65829  -0.65345  -0.64914
 Alpha  occ. eigenvalues --   -0.64027  -0.63568  -0.63150  -0.62453  -0.61471
 Alpha  occ. eigenvalues --   -0.60513  -0.59708  -0.58582  -0.58221  -0.56153
 Alpha  occ. eigenvalues --   -0.55262  -0.54894  -0.52297  -0.52103  -0.50864
 Alpha  occ. eigenvalues --   -0.50040  -0.49094  -0.48765  -0.47958  -0.45727
 Alpha  occ. eigenvalues --   -0.44517  -0.44348  -0.37925  -0.36577  -0.33858
 Alpha  occ. eigenvalues --   -0.31819  -0.27395
 Alpha virt. eigenvalues --    0.02103   0.02863   0.03075   0.03776   0.04684
 Alpha virt. eigenvalues --    0.04799   0.05584   0.05820   0.05948   0.06143
 Alpha virt. eigenvalues --    0.06406   0.06930   0.07660   0.08225   0.08351

 Mulliken charges:
               1
     1  C    0.366347
     2  C    0.668769
     3  C    0.126648
     4  C    1.090157
     5  C   -0.024175
     6  C    0.768049
     7  H   -0.471024
     8  H   -0.707638
     9  H   -0.942380
    10  H   -0.510471
    11  H   -0.458487
    12  C    0.683821
    13  H   -0.655218
    14  C    1.123744
    15  H   -0.615004
    16  C    0.626638
    17  C    0.822929
    18  C    0.574196
    19  H   -0.213985
    20  H   -0.292900
    21  C    0.483525
    22  H   -0.174733
    23  H   -0.391886
    24  C    0.319312
    25  H   -0.143801
    26  H   -0.422944
    27  H   -0.147090
    28  H   -0.224534
    29  H   -0.132879
    30  H   -0.068511
    31  N   -0.375020
    32  N    0.080630
    33  N   -0.464114
    34  N   -0.032717
    35  C   -0.755014
    36  C    0.354375
    37  C    0.126555
    38  C    0.417970
    39  C    0.103059
    40  C    0.813670
    41  F   -0.250293
    42  F   -0.248983
    43  F   -0.251155
    44  F   -0.238309
    45  F   -0.337129
 Sum of Mulliken charges =  -0.00000

 Dipole moment (field-independent basis, Debye):
    X=             -2.7511    Y=              4.9979    Z=             -1.3116  Tot=              5.8539

 Test job not archived.
 1\1\GINC-SE083\SP\RHF\Aug-CC-pVDZ\C19H17F5N4\OHZDE\09-Apr-2025\0\\#t h
 f aug-cc-pvdz iop(5/13=1,5/36=2,99/5=2) pseudo=read geom=check guess=(
 read,tcheck) scf=(maxcycle=1)\\title\\0,1\C,0,-5.386186,-2.165413,0.33
 1917\C,0,-4.75803,-0.943563,0.517684\C,0,-3.485932,-0.700217,-0.003443
 \C,0,-2.850809,-1.73128,-0.702892\C,0,-3.482552,-2.949558,-0.893713\C,
 0,-4.753211,-3.174631,-0.379612\H,0,-6.374621,-2.328789,0.744669\H,0,-
 5.260926,-0.160371,1.074113\H,0,-1.844583,-1.588886,-1.075864\H,0,-2.9
 72339,-3.734917,-1.438862\H,0,-5.241214,-4.130361,-0.526079\C,0,-2.853

 Normal termination of Gaussian 16 at Wed Apr  9 02:33:23 2025.
