 Gaussian 16, Revision C.01,

 ----------------------------------------------------------------------
 #t hf aug-cc-pvdz symm=none int=(grid=ultrafine) guess=(read,tcheck) s
 table=(opt,rrhf)
 ----------------------------------------------------------------------
 -----
 title
 -----
 Symbolic Z-matrix:
 Charge =  0 Multiplicity = 1

 SCF Done:  E(RHF) =  -521.908113328     A.U. after   13 cycles
 Normal termination of Gaussian 16 at Wed Apr  9 00:55:07 2025.
 Gaussian 16:  ES64L-G16RevC.01  3-Jul-2019

 ----------------------------------------------------------------------
 #t hf aug-cc-pvdz iop(5/13=1,5/36=2,99/5=2) pseudo=read geom=check gue
 ss=(read,tcheck) scf=(maxcycle=1)
 ----------------------------------------------------------------------
 -----
 title
 -----
 Structure from the checkpoint file:  "BH10-RE_125_mol3.chk"
 Charge =  0 Multiplicity = 1

                         Standard orientation:
 ---------------------------------------------------------------------
 Center     Atomic      Atomic             Coordinates (Angstroms)
 Number     Number       Type             X           Y           Z
 ---------------------------------------------------------------------
      1          6           0        1.963488   -0.158892    0.000005
      2          6           0        0.564933   -0.766590   -0.000100
      3          6           0       -0.579649    0.213799   -0.000035
      4          8           0       -1.748986   -0.436848   -0.000075
      5          8           0       -0.494886    1.414709    0.000038
      6          6           0       -2.937728    0.377260   -0.000023
      7          6           0       -4.123842   -0.554665    0.000053
      8          6           0        2.274973    0.618102   -1.261739
      9          6           0        2.274875    0.617879    1.261909
     10          1           0        0.452659   -1.414285   -0.872937
     11          1           0       -2.918808    1.020195   -0.881493
     12          1           0       -2.918714    1.020226    0.881421
     13          1           0       -4.117731   -1.192322   -0.885114
     14          1           0       -5.048783    0.025311    0.000070
     15          1           0       -4.117663   -1.192266    0.885260
     16          1           0        2.098566   -0.001533   -2.142930
     17          1           0        3.322423    0.922468   -1.257765
     18          1           0        1.646869    1.506652   -1.319216
     19          1           0        2.098414   -0.001917    2.142976
     20          1           0        1.646757    1.506412    1.319502
     21          1           0        3.322321    0.922260    1.258065
     22          1           0        0.452606   -1.414470    0.872593
     23          9           0        2.823307   -1.290109   -0.000062
 ---------------------------------------------------------------------

 SCF Done:  E(RHF) =  -522.077482243     A.U. after    2 cycles

 The electronic state is 1-A.
 Alpha  occ. eigenvalues --  -26.09053 -20.62006 -20.56671 -11.40087 -11.32983
 Alpha  occ. eigenvalues --  -11.30452 -11.25782 -11.23990 -11.22669 -11.22661
 Alpha  occ. eigenvalues --   -1.62046  -1.43084  -1.33394  -1.10351  -1.05160
 Alpha  occ. eigenvalues --   -0.98693  -0.94867  -0.88309  -0.82453  -0.79289
 Alpha  occ. eigenvalues --   -0.72984  -0.71593  -0.71202  -0.70429  -0.67707
 Alpha  occ. eigenvalues --   -0.66605  -0.63035  -0.60082  -0.58371  -0.58232
 Alpha  occ. eigenvalues --   -0.56235  -0.55177  -0.54510  -0.53400  -0.52544
 Alpha  occ. eigenvalues --   -0.51590  -0.48930  -0.48744  -0.47873  -0.47174
 Alpha virt. eigenvalues --    0.03143   0.04304   0.04409   0.04589   0.05469
 Alpha virt. eigenvalues --    0.05725   0.06360   0.06676   0.07478   0.08028
 Alpha virt. eigenvalues --    0.08058   0.09366   0.10224   0.10823   0.11310

 Mulliken charges:
               1
     1  C   -1.098859
     2  C    0.183791
     3  C    0.188834
     4  O   -0.528959
     5  O   -0.449568
     6  C    0.784440
     7  C    0.237279
     8  C    0.691667
     9  C    0.691682
    10  H    0.007149
    11  H   -0.164070
    12  H   -0.164062
    13  H   -0.039621
    14  H   -0.027348
    15  H   -0.039621
    16  H    0.025646
    17  H   -0.000148
    18  H    0.057520
    19  H    0.025648
    20  H    0.057523
    21  H   -0.000147
    22  H    0.007143
    23  F   -0.445920
 Sum of Mulliken charges =  -0.00000

 Dipole moment (field-independent basis, Debye):
    X=             -2.5394    Y=              0.1406    Z=              0.0000  Tot=              2.5433

 Test job not archived.
 1\1\GINC-SE141\SP\RHF\Aug-CC-pVDZ\C7H13F1O2\OHZDE\09-Apr-2025\0\\#t hf
  aug-cc-pvdz iop(5/13=1,5/36=2,99/5=2) pseudo=read geom=check guess=(r
 ead,tcheck) scf=(maxcycle=1)\\title\\0,1\C,0,1.963488,-0.158892,0.0000
 05\C,0,0.564933,-0.76659,-0.0001\C,0,-0.579649,0.213799,-0.000035\O,0,
 -1.748986,-0.436848,-0.000075\O,0,-0.494886,1.414709,0.000038\C,0,-2.9
 37728,0.37726,-0.000023\C,0,-4.123842,-0.554665,0.000053\C,0,2.274973,
 0.618102,-1.261739\C,0,2.274875,0.617879,1.261909\H,0,0.452659,-1.4142
 85,-0.872937\H,0,-2.918808,1.020195,-0.881493\H,0,-2.918714,1.020226,0

 Normal termination of Gaussian 16 at Wed Apr  9 00:55:21 2025.
