 Gaussian 16, Revision C.01,

 ----------------------------------------------------------------------
 #t hf aug-cc-pvdz symm=none int=(grid=ultrafine) guess=(read,tcheck) s
 table=opt
 ----------------------------------------------------------------------
 -----
 title
 -----
 Symbolic Z-matrix:
 Charge =  0 Multiplicity = 2

 SCF Done:  E(UHF) =  -2205.48188782     A.U. after   18 cycles
 Normal termination of Gaussian 16 at Wed Apr  9 03:37:50 2025.
 Gaussian 16:  ES64L-G16RevC.01  3-Jul-2019

 ----------------------------------------------------------------------
 #t hf aug-cc-pvdz iop(5/13=1,5/36=2,99/5=2) pseudo=read geom=check gue
 ss=(read,tcheck) scf=(maxcycle=1)
 ----------------------------------------------------------------------
 -----
 title
 -----
 Structure from the checkpoint file:  "BH10_305_forward_mol1.chk"
 Charge =  0 Multiplicity = 2

                         Standard orientation:
 ---------------------------------------------------------------------
 Center     Atomic      Atomic             Coordinates (Angstroms)
 Number     Number       Type             X           Y           Z
 ---------------------------------------------------------------------
      1         14           0        0.593541    0.073766    0.009590
      2         14           0        1.684500   -1.381940   -1.468667
      3         14           0        1.259569   -0.279522    2.225814
      4         14           0        0.895663    2.303306   -0.649017
      5          6           0        0.647963    2.471429   -2.510743
      6          1           0        0.768731    3.512589   -2.823460
      7          1           0        1.373818    1.872507   -3.065301
      8          1           0       -0.349670    2.146542   -2.815335
      9          6           0       -0.300475    3.472793    0.221525
     10          1           0       -0.238532    3.377340    1.307624
     11          1           0       -0.063613    4.509465   -0.035390
     12          1           0       -1.336380    3.289817   -0.069711
     13          6           0        2.649938    2.846504   -0.220443
     14          1           0        3.397425    2.186671   -0.665646
     15          1           0        2.838305    3.860748   -0.584417
     16          1           0        2.809983    2.848351    0.860393
     17          6           0        0.569814    1.077373    3.339053
     18          1           0        0.838168    0.893973    4.383401
     19          1           0        0.963179    2.058715    3.063761
     20          1           0       -0.520145    1.127555    3.279707
     21          6           0        0.636209   -1.946506    2.839068
     22          1           0        1.036592   -2.765420    2.238456
     23          1           0        0.939510   -2.110479    3.877291
     24          1           0       -0.452360   -2.014077    2.791970
     25          6           0        3.141802   -0.259818    2.340491
     26          1           0        3.557170    0.687226    1.989239
     27          1           0        3.468569   -0.405831    3.374167
     28          1           0        3.582597   -1.058050    1.738410
     29          6           0        1.922018   -3.076722   -0.684716
     30          1           0        2.378006   -3.768438   -1.398941
     31          1           0        2.574870   -3.025871    0.189776
     32          1           0        0.966706   -3.499670   -0.368224
     33          6           0        0.655775   -1.571278   -3.034788
     34          1           0        0.451831   -0.604977   -3.501844
     35          1           0        1.174853   -2.195038   -3.768230
     36          1           0       -0.301194   -2.046953   -2.809231
     37          6           0        3.380868   -0.692378   -1.923551
     38          1           0        3.912294   -1.385168   -2.582532
     39          1           0        3.302813    0.264683   -2.444296
     40          1           0        3.998838   -0.538160   -1.035692
     41          1           0       -0.968623   -0.334178   -0.061846
     42          6           0       -2.422452   -0.977154   -0.089286
     43          6           0       -3.032077   -0.524899    1.202569
     44         17           0       -2.064551   -2.709973   -0.131683
     45          6           0       -3.023926   -0.460494   -1.360704
     46          6           0       -3.212510    0.994593    1.218664
     47          6           0       -3.944230    1.485725   -0.028643
     48          6           0       -3.214699    1.056933   -1.299967
     49          1           0       -2.412081   -0.850023    2.041240
     50          1           0       -4.008807   -1.014769    1.327530
     51          1           0       -3.996815   -0.948724   -1.518330
     52          1           0       -2.394526   -0.737130   -2.209797
     53          1           0       -2.230208    1.472215    1.272811
     54          1           0       -3.754378    1.286111    2.121486
     55          1           0       -4.043049    2.574034   -0.001580
     56          1           0       -4.962302    1.078833   -0.037898
     57          1           0       -2.234776    1.540404   -1.333489
     58          1           0       -3.759363    1.389570   -2.186718
 ---------------------------------------------------------------------

 SCF Done:  E(UHF) =  -2205.76915747     A.U. after    2 cycles

 The electronic state is 2-A.
 Alpha  occ. eigenvalues -- -103.64933 -69.04102 -69.03808 -69.03629 -69.01033
 Alpha  occ. eigenvalues --  -11.30596 -11.24168 -11.24125 -11.23658 -11.23589
 Alpha  occ. eigenvalues --  -11.23445 -11.20846 -11.20809 -11.20747 -11.20732
 Alpha  occ. eigenvalues --  -11.20584 -11.20491 -11.20187 -11.20166 -11.20058
 Alpha  occ. eigenvalues --  -10.68216  -8.33876  -8.33711  -8.33673  -6.79394
 Alpha  occ. eigenvalues --   -6.79109  -6.78927  -6.76948  -3.90130  -3.90126
 Alpha  occ. eigenvalues --   -3.90105  -3.89846  -3.89841  -3.89824  -3.89660
 Alpha  occ. eigenvalues --   -3.89657  -3.89639  -3.87914  -3.87446  -3.87441
 Alpha  occ. eigenvalues --   -1.18396  -1.10300  -1.01695  -0.99273  -0.96337
 Alpha  occ. eigenvalues --   -0.95464  -0.95167  -0.91910  -0.91856  -0.91588
 Alpha  occ. eigenvalues --   -0.91408  -0.91311  -0.91072  -0.85439  -0.82660
 Alpha  occ. eigenvalues --   -0.76404  -0.70009  -0.66558  -0.63092  -0.62381
 Alpha  occ. eigenvalues --   -0.61850  -0.61413  -0.61119  -0.58794  -0.57524
 Alpha  occ. eigenvalues --   -0.57347  -0.56996  -0.56837  -0.56428  -0.56305
 Alpha  occ. eigenvalues --   -0.55755  -0.55718  -0.55644  -0.55022  -0.54743
 Alpha  occ. eigenvalues --   -0.54658  -0.54239  -0.54122  -0.53799  -0.53752
 Alpha  occ. eigenvalues --   -0.53588  -0.53257  -0.53090  -0.52686  -0.52649
 Alpha  occ. eigenvalues --   -0.50158  -0.49956  -0.46863  -0.46704  -0.45444
 Alpha  occ. eigenvalues --   -0.44224  -0.43781  -0.43388  -0.43106  -0.42793
 Alpha  occ. eigenvalues --   -0.42537  -0.42238  -0.41843  -0.33836  -0.33629
 Alpha  occ. eigenvalues --   -0.28114
 Alpha virt. eigenvalues --    0.02567   0.03359   0.03374   0.03678   0.04596
 Alpha virt. eigenvalues --    0.04768   0.04964   0.05103   0.05288   0.06302
 Alpha virt. eigenvalues --    0.06350   0.06503   0.06594   0.06689   0.07167

  Beta  occ. eigenvalues -- -103.64949 -69.04107 -69.03816 -69.03638 -69.00767
  Beta  occ. eigenvalues --  -11.28050 -11.24368 -11.24324 -11.23636 -11.23568
  Beta  occ. eigenvalues --  -11.23452 -11.20849 -11.20813 -11.20735 -11.20715
  Beta  occ. eigenvalues --  -11.20557 -11.20466 -11.20188 -11.20167 -11.20060
  Beta  occ. eigenvalues --  -10.68232  -8.34044  -8.33682  -8.33620  -6.79402
  Beta  occ. eigenvalues --   -6.79121  -6.78940  -6.76561  -3.90136  -3.90131
  Beta  occ. eigenvalues --   -3.90121  -3.89859  -3.89851  -3.89842  -3.89676
  Beta  occ. eigenvalues --   -3.89663  -3.89660  -3.87251  -3.87245  -3.86891
  Beta  occ. eigenvalues --   -1.16645  -1.10164  -1.01682  -0.97862  -0.96290
  Beta  occ. eigenvalues --   -0.95441  -0.95144  -0.91903  -0.91818  -0.91567
  Beta  occ. eigenvalues --   -0.91370  -0.91282  -0.91072  -0.85288  -0.81089
  Beta  occ. eigenvalues --   -0.73302  -0.68521  -0.65828  -0.62004  -0.61865
  Beta  occ. eigenvalues --   -0.61377  -0.61117  -0.59627  -0.58565  -0.57499
  Beta  occ. eigenvalues --   -0.57292  -0.56808  -0.56511  -0.56401  -0.56236
  Beta  occ. eigenvalues --   -0.55702  -0.55655  -0.55538  -0.54668  -0.54607
  Beta  occ. eigenvalues --   -0.54322  -0.54202  -0.54046  -0.53715  -0.53574
  Beta  occ. eigenvalues --   -0.53264  -0.53070  -0.52963  -0.52668  -0.52626
  Beta  occ. eigenvalues --   -0.49736  -0.48433  -0.46601  -0.46395  -0.45311
  Beta  occ. eigenvalues --   -0.43641  -0.43520  -0.43380  -0.43091  -0.42639
  Beta  occ. eigenvalues --   -0.42423  -0.42234  -0.40102  -0.33571  -0.33390
  Beta virt. eigenvalues --    0.02548   0.03361   0.03374   0.03664   0.04599
  Beta virt. eigenvalues --    0.04719   0.04866   0.05095   0.05269   0.06304
  Beta virt. eigenvalues --    0.06348   0.06458   0.06593   0.06696   0.07155

 Mulliken charges and spin densities:
               1          2
     1  Si   1.256252   0.516881
     2  Si  -0.141836  -0.010198
     3  Si   0.621567  -0.007175
     4  Si   1.016498  -0.007150
     5  C    0.957875  -0.007219
     6  H   -0.406973  -0.000170
     7  H   -0.483505   0.002465
     8  H   -0.502707   0.000470
     9  C    1.073349  -0.008843
    10  H   -0.502356   0.001659
    11  H   -0.402220   0.000118
    12  H   -0.656241  -0.001036
    13  C    0.831502   0.005370
    14  H   -0.500725  -0.007294
    15  H   -0.440530   0.004452
    16  H   -0.428149  -0.002255
    17  C    0.941253  -0.006576
    18  H   -0.403974  -0.000824
    19  H   -0.461471   0.004071
    20  H   -0.463469  -0.001223
    21  C    1.016612  -0.008224
    22  H   -0.451270   0.003056
    23  H   -0.379848  -0.001007
    24  H   -0.567506  -0.002560
    25  C    0.902627   0.008633
    26  H   -0.486772  -0.005064
    27  H   -0.424187   0.003460
    28  H   -0.452585  -0.001700
    29  C    0.989681  -0.002850
    30  H   -0.451483  -0.000628
    31  H   -0.447601   0.003351
    32  H   -0.328825   0.000502
    33  C    1.075947  -0.008963
    34  H   -0.421648   0.001052
    35  H   -0.440815  -0.000476
    36  H   -0.445414  -0.002181
    37  C    0.998136   0.010543
    38  H   -0.417649   0.002999
    39  H   -0.449663  -0.000162
    40  H   -0.407827  -0.004664
    41  H    0.869486  -0.436533
    42  C   -0.375114   1.225769
    43  C    0.613664  -0.171046
    44  Cl  -0.351555  -0.020443
    45  C    0.697081  -0.191406
    46  C    0.233915   0.023629
    47  C    0.553414  -0.020660
    48  C    0.338491   0.031714
    49  H   -0.226910   0.007784
    50  H   -0.100505   0.037497
    51  H   -0.102145   0.035395
    52  H   -0.218245   0.007876
    53  H   -0.382807   0.004261
    54  H   -0.151264   0.000265
    55  H   -0.133315  -0.000592
    56  H   -0.151893  -0.000255
    57  H   -0.265277  -0.003709
    58  H   -0.161069  -0.000188
 Sum of Mulliken charges =   0.00000   1.00000

 Dipole moment (field-independent basis, Debye):
    X=             -0.7658    Y=              2.0274    Z=              0.0636  Tot=              2.1681
                          Isotropic Fermi Contact Couplings
        Atom                 a.u.       MegaHertz       Gauss      10(-4) cm-1
     1  Si(29)             0.20120    -178.80941     -63.80364     -59.64440
     2  Si(29)            -0.00884       7.86025       2.80473       2.62190
     3  Si(29)            -0.00848       7.53418       2.68838       2.51313
     4  Si(29)            -0.00584       5.18991       1.85189       1.73117
     5  C(13)             -0.00091      -1.02583      -0.36604      -0.34218
     6  H(1)              -0.00016      -0.72983      -0.26042      -0.24344
     7  H(1)               0.00005       0.20136       0.07185       0.06717
     8  H(1)              -0.00004      -0.17423      -0.06217      -0.05812

 Normal termination of Gaussian 16 at Wed Apr  9 03:42:17 2025.
