 Gaussian 16, Revision C.01,

 ----------------------------------------------------------------------
 #t hf aug-cc-pvdz symm=none int=(grid=ultrafine) guess=(read,tcheck) s
 table=(opt,rrhf)
 ----------------------------------------------------------------------
 -----
 title
 -----
 Symbolic Z-matrix:
 Charge =  0 Multiplicity = 1

 SCF Done:  E(RHF) =  -726.925290567     A.U. after   16 cycles
 Normal termination of Gaussian 16 at Wed Apr  9 01:07:28 2025.
 Gaussian 16:  ES64L-G16RevC.01  3-Jul-2019

 ----------------------------------------------------------------------
 #t hf aug-cc-pvdz iop(5/13=1,5/36=2,99/5=2) pseudo=read geom=check gue
 ss=(read,tcheck) scf=(maxcycle=1)
 ----------------------------------------------------------------------
 -----
 title
 -----
 Structure from the checkpoint file:  "BH10_312_forward_mol2.chk"
 Charge =  0 Multiplicity = 1

                         Standard orientation:
 ---------------------------------------------------------------------
 Center     Atomic      Atomic             Coordinates (Angstroms)
 Number     Number       Type             X           Y           Z
 ---------------------------------------------------------------------
      1          6           0       -2.213986   -1.203885   -0.333360
      2          6           0       -3.565481   -0.911798   -0.414154
      3          6           0       -4.044454    0.331828   -0.016588
      4          6           0       -3.147538    1.285128    0.446950
      5          6           0       -1.788604    1.010047    0.490426
      6          6           0       -1.290355   -0.241691    0.098845
      7          1           0       -1.849725   -2.187778   -0.604558
      8          1           0       -4.256302   -1.667887   -0.770291
      9          1           0       -5.104784    0.549991   -0.057608
     10          1           0       -3.508145    2.256024    0.768617
     11          1           0       -1.095838    1.762897    0.848955
     12          6           0        0.128714   -0.563614    0.163929
     13          6           0        0.973926    0.254547   -0.493646
     14          1           0        0.730874    1.109924   -1.137236
     15          1           0        3.196946   -0.855607   -1.454233
     16         15           0        2.673589   -0.145144   -0.352329
     17          6           0        3.004636   -1.191317    1.071456
     18          1           0        2.871834   -0.603408    1.979327
     19          1           0        2.250720   -1.977752    1.072716
     20          1           0        4.015558   -1.597320    1.025315
     21          6           0        3.742096    1.317192   -0.279317
     22          1           0        3.563329    1.941359   -1.155616
     23          1           0        3.493119    1.892520    0.612827
     24          1           0        4.794836    1.035588   -0.250524
 ---------------------------------------------------------------------

 SCF Done:  E(RHF) =  -727.070455786     A.U. after    2 cycles

 The electronic state is 1-A.
 Alpha  occ. eigenvalues --  -81.33937 -11.27691 -11.26220 -11.21798 -11.21787
 Alpha  occ. eigenvalues --  -11.21716 -11.21096 -11.20957 -11.20867 -11.20765
 Alpha  occ. eigenvalues --  -11.18632  -7.84041  -4.98227  -4.98176  -4.98153
 Alpha  occ. eigenvalues --   -1.11810  -1.05024  -1.01723  -0.98135  -0.98113
 Alpha  occ. eigenvalues --   -0.95192  -0.82833  -0.79825  -0.76852  -0.70791
 Alpha  occ. eigenvalues --   -0.66478  -0.64359  -0.62832  -0.61874  -0.60218
 Alpha  occ. eigenvalues --   -0.59827  -0.59316  -0.56876  -0.56137  -0.53887
 Alpha  occ. eigenvalues --   -0.51764  -0.51562  -0.48338  -0.46985  -0.45892
 Alpha  occ. eigenvalues --   -0.36260  -0.32896  -0.31438  -0.25557
 Alpha virt. eigenvalues --    0.02097   0.03602   0.03825   0.04522   0.05097
 Alpha virt. eigenvalues --    0.05482   0.06099   0.06543   0.06845   0.06935
 Alpha virt. eigenvalues --    0.07621   0.08524   0.09395   0.10454   0.10890

 Mulliken charges:
               1
     1  C    0.545475
     2  C    0.323501
     3  C    0.501872
     4  C    0.043446
     5  C    0.480865
     6  C    0.954259
     7  H   -0.504765
     8  H   -0.445597
     9  H   -0.451005
    10  H   -0.460923
    11  H   -0.589660
    12  C   -1.137352
    13  C    0.634645
    14  H   -0.642320
    15  H    0.281744
    16  P    0.376893
    17  C    0.432202
    18  H   -0.054884
    19  H   -0.089655
    20  H   -0.155893
    21  C    0.308924
    22  H   -0.135695
    23  H   -0.056066
    24  H   -0.160011
 Sum of Mulliken charges =  -0.00000

 Dipole moment (field-independent basis, Debye):
    X=              7.3275    Y=              1.3647    Z=             -0.6884  Tot=              7.4852

 Test job not archived.
 1\1\GINC-SE368\SP\RHF\Aug-CC-pVDZ\C10H13P1\OHZDE\09-Apr-2025\0\\#t hf
 aug-cc-pvdz iop(5/13=1,5/36=2,99/5=2) pseudo=read geom=check guess=(re
 ad,tcheck) scf=(maxcycle=1)\\title\\0,1\C,0,-2.213986,-1.203885,-0.333
 36\C,0,-3.565481,-0.911798,-0.414154\C,0,-4.044454,0.331828,-0.016588\
 C,0,-3.147538,1.285128,0.44695\C,0,-1.788604,1.010047,0.490426\C,0,-1.
 290355,-0.241691,0.098845\H,0,-1.849725,-2.187778,-0.604558\H,0,-4.256
 302,-1.667887,-0.770291\H,0,-5.104784,0.549991,-0.057608\H,0,-3.508145
 ,2.256024,0.768617\H,0,-1.095838,1.762897,0.848955\C,0,0.128714,-0.563

 Normal termination of Gaussian 16 at Wed Apr  9 01:07:42 2025.
