 Gaussian 16, Revision C.01,

 ----------------------------------------------------------------------
 #t hf aug-cc-pvdz symm=none int=(grid=ultrafine) guess=(read,tcheck) s
 table=(opt,rrhf)
 ----------------------------------------------------------------------
 -----
 title
 -----
 Symbolic Z-matrix:
 Charge =  0 Multiplicity = 1

 SCF Done:  E(RHF) =  -693.156613653     A.U. after   12 cycles
 Normal termination of Gaussian 16 at Wed Apr  9 00:53:17 2025.
 Gaussian 16:  ES64L-G16RevC.01  3-Jul-2019

 ----------------------------------------------------------------------
 #t hf aug-cc-pvdz iop(5/13=1,5/36=2,99/5=2) pseudo=read geom=check gue
 ss=(read,tcheck) scf=(maxcycle=1)
 ----------------------------------------------------------------------
 -----
 title
 -----
 Structure from the checkpoint file:  "BH10-RE_119_mol2.chk"
 Charge =  0 Multiplicity = 1

                         Standard orientation:
 ---------------------------------------------------------------------
 Center     Atomic      Atomic             Coordinates (Angstroms)
 Number     Number       Type             X           Y           Z
 ---------------------------------------------------------------------
      1          6           0       -0.447521    0.429391    0.000019
      2          6           0        0.497666    0.545560   -1.192127
      3          6           0        0.497624    0.545408    1.192211
      4          6           0       -1.607712    1.400539    0.000060
      5          6           0        1.772140   -0.205188   -0.775713
      6          6           0        1.772088   -0.205326    0.775755
      7          1           0        0.709381    1.611130   -1.330540
      8          1           0        0.051051    0.176180   -2.115021
      9          1           0        0.050971    0.175941    2.115052
     10          1           0        0.709363    1.610959    1.330743
     11          1           0       -2.231351    1.265368   -0.884358
     12          1           0       -1.222879    2.423825    0.000136
     13          1           0       -2.231387    1.265251    0.884434
     14          1           0        2.663647    0.268240   -1.188647
     15          1           0        1.748153   -1.227469   -1.153465
     16          1           0        2.663594    0.267974    1.188838
     17          1           0        1.748011   -1.227675    1.153319
     18         17           0       -1.150839   -1.274825   -0.000102
 ---------------------------------------------------------------------

 SCF Done:  E(RHF) =  -693.244670640     A.U. after    2 cycles

 The electronic state is 1-A.
 Alpha  occ. eigenvalues -- -103.63235 -11.30673 -11.23788 -11.23775 -11.23747
 Alpha  occ. eigenvalues --  -11.23009 -11.22965 -10.66560  -8.32261  -8.32008
 Alpha  occ. eigenvalues --   -8.32002  -1.17648  -1.08321  -1.00611  -0.97358
 Alpha  occ. eigenvalues --   -0.90484  -0.78962  -0.74821  -0.66413  -0.65022
 Alpha  occ. eigenvalues --   -0.60774  -0.60323  -0.57468  -0.54482  -0.50157
 Alpha  occ. eigenvalues --   -0.49781  -0.48247  -0.48174  -0.47396  -0.46542
 Alpha  occ. eigenvalues --   -0.43444  -0.42758
 Alpha virt. eigenvalues --    0.03336   0.04312   0.04661   0.05083   0.06313
 Alpha virt. eigenvalues --    0.06554   0.06672   0.06888   0.08491   0.08844
 Alpha virt. eigenvalues --    0.09244   0.10680   0.12324   0.13101   0.14235

 Mulliken charges:
               1
     1  C   -1.977958
     2  C    0.638537
     3  C    0.638553
     4  C    1.131403
     5  C    0.364185
     6  C    0.364195
     7  H   -0.066565
     8  H   -0.154953
     9  H   -0.154953
    10  H   -0.066551
    11  H   -0.014476
    12  H    0.003322
    13  H   -0.014480
    14  H   -0.102162
    15  H   -0.108064
    16  H   -0.102172
    17  H   -0.108083
    18  Cl  -0.269778
 Sum of Mulliken charges =  -0.00000

 Dipole moment (field-independent basis, Debye):
    X=              1.1906    Y=              2.3242    Z=              0.0002  Tot=              2.6114

 Test job not archived.
 1\1\GINC-SE102\SP\RHF\Aug-CC-pVDZ\C6H11Cl1\OHZDE\09-Apr-2025\0\\#t hf
 aug-cc-pvdz iop(5/13=1,5/36=2,99/5=2) pseudo=read geom=check guess=(re
 ad,tcheck) scf=(maxcycle=1)\\title\\0,1\C,0,-0.447521,0.429391,0.00001
 9\C,0,0.497666,0.54556,-1.192127\C,0,0.497624,0.545408,1.192211\C,0,-1
 .607712,1.400539,0.00006\C,0,1.77214,-0.205188,-0.775713\C,0,1.772088,
 -0.205326,0.775755\H,0,0.709381,1.61113,-1.33054\H,0,0.051051,0.17618,
 -2.115021\H,0,0.050971,0.175941,2.115052\H,0,0.709363,1.610959,1.33074
 3\H,0,-2.231351,1.265368,-0.884358\H,0,-1.222879,2.423825,0.000136\H,0

 Normal termination of Gaussian 16 at Wed Apr  9 00:53:25 2025.
