 Gaussian 16, Revision C.01,

 ----------------------------------------------------------------------
 #t hf aug-cc-pvdz symm=none int=(grid=ultrafine) guess=(read,tcheck) s
 table=(opt,rrhf)
 ----------------------------------------------------------------------
 -----
 title
 -----
 Symbolic Z-matrix:
 Charge =  0 Multiplicity = 1

 SCF Done:  E(RHF) =  -1667.48047493     A.U. after   14 cycles
 Normal termination of Gaussian 16 at Wed Apr  9 01:56:39 2025.
 Gaussian 16:  ES64L-G16RevC.01  3-Jul-2019

 ----------------------------------------------------------------------
 #t hf aug-cc-pvdz iop(5/13=1,5/36=2,99/5=2) pseudo=read geom=check gue
 ss=(read,tcheck) scf=(maxcycle=1)
 ----------------------------------------------------------------------
 -----
 title
 -----
 Structure from the checkpoint file:  "BH10_358_reverse_mol2.chk"
 Charge =  0 Multiplicity = 1

                         Standard orientation:
 ---------------------------------------------------------------------
 Center     Atomic      Atomic             Coordinates (Angstroms)
 Number     Number       Type             X           Y           Z
 ---------------------------------------------------------------------
      1          6           0       -0.687031    2.030998   -0.322779
      2          6           0       -0.449015    0.619143    0.143161
      3          6           0        0.804930    0.256833    0.843948
      4          6           0        2.011153    0.364396   -0.189211
      5          6           0        3.314412    0.085713    0.573431
      6          6           0        4.483895    0.192458   -0.373641
      7          7           0       -1.286502   -0.338073   -0.068066
      8          6           0       -2.588944   -0.234682   -0.719624
      9          6           0       -3.714522   -0.048657    0.291450
     10          1           0       -2.738331   -1.149991   -1.294052
     11          1           0       -2.557462    0.593364   -1.427231
     12          6           0       -5.070867    0.049869   -0.395874
     13          1           0       -3.520010    0.849998    0.885484
     14          1           0       -3.712572   -0.892460    0.988448
     15          6           0       -6.207053    0.237490    0.605314
     16          1           0       -5.258754   -0.848507   -0.984876
     17          1           0       -5.065764    0.895389   -1.094067
     18          6           0       -7.601131    0.320696   -0.024326
     19          1           0       -6.043260    1.164473    1.164512
     20          1           0       -6.194059   -0.579397    1.335180
     21          6           0       -8.087711   -1.043373   -0.546790
     22          7           0       -8.632228    0.881735    0.853897
     23          1           0       -7.550960    0.960401   -0.911806
     24          8           0       -7.363452   -1.852086   -1.057705
     25          8           0       -9.395493   -1.236703   -0.405927
     26          1           0       -9.729652   -0.451073    0.077740
     27          8           0        0.271217    2.907808    0.122066
     28          1           0       -1.681194    2.341181    0.023590
     29          1           0       -0.734352    1.977799   -1.425663
     30          1           0        1.157673    2.510428   -0.274574
     31          8           0        0.642673   -1.042110    1.372661
     32          1           0        0.966221    1.006370    1.627379
     33          1           0        1.533226   -1.422091    1.484620
     34          8           0        2.076292    1.547524   -0.821750
     35          1           0        1.850550   -0.504187   -0.867106
     36          8           0        3.271071   -1.227413    1.148656
     37          1           0        3.428986    0.831105    1.368372
     38          1           0        4.124974   -1.405499    1.557413
     39          8           0        5.640593   -0.242915    0.387104
     40          1           0        4.611814    1.217683   -0.711067
     41          1           0        4.350288   -0.472834   -1.230132
     42          1           0       -8.678579    1.890469    0.796159
     43          1           0       -8.476309    0.630583    1.824428
     44         15           0        7.084807   -0.308379   -0.279822
     45          8           0        7.908227   -0.916359    0.955086
     46          1           0        8.696982   -0.401232    1.154657
     47          8           0        6.998877   -1.515550   -1.330871
     48          1           0        6.734685   -2.362922   -0.956758
     49          8           0        7.622755    0.913976   -0.875536
     50          1           0       -0.985903   -1.233689    0.325220
 ---------------------------------------------------------------------

 SCF Done:  E(RHF) =  -1667.96466898     A.U. after    2 cycles

 The electronic state is 1-A.
 Alpha  occ. eigenvalues --  -81.44353 -20.62400 -20.61664 -20.61375 -20.60424
 Alpha  occ. eigenvalues --  -20.58841 -20.58665 -20.56666 -20.52740 -20.52167
 Alpha  occ. eigenvalues --  -20.45297 -15.73151 -15.66412 -11.40430 -11.37410
 Alpha  occ. eigenvalues --  -11.32517 -11.32050 -11.31445 -11.31002 -11.29437
 Alpha  occ. eigenvalues --  -11.28707 -11.27997 -11.27499 -11.27237 -11.26132
 Alpha  occ. eigenvalues --   -7.92219  -5.06930  -5.06819  -5.06803  -1.43239
 Alpha  occ. eigenvalues --   -1.39478  -1.36505  -1.35278  -1.34733  -1.34100
 Alpha  occ. eigenvalues --   -1.32943  -1.31101  -1.29280  -1.25619  -1.22244
 Alpha  occ. eigenvalues --   -1.21195  -1.12088  -1.07001  -1.02724  -1.01730
 Alpha  occ. eigenvalues --   -0.97075  -0.96200  -0.91554  -0.89393  -0.84613
 Alpha  occ. eigenvalues --   -0.83695  -0.83357  -0.82414  -0.80168  -0.77933
 Alpha  occ. eigenvalues --   -0.76816  -0.75546  -0.74423  -0.73797  -0.71626
 Alpha  occ. eigenvalues --   -0.70680  -0.70192  -0.69944  -0.69374  -0.68844
 Alpha  occ. eigenvalues --   -0.67866  -0.66278  -0.65584  -0.65285  -0.65050
 Alpha  occ. eigenvalues --   -0.63947  -0.63166  -0.62630  -0.61991  -0.61490
 Alpha  occ. eigenvalues --   -0.60490  -0.59754  -0.58955  -0.58267  -0.57876
 Alpha  occ. eigenvalues --   -0.57261  -0.56849  -0.56227  -0.55848  -0.54848
 Alpha  occ. eigenvalues --   -0.54567  -0.53610  -0.52283  -0.51924  -0.51794
 Alpha  occ. eigenvalues --   -0.51145  -0.50505  -0.50065  -0.49652  -0.48860
 Alpha  occ. eigenvalues --   -0.48050  -0.47787  -0.47259  -0.45904  -0.44304
 Alpha  occ. eigenvalues --   -0.43581  -0.36995  -0.36443
 Alpha virt. eigenvalues --    0.01163   0.02142   0.02600   0.03130   0.03374
 Alpha virt. eigenvalues --    0.04023   0.04336   0.05020   0.05190   0.05665
 Alpha virt. eigenvalues --    0.06155   0.06271   0.06647   0.07018   0.07295

 Mulliken charges:
               1
     1  C    1.149829
     2  C   -0.169532
     3  C    0.518668
     4  C    0.412710
     5  C    0.567586
     6  C    1.152523
     7  N   -0.404221
     8  C    0.753750
     9  C    0.217556
    10  H   -0.300294
    11  H   -0.251527
    12  C    0.623114
    13  H   -0.249904
    14  H   -0.194918
    15  C    0.428064
    16  H   -0.201899
    17  H   -0.161495
    18  C    0.602473
    19  H   -0.177593
    20  H   -0.124650
    21  C    0.537053
    22  N   -0.627333
    23  H   -0.064099
    24  O   -0.456895
    25  O   -0.482680
    26  H    0.259948
    27  O   -0.720708
    28  H   -0.051533
    29  H    0.106658
    30  H    0.431898
    31  O   -0.721149
    32  H   -0.073000
    33  H    0.259895
    34  O   -1.117589
    35  H   -0.126940
    36  O   -0.736272
    37  H   -0.202143
    38  H    0.178192
    39  O   -1.283571
    40  H   -0.120931
    41  H   -0.113772
    42  H    0.080290
    43  H    0.080279
    44  P    2.499398
    45  O   -0.615411
    46  H    0.143439
    47  O   -0.678665
    48  H    0.157258
    49  O   -0.832151
    50  H    0.100294
 Sum of Mulliken charges =   0.00000

 Dipole moment (field-independent basis, Debye):
    X=             -8.8016    Y=             -2.2947    Z=              5.2244  Tot=             10.4894

 Test job not archived.
 1\1\GINC-SE396\SP\RHF\Aug-CC-pVDZ\C12H25N2O10P1\OHZDE\09-Apr-2025\0\\#
 t hf aug-cc-pvdz iop(5/13=1,5/36=2,99/5=2) pseudo=read geom=check gues
 s=(read,tcheck) scf=(maxcycle=1)\\title\\0,1\C,0,-0.687031,2.030998,-0
 .322779\C,0,-0.449015,0.619143,0.143161\C,0,0.80493,0.256833,0.843948\
 C,0,2.011153,0.364396,-0.189211\C,0,3.314412,0.085713,0.573431\C,0,4.4
 83895,0.192458,-0.373641\N,0,-1.286502,-0.338073,-0.068066\C,0,-2.5889
 44,-0.234682,-0.719624\C,0,-3.714522,-0.048657,0.29145\H,0,-2.738331,-
 1.149991,-1.294052\H,0,-2.557462,0.593364,-1.427231\C,0,-5.070867,0.04

 Normal termination of Gaussian 16 at Wed Apr  9 01:58:30 2025.
