 Gaussian 16, Revision C.01,

 ----------------------------------------------------------------------
 #t hf aug-cc-pvdz symm=none int=(grid=ultrafine) guess=(read,tcheck) s
 table=(opt,rrhf)
 ----------------------------------------------------------------------
 -----
 title
 -----
 Symbolic Z-matrix:
 Charge =  0 Multiplicity = 1

 SCF Done:  E(RHF) =  -1125.16563879     A.U. after   15 cycles
 Normal termination of Gaussian 16 at Wed Apr  9 01:53:54 2025.
 Gaussian 16:  ES64L-G16RevC.01  3-Jul-2019

 ----------------------------------------------------------------------
 #t hf aug-cc-pvdz iop(5/13=1,5/36=2,99/5=2) pseudo=read geom=check gue
 ss=(read,tcheck) scf=(maxcycle=1)
 ----------------------------------------------------------------------
 -----
 title
 -----
 Structure from the checkpoint file:  "BH10_297_forward_mol1.chk"
 Charge =  0 Multiplicity = 1

                         Standard orientation:
 ---------------------------------------------------------------------
 Center     Atomic      Atomic             Coordinates (Angstroms)
 Number     Number       Type             X           Y           Z
 ---------------------------------------------------------------------
      1          6           0        1.710966   -2.792700   -0.758595
      2          6           0        0.834357   -2.104453    0.314562
      3          6           0        2.827710    0.213955   -0.135770
      4          1           0        1.077283   -3.424784   -1.390719
      5          6           0        1.492524   -2.168841    1.705632
      6          1           0        0.843263   -1.661196    2.427486
      7          1           0        1.547366   -3.216762    2.024381
      8          1           0        3.420566    1.119175   -0.297496
      9          1           0       -0.077853   -2.707104    0.415037
     10          1           0       -0.266302   -0.214814    0.968700
     11          6           0        2.894806   -1.579772    1.795901
     12          1           0        3.233786   -1.656378    2.833976
     13          1           0        3.586467   -2.201336    1.220405
     14          6           0        3.042588   -0.123259    1.358114
     15          1           0        2.378805    0.499616    1.965194
     16          1           0        4.060600    0.186346    1.616995
     17          6           0        3.442057   -0.835838   -1.094191
     18          1           0        3.884038   -0.295370   -1.937501
     19          6           0        2.498838   -1.879385   -1.701841
     20          1           0        1.790054   -1.359839   -2.353383
     21          1           0        3.091851   -2.511821   -2.370964
     22          1           0        4.280353   -1.335812   -0.599025
     23          1           0        2.400035   -3.490324   -0.269046
     24          6           0        1.365978    0.565200   -0.521820
     25          1           0        1.368423    0.613492   -1.618071
     26         14           0        0.852884    2.321611   -0.052750
     27          6           0        0.466498    2.559253    1.775171
     28          1           0        1.361405    2.475054    2.395278
     29          1           0        0.046228    3.555158    1.941243
     30          1           0       -0.259258    1.828846    2.138807
     31          6           0       -0.687704    2.787701   -1.037953
     32          1           0       -0.959543    3.829094   -0.845546
     33          1           0       -0.515555    2.692538   -2.113903
     34          1           0       -1.554310    2.175477   -0.780792
     35          6           0        2.206570    3.544637   -0.523849
     36          1           0        2.509718    3.422063   -1.567343
     37          1           0        1.855788    4.572871   -0.400708
     38          1           0        3.098654    3.426975    0.095693
     39          5           0        0.350379   -0.597816   -0.006067
     40          6           0       -1.597081   -0.556274   -0.402787
     41          6           0       -2.590536   -0.354681    0.422475
     42          1           0       -2.445063   -0.112076    1.464233
     43          6           0       -0.875271   -0.823731   -1.486014
     44          1           0       -0.676075   -0.036042   -2.200522
     45          1           0       -0.728263   -1.846240   -1.807749
     46          6           0       -3.980905   -0.454737   -0.088806
     47          8           0       -4.302817   -0.716079   -1.216564
     48          8           0       -4.849938   -0.206243    0.900080
     49          6           0       -6.234399   -0.267466    0.539560
     50          1           0       -6.485752   -1.262393    0.173130
     51          1           0       -6.783275   -0.042749    1.449671
     52          1           0       -6.455642    0.465791   -0.235488
 ---------------------------------------------------------------------

 SCF Done:  E(RHF) =  -1125.44607766     A.U. after    2 cycles

 The electronic state is 1-A.
 Alpha  occ. eigenvalues --  -69.02746 -20.63337 -20.57322 -11.41484 -11.34625
 Alpha  occ. eigenvalues --  -11.30765 -11.28958 -11.28372 -11.22143 -11.21530
 Alpha  occ. eigenvalues --  -11.21303 -11.21262 -11.21131 -11.20993 -11.20890
 Alpha  occ. eigenvalues --  -11.19950 -11.19679 -11.19593 -11.19345 -11.18002
 Alpha  occ. eigenvalues --   -7.57363  -6.78112  -3.88810  -3.88801  -3.88783
 Alpha  occ. eigenvalues --   -1.44057  -1.34295  -1.14090  -1.09242  -1.04501
 Alpha  occ. eigenvalues --   -1.02758  -1.02399  -0.98139  -0.95840  -0.93157
 Alpha  occ. eigenvalues --   -0.91098  -0.90808  -0.90325  -0.85972  -0.83239
 Alpha  occ. eigenvalues --   -0.79126  -0.77753  -0.76968  -0.73066  -0.71119
 Alpha  occ. eigenvalues --   -0.70487  -0.70045  -0.67624  -0.65986  -0.64784
 Alpha  occ. eigenvalues --   -0.63263  -0.62663  -0.61448  -0.59999  -0.59137
 Alpha  occ. eigenvalues --   -0.57832  -0.57468  -0.56717  -0.56435  -0.56150
 Alpha  occ. eigenvalues --   -0.55690  -0.55424  -0.55292  -0.53913  -0.53237
 Alpha  occ. eigenvalues --   -0.52851  -0.52398  -0.50478  -0.49413  -0.49142
 Alpha  occ. eigenvalues --   -0.48507  -0.47826  -0.46899  -0.45856  -0.45336
 Alpha  occ. eigenvalues --   -0.43807  -0.42833  -0.42282  -0.41988  -0.40827
 Alpha  occ. eigenvalues --   -0.40748  -0.39536  -0.39023  -0.35902
 Alpha virt. eigenvalues --    0.02670   0.03344   0.03596   0.03804   0.04487
 Alpha virt. eigenvalues --    0.04987   0.05107   0.05229   0.05471   0.05950
 Alpha virt. eigenvalues --    0.06183   0.06407   0.06720   0.07101   0.07259

 Mulliken charges:
               1
     1  C    0.395888
     2  C   -0.026161
     3  C   -0.210879
     4  H   -0.221326
     5  C    0.587046
     6  H   -0.030731
     7  H   -0.181384
     8  H   -0.293609
     9  H    0.038072
    10  H    0.334934
    11  C    0.272466
    12  H   -0.224583
    13  H   -0.036658
    14  C    0.904467
    15  H   -0.168559
    16  H   -0.309171
    17  C    0.385928
    18  H   -0.190568
    19  C    0.872088
    20  H    0.001078
    21  H   -0.298420
    22  H   -0.126228
    23  H   -0.167566
    24  C    0.299189
    25  H   -0.213248
    26  Si  -0.814788
    27  C    1.087040
    28  H   -0.304340
    29  H   -0.432762
    30  H   -0.248168
    31  C    1.092825
    32  H   -0.453503
    33  H   -0.263017
    34  H   -0.313464
    35  C    1.067467
    36  H   -0.246221
    37  H   -0.514967
    38  H   -0.336599
    39  B   -1.579934
    40  C   -1.164681
    41  C    1.376260
    42  H   -0.723396
    43  C    1.657091
    44  H    0.068303
    45  H   -0.022363
    46  C    0.208678
    47  O   -0.425921
    48  O   -0.537239
    49  C    0.867986
    50  H   -0.079726
    51  H   -0.277697
    52  H   -0.078929
 Sum of Mulliken charges =   0.00000

 Dipole moment (field-independent basis, Debye):
    X=             -2.0912    Y=              0.0122    Z=              0.5146  Tot=              2.1537

 Test job not archived.
 1\1\GINC-SE340\SP\RHF\Aug-CC-pVDZ\C17H31B1O2Si1\OHZDE\09-Apr-2025\0\\#
 t hf aug-cc-pvdz iop(5/13=1,5/36=2,99/5=2) pseudo=read geom=check gues
 s=(read,tcheck) scf=(maxcycle=1)\\title\\0,1\C,0,1.710966,-2.7927,-0.7
 58595\C,0,0.834357,-2.104453,0.314562\C,0,2.82771,0.213955,-0.13577\H,
 0,1.077283,-3.424784,-1.390719\C,0,1.492524,-2.168841,1.705632\H,0,0.8
 43263,-1.661196,2.427486\H,0,1.547366,-3.216762,2.024381\H,0,3.420566,
 1.119175,-0.297496\H,0,-0.077853,-2.707104,0.415037\H,0,-0.266302,-0.2
 14814,0.9687\C,0,2.894806,-1.579772,1.795901\H,0,3.233786,-1.656378,2.

 Normal termination of Gaussian 16 at Wed Apr  9 01:56:17 2025.
