 Gaussian 16, Revision C.01,

 ----------------------------------------------------------------------
 #t hf aug-cc-pvdz symm=none int=(grid=ultrafine) guess=(read,tcheck) s
 table=(opt,rrhf)
 ----------------------------------------------------------------------
 -----
 title
 -----
 Symbolic Z-matrix:
 Charge =  0 Multiplicity = 1

 SCF Done:  E(RHF) =  -833.164940479     A.U. after   13 cycles
 Normal termination of Gaussian 16 at Wed Apr  9 00:54:23 2025.
 Gaussian 16:  ES64L-G16RevC.01  3-Jul-2019

 ----------------------------------------------------------------------
 #t hf aug-cc-pvdz iop(5/13=1,5/36=2,99/5=2) pseudo=read geom=check gue
 ss=(read,tcheck) scf=(maxcycle=1)
 ----------------------------------------------------------------------
 -----
 title
 -----
 Structure from the checkpoint file:  "BH10_107_reverse_mol3.chk"
 Charge =  0 Multiplicity = 1

                         Standard orientation:
 ---------------------------------------------------------------------
 Center     Atomic      Atomic             Coordinates (Angstroms)
 Number     Number       Type             X           Y           Z
 ---------------------------------------------------------------------
      1          9           0        1.871725   -0.652518   -0.000002
      2         16           0        0.997302    0.736788    0.000001
      3          6           0       -0.638626   -0.043836    0.000000
      4          9           0       -1.512847    0.969162   -0.000001
      5          9           0       -0.853054   -0.798633    1.072499
      6          9           0       -0.853055   -0.798632   -1.072499
 ---------------------------------------------------------------------

 SCF Done:  E(RHF) =  -833.349700171     A.U. after    2 cycles

 The electronic state is 1-A.
 Alpha  occ. eigenvalues --  -93.66844 -26.20300 -26.19486 -26.19474 -26.17042
 Alpha  occ. eigenvalues --  -11.57685  -8.95812  -6.29985  -6.29631  -6.29140
 Alpha  occ. eigenvalues --   -1.79937  -1.72925  -1.72341  -1.68649  -1.10619
 Alpha  occ. eigenvalues --   -1.00102  -0.91850  -0.91532  -0.87350  -0.80667
 Alpha  occ. eigenvalues --   -0.80328  -0.77512  -0.77394  -0.75844  -0.75825
 Alpha  occ. eigenvalues --   -0.74665  -0.71524  -0.55576  -0.43526
 Alpha virt. eigenvalues --    0.03754   0.06523   0.08356   0.09915   0.10985
 Alpha virt. eigenvalues --    0.11200   0.12129   0.13891   0.19835   0.21867
 Alpha virt. eigenvalues --    0.22570   0.23689   0.27244   0.27689   0.29195

 Mulliken charges:
               1
     1  F   -0.589902
     2  S    0.812000
     3  C    0.536344
     4  F   -0.248767
     5  F   -0.254837
     6  F   -0.254837
 Sum of Mulliken charges =  -0.00000

 Dipole moment (field-independent basis, Debye):
    X=              0.2644    Y=              1.7186    Z=              0.0000  Tot=              1.7388

 Test job not archived.
 1\1\GINC-SE222\SP\RHF\Aug-CC-pVDZ\C1F4S1\OHZDE\09-Apr-2025\0\\#t hf au
 g-cc-pvdz iop(5/13=1,5/36=2,99/5=2) pseudo=read geom=check guess=(read
 ,tcheck) scf=(maxcycle=1)\\title\\0,1\F,0,-1.871725,-0.652518,0.000002
 \S,0,-0.997302,0.736788,-0.000001\C,0,0.638626,-0.043836,0.\F,0,1.5128
 47,0.969162,0.000001\F,0,0.853054,-0.798633,-1.072499\F,0,0.853055,-0.
 798632,1.072499\\Version=ES64L-G16RevC.01\State=1-A\HF=-833.3497002\RM
 SD=5.967e-03\Dipole=-0.1040154,0.6761606,-0.0000015\Quadrupole=-0.4485
 692,0.8772071,-0.4286379,-1.6352191,0.0000023,-0.0000041\PG=C01 [X(C1F

 Normal termination of Gaussian 16 at Wed Apr  9 00:54:25 2025.
