 Gaussian 16, Revision C.01,

 ----------------------------------------------------------------------
 #t hf aug-cc-pvdz symm=none int=(grid=ultrafine) guess=(read,tcheck) s
 table=(opt,rrhf)
 ----------------------------------------------------------------------
 -----
 title
 -----
 Symbolic Z-matrix:
 Charge =  0 Multiplicity = 1

 SCF Done:  E(RHF) =  -1125.28076311     A.U. after   15 cycles
 Normal termination of Gaussian 16 at Wed Apr  9 02:00:09 2025.
 Gaussian 16:  ES64L-G16RevC.01  3-Jul-2019

 ----------------------------------------------------------------------
 #t hf aug-cc-pvdz iop(5/13=1,5/36=2,99/5=2) pseudo=read geom=check gue
 ss=(read,tcheck) scf=(maxcycle=1)
 ----------------------------------------------------------------------
 -----
 title
 -----
 Structure from the checkpoint file:  "BH10_300_forward_mol2.chk"
 Charge =  0 Multiplicity = 1

                         Standard orientation:
 ---------------------------------------------------------------------
 Center     Atomic      Atomic             Coordinates (Angstroms)
 Number     Number       Type             X           Y           Z
 ---------------------------------------------------------------------
      1          6           0        0.119974   -2.817476    0.101194
      2          6           0       -0.204308   -1.488519    0.837928
      3          6           0        2.561577   -0.686739   -0.340166
      4          1           0       -0.820892   -3.250305   -0.247757
      5          6           0        0.597200   -1.313426    2.146251
      6          1           0        0.445228   -0.301056    2.536511
      7          1           0        0.164516   -1.986374    2.894288
      8          1           0        3.435075   -0.238635   -0.822912
      9          1           0       -1.254359   -1.535584    1.137462
     10          6           0        2.091589   -1.608353    2.071440
     11          1           0        2.504429   -1.531845    3.082206
     12          1           0        2.238263   -2.651701    1.779235
     13          6           0        2.919834   -0.710839    1.157300
     14          1           0        2.901102    0.310427    1.548466
     15          1           0        3.962466   -1.036660    1.238010
     16          6           0        2.442975   -2.112615   -0.938079
     17          1           0        2.905723   -2.104840   -1.929785
     18          6           0        1.037993   -2.700113   -1.122841
     19          1           0        0.518111   -2.112554   -1.889101
     20          1           0        1.151299   -3.696733   -1.560713
     21          1           0        3.049362   -2.799903   -0.338966
     22          1           0        0.536277   -3.540344    0.809554
     23          6           0        1.353918    0.209126   -0.689513
     24          1           0        1.258736    0.249225   -1.785536
     25         14           0        1.562388    2.064576   -0.293402
     26          6           0        0.944563    2.505841    1.430124
     27          1           0        1.515817    2.017248    2.221565
     28          1           0        1.016514    3.585084    1.590212
     29          1           0       -0.105072    2.228257    1.556759
     30          6           0        0.562471    3.047826   -1.540400
     31          1           0        0.638872    4.120839   -1.345440
     32          1           0        0.916666    2.869400   -2.559211
     33          1           0       -0.491041    2.766189   -1.499289
     34          6           0        3.371479    2.554328   -0.447720
     35          1           0        3.758411    2.325012   -1.444059
     36          1           0        3.483213    3.630794   -0.291803
     37          1           0        4.007251    2.047125    0.280633
     38          5           0       -0.022074   -0.297885   -0.171814
     39          6           0       -3.113602    0.744922    0.503388
     40          6           0       -4.510404    0.491985    0.802823
     41          1           0       -4.986467   -0.297546    0.230800
     42          6           0       -5.213159    1.157555    1.718174
     43          1           0       -4.767565    1.948955    2.311462
     44          1           0       -6.255377    0.931364    1.902698
     45          6           0       -2.410037    0.052894   -0.392429
     46          8           0       -1.122489    0.358008   -0.706588
     47          8           0       -2.918177   -1.008664   -1.053620
     48          6           0       -2.669837   -1.062463   -2.457498
     49          1           0       -3.189147   -1.947095   -2.817730
     50          1           0       -3.069388   -0.172004   -2.949621
     51          1           0       -1.604028   -1.148654   -2.670833
     52          1           0       -2.595074    1.528924    1.041395
 ---------------------------------------------------------------------

 SCF Done:  E(RHF) =  -1125.56360895     A.U. after    2 cycles

 The electronic state is 1-A.
 Alpha  occ. eigenvalues --  -69.04072 -20.60454 -20.59505 -11.36400 -11.29960
 Alpha  occ. eigenvalues --  -11.23956 -11.23253 -11.22858 -11.22669 -11.22470
 Alpha  occ. eigenvalues --  -11.22433 -11.22386 -11.22203 -11.22201 -11.22088
 Alpha  occ. eigenvalues --  -11.20433 -11.20327 -11.20136 -11.19721 -11.18803
 Alpha  occ. eigenvalues --   -7.62440  -6.79374  -3.90074  -3.90055  -3.90049
 Alpha  occ. eigenvalues --   -1.41043  -1.33273  -1.10654  -1.07807  -1.03988
 Alpha  occ. eigenvalues --   -1.03717  -1.00470  -0.97060  -0.94536  -0.93757
 Alpha  occ. eigenvalues --   -0.91727  -0.91477  -0.91167  -0.88196  -0.84175
 Alpha  occ. eigenvalues --   -0.79925  -0.78648  -0.76536  -0.73878  -0.72126
 Alpha  occ. eigenvalues --   -0.70278  -0.68518  -0.66441  -0.64337  -0.63721
 Alpha  occ. eigenvalues --   -0.62755  -0.61342  -0.60293  -0.59863  -0.59431
 Alpha  occ. eigenvalues --   -0.58016  -0.57588  -0.57427  -0.56735  -0.56499
 Alpha  occ. eigenvalues --   -0.56308  -0.55477  -0.54831  -0.54680  -0.53647
 Alpha  occ. eigenvalues --   -0.53071  -0.52704  -0.52152  -0.50159  -0.49781
 Alpha  occ. eigenvalues --   -0.49277  -0.48914  -0.48199  -0.47251  -0.46277
 Alpha  occ. eigenvalues --   -0.44703  -0.43389  -0.43359  -0.42987  -0.42039
 Alpha  occ. eigenvalues --   -0.41692  -0.41122  -0.38334  -0.30214
 Alpha virt. eigenvalues --    0.02594   0.03369   0.03620   0.03760   0.04589
 Alpha virt. eigenvalues --    0.04693   0.04916   0.05140   0.05463   0.06157
 Alpha virt. eigenvalues --    0.06325   0.06640   0.06817   0.07126   0.07265

 Mulliken charges:
               1
     1  C    0.409243
     2  C    0.281293
     3  C   -0.101445
     4  H   -0.237723
     5  C    0.551954
     6  H   -0.079351
     7  H   -0.213607
     8  H   -0.336215
     9  H   -0.298247
    10  C    0.371407
    11  H   -0.238509
    12  H   -0.024425
    13  C    0.689243
    14  H   -0.178362
    15  H   -0.185426
    16  C    0.407594
    17  H   -0.162894
    18  C    0.895559
    19  H    0.156250
    20  H   -0.304690
    21  H   -0.134482
    22  H   -0.188203
    23  C    0.671180
    24  H   -0.345475
    25  Si  -0.596436
    26  C    1.251147
    27  H   -0.271429
    28  H   -0.408844
    29  H   -0.656597
    30  C    0.941281
    31  H   -0.423582
    32  H   -0.241068
    33  H   -0.287885
    34  C    1.058097
    35  H   -0.318055
    36  H   -0.517568
    37  H   -0.257400
    38  B    0.056657
    39  C    1.877415
    40  C    0.784466
    41  H   -0.655259
    42  C    0.828064
    43  H   -0.401894
    44  H   -0.362082
    45  C   -1.206891
    46  O   -0.760009
    47  O   -0.667527
    48  C    1.089477
    49  H   -0.270650
    50  H   -0.040462
    51  H   -0.321670
    52  H   -0.625967
 Sum of Mulliken charges =   0.00000

 Dipole moment (field-independent basis, Debye):
    X=              1.3581    Y=             -0.8887    Z=             -1.3026  Tot=              2.0811

 Test job not archived.
 1\1\GINC-SE084\SP\RHF\Aug-CC-pVDZ\C17H31B1O2Si1\OHZDE\09-Apr-2025\0\\#
 t hf aug-cc-pvdz iop(5/13=1,5/36=2,99/5=2) pseudo=read geom=check gues
 s=(read,tcheck) scf=(maxcycle=1)\\title\\0,1\C,0,0.119974,-2.817476,0.
 101194\C,0,-0.204308,-1.488519,0.837928\C,0,2.561577,-0.686739,-0.3401
 66\H,0,-0.820892,-3.250305,-0.247757\C,0,0.5972,-1.313426,2.146251\H,0
 ,0.445228,-0.301056,2.536511\H,0,0.164516,-1.986374,2.894288\H,0,3.435
 075,-0.238635,-0.822912\H,0,-1.254359,-1.535584,1.137462\C,0,2.091589,
 -1.608353,2.07144\H,0,2.504429,-1.531845,3.082206\H,0,2.238263,-2.6517

 Normal termination of Gaussian 16 at Wed Apr  9 02:03:17 2025.
