 Gaussian 16, Revision C.01,

 ----------------------------------------------------------------------
 #t hf aug-cc-pvdz symm=none int=(grid=ultrafine) guess=(read,tcheck) s
 table=opt
 ----------------------------------------------------------------------
 -----
 title
 -----
 Symbolic Z-matrix:
 Charge =  0 Multiplicity = 2

 SCF Done:  E(UHF) =  -485.851368897     A.U. after   15 cycles
 Normal termination of Gaussian 16 at Wed Apr  9 01:00:06 2025.
 Gaussian 16:  ES64L-G16RevC.01  3-Jul-2019

 ----------------------------------------------------------------------
 #t hf aug-cc-pvdz iop(5/13=1,5/36=2,99/5=2) pseudo=read geom=check gue
 ss=(read,tcheck) scf=(maxcycle=1)
 ----------------------------------------------------------------------
 -----
 title
 -----
 Structure from the checkpoint file:  "BH10_274_reverse_mol2.chk"
 Charge =  0 Multiplicity = 2

                         Standard orientation:
 ---------------------------------------------------------------------
 Center     Atomic      Atomic             Coordinates (Angstroms)
 Number     Number       Type             X           Y           Z
 ---------------------------------------------------------------------
      1         14           0        0.372306   -0.000000   -0.011711
      2          6           0        0.434312   -1.537267   -1.085904
      3          1           0        0.388833   -2.446634   -0.481003
      4          1           0       -0.402569   -1.561388   -1.787631
      5          1           0        1.358465   -1.573546   -1.668468
      6          6           0        1.818815   -0.000003    1.187649
      7          1           0        2.772866   -0.000000    0.653911
      8          1           0        1.801065    0.882539    1.832212
      9          1           0        1.801066   -0.882551    1.832205
     10          6           0        0.434301    1.537284   -1.085881
     11          1           0       -0.402579    1.561409   -1.787610
     12          1           0        0.388814    2.446642   -0.480966
     13          1           0        1.358455    1.573579   -1.668442
     14          6           0       -1.248388   -0.000015    0.992823
     15          6           0       -2.454368   -0.000000    0.140868
     16          1           0       -1.218849   -0.881944    1.642519
     17          1           0       -1.218848    0.881891    1.642550
     18          1           0       -2.873521   -0.925641   -0.231338
     19          1           0       -2.873513    0.925653   -0.231314
 ---------------------------------------------------------------------

 SCF Done:  E(UHF) =  -485.942251909     A.U. after    2 cycles

 The electronic state is 2-A.
 Alpha  occ. eigenvalues --  -69.04051 -11.23416 -11.21162 -11.20504 -11.20412
 Alpha  occ. eigenvalues --  -11.20408  -6.79322  -3.90163  -3.90058  -3.90057
 Alpha  occ. eigenvalues --   -1.02194  -0.95316  -0.91639  -0.91592  -0.82744
 Alpha  occ. eigenvalues --   -0.62304  -0.62180  -0.57236  -0.56655  -0.56264
 Alpha  occ. eigenvalues --   -0.55270  -0.53951  -0.53363  -0.52964  -0.50284
 Alpha  occ. eigenvalues --   -0.46715  -0.42764  -0.42628  -0.31454
 Alpha virt. eigenvalues --    0.02919   0.04487   0.04526   0.04708   0.06494
 Alpha virt. eigenvalues --    0.06532   0.06603   0.06801   0.06907   0.08960
 Alpha virt. eigenvalues --    0.08970   0.09067   0.09604   0.11212   0.11896

  Beta  occ. eigenvalues --  -69.03977 -11.21431 -11.21016 -11.20478 -11.20416
  Beta  occ. eigenvalues --  -11.20413  -6.79201  -3.90014  -3.90000  -3.89910
  Beta  occ. eigenvalues --   -0.99029  -0.94541  -0.91588  -0.91585  -0.77781
  Beta  occ. eigenvalues --   -0.61333  -0.61227  -0.56927  -0.56301  -0.56173
  Beta  occ. eigenvalues --   -0.54783  -0.53894  -0.52945  -0.52792  -0.49689
  Beta  occ. eigenvalues --   -0.42686  -0.42611  -0.42349
  Beta virt. eigenvalues --    0.02932   0.04535   0.04547   0.04710   0.06483
  Beta virt. eigenvalues --    0.06547   0.06611   0.06706   0.06810   0.08862
  Beta virt. eigenvalues --    0.08965   0.09071   0.09610   0.10318   0.11510

 Mulliken charges and spin densities:
               1          2
     1  Si   0.982024   0.023156
     2  C    0.580813  -0.004268
     3  H   -0.308430   0.000993
     4  H   -0.265162  -0.002663
     5  H   -0.313876  -0.003813
     6  C    0.621154   0.008193
     7  H   -0.296989  -0.000834
     8  H   -0.289446  -0.000873
     9  H   -0.289443  -0.000873
    10  C    0.580808  -0.004268
    11  H   -0.265159  -0.002663
    12  H   -0.308429   0.000993
    13  H   -0.313879  -0.003813
    14  C    0.481698  -0.183300
    15  C    0.564048   1.405368
    16  H   -0.242616   0.010719
    17  H   -0.242621   0.010720
    18  H   -0.337245  -0.126386
    19  H   -0.337248  -0.126386
 Sum of Mulliken charges =  -0.00000   1.00000

 Dipole moment (field-independent basis, Debye):
    X=              0.4053    Y=             -0.0000    Z=             -0.0182  Tot=              0.4057
                          Isotropic Fermi Contact Couplings
        Atom                 a.u.       MegaHertz       Gauss      10(-4) cm-1
     1  Si(29)             0.09797     -87.06783     -31.06797     -29.04270
     2  C(13)             -0.00203      -2.28660      -0.81592      -0.76273
     3  H(1)               0.00012       0.51689       0.18444       0.17242
     4  H(1)              -0.00008      -0.37368      -0.13334      -0.12464
     5  H(1)              -0.00024      -1.06967      -0.38169      -0.35680
     6  C(13)              0.00450       5.06333       1.80672       1.68895
     7  H(1)               0.00058       2.61474       0.93300       0.87218
     8  H(1)              -0.00020      -0.87610      -0.31261      -0.29224

 Normal termination of Gaussian 16 at Wed Apr  9 01:00:14 2025.
