 Gaussian 16, Revision C.01,

 ----------------------------------------------------------------------
 #t hf aug-cc-pvdz symm=none int=(grid=ultrafine) guess=(read,tcheck) s
 table=opt
 ----------------------------------------------------------------------
 -----
 title
 -----
 Symbolic Z-matrix:
 Charge =  0 Multiplicity = 2

 SCF Done:  E(UHF) =  -558.544165738     A.U. after   23 cycles
 Normal termination of Gaussian 16 at Wed Apr  9 01:00:11 2025.
 Gaussian 16:  ES64L-G16RevC.01  3-Jul-2019

 ----------------------------------------------------------------------
 #t hf aug-cc-pvdz iop(5/13=1,5/36=2,99/5=2) pseudo=read geom=check gue
 ss=(read,tcheck) scf=(maxcycle=1)
 ----------------------------------------------------------------------
 -----
 title
 -----
 Structure from the checkpoint file:  "BH10_273_forward_mol1.chk"
 Charge =  0 Multiplicity = 2

                         Standard orientation:
 ---------------------------------------------------------------------
 Center     Atomic      Atomic             Coordinates (Angstroms)
 Number     Number       Type             X           Y           Z
 ---------------------------------------------------------------------
      1          6           0        1.015292    0.273427    1.820316
      2          1           0        1.990610    0.745535    1.972916
      3          1           0        0.253249    0.924844    2.252571
      4          1           0        1.005932   -0.666822    2.375086
      5          6           0        1.911730   -1.223986   -0.749669
      6          1           0        1.895592   -2.179387   -0.221432
      7          1           0        1.686205   -1.416860   -1.800422
      8          1           0        2.930242   -0.827737   -0.692902
      9          6           0        0.650208    1.601938   -0.955633
     10          1           0        1.619214    2.107644   -0.903221
     11          1           0        0.418447    1.435242   -2.009795
     12          1           0       -0.101404    2.279567   -0.545339
     13         14           0        0.693988   -0.011696   -0.001610
     14          1           0       -0.840200   -0.650255   -0.119404
     15          8           0       -2.089418   -0.963529   -0.162056
     16          8           0       -2.785613    0.208670    0.132499
     17          1           0       -3.036853    0.542567   -0.739156
 ---------------------------------------------------------------------

 SCF Done:  E(UHF) =  -558.658545507     A.U. after    2 cycles

 The electronic state is 2-A.
 Alpha  occ. eigenvalues --  -69.05841 -20.66155 -20.63974 -11.21747 -11.21737
 Alpha  occ. eigenvalues --  -11.21450  -6.81135  -3.92315  -3.91735  -3.91732
 Alpha  occ. eigenvalues --   -1.45140  -1.17257  -0.96909  -0.92816  -0.92626
 Alpha  occ. eigenvalues --   -0.76223  -0.73665  -0.64693  -0.62752  -0.58047
 Alpha  occ. eigenvalues --   -0.57245  -0.57047  -0.55334  -0.55172  -0.54008
 Alpha  occ. eigenvalues --   -0.52425  -0.51626  -0.44418  -0.44305  -0.36195
 Alpha virt. eigenvalues --    0.02872   0.04126   0.04705   0.05005   0.06348
 Alpha virt. eigenvalues --    0.06670   0.06897   0.07500   0.07850   0.09116
 Alpha virt. eigenvalues --    0.09471   0.10657   0.11737   0.12567   0.14230

  Beta  occ. eigenvalues --  -69.05533 -20.64008 -20.62667 -11.21697 -11.21692
  Beta  occ. eigenvalues --  -11.21407  -6.80681  -3.91539  -3.91536  -3.91038
  Beta  occ. eigenvalues --   -1.40863  -1.10101  -0.96390  -0.92611  -0.92430
  Beta  occ. eigenvalues --   -0.73015  -0.65682  -0.61484  -0.59610  -0.57169
  Beta  occ. eigenvalues --   -0.56997  -0.56828  -0.54978  -0.54858  -0.53953
  Beta  occ. eigenvalues --   -0.48939  -0.43931  -0.43821  -0.42987
  Beta virt. eigenvalues --    0.02684   0.04129   0.04722   0.05011   0.06272
  Beta virt. eigenvalues --    0.06475   0.06681   0.06910   0.07571   0.08026
  Beta virt. eigenvalues --    0.09121   0.09795   0.10733   0.11782   0.12659

 Mulliken charges and spin densities:
               1          2
     1  C    0.447035   0.016385
     2  H   -0.227217   0.007322
     3  H   -0.291628  -0.003982
     4  H   -0.297267  -0.002891
     5  C    0.428872   0.017783
     6  H   -0.301333  -0.001497
     7  H   -0.311081  -0.002852
     8  H   -0.226974   0.008154
     9  C    0.425637   0.013951
    10  H   -0.242715   0.006576
    11  H   -0.307966  -0.003638
    12  H   -0.291331  -0.003044
    13  Si   1.289541   0.398050
    14  H    0.190361  -0.103865
    15  O   -0.242942   0.698479
    16  O   -0.272113  -0.041992
    17  H    0.231120  -0.002938
 Sum of Mulliken charges =  -0.00000   1.00000

 Dipole moment (field-independent basis, Debye):
    X=              1.7766    Y=              1.3180    Z=             -1.3456  Tot=              2.5893
                          Isotropic Fermi Contact Couplings
        Atom                 a.u.       MegaHertz       Gauss      10(-4) cm-1
     1  C(13)              0.00958      10.77300       3.84407       3.59348
     2  H(1)               0.00462      20.67137       7.37606       6.89523
     3  H(1)              -0.00003      -0.12201      -0.04354      -0.04070
     4  H(1)              -0.00010      -0.46629      -0.16638      -0.15554
     5  C(13)              0.01168      13.12889       4.68472       4.37933
     6  H(1)              -0.00011      -0.49021      -0.17492      -0.16352
     7  H(1)              -0.00013      -0.57336      -0.20459      -0.19125
     8  H(1)               0.00496      22.14874       7.90322       7.38802

 Normal termination of Gaussian 16 at Wed Apr  9 01:00:18 2025.
