 Gaussian 16, Revision C.01,

 ----------------------------------------------------------------------
 #t hf aug-cc-pvdz symm=none int=(grid=ultrafine) guess=(read,tcheck) s
 table=(opt,rrhf)
 ----------------------------------------------------------------------
 -----
 title
 -----
 Symbolic Z-matrix:
 Charge =  0 Multiplicity = 1

 SCF Done:  E(RHF) =  -1035.31447795     A.U. after   15 cycles
 Normal termination of Gaussian 16 at Wed Apr  9 01:40:32 2025.
 Gaussian 16:  ES64L-G16RevC.01  3-Jul-2019

 ----------------------------------------------------------------------
 #t hf aug-cc-pvdz iop(5/13=1,5/36=2,99/5=2) pseudo=read geom=check gue
 ss=(read,tcheck) scf=(maxcycle=1)
 ----------------------------------------------------------------------
 -----
 title
 -----
 Structure from the checkpoint file:  "BH10_289_forward_mol2.chk"
 Charge =  0 Multiplicity = 1

                         Standard orientation:
 ---------------------------------------------------------------------
 Center     Atomic      Atomic             Coordinates (Angstroms)
 Number     Number       Type             X           Y           Z
 ---------------------------------------------------------------------
      1          6           0       -1.527963   -2.295721   -0.562245
      2          1           0       -2.259279   -2.677975    0.145096
      3          1           0       -0.871262   -0.893044    0.953330
      4          6           0        0.733656   -2.543045   -0.725713
      5          8           0        1.797867   -3.068374   -0.864529
      6          6           0        2.005034    0.543294   -1.187258
      7          8           0        2.990989    1.418505   -0.869191
      8          8           0        1.777798   -0.226679    1.043826
      9          1           0        3.271272   -1.256130    3.653891
     10          1           0        2.209482    0.162555    3.576102
     11          1           0        3.840447   -1.803660   -0.003910
     12          1           0        4.974338   -1.516639    1.336919
     13          6           0        1.890324    3.595247   -0.922784
     14          1           0        1.350175    2.442127    0.753103
     15          1           0        1.740145    4.523997   -1.467870
     16          1           0       -1.588266    0.169838   -1.813029
     17          6           0       -2.944148    0.465138   -0.170456
     18          6           0       -4.389713    1.101525    1.659955
     19          6           0       -5.345456    0.277725   -0.380755
     20          1           0       -3.952944   -0.240724   -1.926480
     21          1           0       -6.500326    0.877837    1.326629
     22          1           0       -2.251036    1.228742    1.711852
     23          1           0       -1.980740   -2.220782   -1.554255
     24          6           0       -0.893641   -0.972928   -0.139505
     25          7           0        0.466283   -1.184168   -0.640310
     26          8           0       -0.434582   -3.219642   -0.631665
     27          6           0        1.486185   -0.281330   -0.289046
     28          1           0        1.674770    0.509788   -2.219838
     29          5           0        3.007472   -0.529233    1.603722
     30          6           0        3.101067   -0.298914    3.148581
     31          1           0        3.970428    0.320453    3.391621
     32          6           0        4.183154   -1.071134    0.731463
     33          1           0        4.622747   -0.240193    0.168937
     34          6           0        2.906914    2.673042   -1.526335
     35          6           0        1.209953    3.355621    0.187282
     36          1           0        0.496234    4.075738    0.567522
     37          6           0       -1.557283    0.266845   -0.724853
     38          1           0       -0.933531    1.134594   -0.497457
     39          6           0       -3.119897    0.954509    1.122753
     40          6           0       -5.507744    0.761422    0.909019
     41          6           0       -4.071584    0.131146   -0.914538
     42          1           0       -6.212066    0.015973   -0.975947
     43          1           0       -4.508098    1.486433    2.665752
     44          1           0        3.904285    3.112598   -1.457345
     45          1           0        2.692173    2.518698   -2.591991
 ---------------------------------------------------------------------

 SCF Done:  E(RHF) =  -1035.63507092     A.U. after    2 cycles

 The electronic state is 1-A.
 Alpha  occ. eigenvalues --  -20.61929 -20.60611 -20.59077 -20.54582 -15.66347
 Alpha  occ. eigenvalues --  -11.41616 -11.33409 -11.31377 -11.31334 -11.30450
 Alpha  occ. eigenvalues --  -11.29879 -11.26224 -11.25559 -11.25496 -11.25480
 Alpha  occ. eigenvalues --  -11.25476 -11.25247 -11.25173 -11.25130 -11.24215
 Alpha  occ. eigenvalues --  -11.19282 -11.17936  -7.62204  -1.43650  -1.38751
 Alpha  occ. eigenvalues --   -1.35839  -1.33645  -1.23091  -1.16250  -1.08742
 Alpha  occ. eigenvalues --   -1.07540  -1.03484  -1.02253  -1.01298  -0.95481
 Alpha  occ. eigenvalues --   -0.95235  -0.93940  -0.90942  -0.86809  -0.85937
 Alpha  occ. eigenvalues --   -0.84204  -0.81145  -0.79698  -0.78042  -0.75094
 Alpha  occ. eigenvalues --   -0.73479  -0.72868  -0.70943  -0.69732  -0.68315
 Alpha  occ. eigenvalues --   -0.67331  -0.65758  -0.65454  -0.64711  -0.63424
 Alpha  occ. eigenvalues --   -0.62150  -0.61411  -0.60900  -0.60116  -0.59651
 Alpha  occ. eigenvalues --   -0.58547  -0.58319  -0.57312  -0.57101  -0.55599
 Alpha  occ. eigenvalues --   -0.55110  -0.52928  -0.52814  -0.52177  -0.52009
 Alpha  occ. eigenvalues --   -0.51155  -0.50828  -0.50726  -0.50314  -0.49987
 Alpha  occ. eigenvalues --   -0.49834  -0.47511  -0.47097  -0.44068  -0.41191
 Alpha  occ. eigenvalues --   -0.38326  -0.35303  -0.35281  -0.34215
 Alpha virt. eigenvalues --    0.02476   0.02980   0.03203   0.04057   0.04269
 Alpha virt. eigenvalues --    0.04616   0.04935   0.05379   0.05769   0.06140
 Alpha virt. eigenvalues --    0.06342   0.06557   0.07036   0.07784   0.07886

 Mulliken charges:
               1
     1  C    1.287693
     2  H   -0.188244
     3  H   -0.483016
     4  C    0.644666
     5  O   -0.473537
     6  C    0.878920
     7  O   -0.726069
     8  O   -1.188627
     9  H   -0.102125
    10  H   -0.340577
    11  H   -0.134680
    12  H   -0.354906
    13  C    0.468860
    14  H   -0.614980
    15  H   -0.416401
    16  H   -0.132565
    17  C    0.912707
    18  C   -0.137040
    19  C    0.349751
    20  H   -0.646373
    21  H   -0.448041
    22  H   -0.643960
    23  H   -0.169981
    24  C   -0.413954
    25  N   -0.482788
    26  O   -0.687899
    27  C    1.128693
    28  H   -0.576727
    29  B    0.366637
    30  C    0.674317
    31  H   -0.137834
    32  C    0.630095
    33  H   -0.094651
    34  C    0.704370
    35  C    0.765663
    36  H   -0.376116
    37  C    0.322776
    38  H   -0.201448
    39  C    0.916949
    40  C    0.861134
    41  C    0.448148
    42  H   -0.472040
    43  H   -0.493058
    44  H   -0.221339
    45  H   -0.002405
 Sum of Mulliken charges =  -0.00000

 Dipole moment (field-independent basis, Debye):
    X=             -3.7129    Y=              4.9623    Z=             -0.8668  Tot=              6.2579

 Test job not archived.
 1\1\GINC-SE103\SP\RHF\Aug-CC-pVDZ\C17H22B1N1O4\OHZDE\09-Apr-2025\0\\#t
  hf aug-cc-pvdz iop(5/13=1,5/36=2,99/5=2) pseudo=read geom=check guess
 =(read,tcheck) scf=(maxcycle=1)\\title\\0,1\C,0,-1.527963,-2.295721,-0
 .562245\H,0,-2.259279,-2.677975,0.145096\H,0,-0.871262,-0.893044,0.953
 33\C,0,0.733656,-2.543045,-0.725713\O,0,1.797867,-3.068374,-0.864529\C
 ,0,2.005034,0.543294,-1.187258\O,0,2.990989,1.418505,-0.869191\O,0,1.7
 77798,-0.226679,1.043826\H,0,3.271272,-1.25613,3.653891\H,0,2.209482,0
 .162555,3.576102\H,0,3.840447,-1.80366,-0.00391\H,0,4.974338,-1.516639

 Normal termination of Gaussian 16 at Wed Apr  9 01:42:42 2025.
