 Gaussian 16, Revision C.01,

 ----------------------------------------------------------------------
 #t hf aug-cc-pvdz symm=none int=(grid=ultrafine) guess=(read,tcheck) s
 table=(opt,rrhf)
 ----------------------------------------------------------------------
 -----
 title
 -----
 Symbolic Z-matrix:
 Charge = -1 Multiplicity = 1

 SCF Done:  E(RHF) =  -1399.57937199     A.U. after   15 cycles
 Normal termination of Gaussian 16 at Wed Apr  9 01:25:04 2025.
 Gaussian 16:  ES64L-G16RevC.01  3-Jul-2019

 ----------------------------------------------------------------------
 #t hf aug-cc-pvdz iop(5/13=1,5/36=2,99/5=2) pseudo=read geom=check gue
 ss=(read,tcheck) scf=(maxcycle=1)
 ----------------------------------------------------------------------
 -----
 title
 -----
 Structure from the checkpoint file:  "BH10_314_forward_mol1.chk"
 Charge = -1 Multiplicity = 1

                         Standard orientation:
 ---------------------------------------------------------------------
 Center     Atomic      Atomic             Coordinates (Angstroms)
 Number     Number       Type             X           Y           Z
 ---------------------------------------------------------------------
      1          6           0       -1.135946    0.929262    0.299092
      2          6           0       -2.471279    0.185214    0.232725
      3          6           0       -2.191636   -1.238412    0.722038
      4          1           0       -3.160607    0.668733    0.927694
      5          6           0       -1.022685   -1.890133   -0.027472
      6          6           0        0.087685   -1.054690   -0.332315
      7          8           0       -0.207697    0.353973   -0.565767
      8          6           0       -1.246893    2.402360   -0.119373
      9          6           0        1.128728   -1.479783   -1.309273
     10          1           0        0.950771   -0.851869    0.825036
     11          8           0        2.495166   -1.218626   -0.885764
     12          1           0        0.995254   -0.971806   -2.269768
     13          1           0        1.062175   -2.556688   -1.447817
     14         15           0        2.904092   -0.090802    0.195536
     15          8           0        4.323481   -0.170104    0.558456
     16          8           0        1.818014   -0.271356    1.328121
     17          8           0        2.567192    1.323448   -0.510588
     18          1           0        1.615255    1.469781   -0.627455
     19          8           0       -1.082923   -3.111491   -0.208076
     20          8           0       -3.327959   -2.062769    0.609425
     21          1           0       -1.878460   -1.179681    1.770239
     22          1           0       -2.961986   -2.922715    0.339163
     23          8           0       -2.242766    3.069935   -0.074476
     24          8           0       -0.050811    2.905977   -0.471013
     25          1           0       -0.164535    3.852929   -0.626705
     26          8           0       -0.686996    0.955141    1.636130
     27          1           0        0.280904    0.825471    1.651491
     28          6           0       -3.063550    0.192223   -1.172364
     29          1           0       -3.957756   -0.429516   -1.188108
     30          1           0       -3.332255    1.202977   -1.479904
     31          1           0       -2.354304   -0.214853   -1.896848
 ---------------------------------------------------------------------

 SCF Done:  E(RHF) =  -1399.97611738     A.U. after    2 cycles

 The electronic state is 1-A.
 Alpha  occ. eigenvalues --  -81.29621 -20.54908 -20.49381 -20.48864 -20.48262
 Alpha  occ. eigenvalues --  -20.46644 -20.46493 -20.46397 -20.43791 -20.43417
 Alpha  occ. eigenvalues --  -20.38193 -11.31721 -11.27821 -11.22367 -11.19158
 Alpha  occ. eigenvalues --  -11.19032 -11.15070 -11.14556 -11.13066  -7.77426
 Alpha  occ. eigenvalues --   -4.92126  -4.92041  -4.92011  -1.35690  -1.29393
 Alpha  occ. eigenvalues --   -1.25450  -1.24460  -1.24103  -1.21072  -1.20044
 Alpha  occ. eigenvalues --   -1.19846  -1.16511  -1.11505  -0.98550  -0.94334
 Alpha  occ. eigenvalues --   -0.86044  -0.85420  -0.78728  -0.75942  -0.71761
 Alpha  occ. eigenvalues --   -0.67368  -0.66595  -0.64983  -0.63964  -0.63538
 Alpha  occ. eigenvalues --   -0.61750  -0.59574  -0.58417  -0.57042  -0.56570
 Alpha  occ. eigenvalues --   -0.55915  -0.55154  -0.54117  -0.53290  -0.52169
 Alpha  occ. eigenvalues --   -0.49526  -0.49147  -0.47875  -0.46334  -0.45271
 Alpha  occ. eigenvalues --   -0.45220  -0.44766  -0.44307  -0.43615  -0.43104
 Alpha  occ. eigenvalues --   -0.42467  -0.41469  -0.41015  -0.40745  -0.39854
 Alpha  occ. eigenvalues --   -0.39248  -0.36803  -0.36619  -0.34975  -0.34957
 Alpha  occ. eigenvalues --   -0.34355  -0.30742  -0.22014
 Alpha virt. eigenvalues --    0.10680   0.11665   0.12569   0.12900   0.13382
 Alpha virt. eigenvalues --    0.14245   0.14637   0.15192   0.15566   0.16075
 Alpha virt. eigenvalues --    0.16928   0.18165   0.18989   0.19342   0.19542

 Mulliken charges:
               1
     1  C    0.031566
     2  C   -0.469279
     3  C    0.770635
     4  H   -0.166416
     5  C    0.198381
     6  C   -0.836938
     7  O   -0.878141
     8  C    0.802372
     9  C    1.410582
    10  H    0.843133
    11  O   -0.958760
    12  H   -0.100139
    13  H   -0.216218
    14  P    2.481602
    15  O   -0.940115
    16  O   -1.036290
    17  O   -0.602312
    18  H    0.226803
    19  O   -0.718728
    20  O   -0.697608
    21  H    0.014983
    22  H    0.206620
    23  O   -0.497883
    24  O   -0.631001
    25  H    0.236497
    26  O   -0.571911
    27  H    0.196362
    28  C    0.961476
    29  H   -0.016724
    30  H   -0.051025
    31  H    0.008475
 Sum of Mulliken charges =  -1.00000

 Dipole moment (field-independent basis, Debye):
    X=             -6.2734    Y=              3.7260    Z=             -2.9500  Tot=              7.8703

 Test job not archived.
 1\1\GINC-SE250\SP\RHF\Aug-CC-pVDZ\C8H12O10P1(1-)\OHZDE\09-Apr-2025\0\\
 #t hf aug-cc-pvdz iop(5/13=1,5/36=2,99/5=2) pseudo=read geom=check gue
 ss=(read,tcheck) scf=(maxcycle=1)\\title\\-1,1\C,0,-1.135946,0.929262,
 0.299092\C,0,-2.471279,0.185214,0.232725\C,0,-2.191636,-1.238412,0.722
 038\H,0,-3.160607,0.668733,0.927694\C,0,-1.022685,-1.890133,-0.027472\
 C,0,0.087685,-1.05469,-0.332315\O,0,-0.207697,0.353973,-0.565767\C,0,-
 1.246893,2.40236,-0.119373\C,0,1.128728,-1.479783,-1.309273\H,0,0.9507
 71,-0.851869,0.825036\O,0,2.495166,-1.218626,-0.885764\H,0,0.995254,-0

 Normal termination of Gaussian 16 at Wed Apr  9 01:26:00 2025.
