 Gaussian 16, Revision C.01,

 ----------------------------------------------------------------------
 #t hf aug-cc-pvdz symm=none int=(grid=ultrafine) guess=(read,tcheck) s
 table=(opt,rrhf)
 ----------------------------------------------------------------------
 -----
 title
 -----
 Symbolic Z-matrix:
 Charge =  0 Multiplicity = 1

 SCF Done:  E(RHF) =  -1035.30771551     A.U. after   16 cycles
 Normal termination of Gaussian 16 at Wed Apr  9 01:42:15 2025.
 Gaussian 16:  ES64L-G16RevC.01  3-Jul-2019

 ----------------------------------------------------------------------
 #t hf aug-cc-pvdz iop(5/13=1,5/36=2,99/5=2) pseudo=read geom=check gue
 ss=(read,tcheck) scf=(maxcycle=1)
 ----------------------------------------------------------------------
 -----
 title
 -----
 Structure from the checkpoint file:  "BH10_288_forward_mol2.chk"
 Charge =  0 Multiplicity = 1

                         Standard orientation:
 ---------------------------------------------------------------------
 Center     Atomic      Atomic             Coordinates (Angstroms)
 Number     Number       Type             X           Y           Z
 ---------------------------------------------------------------------
      1          6           0       -1.818134    3.190624   -0.333852
      2          1           0       -2.043497    3.948716    0.413211
      3          1           0       -0.998937    1.968089    1.248595
      4          6           0       -1.022616   -0.362533   -0.249253
      5          1           0        0.076810   -0.555340   -2.013337
      6          6           0        1.369029   -2.661969   -1.590669
      7          1           0        2.838868   -1.571949   -0.373255
      8          1           0        2.985954   -1.438923   -3.438046
      9          5           0       -2.160740   -1.934436    1.232731
     10          6           0       -2.782400   -2.764236    0.064969
     11          1           0       -3.568306   -3.438596    0.409398
     12          6           0       -2.369105   -2.272475    2.747159
     13          1           0       -1.794508   -1.633600    3.419889
     14          6           0       -2.772552    1.189310   -0.841477
     15          8           0       -3.590614    0.396963   -1.202322
     16          1           0        0.752646    3.459073    0.098470
     17          6           0        1.665014    1.585196    0.495077
     18          6           0        2.489723    0.013987    2.134172
     19          6           0        4.024868    1.052735    0.617292
     20          1           0        3.167099    2.414309   -0.792747
     21          1           0        4.604884   -0.360598    2.130746
     22          1           0        0.436386    0.536790    1.922314
     23          1           0       -1.426329    3.667498   -1.236708
     24          6           0       -0.871458    2.101548    0.168991
     25          7           0       -1.440596    0.949999   -0.539887
     26          6           0       -0.215905   -1.011886   -1.076312
     27          8           0        0.259684   -2.244110   -0.791518
     28          6           0        2.561409   -1.778412   -1.402749
     29          6           0        3.256258   -1.258311   -2.402266
     30          1           0        4.124231   -0.636936   -2.220582
     31          8           0       -1.383082   -0.818003    0.988234
     32          1           0       -1.999065   -3.372897   -0.399319
     33          1           0       -3.185601   -2.115435   -0.716805
     34          1           0       -2.110358   -3.317373    2.946531
     35          1           0       -3.430295   -2.177743    3.003019
     36          8           0       -3.028611    2.508799   -0.668663
     37          6           0        0.578721    2.408849   -0.166067
     38          1           0        0.692116    2.348706   -1.252651
     39          6           0        1.437541    0.711414    1.552314
     40          6           0        3.786416    0.182386    1.673806
     41          6           0        2.972683    1.741418    0.036127
     42          1           0        5.032840    1.193687    0.245094
     43          1           0        2.286589   -0.669096    2.950224
     44          1           0        1.577498   -3.677793   -1.252994
     45          1           0        1.072882   -2.703473   -2.644909
 ---------------------------------------------------------------------

 SCF Done:  E(RHF) =  -1035.62759311     A.U. after    2 cycles

 The electronic state is 1-A.
 Alpha  occ. eigenvalues --  -20.62061 -20.60255 -20.58641 -20.54569 -15.66286
 Alpha  occ. eigenvalues --  -11.41552 -11.32630 -11.31795 -11.30795 -11.30228
 Alpha  occ. eigenvalues --  -11.30076 -11.26105 -11.25970 -11.25050 -11.25045
 Alpha  occ. eigenvalues --  -11.24846 -11.24690 -11.24657 -11.24618 -11.24335
 Alpha  occ. eigenvalues --  -11.19105 -11.17790  -7.61889  -1.43754  -1.38224
 Alpha  occ. eigenvalues --   -1.35412  -1.33689  -1.22958  -1.15693  -1.08588
 Alpha  occ. eigenvalues --   -1.07578  -1.03507  -1.01753  -1.01456  -0.95193
 Alpha  occ. eigenvalues --   -0.94886  -0.93339  -0.90755  -0.86987  -0.85595
 Alpha  occ. eigenvalues --   -0.83182  -0.80762  -0.79815  -0.78492  -0.75011
 Alpha  occ. eigenvalues --   -0.73537  -0.73061  -0.70988  -0.69449  -0.67581
 Alpha  occ. eigenvalues --   -0.66430  -0.65265  -0.64585  -0.64071  -0.63617
 Alpha  occ. eigenvalues --   -0.63230  -0.61584  -0.60462  -0.59744  -0.59540
 Alpha  occ. eigenvalues --   -0.58748  -0.58036  -0.57223  -0.56394  -0.55457
 Alpha  occ. eigenvalues --   -0.55276  -0.53791  -0.52341  -0.52083  -0.51757
 Alpha  occ. eigenvalues --   -0.51288  -0.50844  -0.50455  -0.49791  -0.49215
 Alpha  occ. eigenvalues --   -0.49055  -0.47710  -0.47154  -0.43727  -0.41187
 Alpha  occ. eigenvalues --   -0.38648  -0.35459  -0.34502  -0.32928
 Alpha virt. eigenvalues --    0.02496   0.03097   0.03361   0.03721   0.04695
 Alpha virt. eigenvalues --    0.04841   0.05011   0.05292   0.05597   0.06320
 Alpha virt. eigenvalues --    0.06592   0.06920   0.07092   0.07379   0.07680

 Mulliken charges:
               1
     1  C    1.374166
     2  H   -0.100503
     3  H   -0.349230
     4  C    1.289194
     5  H   -0.589860
     6  C    0.797060
     7  H   -0.514175
     8  H   -0.371097
     9  B    0.431571
    10  C    0.597009
    11  H   -0.359269
    12  C    0.638211
    13  H   -0.361333
    14  C    0.685593
    15  O   -0.469054
    16  H    0.079961
    17  C   -0.693977
    18  C    0.086841
    19  C    0.516661
    20  H   -0.790595
    21  H   -0.534804
    22  H   -0.887278
    23  H   -0.189195
    24  C    0.058364
    25  N   -0.364465
    26  C    0.598287
    27  O   -0.719784
    28  C    1.205116
    29  C    0.419763
    30  H   -0.400094
    31  O   -1.304527
    32  H   -0.093501
    33  H   -0.109176
    34  H   -0.170172
    35  H   -0.099222
    36  O   -0.653718
    37  C    0.471060
    38  H    0.055629
    39  C    0.838411
    40  C    0.797538
    41  C    0.875216
    42  H   -0.525282
    43  H   -0.580720
    44  H   -0.304948
    45  H   -0.279673
 Sum of Mulliken charges =  -0.00000

 Dipole moment (field-independent basis, Debye):
    X=              5.8287    Y=              1.7296    Z=             -0.1700  Tot=              6.0823

 Test job not archived.
 1\1\GINC-SE457\SP\RHF\Aug-CC-pVDZ\C17H22B1N1O4\OHZDE\09-Apr-2025\0\\#t
  hf aug-cc-pvdz iop(5/13=1,5/36=2,99/5=2) pseudo=read geom=check guess
 =(read,tcheck) scf=(maxcycle=1)\\title\\0,1\C,0,-1.818134,3.190624,-0.
 333852\H,0,-2.043497,3.948716,0.413211\H,0,-0.998937,1.968089,1.248595
 \C,0,-1.022616,-0.362533,-0.249253\H,0,0.07681,-0.55534,-2.013337\C,0,
 1.369029,-2.661969,-1.590669\H,0,2.838868,-1.571949,-0.373255\H,0,2.98
 5954,-1.438923,-3.438046\B,0,-2.16074,-1.934436,1.232731\C,0,-2.7824,-
 2.764236,0.064969\H,0,-3.568306,-3.438596,0.409398\C,0,-2.369105,-2.27

 Normal termination of Gaussian 16 at Wed Apr  9 01:44:33 2025.
