 Gaussian 16, Revision C.01,

 ----------------------------------------------------------------------
 #t hf aug-cc-pvdz symm=none int=(grid=ultrafine) guess=(read,tcheck) s
 table=(opt,rrhf)
 ----------------------------------------------------------------------
 -----
 title
 -----
 Symbolic Z-matrix:
 Charge =  1 Multiplicity = 1

 SCF Done:  E(RHF) =  -465.335381584     A.U. after   13 cycles
 Normal termination of Gaussian 16 at Wed Apr  9 00:59:14 2025.
 Gaussian 16:  ES64L-G16RevC.01  3-Jul-2019

 ----------------------------------------------------------------------
 #t hf aug-cc-pvdz iop(5/13=1,5/36=2,99/5=2) pseudo=read geom=check gue
 ss=(read,tcheck) scf=(maxcycle=1)
 ----------------------------------------------------------------------
 -----
 title
 -----
 Structure from the checkpoint file:  "BH10_134_forward_mol2.chk"
 Charge =  1 Multiplicity = 1

                         Standard orientation:
 ---------------------------------------------------------------------
 Center     Atomic      Atomic             Coordinates (Angstroms)
 Number     Number       Type             X           Y           Z
 ---------------------------------------------------------------------
      1          9           0        2.633259   -0.000029   -0.000047
      2          7           0        1.244324   -0.000008   -0.000019
      3          6           0        0.792095   -0.729374   -1.226229
      4          6           0       -0.736200   -0.894168   -1.123632
      5          6           0       -1.290797    0.000030    0.000007
      6          6           0        0.792132    1.426666   -0.018561
      7          6           0       -0.736200    1.420245   -0.212443
      8          6           0       -2.811523    0.000004   -0.000070
      9          1           0       -3.202346   -1.015156    0.092436
     10          6           0        0.792120   -0.697233    1.244802
     11          6           0       -0.736213   -0.526100    1.336194
     12          1           0        1.335850   -1.671701   -1.239432
     13          1           0        1.109501   -0.123034   -2.072644
     14          1           0       -0.989513   -1.936695   -0.926199
     15          1           0       -1.187477   -0.626329   -2.078986
     16          1           0        1.335845    1.909253   -0.828075
     17          1           0        1.109593    1.856523    0.929727
     18          1           0       -0.989664    1.770693   -1.213914
     19          1           0       -1.187415    2.113561    0.497357
     20          1           0       -3.202307    0.427426   -0.925515
     21          1           0       -3.202428    0.587720    0.832775
     22          1           0        1.335827   -0.237432    2.067472
     23          1           0        1.109574   -1.733413    1.142990
     24          1           0       -0.989665    0.165947    2.140457
     25          1           0       -1.187451   -1.487465    1.581698
 ---------------------------------------------------------------------

 SCF Done:  E(RHF) =  -465.479478752     A.U. after    2 cycles

 The electronic state is 1-A.
 Alpha  occ. eigenvalues --  -26.35452 -16.01181 -11.46922 -11.46922 -11.46919
 Alpha  occ. eigenvalues --  -11.41471 -11.40571 -11.40571 -11.40555 -11.36435
 Alpha  occ. eigenvalues --   -1.88356  -1.46489  -1.27278  -1.22435  -1.22434
 Alpha  occ. eigenvalues --   -1.11267  -1.06893  -1.06892  -1.01890  -0.96761
 Alpha  occ. eigenvalues --   -0.94357  -0.94357  -0.86965  -0.86461  -0.86461
 Alpha  occ. eigenvalues --   -0.77418  -0.76750  -0.76750  -0.76679  -0.74705
 Alpha  occ. eigenvalues --   -0.74704  -0.72285  -0.72285  -0.67087  -0.67087
 Alpha  occ. eigenvalues --   -0.66081  -0.62955  -0.61387  -0.61386
 Alpha virt. eigenvalues --   -0.07645  -0.06481  -0.06481  -0.05748  -0.03875
 Alpha virt. eigenvalues --   -0.03875  -0.03364  -0.03364  -0.03252  -0.01520
 Alpha virt. eigenvalues --   -0.00842  -0.00813  -0.00813  -0.00075  -0.00075

 Mulliken charges:
               1
     1  F   -0.403570
     2  N   -1.378712
     3  C    0.961428
     4  C    0.579932
     5  C   -3.516834
     6  C    0.961340
     7  C    0.579998
     8  C    2.203704
     9  H    0.021229
    10  C    0.961483
    11  C    0.579955
    12  H   -0.104751
    13  H    0.011301
    14  H    0.018014
    15  H   -0.121860
    16  H   -0.104784
    17  H    0.011258
    18  H    0.017858
    19  H   -0.121805
    20  H    0.021180
    21  H    0.021183
    22  H   -0.104794
    23  H    0.011283
    24  H    0.017827
    25  H   -0.121861
 Sum of Mulliken charges =   1.00000

 Dipole moment (field-independent basis, Debye):
    X=              0.0640    Y=              0.0001    Z=              0.0001  Tot=              0.0640

 Test job not archived.
 1\1\GINC-SE455\SP\RHF\Aug-CC-pVDZ\C8H15F1N1(1+)\OHZDE\09-Apr-2025\0\\#
 t hf aug-cc-pvdz iop(5/13=1,5/36=2,99/5=2) pseudo=read geom=check gues
 s=(read,tcheck) scf=(maxcycle=1)\\title\\1,1\F,0,-2.633259,0.000029,-0
 .000047\N,0,-1.244324,0.000008,-0.000019\C,0,-0.792095,0.727693,-1.227
 227\C,0,0.7362,0.892628,-1.124856\C,0,1.290797,-0.00003,0.000007\C,0,-
 0.792132,-1.42669,-0.016607\C,0,0.7362,-1.420535,-0.210497\C,0,2.81152
 3,-0.000004,-0.00007\H,0,3.202346,1.015281,0.091046\C,0,-0.79212,0.698
 938,1.243846\C,0,0.736213,0.52793,1.335472\H,0,-1.33585,1.670002,-1.24

 Normal termination of Gaussian 16 at Wed Apr  9 00:59:32 2025.
