 Gaussian 16, Revision C.01,

 ----------------------------------------------------------------------
 #t hf aug-cc-pvdz symm=none int=(grid=ultrafine) guess=(read,tcheck) s
 table=(opt,rrhf)
 ----------------------------------------------------------------------
 -----
 title
 -----
 Symbolic Z-matrix:
 Charge =  0 Multiplicity = 1

 SCF Done:  E(RHF) =  -807.846128690     A.U. after   15 cycles
 Normal termination of Gaussian 16 at Wed Apr  9 00:57:30 2025.
 Gaussian 16:  ES64L-G16RevC.01  3-Jul-2019

 ----------------------------------------------------------------------
 #t hf aug-cc-pvdz iop(5/13=1,5/36=2,99/5=2) pseudo=read geom=check gue
 ss=(read,tcheck) scf=(maxcycle=1)
 ----------------------------------------------------------------------
 -----
 title
 -----
 Structure from the checkpoint file:  "BH10_138_forward_mol2.chk"
 Charge =  0 Multiplicity = 1

                         Standard orientation:
 ---------------------------------------------------------------------
 Center     Atomic      Atomic             Coordinates (Angstroms)
 Number     Number       Type             X           Y           Z
 ---------------------------------------------------------------------
      1         17           0       -2.042366   -1.579995    0.237173
      2          6           0       -1.134534   -0.021336   -0.160634
      3          6           0        0.304996   -0.444918   -0.469572
      4          6           0       -1.185284    0.804298    1.092980
      5          6           0       -1.707756    2.014736    1.211298
      6          1           0        0.282564   -1.180878   -1.278014
      7          1           0        0.710084   -0.952347    0.408668
      8          6           0        1.221358    0.714474   -0.851465
      9          1           0        0.905419    1.150578   -1.802174
     10          6           0        2.683738    0.272113   -0.996363
     11          1           0        1.161242    1.505331   -0.100094
     12          1           0        3.281713    1.106749   -1.371666
     13          1           0        2.758053   -0.524069   -1.743921
     14          6           0        3.267713   -0.197666    0.256165
     15          6           0        3.729174   -0.575047    1.294147
     16          1           0        4.144950   -0.913051    2.211880
     17          6           0       -1.833151    0.600642   -1.356102
     18          1           0       -1.361122    1.548631   -1.620432
     19          1           0       -2.885006    0.785731   -1.141987
     20          1           0       -1.769146   -0.067898   -2.214862
     21          1           0       -0.724008    0.330759    1.954841
     22          1           0       -2.180750    2.529050    0.383890
     23          1           0       -1.681286    2.537543    2.159195
 ---------------------------------------------------------------------

 SCF Done:  E(RHF) =  -807.971501066     A.U. after    2 cycles

 The electronic state is 1-A.
 Alpha  occ. eigenvalues -- -103.63721 -11.31984 -11.26772 -11.25498 -11.24783
 Alpha  occ. eigenvalues --  -11.24767 -11.24441 -11.24400 -11.24107 -11.23480
 Alpha  occ. eigenvalues --  -10.67018  -8.32720  -8.32457  -8.32455  -1.17542
 Alpha  occ. eigenvalues --   -1.09634  -1.06316  -1.02484  -0.99121  -0.95123
 Alpha  occ. eigenvalues --   -0.87197  -0.82633  -0.73647  -0.72305  -0.67384
 Alpha  occ. eigenvalues --   -0.66215  -0.63617  -0.63274  -0.61628  -0.57482
 Alpha  occ. eigenvalues --   -0.56467  -0.55788  -0.53959  -0.51550  -0.50353
 Alpha  occ. eigenvalues --   -0.48939  -0.48363  -0.44389  -0.43616  -0.39337
 Alpha  occ. eigenvalues --   -0.39225  -0.37976
 Alpha virt. eigenvalues --    0.03081   0.03651   0.03974   0.04620   0.05225
 Alpha virt. eigenvalues --    0.06015   0.06393   0.06953   0.07181   0.08226
 Alpha virt. eigenvalues --    0.08935   0.09174   0.09681   0.09934   0.11402

 Mulliken charges:
               1
     1  Cl  -0.168496
     2  C   -1.417008
     3  C    0.636075
     4  C    0.945322
     5  C    0.449337
     6  H   -0.171612
     7  H   -0.172278
     8  C    0.304213
     9  H   -0.165398
    10  C    0.161670
    11  H   -0.179926
    12  H    0.038218
    13  H    0.012708
    14  C   -0.480363
    15  C    1.033412
    16  H   -0.560825
    17  C    0.903259
    18  H    0.066334
    19  H   -0.024148
    20  H   -0.057973
    21  H   -0.440579
    22  H   -0.378044
    23  H   -0.333901
 Sum of Mulliken charges =  -0.00000

 Dipole moment (field-independent basis, Debye):
    X=              1.0264    Y=              2.3620    Z=             -1.1575  Tot=              2.8236

 Test job not archived.
 1\1\GINC-SE184\SP\RHF\Aug-CC-pVDZ\C9H13Cl1\OHZDE\09-Apr-2025\0\\#t hf
 aug-cc-pvdz iop(5/13=1,5/36=2,99/5=2) pseudo=read geom=check guess=(re
 ad,tcheck) scf=(maxcycle=1)\\title\\0,1\Cl,0,2.042366,-1.579995,-0.237
 173\C,0,1.134534,-0.021336,0.160634\C,0,-0.304996,-0.444918,0.469572\C
 ,0,1.185284,0.804298,-1.09298\C,0,1.707756,2.014736,-1.211298\H,0,-0.2
 82564,-1.180878,1.278014\H,0,-0.710084,-0.952347,-0.408668\C,0,-1.2213
 58,0.714474,0.851465\H,0,-0.905419,1.150578,1.802174\C,0,-2.683738,0.2
 72113,0.996363\H,0,-1.161242,1.505331,0.100094\H,0,-3.281713,1.106749,

 Normal termination of Gaussian 16 at Wed Apr  9 00:57:45 2025.
