 Gaussian 16, Revision C.01,

 ----------------------------------------------------------------------
 #t hf aug-cc-pvdz symm=none int=(grid=ultrafine) guess=(read,tcheck) s
 table=(opt,rrhf)
 ----------------------------------------------------------------------
 -----
 title
 -----
 Symbolic Z-matrix:
 Charge =  0 Multiplicity = 1

 SCF Done:  E(RHF) =  -726.889613495     A.U. after   17 cycles
 Normal termination of Gaussian 16 at Wed Apr  9 01:20:58 2025.
 Gaussian 16:  ES64L-G16RevC.01  3-Jul-2019

 ----------------------------------------------------------------------
 #t hf aug-cc-pvdz iop(5/13=1,5/36=2,99/5=2) pseudo=read geom=check gue
 ss=(read,tcheck) scf=(maxcycle=1)
 ----------------------------------------------------------------------
 -----
 title
 -----
 Structure from the checkpoint file:  "BH10_343_forward_mol1.chk"
 Charge =  0 Multiplicity = 1

                         Standard orientation:
 ---------------------------------------------------------------------
 Center     Atomic      Atomic             Coordinates (Angstroms)
 Number     Number       Type             X           Y           Z
 ---------------------------------------------------------------------
      1          6           0        2.125135   -1.201140   -0.341756
      2          6           0        3.494051   -1.078406   -0.504822
      3          6           0        4.147442    0.108811   -0.195138
      4          6           0        3.400263    1.176367    0.287996
      5          6           0        2.030891    1.066754    0.459071
      6          6           0        1.359790   -0.131266    0.155183
      7          1           0        1.629528   -2.130260   -0.595756
      8          1           0        4.059069   -1.923097   -0.882963
      9          1           0        5.217985    0.200384   -0.328732
     10          1           0        3.890938    2.110823    0.536611
     11          1           0        1.462509    1.908601    0.836001
     12          6           0       -0.046535   -0.242487    0.309781
     13          6           0       -1.031175   -0.505460    1.050668
     14          1           0       -1.300891   -0.832118    2.044045
     15          1           0       -2.499376   -1.116678   -1.167100
     16         15           0       -2.718841   -0.236339   -0.095830
     17          6           0       -2.521448    1.407239   -0.846308
     18          1           0       -2.906663    2.163456   -0.160402
     19          1           0       -1.456481    1.570534   -1.007331
     20          1           0       -3.050408    1.480584   -1.796247
     21          6           0       -4.544770   -0.377997    0.168234
     22          1           0       -4.786757   -1.377865    0.529154
     23          1           0       -4.856428    0.344439    0.923963
     24          1           0       -5.102273   -0.188207   -0.751251
 ---------------------------------------------------------------------

 SCF Done:  E(RHF) =  -727.033068261     A.U. after    2 cycles

 The electronic state is 1-A.
 Alpha  occ. eigenvalues --  -81.30831 -11.26770 -11.25261 -11.25223 -11.24501
 Alpha  occ. eigenvalues --  -11.22146 -11.22123 -11.20997 -11.20945 -11.20579
 Alpha  occ. eigenvalues --  -11.19220  -7.81009  -4.95074  -4.95027  -4.94871
 Alpha  occ. eigenvalues --   -1.12209  -1.03804  -1.01295  -0.98409  -0.97035
 Alpha  occ. eigenvalues --   -0.95973  -0.82598  -0.80131  -0.76117  -0.71802
 Alpha  occ. eigenvalues --   -0.67474  -0.63118  -0.62484  -0.61647  -0.60697
 Alpha  occ. eigenvalues --   -0.59003  -0.58501  -0.57857  -0.56424  -0.52255
 Alpha  occ. eigenvalues --   -0.50868  -0.49528  -0.48775  -0.47145  -0.46327
 Alpha  occ. eigenvalues --   -0.37216  -0.34889  -0.31936  -0.22209
 Alpha virt. eigenvalues --    0.02181   0.03856   0.04001   0.04299   0.05075
 Alpha virt. eigenvalues --    0.05398   0.06120   0.06538   0.06762   0.06894
 Alpha virt. eigenvalues --    0.07570   0.08375   0.09252   0.10134   0.11206

 Mulliken charges:
               1
     1  C    0.561713
     2  C    0.176336
     3  C    0.480619
     4  C    0.119720
     5  C    0.491087
     6  C    0.602661
     7  H   -0.554786
     8  H   -0.462846
     9  H   -0.451942
    10  H   -0.463399
    11  H   -0.582227
    12  C   -0.565735
    13  C    0.315507
    14  H   -0.396175
    15  H    0.368397
    16  P    0.483733
    17  C    0.398397
    18  H   -0.109529
    19  H   -0.175866
    20  H   -0.132441
    21  C    0.316697
    22  H   -0.178736
    23  H   -0.083436
    24  H   -0.157749
 Sum of Mulliken charges =  -0.00000

 Dipole moment (field-independent basis, Debye):
    X=             -6.7024    Y=              0.2889    Z=             -0.1750  Tot=              6.7109

 Test job not archived.
 1\1\GINC-SE195\SP\RHF\Aug-CC-pVDZ\C10H13P1\OHZDE\09-Apr-2025\0\\#t hf
 aug-cc-pvdz iop(5/13=1,5/36=2,99/5=2) pseudo=read geom=check guess=(re
 ad,tcheck) scf=(maxcycle=1)\\title\\0,1\C,0,2.125135,-1.20114,-0.34175
 6\C,0,3.494051,-1.078406,-0.504822\C,0,4.147442,0.108811,-0.195138\C,0
 ,3.400263,1.176367,0.287996\C,0,2.030891,1.066754,0.459071\C,0,1.35979
 ,-0.131266,0.155183\H,0,1.629528,-2.13026,-0.595756\H,0,4.059069,-1.92
 3097,-0.882963\H,0,5.217985,0.200384,-0.328732\H,0,3.890938,2.110823,0
 .536611\H,0,1.462509,1.908601,0.836001\C,0,-0.046535,-0.242487,0.30978

 Normal termination of Gaussian 16 at Wed Apr  9 01:21:15 2025.
