 Gaussian 16, Revision C.01,

 ----------------------------------------------------------------------
 #t hf aug-cc-pvdz symm=none int=(grid=ultrafine) guess=(read,tcheck) s
 table=(opt,rrhf)
 ----------------------------------------------------------------------
 -----
 title
 -----
 Symbolic Z-matrix:
 Charge =  0 Multiplicity = 1

 SCF Done:  E(RHF) =  -678.977170926     A.U. after   15 cycles
 Normal termination of Gaussian 16 at Wed Apr  9 01:17:44 2025.
 Gaussian 16:  ES64L-G16RevC.01  3-Jul-2019

 ----------------------------------------------------------------------
 #t hf aug-cc-pvdz iop(5/13=1,5/36=2,99/5=2) pseudo=read geom=check gue
 ss=(read,tcheck) scf=(maxcycle=1)
 ----------------------------------------------------------------------
 -----
 title
 -----
 Structure from the checkpoint file:  "BH10_285_forward_mol1.chk"
 Charge =  0 Multiplicity = 1

                         Standard orientation:
 ---------------------------------------------------------------------
 Center     Atomic      Atomic             Coordinates (Angstroms)
 Number     Number       Type             X           Y           Z
 ---------------------------------------------------------------------
      1          6           0       -0.660181    0.075909    1.200444
      2          1           0        0.063964    0.401587    1.954411
      3          5           0       -0.123083    0.241195   -0.274226
      4          6           0       -1.944047    0.903890    1.383682
      5          1           0       -1.664588    1.962581    1.368792
      6          1           0       -2.370367    0.721053    2.376597
      7          6           0       -0.855888   -1.449134    1.395598
      8          1           0        0.137972   -1.909181    1.421986
      9          6           0        0.279684    2.284530   -0.812443
     10          1           0        0.546136    1.817213   -1.750663
     11          1           0       -0.593877    2.921056   -0.824003
     12          6           0        1.198542    2.420273    0.184960
     13          6           0        2.351497    1.602187    0.362716
     14          1           0        1.005259    3.159984    0.960243
     15          1           0       -1.303599   -1.643322    2.376700
     16          1           0        3.186252    1.919642    0.968514
     17          6           0        2.301485    0.305263   -0.050734
     18          8           0        1.229945   -0.254274   -0.559970
     19          8           0        3.359522   -0.488075    0.086219
     20          6           0        3.174352   -1.892836   -0.101846
     21          1           0        2.470061   -2.291311    0.629230
     22          1           0        2.812126   -2.104529   -1.106996
     23          1           0        4.156987   -2.332117    0.047798
     24          6           0       -1.689067   -2.150568    0.310480
     25          1           0       -1.540791   -3.231509    0.396368
     26          1           0       -2.749833   -1.989456    0.500098
     27          6           0       -1.213128   -0.186125   -1.329697
     28          1           0       -0.879016   -0.032360   -2.361269
     29          6           0       -1.351896   -1.717768   -1.124345
     30          1           0       -0.404928   -2.180345   -1.421019
     31          1           0       -2.113034   -2.110941   -1.807554
     32          6           0       -2.527111    0.588245   -1.125605
     33          1           0       -3.315075    0.154806   -1.752088
     34          1           0       -2.379170    1.605820   -1.498986
     35          6           0       -3.033232    0.662888    0.326037
     36          1           0       -3.775344    1.463944    0.397021
     37          1           0       -3.575507   -0.250329    0.570476
 ---------------------------------------------------------------------

 SCF Done:  E(RHF) =  -679.184320495     A.U. after    2 cycles

 The electronic state is 1-A.
 Alpha  occ. eigenvalues --  -20.61970 -20.59189 -11.39439 -11.30254 -11.28582
 Alpha  occ. eigenvalues --  -11.22202 -11.21886 -11.21744 -11.21510 -11.21499
 Alpha  occ. eigenvalues --  -11.21477 -11.21381 -11.21342 -11.19310 -11.19060
 Alpha  occ. eigenvalues --   -7.62001  -1.43041  -1.34187  -1.09792  -1.09237
 Alpha  occ. eigenvalues --   -1.02419  -1.01694  -1.00968  -0.94115  -0.91927
 Alpha  occ. eigenvalues --   -0.90268  -0.84574  -0.81145  -0.78360  -0.77631
 Alpha  occ. eigenvalues --   -0.74794  -0.72844  -0.69789  -0.68241  -0.66023
 Alpha  occ. eigenvalues --   -0.65688  -0.63652  -0.62047  -0.59898  -0.59408
 Alpha  occ. eigenvalues --   -0.58424  -0.57408  -0.57028  -0.55616  -0.55003
 Alpha  occ. eigenvalues --   -0.54074  -0.53360  -0.52561  -0.50792  -0.49713
 Alpha  occ. eigenvalues --   -0.49548  -0.47435  -0.46663  -0.46261  -0.45155
 Alpha  occ. eigenvalues --   -0.43883  -0.41373  -0.40080  -0.37520  -0.30056
 Alpha virt. eigenvalues --    0.02791   0.03720   0.04028   0.04345   0.04942
 Alpha virt. eigenvalues --    0.05359   0.05522   0.05700   0.06143   0.06857
 Alpha virt. eigenvalues --    0.07147   0.07616   0.07799   0.07953   0.08169

 Mulliken charges:
               1
     1  C    0.159263
     2  H   -0.362588
     3  B   -1.351744
     4  C    0.547191
     5  H   -0.043694
     6  H   -0.180843
     7  C    0.503224
     8  H   -0.155398
     9  C    1.070876
    10  H    0.009317
    11  H   -0.341375
    12  C    0.463403
    13  C    1.055846
    14  H   -0.443067
    15  H   -0.151332
    16  H   -0.516980
    17  C    0.265503
    18  O   -1.239029
    19  O   -0.690840
    20  C    0.962200
    21  H   -0.165096
    22  H   -0.099005
    23  H   -0.292874
    24  C    0.354515
    25  H   -0.184732
    26  H   -0.096095
    27  C   -0.109951
    28  H   -0.132823
    29  C    0.615875
    30  H    0.080480
    31  H   -0.216462
    32  C    0.723038
    33  H   -0.129700
    34  H   -0.035116
    35  C    0.400271
    36  H   -0.175701
    37  H   -0.096554
 Sum of Mulliken charges =  -0.00000

 Dipole moment (field-independent basis, Debye):
    X=              0.4874    Y=             -0.4406    Z=              0.4564  Tot=              0.7999

 Test job not archived.
 1\1\GINC-SE116\SP\RHF\Aug-CC-pVDZ\C13H21B1O2\OHZDE\09-Apr-2025\0\\#t h
 f aug-cc-pvdz iop(5/13=1,5/36=2,99/5=2) pseudo=read geom=check guess=(
 read,tcheck) scf=(maxcycle=1)\\title\\0,1\C,0,-0.660181,0.075909,1.200
 444\H,0,0.063964,0.401587,1.954411\B,0,-0.123083,0.241195,-0.274226\C,
 0,-1.944047,0.90389,1.383682\H,0,-1.664588,1.962581,1.368792\H,0,-2.37
 0367,0.721053,2.376597\C,0,-0.855888,-1.449134,1.395598\H,0,0.137972,-
 1.909181,1.421986\C,0,0.279684,2.28453,-0.812443\H,0,0.546136,1.817213
 ,-1.750663\H,0,-0.593877,2.921056,-0.824003\C,0,1.198542,2.420273,0.18

 Normal termination of Gaussian 16 at Wed Apr  9 01:18:51 2025.
