 Gaussian 16, Revision C.01,

 ----------------------------------------------------------------------
 #t hf aug-cc-pvdz symm=none int=(grid=ultrafine) guess=(read,tcheck) s
 table=(opt,rrhf)
 ----------------------------------------------------------------------
 -----
 title
 -----
 Symbolic Z-matrix:
 Charge =  0 Multiplicity = 1

 SCF Done:  E(RHF) =  -812.385291541     A.U. after   14 cycles
 Normal termination of Gaussian 16 at Wed Apr  9 00:56:13 2025.
 Gaussian 16:  ES64L-G16RevC.01  3-Jul-2019

 ----------------------------------------------------------------------
 #t hf aug-cc-pvdz iop(5/13=1,5/36=2,99/5=2) pseudo=read geom=check gue
 ss=(read,tcheck) scf=(maxcycle=1)
 ----------------------------------------------------------------------
 -----
 title
 -----
 Structure from the checkpoint file:  "BH10_150_forward_mol2.chk"
 Charge =  0 Multiplicity = 1

                         Standard orientation:
 ---------------------------------------------------------------------
 Center     Atomic      Atomic             Coordinates (Angstroms)
 Number     Number       Type             X           Y           Z
 ---------------------------------------------------------------------
      1          7           0       -0.612510   -1.091392   -0.278201
      2          1           0        0.070365   -1.526045   -0.885966
      3          6           0       -0.119102   -0.061500    0.622144
      4          6           0        1.321082   -0.350353    1.026578
      5          6           0       -0.271810    1.350155    0.021785
      6          1           0        1.704782    0.478589    1.616100
      7          1           0        1.349782   -1.252727    1.636938
      8         16           0        2.460863   -0.669419   -0.362623
      9          8           0        0.690024    2.058273   -0.211576
     10          1           0        2.399056    0.576563   -0.863686
     11          7           0       -1.548618    1.721134   -0.195862
     12          1           0       -1.719787    2.625014   -0.606549
     13          1           0       -2.316550    1.093232    0.012961
     14          6           0       -1.912179   -1.420669   -0.383091
     15          1           0       -2.094660   -2.256080   -1.075738
     16          8           0       -2.815189   -0.863977    0.216998
     17          1           0       -0.745523   -0.096202    1.518468
 ---------------------------------------------------------------------

 SCF Done:  E(RHF) =  -812.533205535     A.U. after    2 cycles

 The electronic state is 1-A.
 Alpha  occ. eigenvalues --  -93.54050 -20.56397 -20.54755 -15.67790 -15.64840
 Alpha  occ. eigenvalues --  -11.38709 -11.37479 -11.31489 -11.28915  -8.83843
 Alpha  occ. eigenvalues --   -6.18018  -6.17817  -6.17517  -1.37556  -1.36098
 Alpha  occ. eigenvalues --   -1.23594  -1.18360  -1.07799  -0.97759  -0.86782
 Alpha  occ. eigenvalues --   -0.85417  -0.79561  -0.75883  -0.74272  -0.69455
 Alpha  occ. eigenvalues --   -0.68329  -0.64258  -0.63074  -0.59604  -0.58631
 Alpha  occ. eigenvalues --   -0.58444  -0.57019  -0.52756  -0.47725  -0.47367
 Alpha  occ. eigenvalues --   -0.45837  -0.42206  -0.41299  -0.36872
 Alpha virt. eigenvalues --    0.02997   0.03657   0.03969   0.05128   0.06218
 Alpha virt. eigenvalues --    0.07064   0.07886   0.08088   0.09043   0.10683
 Alpha virt. eigenvalues --    0.11413   0.12262   0.12960   0.13503   0.13597

 Mulliken charges:
               1
     1  N   -0.419737
     2  H    0.006865
     3  C    0.125970
     4  C    0.356157
     5  C    0.572795
     6  H   -0.100330
     7  H    0.017497
     8  S    0.227622
     9  O   -0.545727
    10  H    0.127145
    11  N   -0.107612
    12  H   -0.033843
    13  H    0.050277
    14  C    0.627407
    15  H   -0.238456
    16  O   -0.513283
    17  H   -0.152747
 Sum of Mulliken charges =  -0.00000

 Dipole moment (field-independent basis, Debye):
    X=             -0.7793    Y=             -1.9378    Z=             -0.3038  Tot=              2.1106

 Test job not archived.
 1\1\GINC-SE162\SP\RHF\Aug-CC-pVDZ\C4H8N2O2S1\OHZDE\09-Apr-2025\0\\#t h
 f aug-cc-pvdz iop(5/13=1,5/36=2,99/5=2) pseudo=read geom=check guess=(
 read,tcheck) scf=(maxcycle=1)\\title\\0,1\N,0,-0.61251,-1.091392,-0.27
 8201\H,0,0.070365,-1.526045,-0.885966\C,0,-0.119102,-0.0615,0.622144\C
 ,0,1.321082,-0.350353,1.026578\C,0,-0.27181,1.350155,0.021785\H,0,1.70
 4782,0.478589,1.6161\H,0,1.349782,-1.252727,1.636938\S,0,2.460863,-0.6
 69419,-0.362623\O,0,0.690024,2.058273,-0.211576\H,0,2.399056,0.576563,
 -0.863686\N,0,-1.548618,1.721134,-0.195862\H,0,-1.719787,2.625014,-0.6

 Normal termination of Gaussian 16 at Wed Apr  9 00:56:21 2025.
