 Gaussian 16, Revision C.01,

 ----------------------------------------------------------------------
 #t hf aug-cc-pvdz symm=none int=(grid=ultrafine) guess=(read,tcheck) s
 table=(opt,rrhf)
 ----------------------------------------------------------------------
 -----
 title
 -----
 Symbolic Z-matrix:
 Charge =  0 Multiplicity = 1

 SCF Done:  E(RHF) =  -1024.98660953     A.U. after   15 cycles
 Normal termination of Gaussian 16 at Wed Apr  9 01:26:23 2025.
 Gaussian 16:  ES64L-G16RevC.01  3-Jul-2019

 ----------------------------------------------------------------------
 #t hf aug-cc-pvdz iop(5/13=1,5/36=2,99/5=2) pseudo=read geom=check gue
 ss=(read,tcheck) scf=(maxcycle=1)
 ----------------------------------------------------------------------
 -----
 title
 -----
 Structure from the checkpoint file:  "BH10_345_forward_mol1.chk"
 Charge =  0 Multiplicity = 1

                         Standard orientation:
 ---------------------------------------------------------------------
 Center     Atomic      Atomic             Coordinates (Angstroms)
 Number     Number       Type             X           Y           Z
 ---------------------------------------------------------------------
      1          7           0        0.625986    0.959617   -0.355103
      2          6           0        1.939896    0.603313    0.013679
      3          6           0        2.136271   -0.722653    0.055135
      4         16           0        0.669214   -1.590377   -0.369917
      5          6           0       -0.207574   -0.096923   -0.537302
      6          6           0        2.940257    1.668359    0.314627
      7          1           0        3.150095    2.289877   -0.559489
      8          1           0        3.878375    1.217193    0.628328
      9          1           0        2.600054    2.320559    1.122159
     10          6           0        3.364989   -1.500153    0.390460
     11          1           0        4.204409   -0.841101    0.606496
     12          1           0        3.657969   -2.149427   -0.438362
     13          1           0        3.203602   -2.134325    1.265545
     14          6           0        0.197205    2.348075   -0.495198
     15          1           0        1.064188    2.995000   -0.417997
     16          1           0       -0.510995    2.606440    0.289304
     17          1           0       -0.253291    2.502597   -1.473680
     18          6           0       -1.588809   -0.150829   -0.719245
     19          6           0       -2.463175    0.907138   -1.344408
     20          1           0       -2.314462    1.896005   -0.919017
     21          1           0       -3.504102    0.628587   -1.173890
     22          1           0       -2.315637    0.956949   -2.428284
     23          8           0       -2.011280   -1.447000   -1.010788
     24          6           0       -2.079057    0.052831    1.351918
     25          8           0       -1.675114    1.101187    1.728957
     26          8           0       -2.672884   -0.961703    1.527345
     27          1           0       -2.515339   -1.754455   -0.238841
 ---------------------------------------------------------------------

 SCF Done:  E(RHF) =  -1025.20309419     A.U. after    2 cycles

 The electronic state is 1-A.
 Alpha  occ. eigenvalues --  -93.57133 -20.59120 -20.58568 -20.56695 -15.69750
 Alpha  occ. eigenvalues --  -11.42728 -11.35121 -11.30854 -11.29038 -11.28524
 Alpha  occ. eigenvalues --  -11.27880 -11.26647 -11.25895 -11.23592  -8.86956
 Alpha  occ. eigenvalues --   -6.21118  -6.20964  -6.20553  -1.42208  -1.35821
 Alpha  occ. eigenvalues --   -1.33050  -1.29623  -1.11688  -1.08477  -1.01352
 Alpha  occ. eigenvalues --   -1.00467  -0.95544  -0.93828  -0.86336  -0.80253
 Alpha  occ. eigenvalues --   -0.75881  -0.73514  -0.73060  -0.69663  -0.68927
 Alpha  occ. eigenvalues --   -0.66603  -0.65647  -0.65024  -0.62003  -0.61708
 Alpha  occ. eigenvalues --   -0.60890  -0.60594  -0.59232  -0.59165  -0.57025
 Alpha  occ. eigenvalues --   -0.56581  -0.56078  -0.53779  -0.53596  -0.52013
 Alpha  occ. eigenvalues --   -0.50127  -0.49568  -0.49089  -0.46478  -0.40630
 Alpha  occ. eigenvalues --   -0.38447  -0.27606
 Alpha virt. eigenvalues --    0.02272   0.03112   0.03866   0.04457   0.05352
 Alpha virt. eigenvalues --    0.06036   0.06132   0.06560   0.07357   0.07421
 Alpha virt. eigenvalues --    0.07873   0.08885   0.09149   0.10005   0.10646

 Mulliken charges:
               1
     1  N   -0.385533
     2  C   -0.024007
     3  C   -1.192286
     4  S    0.610239
     5  C   -0.802693
     6  C    0.532832
     7  H    0.192014
     8  H   -0.193754
     9  H    0.217043
    10  C    0.719478
    11  H   -0.080695
    12  H    0.086938
    13  H    0.107167
    14  C    0.988677
    15  H   -0.486736
    16  H   -0.013279
    17  H   -0.091027
    18  C    0.026467
    19  C    0.812362
    20  H   -0.067722
    21  H   -0.135831
    22  H    0.005776
    23  O   -0.695391
    24  C    0.353515
    25  O   -0.306979
    26  O   -0.378584
    27  H    0.202011
 Sum of Mulliken charges =   0.00000

 Dipole moment (field-independent basis, Debye):
    X=              5.4504    Y=              3.1602    Z=             -1.7739  Tot=              6.5453

 Test job not archived.
 1\1\GINC-SE071\SP\RHF\Aug-CC-pVDZ\C9H13N1O3S1\OHZDE\09-Apr-2025\0\\#t
 hf aug-cc-pvdz iop(5/13=1,5/36=2,99/5=2) pseudo=read geom=check guess=
 (read,tcheck) scf=(maxcycle=1)\\title\\0,1\N,0,0.625986,0.959617,-0.35
 5103\C,0,1.939896,0.603313,0.013679\C,0,2.136271,-0.722653,0.055135\S,
 0,0.669214,-1.590377,-0.369917\C,0,-0.207574,-0.096923,-0.537302\C,0,2
 .940257,1.668359,0.314627\H,0,3.150095,2.289877,-0.559489\H,0,3.878375
 ,1.217193,0.628328\H,0,2.600054,2.320559,1.122159\C,0,3.364989,-1.5001
 53,0.39046\H,0,4.204409,-0.841101,0.606496\H,0,3.657969,-2.149427,-0.4

 Normal termination of Gaussian 16 at Wed Apr  9 01:26:53 2025.
