 Gaussian 16, Revision C.01,

 ----------------------------------------------------------------------
 #t hf aug-cc-pvdz symm=none int=(grid=ultrafine) guess=(read,tcheck) s
 table=(opt,rrhf)
 ----------------------------------------------------------------------
 -----
 title
 -----
 Symbolic Z-matrix:
 Charge =  0 Multiplicity = 1

 SCF Done:  E(RHF) =  -806.769950196     A.U. after   16 cycles
 Normal termination of Gaussian 16 at Wed Apr  9 00:56:45 2025.
 Gaussian 16:  ES64L-G16RevC.01  3-Jul-2019

 ----------------------------------------------------------------------
 #t hf aug-cc-pvdz iop(5/13=1,5/36=2,99/5=2) pseudo=read geom=check gue
 ss=(read,tcheck) scf=(maxcycle=1)
 ----------------------------------------------------------------------
 -----
 title
 -----
 Structure from the checkpoint file:  "BH10_139_reverse_mol3.chk"
 Charge =  0 Multiplicity = 1

                         Standard orientation:
 ---------------------------------------------------------------------
 Center     Atomic      Atomic             Coordinates (Angstroms)
 Number     Number       Type             X           Y           Z
 ---------------------------------------------------------------------
      1         17           0       -2.016113   -0.928519   -0.875565
      2          6           0       -1.193310    0.295319    0.236868
      3          6           0        0.309892    0.134905    0.077056
      4          6           0       -1.626458   -0.037142    1.660290
      5          6           0       -1.722903    1.659502   -0.175187
      6          6           0        0.902493   -1.111219    0.285852
      7          6           0        1.132898    1.214417   -0.223414
      8          1           0       -1.324266   -1.043987    1.944029
      9          1           0       -2.709463    0.043481    1.759283
     10          1           0       -1.154825    0.667966    2.349236
     11          1           0       -1.452444    1.900565   -1.202697
     12          1           0       -1.326538    2.431879    0.487715
     13          1           0       -2.809319    1.669110   -0.094862
     14          6           0        2.273973   -1.271492    0.198308
     15          6           0        3.087575   -0.184455   -0.099415
     16          6           0        2.511900    1.056567   -0.310297
     17          1           0        0.710750    2.194750   -0.395117
     18          1           0        2.710895   -2.249942    0.357530
     19          1           0        4.161321   -0.308682   -0.169687
     20          1           0        3.133080    1.911982   -0.547147
     21          1           0        0.278373   -1.970705    0.495960
 ---------------------------------------------------------------------

 SCF Done:  E(RHF) =  -806.890838305     A.U. after    2 cycles

 The electronic state is 1-A.
 Alpha  occ. eigenvalues -- -103.63694 -11.32312 -11.25835 -11.24874 -11.24791
 Alpha  occ. eigenvalues --  -11.24734 -11.24636 -11.24520 -11.24163 -11.24115
 Alpha  occ. eigenvalues --  -10.67000  -8.32702  -8.32444  -8.32436  -1.18150
 Alpha  occ. eigenvalues --   -1.14049  -1.05204  -1.01780  -1.00155  -0.95342
 Alpha  occ. eigenvalues --   -0.85629  -0.83334  -0.77067  -0.71106  -0.65033
 Alpha  occ. eigenvalues --   -0.64521  -0.62675  -0.62370  -0.59883  -0.58598
 Alpha  occ. eigenvalues --   -0.56110  -0.54263  -0.52331  -0.52159  -0.49993
 Alpha  occ. eigenvalues --   -0.49659  -0.48440  -0.44159  -0.43660  -0.34661
 Alpha  occ. eigenvalues --   -0.33934
 Alpha virt. eigenvalues --    0.03163   0.03781   0.04104   0.05232   0.05379
 Alpha virt. eigenvalues --    0.05832   0.06953   0.07447   0.07617   0.08216
 Alpha virt. eigenvalues --    0.09390   0.09744   0.10551   0.11705   0.11886

 Mulliken charges:
               1
     1  Cl  -0.183658
     2  C   -2.401075
     3  C    1.564174
     4  C    0.766860
     5  C    1.045454
     6  C    0.264423
     7  C    0.473625
     8  H   -0.078533
     9  H   -0.077779
    10  H    0.004736
    11  H    0.027753
    12  H    0.104773
    13  H   -0.089164
    14  C    0.423880
    15  C    0.582244
    16  C    0.327927
    17  H   -0.743199
    18  H   -0.443635
    19  H   -0.446711
    20  H   -0.463353
    21  H   -0.658743
 Sum of Mulliken charges =  -0.00000

 Dipole moment (field-independent basis, Debye):
    X=              1.1049    Y=              1.5852    Z=              1.5439  Tot=              2.4733

 Test job not archived.
 1\1\GINC-SE328\SP\RHF\Aug-CC-pVDZ\C9H11Cl1\OHZDE\09-Apr-2025\0\\#t hf
 aug-cc-pvdz iop(5/13=1,5/36=2,99/5=2) pseudo=read geom=check guess=(re
 ad,tcheck) scf=(maxcycle=1)\\title\\0,1\Cl,0,-2.016113,-0.928519,-0.87
 5565\C,0,-1.19331,0.295319,0.236868\C,0,0.309892,0.134905,0.077056\C,0
 ,-1.626458,-0.037142,1.66029\C,0,-1.722903,1.659502,-0.175187\C,0,0.90
 2493,-1.111219,0.285852\C,0,1.132898,1.214417,-0.223414\H,0,-1.324266,
 -1.043987,1.944029\H,0,-2.709463,0.043481,1.759283\H,0,-1.154825,0.667
 966,2.349236\H,0,-1.452444,1.900565,-1.202697\H,0,-1.326538,2.431879,0

 Normal termination of Gaussian 16 at Wed Apr  9 00:56:59 2025.
