 Gaussian 16, Revision C.01,

 ----------------------------------------------------------------------
 #t hf aug-cc-pvdz symm=none int=(grid=ultrafine) guess=(read,tcheck) s
 table=opt
 ----------------------------------------------------------------------
 -----
 title
 -----
 Symbolic Z-matrix:
 Charge =  0 Multiplicity = 2

 SCF Done:  E(UHF) =  -950.905814830     A.U. after   21 cycles
 Normal termination of Gaussian 16 at Wed Apr  9 01:05:25 2025.
 Gaussian 16:  ES64L-G16RevC.01  3-Jul-2019

 ----------------------------------------------------------------------
 #t hf aug-cc-pvdz iop(5/13=1,5/36=2,99/5=2) pseudo=read geom=check gue
 ss=(read,tcheck) scf=(maxcycle=1)
 ----------------------------------------------------------------------
 -----
 title
 -----
 Structure from the checkpoint file:  "BH10_181_forward_mol2.chk"
 Charge =  0 Multiplicity = 2

                         Standard orientation:
 ---------------------------------------------------------------------
 Center     Atomic      Atomic             Coordinates (Angstroms)
 Number     Number       Type             X           Y           Z
 ---------------------------------------------------------------------
      1          7           0        0.669444    0.496811   -0.242991
      2         16           0       -0.017765   -0.967308    0.154953
      3          8           0       -1.530369   -0.513976    0.334609
      4          6           0       -2.268509   -0.078879   -0.839908
      5          6           0       -3.629202    0.370049   -0.362093
      6          1           0       -2.328340   -0.918625   -1.532380
      7          1           0       -1.713106    0.739806   -1.303297
      8          6           0       -3.571278    1.573769    0.570655
      9          1           0       -4.123993   -0.471708    0.129256
     10          1           0       -4.219264    0.606688   -1.252877
     11          6           0        2.114415    0.667640   -0.102592
     12          6           0        2.940791   -0.584454   -0.416959
     13          6           0        2.349762    1.114906    1.356118
     14          6           0        2.481132    1.802789   -1.059929
     15          1           0        2.301949    1.504965   -2.094214
     16          1           0        3.537434    2.055701   -0.951097
     17          1           0        1.883798    2.690093   -0.847561
     18          1           0        2.749365   -1.387190    0.294728
     19          1           0        3.999722   -0.327136   -0.360689
     20          1           0        2.727060   -0.952236   -1.420767
     21          1           0        2.089561    0.320789    2.054074
     22          1           0        1.756640    2.000301    1.588098
     23          1           0        3.406486    1.363449    1.472175
     24          8           0        0.395762   -1.437119    1.452051
     25          8           0        0.096591   -1.807334   -1.018124
     26          1           0       -3.097423    2.427769    0.079636
     27          1           0       -2.997033    1.341704    1.468284
     28          1           0       -4.573247    1.877398    0.878273
 ---------------------------------------------------------------------

 SCF Done:  E(UHF) =  -951.165236686     A.U. after    2 cycles

 The electronic state is 2-A.
 Alpha  occ. eigenvalues --  -93.84361 -20.63330 -20.57732 -20.57608 -15.70642
 Alpha  occ. eigenvalues --  -11.31270 -11.30331 -11.24765 -11.24016 -11.23966
 Alpha  occ. eigenvalues --  -11.23527 -11.23136  -9.10204  -6.44868  -6.44849
 Alpha  occ. eigenvalues --   -6.44661  -1.48304  -1.35884  -1.32924  -1.24192
 Alpha  occ. eigenvalues --   -1.07960  -1.06375  -0.95722  -0.95267  -0.95185
 Alpha  occ. eigenvalues --   -0.87099  -0.82995  -0.78102  -0.74361  -0.71191
 Alpha  occ. eigenvalues --   -0.69760  -0.67501  -0.65371  -0.64183  -0.62570
 Alpha  occ. eigenvalues --   -0.61357  -0.60797  -0.59349  -0.58276  -0.56668
 Alpha  occ. eigenvalues --   -0.55703  -0.53924  -0.53782  -0.53260  -0.52832
 Alpha  occ. eigenvalues --   -0.52211  -0.51337  -0.51024  -0.49924  -0.49896
 Alpha  occ. eigenvalues --   -0.49166  -0.45852  -0.45219
 Alpha virt. eigenvalues --    0.03027   0.03629   0.04168   0.04434   0.05284
 Alpha virt. eigenvalues --    0.05695   0.05733   0.06863   0.07024   0.07673
 Alpha virt. eigenvalues --    0.07709   0.07992   0.08686   0.09018   0.09681

  Beta  occ. eigenvalues --  -93.84429 -20.63343 -20.57518 -20.57467 -15.67423
  Beta  occ. eigenvalues --  -11.31271 -11.30583 -11.24765 -11.23922 -11.23794
  Beta  occ. eigenvalues --  -11.23454 -11.23136  -9.10293  -6.44950  -6.44895
  Beta  occ. eigenvalues --   -6.44853  -1.47895  -1.35758  -1.32412  -1.17586
  Beta  occ. eigenvalues --   -1.07625  -1.03723  -0.95486  -0.95019  -0.94546
  Beta  occ. eigenvalues --   -0.86398  -0.82794  -0.77774  -0.73830  -0.70196
  Beta  occ. eigenvalues --   -0.68713  -0.66781  -0.63542  -0.62825  -0.61919
  Beta  occ. eigenvalues --   -0.61200  -0.59685  -0.58759  -0.56496  -0.56184
  Beta  occ. eigenvalues --   -0.55199  -0.53784  -0.53231  -0.52632  -0.51451
  Beta  occ. eigenvalues --   -0.50969  -0.50513  -0.49872  -0.49529  -0.49186
  Beta  occ. eigenvalues --   -0.48899  -0.43180
  Beta virt. eigenvalues --    0.03035   0.03633   0.03753   0.04434   0.05145
  Beta virt. eigenvalues --    0.05692   0.05697   0.05937   0.06869   0.07026
  Beta virt. eigenvalues --    0.07678   0.07752   0.08009   0.08701   0.09026

 Mulliken charges and spin densities:
               1          2
     1  N   -0.743327   1.210820
     2  S    3.054879  -0.082313
     3  O   -1.015827  -0.009984
     4  C    0.595069  -0.002537
     5  C    0.122545  -0.000706
     6  H   -0.139557  -0.000480
     7  H   -0.189795  -0.002334
     8  C    0.421237  -0.000871
     9  H   -0.081763  -0.000007
    10  H   -0.029801  -0.000087
    11  C   -3.348843  -0.289788
    12  C    1.217211   0.038823
    13  C    1.147728   0.086885
    14  C    1.200824   0.013824
    15  H    0.000580   0.003952
    16  H    0.024597  -0.002757
    17  H   -0.002911  -0.003593
    18  H   -0.003365   0.000525
    19  H   -0.029335  -0.001413
    20  H    0.053153   0.001881
    21  H   -0.025150  -0.002786
    22  H   -0.043291  -0.002898
    23  H    0.049729   0.007161
    24  O   -1.014276   0.008638
    25  O   -1.003236   0.030239
    26  H   -0.072360  -0.000066
    27  H   -0.046286  -0.000095
    28  H   -0.098429  -0.000032
 Sum of Mulliken charges =  -0.00000   1.00000

 Dipole moment (field-independent basis, Debye):
    X=             -0.0355    Y=              3.8331    Z=             -1.5522  Tot=              4.1356
                          Isotropic Fermi Contact Couplings
        Atom                 a.u.       MegaHertz       Gauss      10(-4) cm-1
     1  N(14)              0.29380      94.92723      33.87239      31.66431
     2  S(33)             -0.09426     -32.37442     -11.55200     -10.79894
     3  O(17)             -0.00175       1.05803       0.37753       0.35292
     4  C(13)             -0.00059      -0.65848      -0.23496      -0.21964
     5  C(13)              0.00007       0.07371       0.02630       0.02459
     6  H(1)               0.00004       0.18497       0.06600       0.06170
     7  H(1)               0.00024       1.05451       0.37628       0.35175
     8  C(13)             -0.00001      -0.00613      -0.00219      -0.00204

 1\1\GINC-SE162\SP\UHF\Aug-CC-pVDZ\C7H16N1O3S1(2)\OHZDE\09-Apr-2025\0\\
 #t hf aug-cc-pvdz iop(5/13=1,5/36=2,99/5=2) pseudo=read geom=check gue
 ss=(read,tcheck) scf=(maxcycle=1)\\title\\0,2\N,0,0.669444,0.496811,-0
 .242991\S,0,-0.017765,-0.967308,0.154953\O,0,-1.530369,-0.513976,0.334
 609\C,0,-2.268509,-0.078879,-0.839908\C,0,-3.629202,0.370049,-0.362093
 \H,0,-2.32834,-0.918625,-1.53238\H,0,-1.713106,0.739806,-1.303297\C,0,
 -3.571278,1.573769,0.570655\H,0,-4.123993,-0.471708,0.129256\H,0,-4.21
 9264,0.606688,-1.252877\C,0,2.114415,0.66764,-0.102592\C,0,2.940791,-0

 Normal termination of Gaussian 16 at Wed Apr  9 01:05:54 2025.
