 Gaussian 16, Revision C.01,

 ----------------------------------------------------------------------
 #t hf aug-cc-pvdz symm=none int=(grid=ultrafine) guess=(read,tcheck) s
 table=(opt,rrhf)
 ----------------------------------------------------------------------
 -----
 title
 -----
 Symbolic Z-matrix:
 Charge =  0 Multiplicity = 1

 SCF Done:  E(RHF) =  -882.420515867     A.U. after   14 cycles
 Normal termination of Gaussian 16 at Wed Apr  9 00:56:26 2025.
 Gaussian 16:  ES64L-G16RevC.01  3-Jul-2019

 ----------------------------------------------------------------------
 #t hf aug-cc-pvdz iop(5/13=1,5/36=2,99/5=2) pseudo=read geom=check gue
 ss=(read,tcheck) scf=(maxcycle=1)
 ----------------------------------------------------------------------
 -----
 title
 -----
 Structure from the checkpoint file:  "BH10-RE_128_mol3.chk"
 Charge =  0 Multiplicity = 1

                         Standard orientation:
 ---------------------------------------------------------------------
 Center     Atomic      Atomic             Coordinates (Angstroms)
 Number     Number       Type             X           Y           Z
 ---------------------------------------------------------------------
      1          6           0        2.830055    0.460317    0.001654
      2          6           0        2.401084   -0.620679    0.986220
      3          6           0        1.644037    1.159617   -0.652470
      4          6           0        1.081757   -1.259530    0.565787
      5          6           0       -0.051925   -0.219787    0.616931
      6          6           0        0.453282    1.198387    0.300082
      7          6           0       -2.749633    0.147323    0.099494
      8          6           0       -4.021773   -0.047548   -0.683510
      9          8           0       -2.667709    0.867199    1.059890
     10          1           0        2.301991   -0.178238    1.982100
     11          1           0        3.198848   -1.362619    1.048389
     12          1           0        1.378560    0.595952   -1.551389
     13          1           0        1.924139    2.161728   -0.979619
     14          1           0        0.833518   -2.110565    1.201183
     15          1           0        1.196407   -1.652780   -0.448420
     16          1           0       -0.521962   -0.218166    1.599303
     17          1           0        0.746116    1.679674    1.238659
     18          1           0       -0.353931    1.806361   -0.105090
     19          1           0       -4.851719   -0.155908    0.014691
     20          1           0       -3.974024   -0.909243   -1.348161
     21          1           0       -4.196079    0.850406   -1.280496
     22         16           0       -1.359809   -0.767533   -0.538000
     23          9           0        3.599669   -0.138492   -1.015053
     24          1           0        3.498424    1.174172    0.488076
 ---------------------------------------------------------------------

 SCF Done:  E(RHF) =  -882.591536723     A.U. after    2 cycles

 The electronic state is 1-A.
 Alpha  occ. eigenvalues --  -93.54669 -26.09308 -20.57311 -11.37619 -11.32055
 Alpha  occ. eigenvalues --  -11.27883 -11.25678 -11.24624 -11.24260 -11.24231
 Alpha  occ. eigenvalues --  -11.23771  -8.84601  -6.18780  -6.18525  -6.18252
 Alpha  occ. eigenvalues --   -1.62342  -1.37364  -1.13735  -1.05709  -1.02301
 Alpha  occ. eigenvalues --   -1.01805  -0.94764  -0.87441  -0.84840  -0.76527
 Alpha  occ. eigenvalues --   -0.74427  -0.73892  -0.71099  -0.69418  -0.67486
 Alpha  occ. eigenvalues --   -0.65357  -0.64938  -0.62614  -0.60736  -0.58665
 Alpha  occ. eigenvalues --   -0.57084  -0.55310  -0.54420  -0.54124  -0.52773
 Alpha  occ. eigenvalues --   -0.52693  -0.49815  -0.47511  -0.46099  -0.43609
 Alpha  occ. eigenvalues --   -0.41751  -0.37146
 Alpha virt. eigenvalues --    0.03299   0.03703   0.04083   0.04965   0.05371
 Alpha virt. eigenvalues --    0.05789   0.06084   0.06940   0.07084   0.07511
 Alpha virt. eigenvalues --    0.08214   0.08737   0.09266   0.11346   0.11871

 Mulliken charges:
               1
     1  C    0.324659
     2  C    0.409674
     3  C    0.235924
     4  C    0.584049
     5  C   -0.668519
     6  C    0.488947
     7  C   -0.414839
     8  C    0.561455
     9  O   -0.510967
    10  H   -0.046610
    11  H   -0.078160
    12  H    0.025636
    13  H   -0.097038
    14  H   -0.172937
    15  H   -0.070657
    16  H   -0.172240
    17  H   -0.082185
    18  H   -0.244558
    19  H    0.007027
    20  H   -0.057963
    21  H    0.068827
    22  S    0.582598
    23  F   -0.448983
    24  H   -0.223140
 Sum of Mulliken charges =  -0.00000

 Dipole moment (field-independent basis, Debye):
    X=             -1.0999    Y=             -0.1058    Z=              0.3663  Tot=              1.1641

 Test job not archived.
 1\1\GINC-SE322\SP\RHF\Aug-CC-pVDZ\C8H13F1O1S1\OHZDE\09-Apr-2025\0\\#t
 hf aug-cc-pvdz iop(5/13=1,5/36=2,99/5=2) pseudo=read geom=check guess=
 (read,tcheck) scf=(maxcycle=1)\\title\\0,1\C,0,2.830055,0.460317,0.001
 654\C,0,2.401084,-0.620679,0.98622\C,0,1.644037,1.159617,-0.65247\C,0,
 1.081757,-1.25953,0.565787\C,0,-0.051925,-0.219787,0.616931\C,0,0.4532
 82,1.198387,0.300082\C,0,-2.749633,0.147323,0.099494\C,0,-4.021773,-0.
 047548,-0.68351\O,0,-2.667709,0.867199,1.05989\H,0,2.301991,-0.178238,
 1.9821\H,0,3.198848,-1.362619,1.048389\H,0,1.37856,0.595952,-1.551389\

 Normal termination of Gaussian 16 at Wed Apr  9 00:56:44 2025.
