 Gaussian 16, Revision C.01,

 ----------------------------------------------------------------------
 #t hf aug-cc-pvdz symm=none int=(grid=ultrafine) guess=(read,tcheck) s
 table=(opt,rrhf)
 ----------------------------------------------------------------------
 -----
 title
 -----
 Symbolic Z-matrix:
 Charge =  0 Multiplicity = 1

 SCF Done:  E(RHF) =  -458.580566395     A.U. after   14 cycles
 Normal termination of Gaussian 16 at Wed Apr  9 00:53:29 2025.
 Gaussian 16:  ES64L-G16RevC.01  3-Jul-2019

 ----------------------------------------------------------------------
 #t hf aug-cc-pvdz iop(5/13=1,5/36=2,99/5=2) pseudo=read geom=check gue
 ss=(read,tcheck) scf=(maxcycle=1)
 ----------------------------------------------------------------------
 -----
 title
 -----
 Structure from the checkpoint file:  "BH10-RE_124_mol2.chk"
 Charge =  0 Multiplicity = 1

                         Standard orientation:
 ---------------------------------------------------------------------
 Center     Atomic      Atomic             Coordinates (Angstroms)
 Number     Number       Type             X           Y           Z
 ---------------------------------------------------------------------
      1          7           0       -0.026097   -0.358681   -0.000014
      2          6           0        1.366764   -0.091891    0.000002
      3          6           0       -1.158222    0.464685   -0.000005
      4          8           0       -1.035247    1.662497   -0.000018
      5          8           0        2.135455   -1.009890    0.000002
      6          6           0       -2.470476   -0.262495    0.000019
      7          6           0        1.756265    1.355857    0.000014
      8          9           0       -0.307416   -1.701451   -0.000007
      9          1           0       -2.556526   -0.902484    0.878979
     10          1           0       -2.556550   -0.902497   -0.878929
     11          1           0       -3.259855    0.484436    0.000024
     12          1           0        2.843270    1.389726    0.000054
     13          1           0        1.355679    1.868432    0.873857
     14          1           0        1.355750    1.868419   -0.873871
 ---------------------------------------------------------------------

 SCF Done:  E(RHF) =  -458.729626475     A.U. after    2 cycles

 The electronic state is 1-A.
 Alpha  occ. eigenvalues --  -26.18396 -20.58425 -20.57709 -15.77058 -11.41551
 Alpha  occ. eigenvalues --  -11.40443 -11.27127 -11.25888  -1.71191  -1.40407
 Alpha  occ. eigenvalues --   -1.38912  -1.20845  -1.05497  -1.01154  -0.90982
 Alpha  occ. eigenvalues --   -0.82955  -0.80334  -0.76703  -0.73523  -0.68833
 Alpha  occ. eigenvalues --   -0.65943  -0.65846  -0.65100  -0.62418  -0.59442
 Alpha  occ. eigenvalues --   -0.58640  -0.56012  -0.54508  -0.49385  -0.46994
 Alpha  occ. eigenvalues --   -0.44851
 Alpha virt. eigenvalues --    0.03125   0.03972   0.04742   0.05459   0.06571
 Alpha virt. eigenvalues --    0.06736   0.08203   0.10334   0.10804   0.11782
 Alpha virt. eigenvalues --    0.11853   0.13059   0.13786   0.14233   0.15083

 Mulliken charges:
               1
     1  N   -0.221504
     2  C    0.335529
     3  C    0.320622
     4  O   -0.448551
     5  O   -0.419881
     6  C    0.292125
     7  C    0.366934
     8  F   -0.430375
     9  H    0.082222
    10  H    0.082224
    11  H   -0.025378
    12  H   -0.101135
    13  H    0.083583
    14  H    0.083586
 Sum of Mulliken charges =  -0.00000

 Dipole moment (field-independent basis, Debye):
    X=             -2.4543    Y=              1.1654    Z=              0.0001  Tot=              2.7170

 Test job not archived.
 1\1\GINC-SE092\SP\RHF\Aug-CC-pVDZ\C4H6F1N1O2\OHZDE\09-Apr-2025\0\\#t h
 f aug-cc-pvdz iop(5/13=1,5/36=2,99/5=2) pseudo=read geom=check guess=(
 read,tcheck) scf=(maxcycle=1)\\title\\0,1\N,0,-0.026097,-0.358681,-0.0
 00014\C,0,1.366764,-0.091891,0.000002\C,0,-1.158222,0.464685,-0.000005
 \O,0,-1.035247,1.662497,-0.000018\O,0,2.135455,-1.00989,0.000002\C,0,-
 2.470476,-0.262495,0.000019\C,0,1.756265,1.355857,0.000014\F,0,-0.3074
 16,-1.701451,-0.000007\H,0,-2.556526,-0.902484,0.878979\H,0,-2.55655,-
 0.902497,-0.878929\H,0,-3.259855,0.484436,0.000024\H,0,2.84327,1.38972

 Normal termination of Gaussian 16 at Wed Apr  9 00:53:40 2025.
