 Gaussian 16, Revision C.01,

 ----------------------------------------------------------------------
 #t hf aug-cc-pvdz symm=none int=(grid=ultrafine) guess=(read,tcheck) s
 table=opt
 ----------------------------------------------------------------------
 -----
 title
 -----
 Symbolic Z-matrix:
 Charge =  0 Multiplicity = 2

 SCF Done:  E(UHF) =  -1565.97237927     A.U. after   19 cycles

 1\1\GINC-SE227\Stability\UHF\Aug-CC-pVDZ\C1Cl3O2\OHZDE\09-Apr-2025\0\\
 #t hf aug-cc-pvdz symm=none int=(grid=ultrafine) guess=(read,tcheck) s
 table=opt\\title\\0,2\O,0,-1.855519,0.,1.24389\O,0,-0.55635,0.,1.33331
 7\C,0,0.099228,0.,0.044159\Cl,0,1.804678,-0.000005,0.463997\Cl,0,-0.35
 2355,-1.452606,-0.846195\Cl,0,-0.352347,1.452612,-0.84619\\Version=ES6
 4L-G16RevC.01\HF=-1565.9723793\S2=0.761339\S2-1=0.\S2A=0.750097\RMSD=9
 .747e-09\Dipole=0.1900753,-0.0000009,-0.242883\Quadrupole=0.1239755,1.
 0882852,-1.2122608,0.0000009,0.963758,0.0000015\PG=Unknown\\@

 Normal termination of Gaussian 16 at Wed Apr  9 00:55:37 2025.
 Gaussian 16:  ES64L-G16RevC.01  3-Jul-2019

 ----------------------------------------------------------------------
 #t hf aug-cc-pvdz iop(5/13=1,5/36=2,99/5=2) pseudo=read geom=check gue
 ss=(read,tcheck) scf=(maxcycle=1)
 ----------------------------------------------------------------------
 -----
 title
 -----
 Structure from the checkpoint file:  "BH10_166_forward_mol3.chk"
 Charge =  0 Multiplicity = 2

                         Standard orientation:
 ---------------------------------------------------------------------
 Center     Atomic      Atomic             Coordinates (Angstroms)
 Number     Number       Type             X           Y           Z
 ---------------------------------------------------------------------
      1          8           0       -1.855519    0.000001    1.243890
      2          8           0       -0.556350    0.000000    1.333317
      3          6           0        0.099228   -0.000000    0.044159
      4         17           0        1.804678   -0.000006    0.463997
      5         17           0       -0.352356   -1.452606   -0.846195
      6         17           0       -0.352346    1.452612   -0.846190
 ---------------------------------------------------------------------

 SCF Done:  E(UHF) =  -1566.08859125     A.U. after    2 cycles

 The electronic state is 2-A.
 Alpha  occ. eigenvalues -- -103.71127-103.70794-103.70793 -20.73246 -20.73093
 Alpha  occ. eigenvalues --  -11.51612 -10.74498 -10.74182 -10.74164  -8.40220
 Alpha  occ. eigenvalues --   -8.39915  -8.39907  -8.39860  -8.39859  -8.39537
 Alpha  occ. eigenvalues --   -8.39536  -8.39534  -8.39533  -1.58470  -1.31780
 Alpha  occ. eigenvalues --   -1.20714  -1.18401  -1.18178  -0.89805  -0.83119
 Alpha  occ. eigenvalues --   -0.76877  -0.76537  -0.68130  -0.64819  -0.58060
 Alpha  occ. eigenvalues --   -0.56552  -0.53218  -0.52690  -0.52299  -0.49758
 Alpha  occ. eigenvalues --   -0.49628  -0.48191
 Alpha virt. eigenvalues --    0.05595   0.07755   0.08029   0.08839   0.10541
 Alpha virt. eigenvalues --    0.12117   0.12461   0.14021   0.14752   0.15101
 Alpha virt. eigenvalues --    0.17036   0.18500   0.18606   0.18671   0.20581

  Beta  occ. eigenvalues -- -103.71133-103.70789-103.70787 -20.72367 -20.69093
  Beta  occ. eigenvalues --  -11.51691 -10.74505 -10.74177 -10.74159  -8.40238
  Beta  occ. eigenvalues --   -8.39883  -8.39876  -8.39871  -8.39861  -8.39539
  Beta  occ. eigenvalues --   -8.39538  -8.39531  -8.39529  -1.52785  -1.29549
  Beta  occ. eigenvalues --   -1.18849  -1.18325  -1.12418  -0.88086  -0.75838
  Beta  occ. eigenvalues --   -0.74294  -0.71649  -0.64288  -0.60266  -0.55483
  Beta  occ. eigenvalues --   -0.53126  -0.52517  -0.51219  -0.49644  -0.49490
  Beta  occ. eigenvalues --   -0.48183
  Beta virt. eigenvalues --    0.05387   0.05600   0.07801   0.08059   0.08873
  Beta virt. eigenvalues --    0.10607   0.12140   0.13043   0.14096   0.15175
  Beta virt. eigenvalues --    0.15200   0.17376   0.18510   0.18621   0.18785

 Mulliken charges and spin densities:
               1          2
     1  O   -0.054966   0.960356
     2  O   -0.282946   0.050732
     3  C   -0.152387  -0.010184
     4  Cl   0.172090  -0.004311
     5  Cl   0.159105   0.001703
     6  Cl   0.159104   0.001703
 Sum of Mulliken charges =   0.00000   1.00000

 Dipole moment (field-independent basis, Debye):
    X=              0.5304    Y=             -0.0000    Z=             -0.7000  Tot=              0.8782
                          Isotropic Fermi Contact Couplings
        Atom                 a.u.       MegaHertz       Gauss      10(-4) cm-1
     1  O(17)              0.29918    -181.36458     -64.71539     -60.49671
     2  O(17)              0.07377     -44.71686     -15.95609     -14.91594
     3  C(13)             -0.01550     -17.42050      -6.21607      -5.81085
     4  Cl(35)            -0.00309      -1.35452      -0.48333      -0.45182
     5  Cl(35)            -0.00506      -2.22074      -0.79241      -0.74076
     6  Cl(35)            -0.00506      -2.22073      -0.79241      -0.74076
 --------------------------------------------------------
       Center         ----  Spin Dipole Couplings  ----

 Normal termination of Gaussian 16 at Wed Apr  9 00:55:40 2025.
