 Gaussian 16, Revision C.01,

 ----------------------------------------------------------------------
 #t hf aug-cc-pvdz symm=none int=(grid=ultrafine) guess=(read,tcheck) s
 table=(opt,rrhf)
 ----------------------------------------------------------------------
 -----
 title
 -----
 Symbolic Z-matrix:
 Charge =  0 Multiplicity = 1

 SCF Done:  E(RHF) =  -1087.47903426     A.U. after   14 cycles
 Normal termination of Gaussian 16 at Wed Apr  9 00:54:48 2025.
 Gaussian 16:  ES64L-G16RevC.01  3-Jul-2019

 ----------------------------------------------------------------------
 #t hf aug-cc-pvdz iop(5/13=1,5/36=2,99/5=2) pseudo=read geom=check gue
 ss=(read,tcheck) scf=(maxcycle=1)
 ----------------------------------------------------------------------
 -----
 title
 -----
 Structure from the checkpoint file:  "BH10_132_reverse_mol3.chk"
 Charge =  0 Multiplicity = 1

                         Standard orientation:
 ---------------------------------------------------------------------
 Center     Atomic      Atomic             Coordinates (Angstroms)
 Number     Number       Type             X           Y           Z
 ---------------------------------------------------------------------
      1          6           0       -1.636994    0.932424    0.095469
      2          6           0       -0.144418    0.777125   -0.145586
      3          6           0        2.269481   -0.429449   -0.493240
      4          6           0        2.985757   -0.082952    0.801556
      5          8           0        0.522906    1.774032   -0.245416
      6         17           0       -2.588011   -0.574216    0.180777
      7          1           0       -2.037889    1.542021   -0.711329
      8          1           0       -1.763548    1.465134    1.035750
      9          1           0        2.310040    0.396322   -1.202164
     10          1           0        2.703487   -1.310359   -0.967513
     11          1           0        2.550615    0.805655    1.258319
     12          1           0        4.039240    0.124457    0.598695
     13          1           0        2.932079   -0.905624    1.516263
     14         16           0        0.514747   -0.858193   -0.261694
 ---------------------------------------------------------------------

 SCF Done:  E(RHF) =  -1087.59126376     A.U. after    2 cycles

 The electronic state is 1-A.
 Alpha  occ. eigenvalues -- -103.66924 -93.55690 -20.58475 -11.39057 -11.32953
 Alpha  occ. eigenvalues --  -11.27811 -11.23709 -10.70231  -8.85592  -8.35957
 Alpha  occ. eigenvalues --   -8.35660  -8.35639  -6.19735  -6.19498  -6.19207
 Alpha  occ. eigenvalues --   -1.38752  -1.18659  -1.08016  -1.00382  -0.95591
 Alpha  occ. eigenvalues --   -0.84962  -0.74659  -0.68125  -0.67292  -0.67036
 Alpha  occ. eigenvalues --   -0.61452  -0.59346  -0.56693  -0.56252  -0.54377
 Alpha  occ. eigenvalues --   -0.51282  -0.48922  -0.46795  -0.46381  -0.42151
 Alpha  occ. eigenvalues --   -0.37838
 Alpha virt. eigenvalues --    0.03537   0.04224   0.04811   0.05452   0.06136
 Alpha virt. eigenvalues --    0.07183   0.07908   0.08155   0.10556   0.10855
 Alpha virt. eigenvalues --    0.11014   0.12376   0.13123   0.14067   0.15007

 Mulliken charges:
               1
     1  C    0.072861
     2  C   -0.242616
     3  C   -0.155646
     4  C    0.271392
     5  O   -0.548784
     6  Cl  -0.038371
     7  H    0.175560
     8  H    0.183494
     9  H    0.011560
    10  H   -0.114152
    11  H   -0.080076
    12  H   -0.054555
    13  H   -0.052385
    14  S    0.571716
 Sum of Mulliken charges =  -0.00000

 Dipole moment (field-independent basis, Debye):
    X=              0.8316    Y=             -0.2271    Z=              0.0750  Tot=              0.8653

 Test job not archived.
 1\1\GINC-SE366\SP\RHF\Aug-CC-pVDZ\C4H7Cl1O1S1\OHZDE\09-Apr-2025\0\\#t
 hf aug-cc-pvdz iop(5/13=1,5/36=2,99/5=2) pseudo=read geom=check guess=
 (read,tcheck) scf=(maxcycle=1)\\title\\0,1\C,0,-1.636994,0.932424,0.09
 5469\C,0,-0.144418,0.777125,-0.145586\C,0,2.269481,-0.429449,-0.49324\
 C,0,2.985757,-0.082952,0.801556\O,0,0.522906,1.774032,-0.245416\Cl,0,-
 2.588011,-0.574216,0.180777\H,0,-2.037889,1.542021,-0.711329\H,0,-1.76
 3548,1.465134,1.03575\H,0,2.31004,0.396322,-1.202164\H,0,2.703487,-1.3
 10359,-0.967513\H,0,2.550615,0.805655,1.258319\H,0,4.03924,0.124457,0.

 Normal termination of Gaussian 16 at Wed Apr  9 00:54:52 2025.
