 Gaussian 16, Revision C.01,

 ----------------------------------------------------------------------
 #t hf aug-cc-pvdz symm=none int=(grid=ultrafine) guess=(read,tcheck) s
 table=(opt,rrhf)
 ----------------------------------------------------------------------
 -----
 title
 -----
 Symbolic Z-matrix:
 Charge = -1 Multiplicity = 1

 SCF Done:  E(RHF) =  -1234.82052579     A.U. after   15 cycles
 Normal termination of Gaussian 16 at Wed Apr  9 01:14:48 2025.
 Gaussian 16:  ES64L-G16RevC.01  3-Jul-2019

 ----------------------------------------------------------------------
 #t hf aug-cc-pvdz iop(5/13=1,5/36=2,99/5=2) pseudo=read geom=check gue
 ss=(read,tcheck) scf=(maxcycle=1)
 ----------------------------------------------------------------------
 -----
 title
 -----
 Structure from the checkpoint file:  "BH10_322_reverse_mol1.chk"
 Charge = -1 Multiplicity = 1

                         Standard orientation:
 ---------------------------------------------------------------------
 Center     Atomic      Atomic             Coordinates (Angstroms)
 Number     Number       Type             X           Y           Z
 ---------------------------------------------------------------------
      1          6           0        2.188345    0.188457    0.898730
      2          8           0        1.992218   -0.454821    1.893569
      3          8           0        2.288680    1.525558    0.897043
      4          6           0        2.289595   -0.390133   -0.482416
      5          6           0        2.224088    0.477722   -1.699327
      6          1           0        2.182709   -0.142349   -2.593553
      7          1           0        1.338986    1.109616   -1.642368
      8          1           0        3.103727    1.113860   -1.744262
      9         17           0        4.706514   -0.335642   -0.178092
     10          1           0        2.509823   -1.435894   -0.524842
     11          8           0        0.430266   -1.048322   -0.582451
     12          6           0       -0.590866   -0.358509   -0.312340
     13          8           0       -0.579422    0.832420    0.057735
     14          6           0       -1.919826   -1.086038   -0.488676
     15          6           0       -3.069970   -0.608966    0.409898
     16          1           0       -1.748712   -2.141834   -0.284025
     17          1           0       -2.200120   -1.005148   -1.545202
     18          7           0       -4.036668   -1.688298    0.551603
     19          6           0       -3.724884    0.701256   -0.072383
     20          1           0       -2.653982   -0.396263    1.400516
     21          8           0       -4.915993    0.773630   -0.271523
     22          8           0       -2.924027    1.735517   -0.219627
     23          1           0       -1.955593    1.465136   -0.056016
     24          1           0        2.169615    1.807037    1.812269
     25          1           0       -4.871798   -1.321468    0.996043
     26          1           0       -4.341391   -1.983287   -0.371112
 ---------------------------------------------------------------------

 SCF Done:  E(RHF) =  -1235.07416562     A.U. after    2 cycles

 The electronic state is 1-A.
 Alpha  occ. eigenvalues -- -103.43131 -20.51285 -20.48836 -20.45262 -20.44835
 Alpha  occ. eigenvalues --  -20.44773 -20.43947 -15.52453 -11.30099 -11.28264
 Alpha  occ. eigenvalues --  -11.27555 -11.25430 -11.19419 -11.15729 -11.13628
 Alpha  occ. eigenvalues --  -10.46338  -8.11967  -8.11862  -8.11855  -1.32088
 Alpha  occ. eigenvalues --   -1.30506  -1.27639  -1.21942  -1.21229  -1.17561
 Alpha  occ. eigenvalues --   -1.07971  -0.97329  -0.92735  -0.88403  -0.81653
 Alpha  occ. eigenvalues --   -0.80702  -0.73185  -0.71765  -0.65514  -0.64374
 Alpha  occ. eigenvalues --   -0.61319  -0.60202  -0.59045  -0.57303  -0.55601
 Alpha  occ. eigenvalues --   -0.55398  -0.54376  -0.52542  -0.51860  -0.50997
 Alpha  occ. eigenvalues --   -0.48991  -0.48356  -0.48079  -0.46871  -0.45118
 Alpha  occ. eigenvalues --   -0.44283  -0.41774  -0.39620  -0.38172  -0.36825
 Alpha  occ. eigenvalues --   -0.36431  -0.36190  -0.35350  -0.34448  -0.31114
 Alpha  occ. eigenvalues --   -0.26244  -0.26071  -0.25912
 Alpha virt. eigenvalues --    0.10898   0.11818   0.12209   0.12903   0.13512
 Alpha virt. eigenvalues --    0.13883   0.14746   0.15352   0.16104   0.16302
 Alpha virt. eigenvalues --    0.17086   0.18745   0.18970   0.20242   0.20606

 Mulliken charges:
               1
     1  C    1.068554
     2  O   -0.584773
     3  O   -0.545824
     4  C    0.526064
     5  C    0.507649
     6  H   -0.039069
     7  H   -0.012884
     8  H    0.022931
     9  Cl  -0.729306
    10  H   -0.571382
    11  O   -0.530917
    12  C    0.277722
    13  O   -0.826602
    14  C    0.294595
    15  C    0.354224
    16  H   -0.049111
    17  H    0.027174
    18  N   -0.349009
    19  C    0.692159
    20  H   -0.113902
    21  O   -0.535862
    22  O   -0.511960
    23  H    0.378191
    24  H    0.179434
    25  H    0.022444
    26  H    0.049459
 Sum of Mulliken charges =  -1.00000

 Dipole moment (field-independent basis, Debye):
    X=             -5.7892    Y=             -0.3212    Z=             -1.2881  Tot=              5.9394

 Test job not archived.
 1\1\GINC-SE367\SP\RHF\Aug-CC-pVDZ\C7H11Cl1N1O6(1-)\OHZDE\09-Apr-2025\0
 \\#t hf aug-cc-pvdz iop(5/13=1,5/36=2,99/5=2) pseudo=read geom=check g
 uess=(read,tcheck) scf=(maxcycle=1)\\title\\-1,1\C,0,2.188345,0.188457
 ,0.89873\O,0,1.992218,-0.454821,1.893569\O,0,2.28868,1.525558,0.897043
 \C,0,2.289595,-0.390133,-0.482416\C,0,2.224088,0.477722,-1.699327\H,0,
 2.182709,-0.142349,-2.593553\H,0,1.338986,1.109616,-1.642368\H,0,3.103
 727,1.11386,-1.744262\Cl,0,4.706514,-0.335642,-0.178092\H,0,2.509823,-
 1.435894,-0.524842\O,0,0.430266,-1.048322,-0.582451\C,0,-0.590866,-0.3

 Normal termination of Gaussian 16 at Wed Apr  9 01:15:11 2025.
