 Gaussian 16, Revision C.01,

 ----------------------------------------------------------------------
 #t hf aug-cc-pvdz symm=none int=(grid=ultrafine) guess=(read,tcheck) s
 table=(opt,rrhf)
 ----------------------------------------------------------------------
 -----
 title
 -----
 Symbolic Z-matrix:
 Charge =  0 Multiplicity = 1

 SCF Done:  E(RHF) =  -857.120208537     A.U. after   14 cycles
 Normal termination of Gaussian 16 at Wed Apr  9 01:38:14 2025.
 Gaussian 16:  ES64L-G16RevC.01  3-Jul-2019

 ----------------------------------------------------------------------
 #t hf aug-cc-pvdz iop(5/13=1,5/36=2,99/5=2) pseudo=read geom=check gue
 ss=(read,tcheck) scf=(maxcycle=1)
 ----------------------------------------------------------------------
 -----
 title
 -----
 Structure from the checkpoint file:  "BH10_414_forward_mol2.chk"
 Charge =  0 Multiplicity = 1

                         Standard orientation:
 ---------------------------------------------------------------------
 Center     Atomic      Atomic             Coordinates (Angstroms)
 Number     Number       Type             X           Y           Z
 ---------------------------------------------------------------------
      1         16           0       -1.470938   -0.065274    0.045488
      2          6           0       -0.352048   -1.000131   -1.046312
      3          6           0        0.517046   -2.003734   -0.301876
      4          6           0        1.709145   -1.547968    0.495292
      5          6           0        1.568002    1.674601   -0.460294
      6          6           0        0.514745    1.842789    0.594243
      7          6           0       -0.903065    1.644915    0.062962
      8          6           0        2.502392   -0.487882    0.375161
      9          6           0        2.412060    0.653396   -0.558757
     10          8           0       -1.333764   -0.588640    1.403103
     11          8           0       -2.780993   -0.048542   -0.601086
     12          1           0       -1.047330   -1.520428   -1.705381
     13          1           0        0.211309   -0.282261   -1.636798
     14          1           0        0.881172   -2.721047   -1.047367
     15          1           0       -0.128223   -2.577998    0.365042
     16          1           0        0.575255    2.859828    0.990976
     17          1           0        0.683323    1.164075    1.432315
     18          1           0       -1.040254    2.025173   -0.950383
     19          1           0       -1.647317    2.116713    0.706959
     20          1           0        1.995439   -2.268441    1.256218
     21          1           0        3.369857   -0.457390    1.031925
     22          1           0        1.631202    2.468735   -1.200371
     23          1           0        3.158968    0.678965   -1.349587
 ---------------------------------------------------------------------

 SCF Done:  E(RHF) =  -857.329769917     A.U. after    2 cycles

 The electronic state is 1-A.
 Alpha  occ. eigenvalues --  -93.76637 -20.54753 -20.54567 -11.28674 -11.28343
 Alpha  occ. eigenvalues --  -11.26234 -11.26195 -11.26016 -11.25841 -11.25782
 Alpha  occ. eigenvalues --  -11.25170  -9.03487  -6.38105  -6.37904  -6.37834
 Alpha  occ. eigenvalues --   -1.40182  -1.28822  -1.12743  -1.09082  -1.06566
 Alpha  occ. eigenvalues --   -1.00235  -0.95320  -0.88683  -0.82561  -0.78163
 Alpha  occ. eigenvalues --   -0.71732  -0.70409  -0.68747  -0.66778  -0.65704
 Alpha  occ. eigenvalues --   -0.65603  -0.62767  -0.61210  -0.59248  -0.58304
 Alpha  occ. eigenvalues --   -0.57700  -0.53943  -0.53159  -0.52229  -0.50162
 Alpha  occ. eigenvalues --   -0.49477  -0.48771  -0.47686  -0.43728  -0.39277
 Alpha  occ. eigenvalues --   -0.36085
 Alpha virt. eigenvalues --    0.02635   0.03434   0.03886   0.04226   0.05322
 Alpha virt. eigenvalues --    0.05806   0.05969   0.06753   0.07031   0.08139
 Alpha virt. eigenvalues --    0.08427   0.09163   0.10673   0.11241   0.12000

 Mulliken charges:
               1
     1  S    2.661792
     2  C   -0.000417
     3  C    0.117399
     4  C    0.166737
     5  C    0.574596
     6  C    0.270403
     7  C   -0.205159
     8  C    0.336260
     9  C    0.453000
    10  O   -1.204796
    11  O   -1.170107
    12  H   -0.011500
    13  H   -0.152577
    14  H    0.050551
    15  H   -0.007953
    16  H   -0.009145
    17  H   -0.077637
    18  H   -0.072467
    19  H   -0.022169
    20  H   -0.466768
    21  H   -0.390151
    22  H   -0.451626
    23  H   -0.388266
 Sum of Mulliken charges =  -0.00000

 Dipole moment (field-independent basis, Debye):
    X=              4.6885    Y=              1.4863    Z=             -2.1924  Tot=              5.3850

 Test job not archived.
 1\1\GINC-SE131\SP\RHF\Aug-CC-pVDZ\C8H12O2S1\OHZDE\09-Apr-2025\0\\#t hf
  aug-cc-pvdz iop(5/13=1,5/36=2,99/5=2) pseudo=read geom=check guess=(r
 ead,tcheck) scf=(maxcycle=1)\\title\\0,1\S,0,-1.470938,-0.065274,0.045
 488\C,0,-0.352048,-1.000131,-1.046312\C,0,0.517045,-2.003734,-0.301876
 \C,0,1.709145,-1.547968,0.495292\C,0,1.568002,1.674601,-0.460294\C,0,0
 .514745,1.842789,0.594243\C,0,-0.903065,1.644915,0.062962\C,0,2.502392
 ,-0.487883,0.375161\C,0,2.41206,0.653395,-0.558757\O,0,-1.333764,-0.58
 864,1.403103\O,0,-2.780993,-0.048541,-0.601086\H,0,-1.04733,-1.520428,

 Normal termination of Gaussian 16 at Wed Apr  9 01:38:33 2025.
