 Gaussian 16, Revision C.01,

 ----------------------------------------------------------------------
 #t hf aug-cc-pvdz symm=none int=(grid=ultrafine) guess=(read,tcheck) s
 table=(opt,rrhf)
 ----------------------------------------------------------------------
 -----
 title
 -----
 Symbolic Z-matrix:
 Charge =  0 Multiplicity = 1

 SCF Done:  E(RHF) =  -1000.91199748     A.U. after   17 cycles
 Normal termination of Gaussian 16 at Wed Apr  9 02:17:56 2025.
 Gaussian 16:  ES64L-G16RevC.01  3-Jul-2019

 ----------------------------------------------------------------------
 #t hf aug-cc-pvdz iop(5/13=1,5/36=2,99/5=2) pseudo=read geom=check gue
 ss=(read,tcheck) scf=(maxcycle=1)
 ----------------------------------------------------------------------
 -----
 title
 -----
 Structure from the checkpoint file:  "BH10_85_reverse_mol2.chk"
 Charge =  0 Multiplicity = 1

                         Standard orientation:
 ---------------------------------------------------------------------
 Center     Atomic      Atomic             Coordinates (Angstroms)
 Number     Number       Type             X           Y           Z
 ---------------------------------------------------------------------
      1          6           0        0.342742    0.090939    2.160585
      2          6           0       -1.592826   -0.299647    0.757385
      3          6           0        0.831975    1.159858    1.226104
      4          6           0       -1.348289    0.862489    0.066196
      5          6           0       -2.272855    1.337658   -1.021948
      6          6           0       -0.759966   -0.605231    1.906230
      7          6           0       -0.041150    2.903986   -0.302695
      8          6           0       -2.652366   -1.218886    0.378301
      9          6           0        2.113707    0.771005    0.445505
     10          6           0        3.272233    0.599590    1.439905
     11          1           0        3.163097   -0.305926    2.040662
     12          1           0        3.325217    1.446234    2.132652
     13          1           0        2.365060    1.635041   -0.185877
     14          1           0        4.232926    0.539249    0.927736
     15          7           0       -0.259693    1.619971    0.343451
     16         14           0        2.063821   -0.690851   -0.784196
     17          6           0        0.812315   -0.413598   -2.160028
     18          6           0        3.770382   -0.737873   -1.581049
     19          6           0        1.733684   -2.344370    0.033090
     20          1           0        0.850275    3.357344    0.125167
     21          1           0       -0.874074    3.588708   -0.132753
     22          1           0        0.117411    2.806238   -1.380126
     23          1           0        4.047435    0.232061   -2.003542
     24          1           0        3.785944   -1.466873   -2.395578
     25          1           0        4.548603   -1.026734   -0.871351
     26          1           0        0.861958    0.600852   -2.564236
     27          1           0       -0.204532   -0.601949   -1.816467
     28          1           0        1.014726   -1.103379   -2.983681
     29          1           0        0.701950   -2.428645    0.374995
     30          1           0        2.383762   -2.508235    0.895668
     31          1           0        1.922264   -3.153115   -0.678680
     32          6           0       -3.479305   -0.855622   -0.838218
     33          6           0       -3.632127    0.651018   -0.973616
     34          1           0       -4.439649   -1.364284   -0.753590
     35          1           0       -2.972520   -1.267019   -1.719812
     36          1           0       -4.195388    1.032828   -0.117016
     37          1           0       -4.202258    0.906087   -1.869558
     38          1           0       -1.788579    1.153769   -1.989063
     39          1           0       -2.406113    2.417541   -0.951773
     40          8           0       -2.857857   -2.260931    0.981366
     41          1           0        0.941877   -0.104225    3.040786
     42          1           0       -1.089280   -1.408498    2.553176
     43          1           0        1.108171    2.034593    1.831449
 ---------------------------------------------------------------------

 SCF Done:  E(RHF) =  -1001.15100612     A.U. after    2 cycles

 The electronic state is 1-A.
 Alpha  occ. eigenvalues --  -69.03975 -20.52154 -15.66118 -11.31851 -11.31526
 Alpha  occ. eigenvalues --  -11.28816 -11.28615 -11.25873 -11.24588 -11.23315
 Alpha  occ. eigenvalues --  -11.23115 -11.23099 -11.22320 -11.22264 -11.21162
 Alpha  occ. eigenvalues --  -11.20674 -11.20414 -11.19646  -6.79271  -3.90024
 Alpha  occ. eigenvalues --   -3.90010  -3.90003  -1.31632  -1.25892  -1.11772
 Alpha  occ. eigenvalues --   -1.08753  -1.05185  -1.00199  -0.97662  -0.96135
 Alpha  occ. eigenvalues --   -0.95298  -0.91829  -0.91148  -0.89911  -0.85659
 Alpha  occ. eigenvalues --   -0.81830  -0.79869  -0.74759  -0.69925  -0.69109
 Alpha  occ. eigenvalues --   -0.67700  -0.65070  -0.63696  -0.62093  -0.61250
 Alpha  occ. eigenvalues --   -0.60917  -0.60201  -0.58925  -0.58638  -0.57987
 Alpha  occ. eigenvalues --   -0.57266  -0.56764  -0.56303  -0.55475  -0.54984
 Alpha  occ. eigenvalues --   -0.54097  -0.53474  -0.53305  -0.53053  -0.52306
 Alpha  occ. eigenvalues --   -0.51720  -0.50031  -0.48862  -0.48126  -0.47113
 Alpha  occ. eigenvalues --   -0.44875  -0.42649  -0.42174  -0.40169  -0.40015
 Alpha  occ. eigenvalues --   -0.39140  -0.27441
 Alpha virt. eigenvalues --    0.02141   0.02991   0.03224   0.04012   0.04791
 Alpha virt. eigenvalues --    0.04938   0.05301   0.05822   0.05900   0.06559
 Alpha virt. eigenvalues --    0.06657   0.07129   0.07336   0.07537   0.07871

 Mulliken charges:
               1
     1  C    0.279133
     2  C    0.347693
     3  C    1.017984
     4  C   -1.600015
     5  C    0.650119
     6  C    0.738149
     7  C    1.099694
     8  C   -0.293667
     9  C   -0.174291
    10  C    1.009503
    11  H   -0.126176
    12  H   -0.090186
    13  H   -0.235729
    14  H   -0.086263
    15  N   -0.507377
    16  Si  -0.374060
    17  C    1.271386
    18  C    0.822170
    19  C    1.059718
    20  H   -0.415911
    21  H   -0.203758
    22  H    0.076541
    23  H   -0.172383
    24  H   -0.350009
    25  H   -0.346917
    26  H   -0.243261
    27  H   -0.564099
    28  H   -0.444214
    29  H   -0.286249
    30  H   -0.217761
    31  H   -0.445511
    32  C    0.641216
    33  C    0.606639
    34  H   -0.053643
    35  H    0.062211
    36  H   -0.074455
    37  H   -0.029647
    38  H   -0.015409
    39  H   -0.026307
    40  O   -0.635289
    41  H   -0.612239
    42  H   -0.751711
    43  H   -0.305621
 Sum of Mulliken charges =   0.00000

 Dipole moment (field-independent basis, Debye):
    X=              2.0407    Y=              5.8171    Z=             -2.7749  Tot=              6.7604

 Test job not archived.
 1\1\GINC-SE328\SP\RHF\Aug-CC-pVDZ\C15H25N1O1Si1\OHZDE\09-Apr-2025\0\\#
 t hf aug-cc-pvdz iop(5/13=1,5/36=2,99/5=2) pseudo=read geom=check gues
 s=(read,tcheck) scf=(maxcycle=1)\\title\\0,1\C,0,0.342742,0.090939,2.1
 60585\C,0,-1.592826,-0.299647,0.757385\C,0,0.831975,1.159858,1.226104\
 C,0,-1.348289,0.862489,0.066196\C,0,-2.272855,1.337658,-1.021948\C,0,-
 0.759966,-0.605231,1.90623\C,0,-0.04115,2.903986,-0.302695\C,0,-2.6523
 66,-1.218886,0.378301\C,0,2.113707,0.771005,0.445505\C,0,3.272233,0.59
 959,1.439905\H,0,3.163097,-0.305926,2.040662\H,0,3.325217,1.446234,2.1

 Normal termination of Gaussian 16 at Wed Apr  9 02:19:43 2025.
