 Gaussian 16, Revision C.01,

 ----------------------------------------------------------------------
 #t hf aug-cc-pvdz symm=none int=(grid=ultrafine) guess=(read,tcheck) s
 table=(opt,rrhf)
 ----------------------------------------------------------------------
 -----
 title
 -----
 Symbolic Z-matrix:
 Charge =  0 Multiplicity = 1

 SCF Done:  E(RHF) =  -855.861017461     A.U. after   18 cycles
 Normal termination of Gaussian 16 at Wed Apr  9 01:51:21 2025.
 Gaussian 16:  ES64L-G16RevC.01  3-Jul-2019

 ----------------------------------------------------------------------
 #t hf aug-cc-pvdz iop(5/13=1,5/36=2,99/5=2) pseudo=read geom=check gue
 ss=(read,tcheck) scf=(maxcycle=1)
 ----------------------------------------------------------------------
 -----
 title
 -----
 Structure from the checkpoint file:  "BH10_92_forward_mol1.chk"
 Charge =  0 Multiplicity = 1

                         Standard orientation:
 ---------------------------------------------------------------------
 Center     Atomic      Atomic             Coordinates (Angstroms)
 Number     Number       Type             X           Y           Z
 ---------------------------------------------------------------------
      1          6           0       -0.907374    1.217133   -0.455359
      2          6           0       -0.474402    1.510775    0.810110
      3          6           0       -0.680469   -0.781424    0.951898
      4          6           0       -0.370654    0.374869    1.634761
      5          1           0       -0.811023   -1.755439    1.404689
      6          1           0        0.005516    0.394594    2.648853
      7          1           0       -0.164765    2.502450    1.114696
      8          1           0       -1.151325    1.933297   -1.226837
      9         16           0       -1.717344   -0.398406   -0.507970
     10          6           0        2.723605    0.292868    0.264588
     11          6           0        1.002059    0.027283   -1.207256
     12          6           0        0.930476   -1.114414   -0.421100
     13          6           0        2.173034   -1.129107    0.448433
     14          1           0        2.535174    0.928236    1.128204
     15          1           0        0.614729    0.163131   -2.203950
     16          1           0        0.523742   -2.029759   -0.824724
     17          1           0        2.876538   -1.878998    0.078645
     18          1           0        1.969274   -1.350090    1.496363
     19          1           0        3.786690    0.322303    0.026986
     20          8           0       -3.153259   -0.258251   -0.093224
     21          8           0        2.017673    0.852860   -0.865759
 ---------------------------------------------------------------------

 SCF Done:  E(RHF) =  -856.039716862     A.U. after    2 cycles

 The electronic state is 1-A.
 Alpha  occ. eigenvalues --  -93.65432 -20.60891 -20.51113 -11.33532 -11.30914
 Alpha  occ. eigenvalues --  -11.29298 -11.26789 -11.26569 -11.26336 -11.26117
 Alpha  occ. eigenvalues --  -11.24992  -8.93690  -6.27980  -6.27791  -6.27504
 Alpha  occ. eigenvalues --   -1.39005  -1.29200  -1.14842  -1.07836  -1.02380
 Alpha  occ. eigenvalues --   -0.98522  -0.94883  -0.85031  -0.80676  -0.77958
 Alpha  occ. eigenvalues --   -0.75058  -0.73780  -0.70833  -0.69947  -0.62842
 Alpha  occ. eigenvalues --   -0.59410  -0.58953  -0.58432  -0.57919  -0.56942
 Alpha  occ. eigenvalues --   -0.56713  -0.55393  -0.54695  -0.52023  -0.51465
 Alpha  occ. eigenvalues --   -0.46284  -0.42942  -0.37919  -0.34980  -0.30323
 Alpha virt. eigenvalues --    0.02622   0.03595   0.03765   0.04243   0.05141
 Alpha virt. eigenvalues --    0.05440   0.05625   0.06362   0.06954   0.07737
 Alpha virt. eigenvalues --    0.08515   0.09402   0.10460   0.11678   0.11971

 Mulliken charges:
               1
     1  C    0.237095
     2  C    0.436461
     3  C    0.259129
     4  C    0.345570
     5  H   -0.532822
     6  H   -0.431567
     7  H   -0.415756
     8  H   -0.514996
     9  S    1.514477
    10  C    0.833682
    11  C    0.904301
    12  C    0.403503
    13  C    0.250858
    14  H   -0.175633
    15  H   -0.385170
    16  H   -0.474164
    17  H   -0.067988
    18  H   -0.116755
    19  H   -0.229874
    20  O   -1.110483
    21  O   -0.729868
 Sum of Mulliken charges =  -0.00000

 Dipole moment (field-independent basis, Debye):
    X=              6.2827    Y=             -0.8176    Z=              0.7487  Tot=              6.3798

 Test job not archived.
 1\1\GINC-SE398\SP\RHF\Aug-CC-pVDZ\C8H10O2S1\OHZDE\09-Apr-2025\0\\#t hf
  aug-cc-pvdz iop(5/13=1,5/36=2,99/5=2) pseudo=read geom=check guess=(r
 ead,tcheck) scf=(maxcycle=1)\\title\\0,1\C,0,-0.907374,1.217133,-0.455
 359\C,0,-0.474402,1.510775,0.81011\C,0,-0.680469,-0.781424,0.951898\C,
 0,-0.370654,0.374869,1.634761\H,0,-0.811023,-1.755439,1.404689\H,0,0.0
 05516,0.394594,2.648853\H,0,-0.164765,2.50245,1.114696\H,0,-1.151325,1
 .933297,-1.226837\S,0,-1.717344,-0.398406,-0.50797\C,0,2.723605,0.2928
 68,0.264588\C,0,1.002059,0.027283,-1.207256\C,0,0.930476,-1.114414,-0.

 Normal termination of Gaussian 16 at Wed Apr  9 01:51:36 2025.
