 Gaussian 16, Revision C.01,

 ----------------------------------------------------------------------
 #t hf aug-cc-pvdz symm=none int=(grid=ultrafine) guess=(read,tcheck) s
 table=(opt,rrhf)
 ----------------------------------------------------------------------
 -----
 title
 -----
 Symbolic Z-matrix:
 Charge = -1 Multiplicity = 1

 SCF Done:  E(RHF) =  -99.4282824418     A.U. after    8 cycles
 Normal termination of Gaussian 16 at Wed Apr  9 01:06:36 2025.
 Gaussian 16:  ES64L-G16RevC.01  3-Jul-2019

 ----------------------------------------------------------------------
 #t hf aug-cc-pvdz iop(5/13=1,5/36=2,99/5=2) pseudo=read geom=check gue
 ss=(read,tcheck) scf=(maxcycle=1)
 ----------------------------------------------------------------------
 -----
 title
 -----
 Structure from the checkpoint file:  "BH10_318_forward_mol3.chk"
 Charge = -1 Multiplicity = 1

                         Standard orientation:
 ---------------------------------------------------------------------
 Center     Atomic      Atomic             Coordinates (Angstroms)
 Number     Number       Type             X           Y           Z
 ---------------------------------------------------------------------
      1          9           0        0.000000    0.000000    0.000000
 ---------------------------------------------------------------------

 SCF Done:  E(RHF) =  -99.4592525878     A.U. after    2 cycles

 The electronic state is 1-A1G.
 Alpha  occ. eigenvalues --  -25.66005  -1.13205  -0.23920  -0.23920  -0.23920
 Alpha virt. eigenvalues --    0.50170   0.50170   0.50170   0.54164   1.73940
 Alpha virt. eigenvalues --    1.73940   1.73940   1.73940   1.73940   1.98997
 Alpha virt. eigenvalues --    1.98997   1.98997   2.59519   5.28518   5.28518

 Mulliken charges:
               1
     1  F   -1.000000
 Sum of Mulliken charges =  -1.00000

 Dipole moment (field-independent basis, Debye):
    X=             -0.0000    Y=             -0.0000    Z=              0.0000  Tot=              0.0000

 Test job not archived.
 1\1\GINC-SE045\SP\RHF\Aug-CC-pVDZ\F1(1-)\OHZDE\09-Apr-2025\0\\#t hf au
 g-cc-pvdz iop(5/13=1,5/36=2,99/5=2) pseudo=read geom=check guess=(read
 ,tcheck) scf=(maxcycle=1)\\title\\-1,1\F,0,0.,0.,0.\\Version=ES64L-G16
 RevC.01\State=1-A1G\HF=-99.4592526\RMSD=8.283e-03\Dipole=0.,0.,0.\Quad
 rupole=0.,0.,0.,0.,0.,0.\PG=OH [O(F1)]\\@

 Human beings, who are almost unique in having the

 Normal termination of Gaussian 16 at Wed Apr  9 01:06:38 2025.
