 Gaussian 16, Revision C.01,

 ----------------------------------------------------------------------
 #t hf aug-cc-pvdz symm=none int=(grid=ultrafine) guess=(read,tcheck) s
 table=(opt,rrhf)
 ----------------------------------------------------------------------
 -----
 title
 -----
 Symbolic Z-matrix:
 Charge =  0 Multiplicity = 1

 SCF Done:  E(RHF) =  -905.640949363     A.U. after   15 cycles
 Normal termination of Gaussian 16 at Wed Apr  9 00:55:56 2025.
 Gaussian 16:  ES64L-G16RevC.01  3-Jul-2019

 ----------------------------------------------------------------------
 #t hf aug-cc-pvdz iop(5/13=1,5/36=2,99/5=2) pseudo=read geom=check gue
 ss=(read,tcheck) scf=(maxcycle=1)
 ----------------------------------------------------------------------
 -----
 title
 -----
 Structure from the checkpoint file:  "BH10_104_forward_mol2.chk"
 Charge =  0 Multiplicity = 1

                         Standard orientation:
 ---------------------------------------------------------------------
 Center     Atomic      Atomic             Coordinates (Angstroms)
 Number     Number       Type             X           Y           Z
 ---------------------------------------------------------------------
      1          6           0       -2.271412    0.007798    0.000021
      2          6           0       -2.836664   -0.614559    1.265040
      3          6           0       -0.754924    0.012642    0.000002
      4          6           0       -2.836699   -0.614947   -1.264790
      5          1           0       -2.458578   -0.088276    2.141927
      6          1           0       -2.547793   -1.663733    1.341124
      7          1           0       -3.925773   -0.551725    1.254337
      8          6           0       -0.051628   -1.189656    0.000160
      9          6           0       -0.040762    1.203969   -0.000167
     10          1           0       -2.547839   -1.664147   -1.340558
     11          1           0       -2.458633   -0.088939   -2.141850
     12          1           0       -3.925807   -0.552101   -1.254078
     13          6           0        1.347622    1.200521   -0.000179
     14          6           0        2.023428   -0.006061   -0.000020
     15          6           0        1.333404   -1.207637    0.000151
     16          1           0       -0.582884   -2.134105    0.000295
     17          1           0        1.874913   -2.144137    0.000274
     18          1           0       -0.575128    2.143521   -0.000291
     19          1           0        1.900279    2.130626   -0.000311
     20         17           0        3.770859   -0.018455   -0.000033
     21          9           0       -2.703506    1.352705   -0.000180
 ---------------------------------------------------------------------

 SCF Done:  E(RHF) =  -905.797207711     A.U. after    2 cycles

 The electronic state is 1-A.
 Alpha  occ. eigenvalues -- -103.66650 -26.10287 -11.34147 -11.31209 -11.26307
 Alpha  occ. eigenvalues --  -11.26267 -11.26106 -11.26031 -11.25513 -11.24127
 Alpha  occ. eigenvalues --  -11.24120 -10.69941  -8.35679  -8.35373  -8.35355
 Alpha  occ. eigenvalues --   -1.63504  -1.20365  -1.15003  -1.08752  -1.03225
 Alpha  occ. eigenvalues --   -0.99888  -0.95987  -0.87114  -0.85238  -0.80957
 Alpha  occ. eigenvalues --   -0.75643  -0.72618  -0.70840  -0.66841  -0.65368
 Alpha  occ. eigenvalues --   -0.64371  -0.61393  -0.60526  -0.58526  -0.56813
 Alpha  occ. eigenvalues --   -0.55618  -0.55384  -0.54902  -0.52209  -0.50988
 Alpha  occ. eigenvalues --   -0.49092  -0.47385  -0.46820  -0.35953  -0.34071
 Alpha virt. eigenvalues --    0.03048   0.04156   0.04202   0.04660   0.05822
 Alpha virt. eigenvalues --    0.06120   0.06726   0.07034   0.07302   0.08387
 Alpha virt. eigenvalues --    0.09586   0.09790   0.09926   0.10970   0.12512

 Mulliken charges:
               1
     1  C   -1.347976
     2  C    0.696473
     3  C    0.399629
     4  C    0.696482
     5  H    0.011492
     6  H    0.013542
     7  H   -0.031277
     8  C    0.847076
     9  C    0.716356
    10  H    0.013541
    11  H    0.011491
    12  H   -0.031274
    13  C    0.874225
    14  C   -0.470272
    15  C    0.625788
    16  H   -0.703626
    17  H   -0.451367
    18  H   -0.636154
    19  H   -0.443143
    20  Cl  -0.369616
    21  F   -0.421392
 Sum of Mulliken charges =  -0.00000

 Dipole moment (field-independent basis, Debye):
    X=             -1.7172    Y=             -2.0505    Z=              0.0003  Tot=              2.6746

 Test job not archived.
 1\1\GINC-SE329\SP\RHF\Aug-CC-pVDZ\C9H10Cl1F1\OHZDE\09-Apr-2025\0\\#t h
 f aug-cc-pvdz iop(5/13=1,5/36=2,99/5=2) pseudo=read geom=check guess=(
 read,tcheck) scf=(maxcycle=1)\\title\\0,1\C,0,-2.271412,0.007798,0.000
 021\C,0,-2.836664,-0.614559,1.26504\C,0,-0.754924,0.012642,0.000002\C,
 0,-2.836699,-0.614947,-1.26479\H,0,-2.458578,-0.088276,2.141927\H,0,-2
 .547793,-1.663733,1.341124\H,0,-3.925773,-0.551725,1.254337\C,0,-0.051
 628,-1.189656,0.00016\C,0,-0.040762,1.203969,-0.000167\H,0,-2.547839,-
 1.664147,-1.340558\H,0,-2.458633,-0.088939,-2.14185\H,0,-3.925807,-0.5

 Normal termination of Gaussian 16 at Wed Apr  9 00:56:10 2025.
