 Gaussian 16, Revision C.01,

 ----------------------------------------------------------------------
 #t hf aug-cc-pvdz symm=none int=(grid=ultrafine) guess=(read,tcheck) s
 table=(opt,rrhf)
 ----------------------------------------------------------------------
 -----
 title
 -----
 Symbolic Z-matrix:
 Charge =  0 Multiplicity = 1

 SCF Done:  E(RHF) =  -727.094709541     A.U. after   15 cycles
 Normal termination of Gaussian 16 at Wed Apr  9 00:54:54 2025.
 Gaussian 16:  ES64L-G16RevC.01  3-Jul-2019

 ----------------------------------------------------------------------
 #t hf aug-cc-pvdz iop(5/13=1,5/36=2,99/5=2) pseudo=read geom=check gue
 ss=(read,tcheck) scf=(maxcycle=1)
 ----------------------------------------------------------------------
 -----
 title
 -----
 Structure from the checkpoint file:  "BH10_106_forward_mol2.chk"
 Charge =  0 Multiplicity = 1

                         Standard orientation:
 ---------------------------------------------------------------------
 Center     Atomic      Atomic             Coordinates (Angstroms)
 Number     Number       Type             X           Y           Z
 ---------------------------------------------------------------------
      1         16           0       -1.890726   -0.000000   -0.542786
      2          6           0       -0.154917   -0.000000   -0.242244
      3          6           0        0.532581   -1.208642   -0.134014
      4          6           0        1.901143   -1.205659    0.083679
      5          6           0        2.582590    0.000000    0.192611
      6          6           0        1.901143    1.205660    0.083678
      7          6           0        0.532580    1.208641   -0.134015
      8          1           0        2.437001   -2.142895    0.168165
      9          1           0        3.652707    0.000000    0.361736
     10          1           0       -0.013077   -2.139375   -0.221273
     11          1           0       -0.013078    2.139375   -0.221274
     12          1           0        2.437000    2.142895    0.168164
     13          9           0       -2.446629    0.000000    1.036765
 ---------------------------------------------------------------------

 SCF Done:  E(RHF) =  -727.221147136     A.U. after    2 cycles

 The electronic state is 1-A.
 Alpha  occ. eigenvalues --  -93.61509 -26.11376 -11.28620 -11.27253 -11.27245
 Alpha  occ. eigenvalues --  -11.27215 -11.26275 -11.26269  -8.90373  -6.24580
 Alpha  occ. eigenvalues --   -6.24263  -6.23831  -1.62507  -1.17446  -1.06303
 Alpha  occ. eigenvalues --   -1.03708  -0.95027  -0.85487  -0.82949  -0.73916
 Alpha  occ. eigenvalues --   -0.71924  -0.71433  -0.68382  -0.65903  -0.64220
 Alpha  occ. eigenvalues --   -0.61702  -0.56505  -0.53227  -0.52363  -0.48524
 Alpha  occ. eigenvalues --   -0.37915  -0.37240  -0.36288
 Alpha virt. eigenvalues --    0.02993   0.03837   0.04529   0.04725   0.05968
 Alpha virt. eigenvalues --    0.06303   0.08570   0.09132   0.09268   0.11612
 Alpha virt. eigenvalues --    0.12121   0.12355   0.13491   0.14098   0.14363

 Mulliken charges:
               1
     1  S    0.612121
     2  C    0.537268
     3  C   -0.011719
     4  C    0.679843
     5  C    0.276630
     6  C    0.679848
     7  C   -0.011722
     8  H   -0.423613
     9  H   -0.426339
    10  H   -0.436970
    11  H   -0.436969
    12  H   -0.423616
    13  F   -0.614761
 Sum of Mulliken charges =  -0.00000

 Dipole moment (field-independent basis, Debye):
    X=              3.5782    Y=              0.0000    Z=             -1.2530  Tot=              3.7913

 Test job not archived.
 1\1\GINC-SE102\SP\RHF\Aug-CC-pVDZ\C6H5F1S1\OHZDE\09-Apr-2025\0\\#t hf
 aug-cc-pvdz iop(5/13=1,5/36=2,99/5=2) pseudo=read geom=check guess=(re
 ad,tcheck) scf=(maxcycle=1)\\title\\0,1\S,0,1.890726,0.,-0.542786\C,0,
 0.154917,0.,-0.242244\C,0,-0.532581,1.208642,-0.134014\C,0,-1.901143,1
 .205659,0.083679\C,0,-2.58259,0.,0.192611\C,0,-1.901143,-1.20566,0.083
 678\C,0,-0.53258,-1.208641,-0.134015\H,0,-2.437001,2.142895,0.168165\H
 ,0,-3.652707,0.,0.361736\H,0,0.013077,2.139375,-0.221273\H,0,0.013078,
 -2.139375,-0.221274\H,0,-2.437,-2.142895,0.168164\F,0,2.446629,-0.0000

 Normal termination of Gaussian 16 at Wed Apr  9 00:55:00 2025.
