 Gaussian 16, Revision C.01,

 ----------------------------------------------------------------------
 #t hf aug-cc-pvdz symm=none int=(grid=ultrafine) guess=(read,tcheck) s
 table=(opt,rrhf)
 ----------------------------------------------------------------------
 -----
 title
 -----
 Symbolic Z-matrix:
 Charge = -1 Multiplicity = 1

 SCF Done:  E(RHF) =  -1778.61892089     A.U. after   20 cycles
 Normal termination of Gaussian 16 at Wed Apr  9 02:32:16 2025.
 Gaussian 16:  ES64L-G16RevC.01  3-Jul-2019

 ----------------------------------------------------------------------
 #t hf aug-cc-pvdz iop(5/13=1,5/36=2,99/5=2) pseudo=read geom=check gue
 ss=(read,tcheck) scf=(maxcycle=1)
 ----------------------------------------------------------------------
 -----
 title
 -----
 Structure from the checkpoint file:  "BH10_247_forward_mol1.chk"
 Charge = -1 Multiplicity = 1

                         Standard orientation:
 ---------------------------------------------------------------------
 Center     Atomic      Atomic             Coordinates (Angstroms)
 Number     Number       Type             X           Y           Z
 ---------------------------------------------------------------------
      1          7           0        2.714883    2.722776    0.357931
      2          6           0        3.906123    3.108973   -0.171150
      3          7           0        4.840782    2.100149   -0.453271
      4          6           0        4.681867    0.740243   -0.261896
      5          6           0        3.420669    0.399118    0.351707
      6          6           0        2.499424    1.439428    0.579116
      7          7           0        1.262119    1.088106    1.106117
      8          7           0        3.157286   -0.925291    0.582184
      9          6           0        1.971927   -1.214060    1.209235
     10          6           0        0.996419   -0.219620    1.461629
     11          6           0       -0.217473   -0.593581    2.040848
     12          6           0        1.677198   -2.554136    1.496768
     13          6           0        0.458594   -2.914159    2.029274
     14          6           0       -0.489504   -1.927095    2.289163
     15          1           0       -1.458234   -2.200468    2.688983
     16          1           0       -0.981204    0.145748    2.222812
     17          1           0        2.443305   -3.288138    1.280585
     18          1           0        0.231995   -3.954425    2.226544
     19          8           0        4.211273    4.266664   -0.417387
     20          8           0        5.539655   -0.056709   -0.626209
     21          6           0        3.658298   -2.624751   -2.362280
     22          6           0        2.527826   -1.813727   -1.766953
     23          1           0        4.618050   -2.147964   -2.158531
     24          1           0        3.541610   -2.725363   -3.446354
     25          1           0        3.678752   -3.631035   -1.935216
     26          6           0        1.261840   -2.402466   -1.552606
     27          1           0        2.501483   -0.769369   -2.095494
     28          6           0        0.117469   -1.667561   -1.258010
     29          1           0        1.196354   -3.487957   -1.517193
     30          6           0       -1.115760   -2.176874   -0.900510
     31          1           0        0.195761   -0.583766   -1.292719
     32          6           0       -2.165457   -1.308299   -0.514624
     33          1           0       -1.288256   -3.245724   -0.862065
     34          8           0       -2.144080   -0.084921   -0.447223
     35         16           0       -3.701756   -2.191856   -0.030795
     36          6           0       -4.732393   -0.752655    0.342897
     37          6           0       -5.258984   -0.063215   -0.913406
     38          1           0       -4.133445   -0.054060    0.926157
     39          1           0       -5.555620   -1.108712    0.964976
     40          7           0       -6.038157    1.125131   -0.615350
     41          1           0       -5.883668   -0.754638   -1.482552
     42          1           0       -4.418758    0.206878   -1.549101
     43          6           0       -5.568777    2.394890   -0.441025
     44          8           0       -6.306698    3.277739   -0.033763
     45          6           0       -4.129770    2.653681   -0.813744
     46          1           0       -4.025839    2.642659   -1.902039
     47          1           0       -3.443395    1.902254   -0.421156
     48          1           0       -3.860751    3.641941   -0.449387
     49          1           0       -6.993987    1.008140   -0.311768
     50          1           0        2.992389   -1.524124   -0.576576
     51          1           0        5.701845    2.400566   -0.886358
     52          6           0        0.218902    2.091488    1.250240
     53          1           0        0.596729    3.017631    0.830718
     54          1           0       -0.020982    2.247660    2.305529
     55          1           0       -0.676252    1.759949    0.718257
 ---------------------------------------------------------------------

 SCF Done:  E(RHF) =  -1779.04641986     A.U. after    2 cycles

 The electronic state is 1-A.
 Alpha  occ. eigenvalues --  -93.45346 -20.45533 -20.45388 -20.42233 -20.40661
 Alpha  occ. eigenvalues --  -15.58306 -15.57383 -15.57155 -15.54790 -15.48441
 Alpha  occ. eigenvalues --  -11.28602 -11.26905 -11.26696 -11.25550 -11.24753
 Alpha  occ. eigenvalues --  -11.22025 -11.20895 -11.19657 -11.19396 -11.17324
 Alpha  occ. eigenvalues --  -11.17314 -11.17075 -11.16916 -11.16339 -11.15960
 Alpha  occ. eigenvalues --  -11.15908 -11.15579 -11.15402 -11.14548 -11.14468
 Alpha  occ. eigenvalues --  -11.12611  -8.75193  -6.09366  -6.09147  -6.08858
 Alpha  occ. eigenvalues --   -1.26878  -1.24997  -1.24767  -1.22338  -1.20203
 Alpha  occ. eigenvalues --   -1.12688  -1.12587  -1.10616  -1.05986  -1.03380
 Alpha  occ. eigenvalues --   -1.00816  -0.98310  -0.95095  -0.93725  -0.93044
 Alpha  occ. eigenvalues --   -0.91915  -0.89297  -0.88473  -0.84748  -0.83518
 Alpha  occ. eigenvalues --   -0.79700  -0.78435  -0.74484  -0.73639  -0.72627
 Alpha  occ. eigenvalues --   -0.70691  -0.70592  -0.67969  -0.66072  -0.63711
 Alpha  occ. eigenvalues --   -0.63362  -0.61716  -0.61256  -0.59794  -0.58972
 Alpha  occ. eigenvalues --   -0.58276  -0.57003  -0.56886  -0.56135  -0.55172
 Alpha  occ. eigenvalues --   -0.54517  -0.54209  -0.54015  -0.52914  -0.51698
 Alpha  occ. eigenvalues --   -0.51400  -0.51033  -0.50686  -0.50501  -0.50152
 Alpha  occ. eigenvalues --   -0.49638  -0.48712  -0.48314  -0.47637  -0.46972
 Alpha  occ. eigenvalues --   -0.46463  -0.44935  -0.44456  -0.44217  -0.44147
 Alpha  occ. eigenvalues --   -0.43933  -0.43591  -0.43194  -0.41739  -0.41372
 Alpha  occ. eigenvalues --   -0.40174  -0.39768  -0.37223  -0.36013  -0.35774
 Alpha  occ. eigenvalues --   -0.33532  -0.32703  -0.32259  -0.31702  -0.31341
 Alpha  occ. eigenvalues --   -0.30590  -0.30376  -0.28199  -0.25192  -0.23927
 Alpha  occ. eigenvalues --   -0.21149  -0.12990
 Alpha virt. eigenvalues --    0.08767   0.09394   0.09731   0.10237   0.10599
 Alpha virt. eigenvalues --    0.10762   0.11289   0.11809   0.11836   0.12494
 Alpha virt. eigenvalues --    0.12599   0.13164   0.13351   0.14200   0.14366

 Mulliken charges:
               1
     1  N   -0.472729
     2  C    0.707350
     3  N   -0.508617
     4  C    0.266568
     5  C    1.331106
     6  C   -0.396848
     7  N   -0.713958
     8  N   -0.925638
     9  C    0.429937
    10  C    0.463626
    11  C    0.688942
    12  C    1.033243
    13  C    0.351688
    14  C    0.320635
    15  H   -0.622435
    16  H   -0.778090
    17  H   -0.641765
    18  H   -0.615931
    19  O   -0.600286
    20  O   -0.648076
    21  C    1.092565
    22  C   -1.472400
    23  H   -0.038847
    24  H   -0.012232
    25  H   -0.033747
    26  C    1.594262
    27  H   -0.268839
    28  C    0.401029
    29  H   -0.674902
    30  C    0.917345
    31  H   -0.783501
    32  C   -0.129149
    33  H   -0.741625
    34  O   -0.740197
    35  S    0.311468
    36  C    0.231864
    37  C    0.893327
    38  H   -0.082851
    39  H   -0.176769
    40  N   -0.435993
    41  H   -0.217558
    42  H   -0.204018
    43  C    0.556966
    44  O   -0.607859
    45  C    0.596509
    46  H    0.060793
    47  H   -0.306689
    48  H   -0.168270
    49  H   -0.110492
    50  H    0.442541
    51  H   -0.048191
    52  C    1.306825
    53  H   -0.321178
    54  H   -0.131537
    55  H   -0.367370
 Sum of Mulliken charges =  -1.00000

 Dipole moment (field-independent basis, Debye):
    X=             -7.4229    Y=             -9.8424    Z=              1.0302  Tot=             12.3707

 Test job not archived.
 1\1\GINC-SE362\SP\RHF\Aug-CC-pVDZ\C21H24N5O4S1(1-)\OHZDE\09-Apr-2025\0
 \\#t hf aug-cc-pvdz iop(5/13=1,5/36=2,99/5=2) pseudo=read geom=check g
 uess=(read,tcheck) scf=(maxcycle=1)\\title\\-1,1\N,0,2.714883,2.722776
 ,0.357931\C,0,3.906123,3.108973,-0.17115\N,0,4.840782,2.100149,-0.4532
 71\C,0,4.681867,0.740243,-0.261896\C,0,3.420669,0.399118,0.351707\C,0,
 2.499424,1.439428,0.579116\N,0,1.262119,1.088106,1.106117\N,0,3.157286
 ,-0.925291,0.582184\C,0,1.971927,-1.21406,1.209235\C,0,0.996419,-0.219
 62,1.461629\C,0,-0.217473,-0.593581,2.040848\C,0,1.677198,-2.554136,1.

 Normal termination of Gaussian 16 at Wed Apr  9 02:36:02 2025.
