 Gaussian 16, Revision C.01,

 ----------------------------------------------------------------------
 #t hf aug-cc-pvdz symm=none int=(grid=ultrafine) guess=(read,tcheck) s
 table=(opt,rrhf)
 ----------------------------------------------------------------------
 -----
 title
 -----
 Symbolic Z-matrix:
 Charge =  0 Multiplicity = 1

 SCF Done:  E(RHF) =  -1375.42845775     A.U. after   17 cycles
 Normal termination of Gaussian 16 at Wed Apr  9 02:46:36 2025.
 Gaussian 16:  ES64L-G16RevC.01  3-Jul-2019

 ----------------------------------------------------------------------
 #t hf aug-cc-pvdz iop(5/13=1,5/36=2,99/5=2) pseudo=read geom=check gue
 ss=(read,tcheck) scf=(maxcycle=1)
 ----------------------------------------------------------------------
 -----
 title
 -----
 Structure from the checkpoint file:  "BH10_396_forward_mol2.chk"
 Charge =  0 Multiplicity = 1

                         Standard orientation:
 ---------------------------------------------------------------------
 Center     Atomic      Atomic             Coordinates (Angstroms)
 Number     Number       Type             X           Y           Z
 ---------------------------------------------------------------------
      1          6           0       -1.304497    2.521784    0.958721
      2          1           0       -1.729347    3.502140    1.178283
      3          1           0       -0.852581    2.137083    1.894699
      4          6           0       -0.220092    2.658602   -0.080101
      5          6           0       -0.870717    0.449484   -0.990657
      6          1           0       -1.428384    0.855550   -1.839926
      7          1           0       -0.481412   -0.521547   -1.277261
      8          6           0       -1.849566    0.317601    0.184964
      9          1           0       -1.278986   -0.071567    1.052776
     10          7           0       -2.368571    1.642136    0.504593
     11          6           0        1.570903    1.054357   -0.722588
     12          6           0        0.202464    3.845444   -0.501077
     13          6           0        2.649780    1.889815   -0.181926
     14          6           0        3.950510    1.758414   -0.430376
     15          6           0        0.262747    1.370995   -0.628473
     16          6           0        5.012148    2.606667    0.189559
     17          1           0        4.588545    3.358826    0.857433
     18          1           0        5.712111    1.993457    0.765188
     19          1           0        5.600865    3.120326   -0.576314
     20          6           0       -2.955456   -0.681163   -0.102761
     21          6           0       -3.483343    1.597454    1.431675
     22          1           0       -3.726540    2.619406    1.729372
     23          1           0       -3.223098    1.041030    2.350794
     24          6           0       -4.671890    0.952589    0.745054
     25          1           0       -5.024837    1.620644   -0.046349
     26          6           0       -4.292503   -0.380441    0.156162
     27          1           0       -5.494536    0.822932    1.453011
     28          6           0       -5.272289   -1.334455   -0.112050
     29          1           0       -6.310033   -1.092324    0.092091
     30          6           0       -2.629157   -1.946859   -0.590181
     31          1           0       -1.591678   -2.206128   -0.763016
     32          6           0       -4.942496   -2.578813   -0.619102
     33          1           0       -5.717898   -3.308098   -0.820360
     34          6           0       -3.608695   -2.889212   -0.851178
     35          1           0       -3.331557   -3.864852   -1.231579
     36         16           0        2.046897   -0.449311   -1.570195
     37          6           0        2.742540   -1.426413   -0.251819
     38          6           0        2.350696   -1.282854    1.074620
     39          6           0        2.894580   -2.105983    2.049222
     40          6           0        3.818480   -3.085332    1.710192
     41          6           0        4.202582   -3.231944    0.384353
     42          6           0        3.674380   -2.402312   -0.593806
     43          1           0        1.627352   -0.524008    1.343999
     44          1           0        2.588218   -1.983013    3.081301
     45          1           0        4.237819   -3.728098    2.474262
     46          1           0        4.926113   -3.989614    0.108048
     47          1           0        3.989845   -2.506841   -1.625340
     48          1           0        0.970775    3.936220   -1.258424
     49          1           0       -0.219340    4.762616   -0.105979
     50          1           0        2.329926    2.665113    0.505819
     51          1           0        4.281640    0.990240   -1.122114
 ---------------------------------------------------------------------

 SCF Done:  E(RHF) =  -1375.73053464     A.U. after    2 cycles

 The electronic state is 1-A.
 Alpha  occ. eigenvalues --  -93.53629 -15.61619 -11.27557 -11.27456 -11.27422
 Alpha  occ. eigenvalues --  -11.26959 -11.26238 -11.26027 -11.25383 -11.24723
 Alpha  occ. eigenvalues --  -11.24692 -11.24518 -11.24416 -11.24348 -11.24305
 Alpha  occ. eigenvalues --  -11.24210 -11.23805 -11.23706 -11.23684 -11.23625
 Alpha  occ. eigenvalues --  -11.23591 -11.23563 -11.23492 -11.23252 -11.23194
 Alpha  occ. eigenvalues --  -11.22974  -8.83398  -6.17653  -6.17416  -6.17144
 Alpha  occ. eigenvalues --   -1.23019  -1.15620  -1.14767  -1.12947  -1.08022
 Alpha  occ. eigenvalues --   -1.06018  -1.04808  -1.04167  -1.01600  -1.01270
 Alpha  occ. eigenvalues --   -0.99555  -0.96759  -0.93304  -0.92375  -0.90083
 Alpha  occ. eigenvalues --   -0.85976  -0.83638  -0.83478  -0.82030  -0.81092
 Alpha  occ. eigenvalues --   -0.78911  -0.75791  -0.74960  -0.70956  -0.69991
 Alpha  occ. eigenvalues --   -0.69091  -0.66738  -0.66355  -0.64665  -0.64327
 Alpha  occ. eigenvalues --   -0.63634  -0.63013  -0.62451  -0.61098  -0.60716
 Alpha  occ. eigenvalues --   -0.59717  -0.59538  -0.59202  -0.57589  -0.56953
 Alpha  occ. eigenvalues --   -0.56706  -0.56407  -0.55292  -0.54069  -0.53512
 Alpha  occ. eigenvalues --   -0.52857  -0.52545  -0.51777  -0.51752  -0.51247
 Alpha  occ. eigenvalues --   -0.50270  -0.49637  -0.48559  -0.47792  -0.46586
 Alpha  occ. eigenvalues --   -0.46071  -0.44782  -0.41468  -0.39685  -0.37880
 Alpha  occ. eigenvalues --   -0.36055  -0.34494  -0.33064  -0.32450  -0.30959
 Alpha  occ. eigenvalues --   -0.29793
 Alpha virt. eigenvalues --    0.02827   0.03226   0.03418   0.03742   0.04199
 Alpha virt. eigenvalues --    0.04554   0.04750   0.05177   0.05597   0.05771
 Alpha virt. eigenvalues --    0.06038   0.06495   0.06706   0.06934   0.07392

 Mulliken charges:
               1
     1  C    0.576676
     2  H   -0.439910
     3  H    0.034974
     4  C   -0.707621
     5  C    0.248691
     6  H    0.031670
     7  H   -0.122255
     8  C   -0.436359
     9  H   -0.143880
    10  N   -0.909427
    11  C   -0.610096
    12  C    1.852773
    13  C    1.090744
    14  C   -0.009676
    15  C    0.168661
    16  C    0.404765
    17  H   -0.189856
    18  H    0.074641
    19  H    0.081790
    20  C    0.188289
    21  C    1.131414
    22  H   -0.270175
    23  H   -0.109731
    24  C    0.704442
    25  H    0.104626
    26  C   -0.647011
    27  H   -0.014606
    28  C    0.860498
    29  H   -0.626805
    30  C    1.215033
    31  H   -0.677224
    32  C    0.382662
    33  H   -0.462386
    34  C   -0.247444
    35  H   -0.543793
    36  S    0.253783
    37  C    0.114983
    38  C    0.561537
    39  C    0.382635
    40  C    0.856422
    41  C    0.377036
    42  C    0.478781
    43  H   -0.794398
    44  H   -0.547173
    45  H   -0.490298
    46  H   -0.484041
    47  H   -0.610279
    48  H   -0.419493
    49  H   -0.495874
    50  H   -0.651290
    51  H   -0.516424
 Sum of Mulliken charges =  -0.00000

 Dipole moment (field-independent basis, Debye):
    X=             -0.0137    Y=              0.7908    Z=              2.1376  Tot=              2.2792

 Test job not archived.
 1\1\GINC-SE162\SP\RHF\Aug-CC-pVDZ\C24H25N1S1\OHZDE\09-Apr-2025\0\\#t h
 f aug-cc-pvdz iop(5/13=1,5/36=2,99/5=2) pseudo=read geom=check guess=(
 read,tcheck) scf=(maxcycle=1)\\title\\0,1\C,0,-1.304497,2.521784,0.958
 721\H,0,-1.729347,3.50214,1.178283\H,0,-0.852581,2.137083,1.894699\C,0
 ,-0.220092,2.658602,-0.080101\C,0,-0.870717,0.449484,-0.990657\H,0,-1.
 428384,0.85555,-1.839926\H,0,-0.481412,-0.521547,-1.277261\C,0,-1.8495
 66,0.317601,0.184964\H,0,-1.278986,-0.071567,1.052776\N,0,-2.368571,1.
 642136,0.504593\C,0,1.570903,1.054357,-0.722588\C,0,0.202464,3.845444,

 Normal termination of Gaussian 16 at Wed Apr  9 02:49:53 2025.
