 Gaussian 16, Revision C.01,

 ----------------------------------------------------------------------
 #t hf aug-cc-pvdz symm=none int=(grid=ultrafine) guess=(read,tcheck) s
 table=opt
 ----------------------------------------------------------------------
 -----
 title
 -----
 Symbolic Z-matrix:
 Charge =  0 Multiplicity = 2

 SCF Done:  E(UHF) =  -1668.49707231     A.U. after   18 cycles
 Normal termination of Gaussian 16 at Wed Apr  9 02:48:08 2025.
 Gaussian 16:  ES64L-G16RevC.01  3-Jul-2019

 ----------------------------------------------------------------------
 #t hf aug-cc-pvdz iop(5/13=1,5/36=2,99/5=2) pseudo=read geom=check gue
 ss=(read,tcheck) scf=(maxcycle=1)
 ----------------------------------------------------------------------
 -----
 title
 -----
 Structure from the checkpoint file:  "BH10_294_reverse_mol2.chk"
 Charge =  0 Multiplicity = 2

                         Standard orientation:
 ---------------------------------------------------------------------
 Center     Atomic      Atomic             Coordinates (Angstroms)
 Number     Number       Type             X           Y           Z
 ---------------------------------------------------------------------
      1          6           0        0.713425    0.444763    2.026963
      2          6           0        2.080061    1.011940    1.920959
      3         14           0       -0.008486    0.021895    0.272146
      4         14           0       -1.899178   -1.373521    0.462253
      5         14           0        1.581859   -1.112906   -1.037134
      6         14           0       -0.644776    1.991487   -0.848413
      7          6           0       -3.077519   -0.812502    1.823840
      8          1           0       -3.971409   -1.443316    1.824982
      9          1           0       -2.619530   -0.889748    2.812416
     10          1           0       -3.400142    0.221425    1.683557
     11          6           0       -2.855937   -1.381308   -1.163670
     12          1           0       -3.693930   -2.082061   -1.106293
     13          1           0       -3.266792   -0.395086   -1.390998
     14          1           0       -2.228263   -1.681770   -2.004698
     15          6           0       -1.371685   -3.142829    0.851418
     16          1           0       -2.247846   -3.780706    0.999536
     17          1           0       -0.781521   -3.574619    0.040266
     18          1           0       -0.768947   -3.191214    1.761723
     19          6           0        0.740983   -1.892168   -2.535908
     20          1           0        0.206287   -1.154084   -3.136642
     21          1           0        1.487480   -2.366655   -3.179519
     22          1           0        0.026077   -2.662961   -2.239678
     23          6           0        2.907506    0.072667   -1.665203
     24          1           0        3.400636    0.598839   -0.845815
     25          1           0        3.673649   -0.467329   -2.229056
     26          1           0        2.478349    0.826430   -2.329604
     27          6           0        2.401632   -2.503292   -0.062630
     28          1           0        2.940293   -2.131529    0.809615
     29          1           0        1.663249   -3.228125    0.286669
     30          1           0        3.118149   -3.036656   -0.694313
     31          6           0        0.646420    3.351123   -0.648887
     32          1           0        1.631048    3.019849   -0.985826
     33          1           0        0.367066    4.228213   -1.240038
     34          1           0        0.741121    3.670533    0.391078
     35          6           0       -0.840124    1.638109   -2.691069
     36          1           0       -1.198474    2.532063   -3.209671
     37          1           0        0.108418    1.349748   -3.149176
     38          1           0       -1.557849    0.836565   -2.877259
     39          6           0       -2.296692    2.638156   -0.205234
     40          1           0       -2.582022    3.550998   -0.736254
     41          1           0       -3.096177    1.908168   -0.351186
     42          1           0       -2.253178    2.872451    0.860340
     43          6           0       -0.231258    1.384300    2.796879
     44          1           0       -1.253938    1.006123    2.828245
     45          1           0        0.113868    1.519172    3.825346
     46          1           0       -0.258262    2.372564    2.332304
     47          6           0        3.325259    0.268930    2.254853
     48          1           0        3.108222   -0.646720    2.810244
     49          1           0        3.904208   -0.020036    1.366814
     50          1           0        3.999306    0.878722    2.866272
     51          1           0        0.769629   -0.510645    2.561379
     52          1           0        2.176919    2.026683    1.547441
 ---------------------------------------------------------------------

 SCF Done:  E(UHF) =  -1668.74738555     A.U. after    2 cycles

 The electronic state is 2-A.
 Alpha  occ. eigenvalues --  -69.03679 -69.03662 -69.03564 -69.01394 -11.23026
 Alpha  occ. eigenvalues --  -11.22566 -11.22518 -11.22348 -11.20610 -11.20562
 Alpha  occ. eigenvalues --  -11.20547 -11.20534 -11.20530 -11.20516 -11.20462
 Alpha  occ. eigenvalues --  -11.20441 -11.20314  -6.79010  -6.78985  -6.78898
 Alpha  occ. eigenvalues --   -6.77166  -3.89731  -3.89725  -3.89722  -3.89714
 Alpha  occ. eigenvalues --   -3.89709  -3.89688  -3.89622  -3.89615  -3.89595
 Alpha  occ. eigenvalues --   -3.87845  -3.87747  -3.87735  -1.07012  -0.98281
 Alpha  occ. eigenvalues --   -0.96278  -0.95382  -0.95259  -0.91809  -0.91652
 Alpha  occ. eigenvalues --   -0.91591  -0.91435  -0.91362  -0.91282  -0.86878
 Alpha  occ. eigenvalues --   -0.77581  -0.68799  -0.61804  -0.61362  -0.61051
 Alpha  occ. eigenvalues --   -0.60146  -0.59768  -0.58627  -0.57733  -0.57540
 Alpha  occ. eigenvalues --   -0.57479  -0.56682  -0.56250  -0.55705  -0.55618
 Alpha  occ. eigenvalues --   -0.55420  -0.55013  -0.54473  -0.54050  -0.53874
 Alpha  occ. eigenvalues --   -0.53589  -0.53444  -0.53411  -0.52962  -0.52793
 Alpha  occ. eigenvalues --   -0.52741  -0.52094  -0.51680  -0.49410  -0.48297
 Alpha  occ. eigenvalues --   -0.43878  -0.43190  -0.43116  -0.42581  -0.42444
 Alpha  occ. eigenvalues --   -0.42269  -0.40648  -0.33439  -0.33186  -0.29254
 Alpha virt. eigenvalues --    0.02695   0.03454   0.03482   0.03583   0.04947
 Alpha virt. eigenvalues --    0.05011   0.05114   0.05210   0.05440   0.06539
 Alpha virt. eigenvalues --    0.06695   0.06926   0.06974   0.07169   0.07258

  Beta  occ. eigenvalues --  -69.03664 -69.03664 -69.03566 -69.01328 -11.22918
  Beta  occ. eigenvalues --  -11.22685 -11.22341 -11.20611 -11.20565 -11.20547
  Beta  occ. eigenvalues --  -11.20535 -11.20534 -11.20531 -11.20515 -11.20461
  Beta  occ. eigenvalues --  -11.20443 -11.20313  -6.78995  -6.78980  -6.78901
  Beta  occ. eigenvalues --   -6.77056  -3.89720  -3.89716  -3.89713  -3.89710
  Beta  occ. eigenvalues --   -3.89695  -3.89671  -3.89623  -3.89617  -3.89603
  Beta  occ. eigenvalues --   -3.87704  -3.87687  -3.87624  -1.04135  -0.97250
  Beta  occ. eigenvalues --   -0.96258  -0.95373  -0.95240  -0.91797  -0.91654
  Beta  occ. eigenvalues --   -0.91589  -0.91424  -0.91363  -0.91277  -0.85660
  Beta  occ. eigenvalues --   -0.74114  -0.68305  -0.61499  -0.61254  -0.60441
  Beta  occ. eigenvalues --   -0.59696  -0.58789  -0.57690  -0.57599  -0.57484
  Beta  occ. eigenvalues --   -0.57207  -0.56556  -0.56222  -0.55677  -0.55587
  Beta  occ. eigenvalues --   -0.55304  -0.54498  -0.54077  -0.53997  -0.53766
  Beta  occ. eigenvalues --   -0.53553  -0.53381  -0.53257  -0.52939  -0.52765
  Beta  occ. eigenvalues --   -0.52691  -0.51779  -0.51248  -0.48596  -0.47841
  Beta  occ. eigenvalues --   -0.43583  -0.43177  -0.43108  -0.42541  -0.42427
  Beta  occ. eigenvalues --   -0.42270  -0.38152  -0.33119  -0.33028
  Beta virt. eigenvalues --    0.02700   0.03452   0.03486   0.03577   0.04950
  Beta virt. eigenvalues --    0.04999   0.05120   0.05215   0.05436   0.06536
  Beta virt. eigenvalues --    0.06693   0.06901   0.06974   0.07177   0.07263

 Mulliken charges and spin densities:
               1          2
     1  C    0.562132  -0.335855
     2  C    0.323249   1.617203
     3  Si   3.001254   0.006489
     4  Si  -0.241463   0.047144
     5  Si   0.055349  -0.034864
     6  Si   0.097588  -0.004309
     7  C    0.999224  -0.005093
     8  H   -0.526306  -0.000268
     9  H   -0.322247  -0.000557
    10  H   -0.399098   0.000502
    11  C    1.187184   0.006859
    12  H   -0.402138   0.001628
    13  H   -0.445310  -0.000889
    14  H   -0.492810  -0.001497
    15  C    0.956023  -0.002812
    16  H   -0.472608   0.000357
    17  H   -0.447087   0.000519
    18  H   -0.385694  -0.000593
    19  C    1.145871  -0.000213
    20  H   -0.469715   0.000784
    21  H   -0.466868  -0.000132
    22  H   -0.466932   0.000766
    23  C    1.056533  -0.000655
    24  H   -0.471413  -0.002369
    25  H   -0.441898  -0.001531
    26  H   -0.441760   0.001607
    27  C    1.008960   0.001203
    28  H   -0.568889   0.001564
    29  H   -0.462019  -0.000030
    30  H   -0.397544  -0.000723
    31  C    1.004066  -0.003331
    32  H   -0.405598   0.001681
    33  H   -0.513846   0.000633
    34  H   -0.369244   0.003874
    35  C    1.088375  -0.001843
    36  H   -0.453596   0.000660
    37  H   -0.460985  -0.000827
    38  H   -0.482169  -0.001407
    39  C    1.028433  -0.002343
    40  H   -0.452550   0.000124
    41  H   -0.456267   0.000226
    42  H   -0.413091  -0.000066
    43  C    0.778769   0.050949
    44  H   -0.410198   0.007528
    45  H   -0.154199  -0.000221
    46  H   -0.152660  -0.002115
    47  C    0.492584  -0.273009
    48  H   -0.164814   0.000859
    49  H   -0.107849   0.043626
    50  H   -0.142219   0.025667
    51  H   -0.629746  -0.000145
    52  H   -0.694763  -0.144756
 Sum of Mulliken charges =   0.00000   1.00000

 Dipole moment (field-independent basis, Debye):
    X=              0.0704    Y=             -0.0399    Z=              0.2183  Tot=              0.2328
                          Isotropic Fermi Contact Couplings
        Atom                 a.u.       MegaHertz       Gauss      10(-4) cm-1
     1  C(13)             -0.06493     -72.99032     -26.04476     -24.34695
     2  C(13)              0.22507     253.02701      90.28633      84.40073
     3  Si(29)             0.08720     -77.49623     -27.65258     -25.84996
     4  Si(29)             0.01508     -13.40024      -4.78154      -4.46984
     5  Si(29)            -0.00238       2.11556       0.75488       0.70567
     6  Si(29)            -0.00248       2.20815       0.78792       0.73656
     7  C(13)             -0.00068      -0.76266      -0.27213      -0.25439
     8  H(1)              -0.00004      -0.15941      -0.05688      -0.05317

 Normal termination of Gaussian 16 at Wed Apr  9 02:51:12 2025.
