 Gaussian 16, Revision C.01,

 ----------------------------------------------------------------------
 #t hf aug-cc-pvdz symm=none int=(grid=ultrafine) guess=(read,tcheck) s
 table=(opt,rrhf)
 ----------------------------------------------------------------------
 -----
 title
 -----
 Symbolic Z-matrix:
 Charge =  0 Multiplicity = 1

 SCF Done:  E(RHF) =  -743.238097176     A.U. after   14 cycles
 Normal termination of Gaussian 16 at Wed Apr  9 01:38:19 2025.
 Gaussian 16:  ES64L-G16RevC.01  3-Jul-2019

 ----------------------------------------------------------------------
 #t hf aug-cc-pvdz iop(5/13=1,5/36=2,99/5=2) pseudo=read geom=check gue
 ss=(read,tcheck) scf=(maxcycle=1)
 ----------------------------------------------------------------------
 -----
 title
 -----
 Structure from the checkpoint file:  "BH10_418_forward_mol2.chk"
 Charge =  0 Multiplicity = 1

                         Standard orientation:
 ---------------------------------------------------------------------
 Center     Atomic      Atomic             Coordinates (Angstroms)
 Number     Number       Type             X           Y           Z
 ---------------------------------------------------------------------
      1          6           0        0.617010    1.558571    0.963941
      2          6           0       -0.639698    2.054220    0.225935
      3          6           0       -1.454502    0.926887   -0.372678
      4          6           0       -1.152686   -0.426735    0.199021
      5          6           0        0.335546   -0.797355   -0.009672
      6          6           0        1.240841    0.384531    0.247618
      7          6           0       -2.336978    1.065373   -1.348098
      8          9           0       -1.925919   -1.403571   -0.319750
      9          9           0        0.641206   -1.846903    0.800573
     10          6           0        2.473727    0.341662   -0.165339
     11          6           0        3.700828    0.297622   -0.579986
     12          9           0        0.469654   -1.247309   -1.285631
     13          9           0       -1.388635   -0.413681    1.550317
     14          1           0        3.969034    0.642037   -1.572503
     15          1           0        4.490174   -0.094474    0.051610
     16          1           0       -2.881869    0.216965   -1.739143
     17          1           0       -2.536262    2.037694   -1.782994
     18          1           0       -1.260789    2.625244    0.920521
     19          1           0       -0.350386    2.732575   -0.578729
     20          1           0        1.346844    2.361857    1.048916
     21          1           0        0.351960    1.252608    1.978278
 ---------------------------------------------------------------------

 SCF Done:  E(RHF) =  -743.482671650     A.U. after    2 cycles

 The electronic state is 1-A.
 Alpha  occ. eigenvalues --  -26.14821 -26.14571 -26.14240 -26.13989 -11.44506
 Alpha  occ. eigenvalues --  -11.44304 -11.28682 -11.27559 -11.27370 -11.26712
 Alpha  occ. eigenvalues --  -11.26449 -11.26317 -11.25884  -1.72028  -1.70283
 Alpha  occ. eigenvalues --   -1.66844  -1.65897  -1.16741  -1.10685  -1.05628
 Alpha  occ. eigenvalues --   -1.03997  -0.97788  -0.93680  -0.88193  -0.85849
 Alpha  occ. eigenvalues --   -0.84529  -0.84058  -0.80882  -0.80445  -0.75242
 Alpha  occ. eigenvalues --   -0.74699  -0.74184  -0.72686  -0.71023  -0.70586
 Alpha  occ. eigenvalues --   -0.69674  -0.68261  -0.64872  -0.64786  -0.62851
 Alpha  occ. eigenvalues --   -0.61988  -0.60377  -0.56276  -0.53867  -0.52850
 Alpha  occ. eigenvalues --   -0.50769  -0.40336  -0.39460  -0.39008
 Alpha virt. eigenvalues --    0.02929   0.03612   0.04120   0.04794   0.05684
 Alpha virt. eigenvalues --    0.05961   0.06529   0.07215   0.08916   0.09319
 Alpha virt. eigenvalues --    0.09757   0.09986   0.11010   0.12038   0.12207

 Mulliken charges:
               1
     1  C    0.142205
     2  C   -0.023200
     3  C   -0.204255
     4  C    0.414096
     5  C    0.524942
     6  C    0.566361
     7  C    1.035754
     8  F   -0.318506
     9  F   -0.416905
    10  C   -0.741902
    11  C    1.060331
    12  F   -0.416367
    13  F   -0.419353
    14  H   -0.235946
    15  H   -0.215995
    16  H   -0.382159
    17  H   -0.374332
    18  H    0.057018
    19  H   -0.046491
    20  H   -0.113292
    21  H    0.107996
 Sum of Mulliken charges =  -0.00000

 Dipole moment (field-independent basis, Debye):
    X=              1.3857    Y=              4.6308    Z=             -0.8280  Tot=              4.9041

 Test job not archived.
 1\1\GINC-SE094\SP\RHF\Aug-CC-pVDZ\C9H8F4\OHZDE\09-Apr-2025\0\\#t hf au
 g-cc-pvdz iop(5/13=1,5/36=2,99/5=2) pseudo=read geom=check guess=(read
 ,tcheck) scf=(maxcycle=1)\\title\\0,1\C,0,0.61701,1.558571,0.963941\C,
 0,-0.639698,2.05422,0.225935\C,0,-1.454502,0.926887,-0.372678\C,0,-1.1
 52686,-0.426735,0.199021\C,0,0.335546,-0.797355,-0.009672\C,0,1.240841
 ,0.384531,0.247618\C,0,-2.336978,1.065373,-1.348098\F,0,-1.925919,-1.4
 03571,-0.31975\F,0,0.641206,-1.846903,0.800573\C,0,2.473727,0.341662,-
 0.165339\C,0,3.700828,0.297622,-0.579986\F,0,0.469654,-1.247309,-1.285

 Normal termination of Gaussian 16 at Wed Apr  9 01:38:35 2025.
