 Gaussian 16, Revision C.01,

 ----------------------------------------------------------------------
 #t hf aug-cc-pvdz symm=none int=(grid=ultrafine) guess=(read,tcheck) s
 table=(opt,rrhf)
 ----------------------------------------------------------------------
 -----
 title
 -----
 Symbolic Z-matrix:
 Charge = -1 Multiplicity = 1

 SCF Done:  E(RHF) =  -641.548289608     A.U. after   12 cycles
 Normal termination of Gaussian 16 at Wed Apr  9 01:10:43 2025.
 Gaussian 16:  ES64L-G16RevC.01  3-Jul-2019

 ----------------------------------------------------------------------
 #t hf aug-cc-pvdz iop(5/13=1,5/36=2,99/5=2) pseudo=read geom=check gue
 ss=(read,tcheck) scf=(maxcycle=1)
 ----------------------------------------------------------------------
 -----
 title
 -----
 Structure from the checkpoint file:  "BH10_326_forward_mol3.chk"
 Charge = -1 Multiplicity = 1

                         Standard orientation:
 ---------------------------------------------------------------------
 Center     Atomic      Atomic             Coordinates (Angstroms)
 Number     Number       Type             X           Y           Z
 ---------------------------------------------------------------------
      1          8           0       -0.862725    1.012782   -0.851613
      2         15           0        0.000000    0.000001   -0.174272
      3          8           0        0.862729   -1.012772   -0.851622
      4          8           0       -0.982838   -0.827898    0.884438
      5          8           0        0.982833    0.827886    0.884454
      6          1           0       -1.751640   -0.274344    1.044416
      7          1           0        1.751644    0.274338    1.044410
 ---------------------------------------------------------------------

 SCF Done:  E(RHF) =  -641.718838266     A.U. after    2 cycles

 The electronic state is 1-A.
 Alpha  occ. eigenvalues --  -81.21786 -20.41049 -20.41047 -20.32072 -20.32069
 Alpha  occ. eigenvalues --   -7.69612  -4.84255  -4.84159  -4.84120  -1.16723
 Alpha  occ. eigenvalues --   -1.13451  -1.05565  -1.03494  -0.60651  -0.55345
 Alpha  occ. eigenvalues --   -0.47056  -0.45860  -0.43637  -0.38193  -0.37087
 Alpha  occ. eigenvalues --   -0.34948  -0.30956  -0.28695  -0.27953  -0.26389
 Alpha virt. eigenvalues --    0.14676   0.16129   0.21634   0.21698   0.23859
 Alpha virt. eigenvalues --    0.26333   0.32810   0.33302   0.33931   0.34507
 Alpha virt. eigenvalues --    0.35191   0.40784   0.41210   0.41564   0.42916

 Mulliken charges:
               1
     1  O   -0.983667
     2  P    2.227458
     3  O   -0.983668
     4  O   -0.731159
     5  O   -0.731161
     6  H    0.101098
     7  H    0.101100
 Sum of Mulliken charges =  -1.00000

 Dipole moment (field-independent basis, Debye):
    X=              0.0000    Y=             -0.0000    Z=              3.5258  Tot=              3.5258

 Test job not archived.
 1\1\GINC-SE024\SP\RHF\Aug-CC-pVDZ\H2O4P1(1-)\OHZDE\09-Apr-2025\0\\#t h
 f aug-cc-pvdz iop(5/13=1,5/36=2,99/5=2) pseudo=read geom=check guess=(
 read,tcheck) scf=(maxcycle=1)\\title\\-1,1\O,0,0.862725,-1.012782,-0.8
 51613\P,0,0.,-0.000001,-0.174272\O,0,-0.862729,1.012772,-0.851622\O,0,
 0.982838,0.827898,0.884438\O,0,-0.982833,-0.827886,0.884454\H,0,1.7516
 4,0.274344,1.044416\H,0,-1.751644,-0.274337,1.04441\\Version=ES64L-G16
 RevC.01\State=1-A\HF=-641.7188383\RMSD=4.512e-03\Dipole=-0.0000012,0.0
 000029,1.387146\Quadrupole=4.524893,-4.2822381,-0.2426549,2.2354415,0.

 Normal termination of Gaussian 16 at Wed Apr  9 01:10:45 2025.
