 Gaussian 16, Revision C.01,

 ----------------------------------------------------------------------
 #t hf aug-cc-pvdz symm=none int=(grid=ultrafine) guess=(read,tcheck) s
 table=(opt,rrhf)
 ----------------------------------------------------------------------
 -----
 title
 -----
 Symbolic Z-matrix:
 Charge =  0 Multiplicity = 1

 SCF Done:  E(RHF) =  -1025.00774689     A.U. after   16 cycles
 Normal termination of Gaussian 16 at Wed Apr  9 01:27:06 2025.
 Gaussian 16:  ES64L-G16RevC.01  3-Jul-2019

 ----------------------------------------------------------------------
 #t hf aug-cc-pvdz iop(5/13=1,5/36=2,99/5=2) pseudo=read geom=check gue
 ss=(read,tcheck) scf=(maxcycle=1)
 ----------------------------------------------------------------------
 -----
 title
 -----
 Structure from the checkpoint file:  "BH10_345_reverse_mol2.chk"
 Charge =  0 Multiplicity = 1

                         Standard orientation:
 ---------------------------------------------------------------------
 Center     Atomic      Atomic             Coordinates (Angstroms)
 Number     Number       Type             X           Y           Z
 ---------------------------------------------------------------------
      1          7           0       -0.639524    0.925629    0.173344
      2          6           0       -1.998350    0.641576   -0.038168
      3          6           0       -2.236238   -0.684882   -0.114106
      4         16           0       -0.762178   -1.582332    0.096992
      5          6           0        0.135332   -0.147299    0.268000
      6          6           0       -2.979810    1.757142   -0.162538
      7          1           0       -2.921658    2.438719    0.687852
      8          1           0       -3.991179    1.359876   -0.203360
      9          1           0       -2.814459    2.337965   -1.072766
     10          6           0       -3.523643   -1.402910   -0.354770
     11          1           0       -4.367559   -0.715806   -0.327423
     12          1           0       -3.693877   -2.170250    0.402566
     13          1           0       -3.522239   -1.892347   -1.331067
     14          6           0       -0.153876    2.311987    0.268036
     15          1           0       -0.293605    2.679568    1.284931
     16          1           0       -0.725161    2.922825   -0.424956
     17          1           0        0.888571    2.324813   -0.047905
     18          6           0        1.608626   -0.278984    0.486439
     19          6           0        2.116637    0.464962    1.717934
     20          1           0        2.008545    1.542966    1.625900
     21          1           0        3.177264    0.238748    1.823963
     22          1           0        1.600176    0.114839    2.614370
     23          8           0        1.844734   -1.656137    0.625396
     24          6           0        2.380664    0.211051   -0.844587
     25          8           0        2.257760    1.406102   -1.124684
     26          8           0        2.995668   -0.718745   -1.377411
     27          1           0        2.445363   -1.829632   -0.141235
 ---------------------------------------------------------------------

 SCF Done:  E(RHF) =  -1025.22214651     A.U. after    2 cycles

 The electronic state is 1-A.
 Alpha  occ. eigenvalues --  -93.61679 -20.56182 -20.49585 -20.48983 -15.75480
 Alpha  occ. eigenvalues --  -11.38933 -11.33782 -11.33577 -11.31646 -11.31630
 Alpha  occ. eigenvalues --  -11.29971 -11.28776 -11.28379 -11.23835  -8.91470
 Alpha  occ. eigenvalues --   -6.25605  -6.25449  -6.25080  -1.36079  -1.34134
 Alpha  occ. eigenvalues --   -1.30904  -1.23653  -1.15136  -1.11424  -1.03170
 Alpha  occ. eigenvalues --   -1.02961  -0.98137  -0.95996  -0.88188  -0.83700
 Alpha  occ. eigenvalues --   -0.78701  -0.74746  -0.71356  -0.69691  -0.68169
 Alpha  occ. eigenvalues --   -0.66498  -0.63638  -0.63005  -0.62720  -0.62070
 Alpha  occ. eigenvalues --   -0.61324  -0.59654  -0.59416  -0.58873  -0.57774
 Alpha  occ. eigenvalues --   -0.56496  -0.55773  -0.55491  -0.54267  -0.53238
 Alpha  occ. eigenvalues --   -0.51773  -0.47096  -0.43596  -0.42204  -0.40146
 Alpha  occ. eigenvalues --   -0.39945  -0.36032
 Alpha virt. eigenvalues --    0.01204   0.02381   0.03183   0.04066   0.04773
 Alpha virt. eigenvalues --    0.05255   0.05490   0.06268   0.06598   0.07306
 Alpha virt. eigenvalues --    0.07649   0.07756   0.08219   0.10103   0.10193

 Mulliken charges:
               1
     1  N   -0.443179
     2  C   -0.067661
     3  C   -1.247856
     4  S    0.665622
     5  C   -0.789419
     6  C    0.636430
     7  H    0.184519
     8  H   -0.152757
     9  H    0.186340
    10  C    0.858285
    11  H   -0.067406
    12  H    0.061248
    13  H    0.138303
    14  C    1.097904
    15  H   -0.064121
    16  H   -0.270193
    17  H   -0.158503
    18  C   -0.304040
    19  C    0.976292
    20  H   -0.081290
    21  H   -0.035224
    22  H   -0.005740
    23  O   -0.701981
    24  C    0.591708
    25  O   -0.628135
    26  O   -0.667195
    27  H    0.288048
 Sum of Mulliken charges =  -0.00000

 Dipole moment (field-independent basis, Debye):
    X=            -11.4353    Y=              1.7877    Z=              4.2214  Tot=             12.3200

 Test job not archived.
 1\1\GINC-SE173\SP\RHF\Aug-CC-pVDZ\C9H13N1O3S1\OHZDE\09-Apr-2025\0\\#t
 hf aug-cc-pvdz iop(5/13=1,5/36=2,99/5=2) pseudo=read geom=check guess=
 (read,tcheck) scf=(maxcycle=1)\\title\\0,1\N,0,-0.639524,0.925629,0.17
 3344\C,0,-1.99835,0.641576,-0.038168\C,0,-2.236238,-0.684882,-0.114106
 \S,0,-0.762178,-1.582332,0.096992\C,0,0.135332,-0.147299,0.268\C,0,-2.
 97981,1.757142,-0.162538\H,0,-2.921658,2.438719,0.687852\H,0,-3.991179
 ,1.359876,-0.20336\H,0,-2.814459,2.337965,-1.072766\C,0,-3.523643,-1.4
 0291,-0.35477\H,0,-4.367559,-0.715806,-0.327423\H,0,-3.693877,-2.17025

 Normal termination of Gaussian 16 at Wed Apr  9 01:27:36 2025.
