 Gaussian 16, Revision C.01,

 ----------------------------------------------------------------------
 #t hf aug-cc-pvdz symm=none int=(grid=ultrafine) guess=(read,tcheck) s
 table=(opt,rrhf)
 ----------------------------------------------------------------------
 -----
 title
 -----
 Symbolic Z-matrix:
 Charge =  0 Multiplicity = 1

 SCF Done:  E(RHF) =  -779.051573154     A.U. after   14 cycles
 Normal termination of Gaussian 16 at Wed Apr  9 01:51:52 2025.
 Gaussian 16:  ES64L-G16RevC.01  3-Jul-2019

 ----------------------------------------------------------------------
 #t hf aug-cc-pvdz iop(5/13=1,5/36=2,99/5=2) pseudo=read geom=check gue
 ss=(read,tcheck) scf=(maxcycle=1)
 ----------------------------------------------------------------------
 -----
 title
 -----
 Structure from the checkpoint file:  "BH10_93_reverse_mol2.chk"
 Charge =  0 Multiplicity = 1

                         Standard orientation:
 ---------------------------------------------------------------------
 Center     Atomic      Atomic             Coordinates (Angstroms)
 Number     Number       Type             X           Y           Z
 ---------------------------------------------------------------------
      1          6           0        0.440083    0.111272   -1.210761
      2          6           0        1.118501    1.328748   -0.667814
      3          6           0        0.440075    0.111243    1.210766
      4          6           0        1.118496    1.328733    0.667852
      5         16           0       -0.968883   -0.011892   -0.000003
      6          6           0        1.231892   -1.142445   -0.779397
      7          6           0        1.231888   -1.142464    0.779376
      8          8           0       -1.849859    1.144356    0.000009
      9          8           0       -1.552731   -1.347687   -0.000020
     10          1           0        1.511238    2.114284   -1.297720
     11          1           0        1.511229    2.114254    1.297780
     12          1           0        0.751523   -2.040902   -1.163766
     13          1           0        2.241769   -1.087837   -1.183457
     14          1           0        0.114104    0.137724   -2.246233
     15          1           0        2.241762   -1.087866    1.183444
     16          1           0        0.751516   -2.040931    1.163720
     17          1           0        0.114091    0.137670    2.246237
 ---------------------------------------------------------------------

 SCF Done:  E(RHF) =  -779.234751949     A.U. after    2 cycles

 The electronic state is 1-A.
 Alpha  occ. eigenvalues --  -93.76804 -20.55722 -20.55595 -11.29794 -11.29782
 Alpha  occ. eigenvalues --  -11.27204 -11.27046 -11.26555 -11.26515  -9.03654
 Alpha  occ. eigenvalues --   -6.38260  -6.38048  -6.37931  -1.40940  -1.29606
 Alpha  occ. eigenvalues --   -1.19368  -1.04197  -1.02968  -0.94107  -0.84651
 Alpha  occ. eigenvalues --   -0.79830  -0.75730  -0.73544  -0.69590  -0.66324
 Alpha  occ. eigenvalues --   -0.64118  -0.61674  -0.60945  -0.58756  -0.57830
 Alpha  occ. eigenvalues --   -0.54547  -0.52367  -0.51248  -0.50191  -0.49128
 Alpha  occ. eigenvalues --   -0.48906  -0.41380  -0.38629
 Alpha virt. eigenvalues --    0.02652   0.03460   0.04072   0.04592   0.05438
 Alpha virt. eigenvalues --    0.06030   0.06095   0.08363   0.09687   0.09716
 Alpha virt. eigenvalues --    0.11403   0.12812   0.12935   0.13600   0.13983

 Mulliken charges:
               1
     1  C   -0.190795
     2  C    0.503433
     3  C   -0.190793
     4  C    0.503431
     5  S    2.702284
     6  C    0.404634
     7  C    0.404633
     8  O   -1.136466
     9  O   -1.148205
    10  H   -0.364446
    11  H   -0.364445
    12  H   -0.134554
    13  H   -0.108875
    14  H   -0.318203
    15  H   -0.108877
    16  H   -0.134551
    17  H   -0.318205
 Sum of Mulliken charges =  -0.00000

 Dipole moment (field-independent basis, Debye):
    X=              5.9473    Y=              0.3339    Z=              0.0000  Tot=              5.9567

 Test job not archived.
 1\1\GINC-SE339\SP\RHF\Aug-CC-pVDZ\C6H8O2S1\OHZDE\09-Apr-2025\0\\#t hf
 aug-cc-pvdz iop(5/13=1,5/36=2,99/5=2) pseudo=read geom=check guess=(re
 ad,tcheck) scf=(maxcycle=1)\\title\\0,1\C,0,0.440083,0.111272,-1.21076
 1\C,0,1.118501,1.328748,-0.667814\C,0,0.440075,0.111243,1.210766\C,0,1
 .118496,1.328733,0.667852\S,0,-0.968883,-0.011892,-0.000003\C,0,1.2318
 92,-1.142445,-0.779397\C,0,1.231888,-1.142464,0.779376\O,0,-1.849859,1
 .144357,0.000009\O,0,-1.552731,-1.347686,-0.00002\H,0,1.511239,2.11428
 4,-1.29772\H,0,1.51123,2.114254,1.29778\H,0,0.751522,-2.040902,-1.1637

 Normal termination of Gaussian 16 at Wed Apr  9 01:52:01 2025.
