 Gaussian 16, Revision C.01,

 ----------------------------------------------------------------------
 #t hf aug-cc-pvdz symm=none int=(grid=ultrafine) guess=(read,tcheck) s
 table=(opt,rrhf)
 ----------------------------------------------------------------------
 -----
 title
 -----
 Symbolic Z-matrix:
 Charge = -1 Multiplicity = 1

 SCF Done:  E(RHF) =  -1399.58946343     A.U. after   15 cycles
 Normal termination of Gaussian 16 at Wed Apr  9 01:23:05 2025.
 Gaussian 16:  ES64L-G16RevC.01  3-Jul-2019

 ----------------------------------------------------------------------
 #t hf aug-cc-pvdz iop(5/13=1,5/36=2,99/5=2) pseudo=read geom=check gue
 ss=(read,tcheck) scf=(maxcycle=1)
 ----------------------------------------------------------------------
 -----
 title
 -----
 Structure from the checkpoint file:  "BH10_314_forward_mol2.chk"
 Charge = -1 Multiplicity = 1

                         Standard orientation:
 ---------------------------------------------------------------------
 Center     Atomic      Atomic             Coordinates (Angstroms)
 Number     Number       Type             X           Y           Z
 ---------------------------------------------------------------------
      1          6           0       -1.175336    0.923045    0.305232
      2          6           0       -2.479117    0.133318    0.220054
      3          6           0       -2.158359   -1.274306    0.727687
      4          1           0       -3.196517    0.604216    0.895221
      5          6           0       -0.963366   -1.891896   -0.014587
      6          6           0        0.032577   -1.039002   -0.455006
      7          8           0       -0.196058    0.389911   -0.529249
      8          6           0       -1.325552    2.392456   -0.113964
      9          6           0        1.135098   -1.434595   -1.335409
     10          1           0        1.182265   -0.788488    1.160750
     11          8           0        2.504400   -1.274163   -0.785061
     12          1           0        1.137639   -0.864663   -2.269451
     13          1           0        1.054510   -2.498709   -1.537873
     14         15           0        2.928342   -0.057423    0.149233
     15          8           0        4.351362   -0.029189    0.492641
     16          8           0        1.927724   -0.188443    1.413142
     17          8           0        2.458587    1.284552   -0.593169
     18          1           0        1.490099    1.350549   -0.680298
     19          8           0       -0.980086   -3.144049   -0.125224
     20          8           0       -3.258567   -2.143621    0.588887
     21          1           0       -1.879856   -1.202612    1.784362
     22          1           0       -2.828008   -2.983354    0.333830
     23          8           0       -2.347774    3.019319   -0.131006
     24          8           0       -0.130027    2.945871   -0.388587
     25          1           0       -0.275684    3.883820   -0.569787
     26          8           0       -0.754115    0.955380    1.656111
     27          1           0        0.213395    1.019309    1.676066
     28          6           0       -3.043143    0.112304   -1.197008
     29          1           0       -3.909286   -0.547571   -1.222584
     30          1           0       -3.348363    1.109520   -1.514448
     31          1           0       -2.305699   -0.273145   -1.904153
 ---------------------------------------------------------------------

 SCF Done:  E(RHF) =  -1399.98673936     A.U. after    2 cycles

 The electronic state is 1-A.
 Alpha  occ. eigenvalues --  -81.31808 -20.55085 -20.49780 -20.49193 -20.49040
 Alpha  occ. eigenvalues --  -20.48456 -20.48256 -20.47621 -20.44687 -20.40020
 Alpha  occ. eigenvalues --  -20.38695 -11.31882 -11.28039 -11.19486 -11.19007
 Alpha  occ. eigenvalues --  -11.17443 -11.14399 -11.13632 -11.12303  -7.79639
 Alpha  occ. eigenvalues --   -4.94334  -4.94269  -4.94217  -1.35883  -1.29711
 Alpha  occ. eigenvalues --   -1.26290  -1.25608  -1.22086  -1.21642  -1.21386
 Alpha  occ. eigenvalues --   -1.20666  -1.15965  -1.13488  -0.97993  -0.93776
 Alpha  occ. eigenvalues --   -0.86268  -0.84459  -0.78567  -0.75510  -0.71677
 Alpha  occ. eigenvalues --   -0.69421  -0.66555  -0.65283  -0.64352  -0.63993
 Alpha  occ. eigenvalues --   -0.62172  -0.60225  -0.58521  -0.57560  -0.56046
 Alpha  occ. eigenvalues --   -0.55777  -0.54942  -0.54614  -0.53767  -0.51025
 Alpha  occ. eigenvalues --   -0.50330  -0.50000  -0.47880  -0.46926  -0.46395
 Alpha  occ. eigenvalues --   -0.46040  -0.44767  -0.44185  -0.43743  -0.43010
 Alpha  occ. eigenvalues --   -0.42679  -0.42045  -0.41246  -0.40234  -0.39261
 Alpha  occ. eigenvalues --   -0.38863  -0.38025  -0.36981  -0.36801  -0.36385
 Alpha  occ. eigenvalues --   -0.33324  -0.28457  -0.18573
 Alpha virt. eigenvalues --    0.10524   0.11940   0.12599   0.13029   0.13726
 Alpha virt. eigenvalues --    0.14432   0.14818   0.14969   0.15406   0.16175
 Alpha virt. eigenvalues --    0.16831   0.17791   0.18832   0.19108   0.19518

 Mulliken charges:
               1
     1  C    0.094818
     2  C   -0.548056
     3  C    0.786003
     4  H   -0.154770
     5  C   -0.006805
     6  C   -0.232840
     7  O   -0.888552
     8  C    0.804619
     9  C    1.301973
    10  H    0.402809
    11  O   -0.981046
    12  H   -0.160576
    13  H   -0.238388
    14  P    2.490389
    15  O   -0.915521
    16  O   -0.763281
    17  O   -0.614818
    18  H    0.293623
    19  O   -0.802839
    20  O   -0.712291
    21  H   -0.002192
    22  H    0.224770
    23  O   -0.491391
    24  O   -0.624345
    25  H    0.234979
    26  O   -0.599992
    27  H    0.195510
    28  C    0.964515
    29  H   -0.015826
    30  H   -0.051173
    31  H    0.010694
 Sum of Mulliken charges =  -1.00000

 Dipole moment (field-independent basis, Debye):
    X=             -4.0263    Y=              5.3291    Z=             -2.3694  Tot=              7.0869

 Test job not archived.
 1\1\GINC-SE162\SP\RHF\Aug-CC-pVDZ\C8H12O10P1(1-)\OHZDE\09-Apr-2025\0\\
 #t hf aug-cc-pvdz iop(5/13=1,5/36=2,99/5=2) pseudo=read geom=check gue
 ss=(read,tcheck) scf=(maxcycle=1)\\title\\-1,1\C,0,-1.175336,0.923045,
 0.305232\C,0,-2.479117,0.133318,0.220054\C,0,-2.158359,-1.274306,0.727
 687\H,0,-3.196517,0.604216,0.895221\C,0,-0.963366,-1.891896,-0.014587\
 C,0,0.032577,-1.039002,-0.455006\O,0,-0.196058,0.389911,-0.529249\C,0,
 -1.325552,2.392456,-0.113964\C,0,1.135098,-1.434595,-1.335409\H,0,1.18
 2265,-0.788488,1.16075\O,0,2.5044,-1.274163,-0.785061\H,0,1.137639,-0.

 Normal termination of Gaussian 16 at Wed Apr  9 01:24:02 2025.
