 Gaussian 16, Revision C.01,

 ----------------------------------------------------------------------
 #t hf aug-cc-pvdz symm=none int=(grid=ultrafine) guess=(read,tcheck) s
 table=(opt,rrhf)
 ----------------------------------------------------------------------
 -----
 title
 -----
 Symbolic Z-matrix:
 Charge =  0 Multiplicity = 1

 SCF Done:  E(RHF) =  -446.718648491     A.U. after   15 cycles

 1\1\GINC-SE041\Stability\RHF\Aug-CC-pVDZ\C9H11F1\OHZDE\09-Apr-2025\0\\
 #t hf aug-cc-pvdz symm=none int=(grid=ultrafine) guess=(read,tcheck) s
 table=(opt,rrhf)\\title\\0,1\C,0,1.447175,0.014538,0.000006\C,0,2.0168
 82,-0.604722,-1.264622\C,0,-0.069548,0.009376,-0.000003\C,0,2.016863,-
 0.604513,1.264745\H,0,1.635729,-0.080292,-2.141318\H,0,1.7329,-1.65515
 4,-1.340784\H,0,3.105767,-0.535973,-1.25389\C,0,-0.761757,-1.200213,0.
 000081\C,0,-0.791163,1.196845,-0.000092\H,0,1.732877,-1.654932,1.34107
 7\H,0,1.6357,-0.079937,2.141348\H,0,3.105749,-0.535769,1.254017\C,0,-2

 Normal termination of Gaussian 16 at Wed Apr  9 00:56:17 2025.
 Gaussian 16:  ES64L-G16RevC.01  3-Jul-2019

 ----------------------------------------------------------------------
 #t hf aug-cc-pvdz iop(5/13=1,5/36=2,99/5=2) pseudo=read geom=check gue
 ss=(read,tcheck) scf=(maxcycle=1)
 ----------------------------------------------------------------------
 -----
 title
 -----
 Structure from the checkpoint file:  "BH10_105_forward_mol2.chk"
 Charge =  0 Multiplicity = 1

                         Standard orientation:
 ---------------------------------------------------------------------
 Center     Atomic      Atomic             Coordinates (Angstroms)
 Number     Number       Type             X           Y           Z
 ---------------------------------------------------------------------
      1          6           0        1.447175    0.014538    0.000006
      2          6           0        2.016882   -0.604722   -1.264622
      3          6           0       -0.069548    0.009376   -0.000003
      4          6           0        2.016863   -0.604513    1.264745
      5          1           0        1.635729   -0.080292   -2.141318
      6          1           0        1.732900   -1.655154   -1.340784
      7          1           0        3.105767   -0.535973   -1.253890
      8          6           0       -0.761757   -1.200213    0.000081
      9          6           0       -0.791163    1.196845   -0.000092
     10          1           0        1.732877   -1.654932    1.341077
     11          1           0        1.635700   -0.079937    2.141348
     12          1           0        3.105749   -0.535769    1.254017
     13          6           0       -2.180418    1.174780   -0.000096
     14          6           0       -2.863362   -0.031612   -0.000012
     15          6           0       -2.147717   -1.221838    0.000077
     16          1           0       -0.218686   -2.138372    0.000152
     17          1           0       -2.670343   -2.170867    0.000143
     18          1           0       -0.260186    2.138503   -0.000158
     19          1           0       -2.729407    2.108912   -0.000166
     20          1           0       -3.946461   -0.046842   -0.000015
     21          9           0        1.874959    1.361653   -0.000102
 ---------------------------------------------------------------------

 SCF Done:  E(RHF) =  -446.857229708     A.U. after    2 cycles

 The electronic state is 1-A.
 Alpha  occ. eigenvalues --  -26.09516 -11.33326 -11.25157 -11.24705 -11.24568
 Alpha  occ. eigenvalues --  -11.24459 -11.24275 -11.23975 -11.23466 -11.23459
 Alpha  occ. eigenvalues --   -1.62715  -1.15571  -1.08625  -1.01383  -1.00177
 Alpha  occ. eigenvalues --   -0.95303  -0.86638  -0.83274  -0.80309  -0.74649
 Alpha  occ. eigenvalues --   -0.71857  -0.69764  -0.67509  -0.63552  -0.62296
 Alpha  occ. eigenvalues --   -0.60239  -0.59210  -0.57659  -0.56031  -0.54924
 Alpha  occ. eigenvalues --   -0.54146  -0.51227  -0.49863  -0.49161  -0.47777
 Alpha  occ. eigenvalues --   -0.34336  -0.33721
 Alpha virt. eigenvalues --    0.03189   0.03860   0.04324   0.04985   0.05423
 Alpha virt. eigenvalues --    0.05971   0.06791   0.07357   0.07596   0.07787
 Alpha virt. eigenvalues --    0.08690   0.10749   0.11051   0.11510   0.12663

 Mulliken charges:
               1
     1  C   -1.344934
     2  C    0.669414
     3  C    0.813850
     4  C    0.669410
     5  H    0.010484
     6  H    0.016541
     7  H   -0.025940
     8  C    0.600077
     9  C    0.317667
    10  H    0.016543
    11  H    0.010481
    12  H   -0.025941
    13  C    0.450828
    14  C    0.611652
    15  C    0.241948
    16  H   -0.684389
    17  H   -0.442953
    18  H   -0.586604
    19  H   -0.436255
    20  H   -0.456414
    21  F   -0.425465
 Sum of Mulliken charges =  -0.00000

 Dipole moment (field-independent basis, Debye):
    X=             -0.4811    Y=             -2.0608    Z=              0.0002  Tot=              2.1162

 Test job not archived.
 1\1\GINC-SE041\SP\RHF\Aug-CC-pVDZ\C9H11F1\OHZDE\09-Apr-2025\0\\#t hf a
 ug-cc-pvdz iop(5/13=1,5/36=2,99/5=2) pseudo=read geom=check guess=(rea
 d,tcheck) scf=(maxcycle=1)\\title\\0,1\C,0,1.447175,0.014538,0.000006\
 C,0,2.016882,-0.604722,-1.264622\C,0,-0.069548,0.009376,-0.000003\C,0,
 2.016863,-0.604513,1.264745\H,0,1.635729,-0.080292,-2.141318\H,0,1.732
 9,-1.655154,-1.340784\H,0,3.105767,-0.535973,-1.25389\C,0,-0.761757,-1
 .200213,0.000081\C,0,-0.791163,1.196845,-0.000092\H,0,1.732877,-1.6549
 32,1.341077\H,0,1.6357,-0.079937,2.141348\H,0,3.105749,-0.535769,1.254

 Normal termination of Gaussian 16 at Wed Apr  9 00:56:31 2025.
