 Gaussian 16, Revision C.01,

 ----------------------------------------------------------------------
 #t hf aug-cc-pvdz symm=none int=(grid=ultrafine) guess=(read,tcheck) s
 table=opt
 ----------------------------------------------------------------------
 -----
 title
 -----
 Symbolic Z-matrix:
 Charge =  0 Multiplicity = 2

 SCF Done:  E(UHF) =  -670.130936000     A.U. after   19 cycles

 1\1\GINC-SE166\Stability\UHF\Aug-CC-pVDZ\C7H13S1\OHZDE\09-Apr-2025\0\\
 #t hf aug-cc-pvdz symm=none int=(grid=ultrafine) guess=(read,tcheck) s
 table=opt\\title\\0,2\C,0,0.13325,-0.371573,0.250681\C,0,1.144215,-1.4
 86638,-0.099525\C,0,2.170155,-0.399295,-0.473692\H,0,0.827819,-2.06453
 2,-0.968893\H,0,1.399409,-2.171639,0.709499\C,0,1.013967,0.632272,-0.6
 06145\H,0,2.774855,-0.560967,-1.365517\H,0,2.832462,-0.150316,0.35693\
 S,0,-1.528844,-0.722882,-0.402102\C,0,-2.358168,0.864129,-0.125846\H,0
 ,-3.324771,0.80538,-0.624551\H,0,-1.786135,1.680786,-0.566869\H,0,-2.5

 Normal termination of Gaussian 16 at Wed Apr  9 01:00:14 2025.
 Gaussian 16:  ES64L-G16RevC.01  3-Jul-2019

 ----------------------------------------------------------------------
 #t hf aug-cc-pvdz iop(5/13=1,5/36=2,99/5=2) pseudo=read geom=check gue
 ss=(read,tcheck) scf=(maxcycle=1)
 ----------------------------------------------------------------------
 -----
 title
 -----
 Structure from the checkpoint file:  "BH10_22_reverse_mol2.chk"
 Charge =  0 Multiplicity = 2

                         Standard orientation:
 ---------------------------------------------------------------------
 Center     Atomic      Atomic             Coordinates (Angstroms)
 Number     Number       Type             X           Y           Z
 ---------------------------------------------------------------------
      1          6           0        0.133250   -0.371573    0.250681
      2          6           0        1.144215   -1.486638   -0.099525
      3          6           0        2.170155   -0.399295   -0.473692
      4          1           0        0.827819   -2.064532   -0.968893
      5          1           0        1.399409   -2.171639    0.709499
      6          6           0        1.013967    0.632272   -0.606145
      7          1           0        2.774855   -0.560967   -1.365517
      8          1           0        2.832462   -0.150316    0.356930
      9         16           0       -1.528844   -0.722882   -0.402102
     10          6           0       -2.358168    0.864129   -0.125846
     11          1           0       -3.324771    0.805380   -0.624551
     12          1           0       -1.786135    1.680786   -0.566869
     13          1           0       -2.523166    1.059102    0.932838
     14          6           0        0.118507   -0.052584    1.736424
     15          1           0       -0.339540   -0.873947    2.289831
     16          1           0       -0.435873    0.862706    1.948671
     17          1           0        1.135521    0.087564    2.112257
     18          6           0        1.224305    2.013494   -0.152659
     19          1           0        0.883293    2.860889   -0.732829
     20          1           0        1.711977    2.216665    0.793262
     21          1           0        0.628271    0.615591   -1.626420
 ---------------------------------------------------------------------

 SCF Done:  E(UHF) =  -670.234210195     A.U. after    2 cycles

 The electronic state is 2-A.
 Alpha  occ. eigenvalues --  -93.51549 -11.27267 -11.25662 -11.24190 -11.23877
 Alpha  occ. eigenvalues --  -11.23423 -11.23238 -11.22907  -8.81337  -6.15517
 Alpha  occ. eigenvalues --   -6.15300  -6.14986  -1.14999  -1.02946  -0.99492
 Alpha  occ. eigenvalues --   -0.97064  -0.88366  -0.84930  -0.80559  -0.71598
 Alpha  occ. eigenvalues --   -0.64643  -0.63289  -0.61385  -0.59585  -0.58240
 Alpha  occ. eigenvalues --   -0.57154  -0.54818  -0.53735  -0.52823  -0.50281
 Alpha  occ. eigenvalues --   -0.47479  -0.45083  -0.43344  -0.41924  -0.35877
 Alpha  occ. eigenvalues --   -0.31674
 Alpha virt. eigenvalues --    0.03465   0.04193   0.04516   0.04749   0.06002
 Alpha virt. eigenvalues --    0.06163   0.06485   0.06762   0.07271   0.08438
 Alpha virt. eigenvalues --    0.08810   0.09129   0.09968   0.11633   0.12048

  Beta  occ. eigenvalues --  -93.51548 -11.26932 -11.25653 -11.24313 -11.23276
  Beta  occ. eigenvalues --  -11.23189 -11.22920 -11.21793  -8.81337  -6.15519
  Beta  occ. eigenvalues --   -6.15299  -6.14978  -1.14358  -1.02597  -0.97328
  Beta  occ. eigenvalues --   -0.94995  -0.88104  -0.82329  -0.79210  -0.71138
  Beta  occ. eigenvalues --   -0.64291  -0.62818  -0.60741  -0.59135  -0.57727
  Beta  occ. eigenvalues --   -0.56772  -0.54790  -0.53485  -0.52343  -0.48834
  Beta  occ. eigenvalues --   -0.46823  -0.44688  -0.43001  -0.40609  -0.32860
  Beta virt. eigenvalues --    0.03505   0.04101   0.04483   0.04765   0.05933
  Beta virt. eigenvalues --    0.06173   0.06485   0.06700   0.06912   0.08421
  Beta virt. eigenvalues --    0.08815   0.09063   0.09873   0.10195   0.11730

 Mulliken charges and spin densities:
               1          2
     1  C   -1.551445   0.094613
     2  C    1.024607  -0.026287
     3  C    0.661118   0.085689
     4  H   -0.223900   0.001358
     5  H   -0.158322  -0.001248
     6  C    0.331549  -0.348459
     7  H   -0.208288  -0.000684
     8  H   -0.254424  -0.007918
     9  S    0.337301   0.004191
    10  C    0.232385   0.004726
    11  H   -0.148345   0.000386
    12  H   -0.134862  -0.007771
    13  H   -0.102794   0.002937
    14  C    0.605042  -0.001672
    15  H   -0.026086   0.000849
    16  H   -0.084692  -0.009249
    17  H   -0.016194   0.003970
    18  C    0.714890   1.434600
    19  H   -0.368165  -0.117146
    20  H   -0.299138  -0.111624
    21  H   -0.330235  -0.001263
 Sum of Mulliken charges =  -0.00000   1.00000

 Dipole moment (field-independent basis, Debye):
    X=              0.8039    Y=              1.3245    Z=              0.6320  Tot=              1.6733
                          Isotropic Fermi Contact Couplings
        Atom                 a.u.       MegaHertz       Gauss      10(-4) cm-1
     1  C(13)              0.07051      79.26125      28.28238      26.43871
     2  C(13)             -0.00732      -8.23446      -2.93826      -2.74672
     3  C(13)              0.05123      57.58931      20.54930      19.20973
     4  H(1)               0.00018       0.81637       0.29130       0.27231
     5  H(1)              -0.00010      -0.45442      -0.16215      -0.15158
     6  C(13)             -0.07861     -88.36728     -31.53164     -29.47615
     7  H(1)              -0.00118      -5.28571      -1.88607      -1.76312
     8  H(1)              -0.00156      -6.96872      -2.48661      -2.32451

 Normal termination of Gaussian 16 at Wed Apr  9 01:00:27 2025.
