 Gaussian 16, Revision C.01,

 ----------------------------------------------------------------------
 #t hf aug-cc-pvdz symm=none int=(grid=ultrafine) guess=(read,tcheck) s
 table=(opt,rrhf)
 ----------------------------------------------------------------------
 -----
 title
 -----
 Symbolic Z-matrix:
 Charge =  0 Multiplicity = 1

 SCF Done:  E(RHF) =  -893.871195412     A.U. after   16 cycles
 Normal termination of Gaussian 16 at Wed Apr  9 01:50:12 2025.
 Gaussian 16:  ES64L-G16RevC.01  3-Jul-2019

 ----------------------------------------------------------------------
 #t hf aug-cc-pvdz iop(5/13=1,5/36=2,99/5=2) pseudo=read geom=check gue
 ss=(read,tcheck) scf=(maxcycle=1)
 ----------------------------------------------------------------------
 -----
 title
 -----
 Structure from the checkpoint file:  "BH10_90_reverse_mol2.chk"
 Charge =  0 Multiplicity = 1

                         Standard orientation:
 ---------------------------------------------------------------------
 Center     Atomic      Atomic             Coordinates (Angstroms)
 Number     Number       Type             X           Y           Z
 ---------------------------------------------------------------------
      1          6           0        0.501536   -1.147049    0.407105
      2          6           0        0.222844   -0.517003    1.737293
      3          6           0        0.921261    1.198871    0.322218
      4          6           0        0.451546    0.798490    1.686007
      5         16           0        2.098734   -0.238463    0.024082
      6          8           0        2.408845   -0.347273   -1.434732
      7          6           0       -2.465033    0.672417    0.017792
      8          6           0       -0.437570   -0.576487   -0.680684
      9          6           0       -0.135614    0.934899   -0.769005
     10          1           0       -2.510155    0.758161    1.107418
     11          1           0       -3.486644    0.754818   -0.353407
     12          6           0       -1.482085    1.676613   -0.593884
     13          1           0       -1.374942    2.576135    0.014195
     14          1           0       -1.841777    1.999224   -1.572308
     15          6           0       -1.901954   -0.704330   -0.281833
     16          8           0       -2.501687   -1.742751   -0.196691
     17          1           0        0.342015    1.490932    2.509647
     18          1           0       -0.110705   -1.072761    2.602777
     19          1           0       -0.261358   -1.096845   -1.622349
     20          1           0        0.614136   -2.226790    0.391420
     21          1           0        0.321158    1.172953   -1.728368
     22          1           0        1.421692    2.161239    0.246993
 ---------------------------------------------------------------------

 SCF Done:  E(RHF) =  -894.054163757     A.U. after    2 cycles

 The electronic state is 1-A.
 Alpha  occ. eigenvalues --  -93.66275 -20.57081 -20.52904 -11.34801 -11.29738
 Alpha  occ. eigenvalues --  -11.29411 -11.27689 -11.27530 -11.26414 -11.26335
 Alpha  occ. eigenvalues --  -11.25641 -11.25275  -8.94582  -6.28855  -6.28606
 Alpha  occ. eigenvalues --   -6.28388  -1.36599  -1.31339  -1.19905  -1.10904
 Alpha  occ. eigenvalues --   -1.03342  -1.01600  -0.94448  -0.92318  -0.82221
 Alpha  occ. eigenvalues --   -0.80608  -0.76949  -0.73451  -0.72262  -0.68755
 Alpha  occ. eigenvalues --   -0.67292  -0.63065  -0.61485  -0.60837  -0.60044
 Alpha  occ. eigenvalues --   -0.59021  -0.57069  -0.56286  -0.55675  -0.54865
 Alpha  occ. eigenvalues --   -0.50725  -0.50259  -0.49374  -0.48091  -0.43247
 Alpha  occ. eigenvalues --   -0.41554  -0.40677  -0.36660
 Alpha virt. eigenvalues --    0.02453   0.03508   0.03934   0.04334   0.05574
 Alpha virt. eigenvalues --    0.05684   0.05881   0.06443   0.07543   0.08527
 Alpha virt. eigenvalues --    0.08704   0.08983   0.10345   0.11273   0.11831

 Mulliken charges:
               1
     1  C    0.052944
     2  C    0.598566
     3  C    0.053362
     4  C    0.524425
     5  S    1.462101
     6  O   -1.106725
     7  C    0.180262
     8  C   -0.348448
     9  C    0.043297
    10  H    0.074089
    11  H   -0.072228
    12  C    0.803873
    13  H   -0.103348
    14  H   -0.074914
    15  C    0.381793
    16  O   -0.573265
    17  H   -0.408891
    18  H   -0.382357
    19  H   -0.140173
    20  H   -0.357542
    21  H   -0.191173
    22  H   -0.415649
 Sum of Mulliken charges =  -0.00000

 Dipole moment (field-independent basis, Debye):
    X=             -1.3121    Y=              3.8338    Z=              3.2670  Tot=              5.2051

 Test job not archived.
 1\1\GINC-SE174\SP\RHF\Aug-CC-pVDZ\C9H10O2S1\OHZDE\09-Apr-2025\0\\#t hf
  aug-cc-pvdz iop(5/13=1,5/36=2,99/5=2) pseudo=read geom=check guess=(r
 ead,tcheck) scf=(maxcycle=1)\\title\\0,1\C,0,0.501536,-1.147049,0.4071
 05\C,0,0.222844,-0.517003,1.737293\C,0,0.921261,1.198871,0.322218\C,0,
 0.451546,0.79849,1.686007\S,0,2.098734,-0.238463,0.024082\O,0,2.408845
 ,-0.347273,-1.434732\C,0,-2.465033,0.672417,0.017792\C,0,-0.43757,-0.5
 76487,-0.680684\C,0,-0.135614,0.934899,-0.769005\H,0,-2.510155,0.75816
 1,1.107418\H,0,-3.486644,0.754818,-0.353407\C,0,-1.482085,1.676613,-0.

 Normal termination of Gaussian 16 at Wed Apr  9 01:50:31 2025.
