 Gaussian 16, Revision C.01,

 ----------------------------------------------------------------------
 #t hf aug-cc-pvdz symm=none int=(grid=ultrafine) guess=(read,tcheck) s
 table=(opt,rrhf)
 ----------------------------------------------------------------------
 -----
 title
 -----
 Symbolic Z-matrix:
 Charge =  1 Multiplicity = 1

 SCF Done:  E(RHF) =  -680.275586712     A.U. after   15 cycles

 1\1\GINC-SE112\Stability\RHF\Aug-CC-pVDZ\C10H6F3\OHZDE\09-Apr-2025\0\\
 #t hf aug-cc-pvdz symm=none int=(grid=ultrafine) guess=(read,tcheck) s
 table=(opt,rrhf)\\title\\1,1\C,0,4.366697,-0.670126,0.015299\C,0,3.162
 762,0.,0.003858\C,0,4.366697,0.670126,0.015304\H,0,4.922139,-1.595785,
 0.020594\H,0,4.922139,1.595785,0.020606\C,0,1.748011,0.,-0.008684\C,0,
 1.053614,1.219304,-0.015922\C,0,1.053614,-1.219304,-0.015921\C,0,-0.32
 5026,1.215237,-0.028693\H,0,1.596158,2.156465,-0.013295\C,0,-0.325026,
 -1.215237,-0.028691\H,0,1.596158,-2.156465,-0.013294\C,0,-1.003412,0.,

 Normal termination of Gaussian 16 at Wed Apr  9 01:00:50 2025.
 Gaussian 16:  ES64L-G16RevC.01  3-Jul-2019

 ----------------------------------------------------------------------
 #t hf aug-cc-pvdz iop(5/13=1,5/36=2,99/5=2) pseudo=read geom=check gue
 ss=(read,tcheck) scf=(maxcycle=1)
 ----------------------------------------------------------------------
 -----
 title
 -----
 Structure from the checkpoint file:  "BH10_249_reverse_mol2.chk"
 Charge =  1 Multiplicity = 1

                         Standard orientation:
 ---------------------------------------------------------------------
 Center     Atomic      Atomic             Coordinates (Angstroms)
 Number     Number       Type             X           Y           Z
 ---------------------------------------------------------------------
      1          6           0        4.366697   -0.670126    0.015299
      2          6           0        3.162762    0.000000    0.003858
      3          6           0        4.366697    0.670126    0.015304
      4          1           0        4.922139   -1.595785    0.020594
      5          1           0        4.922139    1.595785    0.020606
      6          6           0        1.748011    0.000000   -0.008684
      7          6           0        1.053614    1.219304   -0.015922
      8          6           0        1.053614   -1.219304   -0.015921
      9          6           0       -0.325026    1.215237   -0.028693
     10          1           0        1.596158    2.156465   -0.013295
     11          6           0       -0.325026   -1.215237   -0.028691
     12          1           0        1.596158   -2.156465   -0.013294
     13          6           0       -1.003412    0.000000   -0.034377
     14          1           0       -0.878374    2.144611   -0.041459
     15          1           0       -0.878375   -2.144611   -0.041455
     16          6           0       -2.516644    0.000000    0.001920
     17          9           0       -2.942703   -0.000005    1.271397
     18          9           0       -3.015736    1.082030   -0.599930
     19          9           0       -3.015736   -1.082025   -0.599939
 ---------------------------------------------------------------------

 SCF Done:  E(RHF) =  -680.499365953     A.U. after    2 cycles

 The electronic state is 1-A.
 Alpha  occ. eigenvalues --  -26.27558 -26.27547 -26.27179 -11.64453 -11.53905
 Alpha  occ. eigenvalues --  -11.52871 -11.52744 -11.44330 -11.43696 -11.43455
 Alpha  occ. eigenvalues --  -11.43448 -11.41165 -11.41163  -1.87549  -1.80442
 Alpha  occ. eigenvalues --   -1.80042  -1.46721  -1.33700  -1.24214  -1.19529
 Alpha  occ. eigenvalues --   -1.14853  -1.06555  -1.03794  -1.01499  -0.99171
 Alpha  occ. eigenvalues --   -0.99093  -0.98256  -0.95828  -0.92615  -0.88293
 Alpha  occ. eigenvalues --   -0.88168  -0.84291  -0.83659  -0.82442  -0.82030
 Alpha  occ. eigenvalues --   -0.82024  -0.79430  -0.77074  -0.75547  -0.74322
 Alpha  occ. eigenvalues --   -0.73105  -0.68910  -0.67534  -0.67157  -0.52935
 Alpha  occ. eigenvalues --   -0.51456
 Alpha virt. eigenvalues --   -0.13426  -0.09801  -0.08542  -0.07261  -0.06068
 Alpha virt. eigenvalues --   -0.04269  -0.04156  -0.03873  -0.03293  -0.03052
 Alpha virt. eigenvalues --   -0.02072  -0.01563  -0.00464   0.00340   0.01088

 Mulliken charges:
               1
     1  C    0.313735
     2  C    0.745979
     3  C    0.313735
     4  H   -0.344566
     5  H   -0.344566
     6  C    1.099017
     7  C    0.099346
     8  C    0.099346
     9  C    0.039248
    10  H   -0.590698
    11  C    0.039229
    12  H   -0.590698
    13  C    1.261572
    14  H   -0.519194
    15  H   -0.519192
    16  C    0.775458
    17  F   -0.297782
    18  F   -0.289985
    19  F   -0.289985
 Sum of Mulliken charges =   1.00000

 Dipole moment (field-independent basis, Debye):
    X=             16.1899    Y=              0.0000    Z=             -0.0814  Tot=             16.1901

 Test job not archived.
 1\1\GINC-SE112\SP\RHF\Aug-CC-pVDZ\C10H6F3(1+)\OHZDE\09-Apr-2025\0\\#t
 hf aug-cc-pvdz iop(5/13=1,5/36=2,99/5=2) pseudo=read geom=check guess=
 (read,tcheck) scf=(maxcycle=1)\\title\\1,1\C,0,4.366697,-0.670126,0.01
 5299\C,0,3.162762,0.,0.003858\C,0,4.366697,0.670126,0.015304\H,0,4.922
 139,-1.595785,0.020594\H,0,4.922139,1.595785,0.020606\C,0,1.748011,0.,
 -0.008684\C,0,1.053614,1.219304,-0.015922\C,0,1.053614,-1.219304,-0.01
 5921\C,0,-0.325026,1.215237,-0.028693\H,0,1.596158,2.156465,-0.013295\
 C,0,-0.325026,-1.215237,-0.028691\H,0,1.596158,-2.156465,-0.013294\C,0

 Normal termination of Gaussian 16 at Wed Apr  9 01:01:03 2025.
