 Gaussian 16, Revision C.01,

 ----------------------------------------------------------------------
 #t hf aug-cc-pvdz symm=none int=(grid=ultrafine) guess=(read,tcheck) s
 table=(opt,rrhf)
 ----------------------------------------------------------------------
 -----
 title
 -----
 Symbolic Z-matrix:
 Charge =  0 Multiplicity = 1

 SCF Done:  E(RHF) =  -1155.61176108     A.U. after   15 cycles
 Normal termination of Gaussian 16 at Wed Apr  9 02:40:57 2025.
 Gaussian 16:  ES64L-G16RevC.01  3-Jul-2019

 ----------------------------------------------------------------------
 #t hf aug-cc-pvdz iop(5/13=1,5/36=2,99/5=2) pseudo=read geom=check gue
 ss=(read,tcheck) scf=(maxcycle=1)
 ----------------------------------------------------------------------
 -----
 title
 -----
 Structure from the checkpoint file:  "BH10_401_reverse_mol2.chk"
 Charge =  0 Multiplicity = 1

                         Standard orientation:
 ---------------------------------------------------------------------
 Center     Atomic      Atomic             Coordinates (Angstroms)
 Number     Number       Type             X           Y           Z
 ---------------------------------------------------------------------
      1          6           0       -0.288069   -2.561065    0.162216
      2          1           0       -0.459806   -3.176339   -0.744858
      3          6           0        0.985207   -1.791261   -0.001450
      4          6           0       -0.284057    0.310431   -0.229357
      5          1           0       -0.476904    0.879251    0.685973
      6          1           0       -0.194689    1.036861   -1.038633
      7          6           0       -1.481342   -0.600092   -0.499148
      8          1           0       -1.382892   -0.991827   -1.531078
      9          7           0       -1.425849   -1.710278    0.443635
     10          6           0        2.298408    0.263500   -0.140547
     11          6           0        2.270083   -2.569684    0.040912
     12          6           0        3.400277   -0.432402   -0.457251
     13          6           0        3.350625   -1.899124   -0.801327
     14          6           0        1.002524   -0.461104   -0.122892
     15          6           0        4.706944   -2.577430   -0.647279
     16          1           0        4.656392   -3.630653   -0.933197
     17          1           0        5.462182   -2.096211   -1.273302
     18          1           0        5.050090   -2.526704    0.389781
     19          6           0       -2.662995   -2.461191    0.519032
     20          1           0       -2.971917   -2.832473   -0.475778
     21          1           0       -2.495976   -3.335571    1.152015
     22          6           0       -2.791014    0.161608   -0.427355
     23          6           0       -3.861459   -0.291183    0.342909
     24          6           0       -3.748912   -1.582570    1.108621
     25          1           0       -3.503963   -1.374077    2.154545
     26          1           0       -4.708929   -2.105052    1.096468
     27          1           0       -0.170016   -3.267896    0.991731
     28          6           0       -5.040952    0.450613    0.378642
     29          1           0       -5.869551    0.089746    0.979030
     30          6           0       -2.939987    1.335339   -1.166786
     31          1           0       -2.124273    1.683501   -1.789332
     32          6           0       -5.172944    1.624363   -0.341883
     33          1           0       -6.097923    2.186935   -0.302533
     34          6           0       -4.114926    2.065650   -1.126690
     35          1           0       -4.206838    2.974964   -1.708327
     36         14           0        2.468291    2.068890    0.382352
     37          6           0        1.877828    2.253319    2.156763
     38          1           0        2.461208    1.616223    2.825837
     39          1           0        1.985469    3.286453    2.498145
     40          1           0        0.827890    1.975401    2.269256
     41          6           0        4.278177    2.563843    0.290473
     42          1           0        4.670322    2.493624   -0.726878
     43          1           0        4.389666    3.602244    0.613793
     44          1           0        4.905723    1.948663    0.938907
     45          6           0        1.492639    3.240199   -0.722427
     46          1           0        1.679612    3.038572   -1.780116
     47          1           0        0.417153    3.175945   -0.550127
     48          1           0        1.794563    4.272521   -0.524597
     49          1           0        2.104822   -3.594455   -0.306084
     50          1           0        2.611642   -2.645973    1.084500
     51          1           0        3.042251   -1.975382   -1.855273
     52          1           0        4.373218    0.048638   -0.489292
 ---------------------------------------------------------------------

 SCF Done:  E(RHF) =  -1155.88922567     A.U. after    2 cycles

 The electronic state is 1-A.
 Alpha  occ. eigenvalues --  -69.03987 -15.60875 -11.26735 -11.26058 -11.25757
 Alpha  occ. eigenvalues --  -11.24215 -11.24106 -11.23738 -11.23658 -11.23639
 Alpha  occ. eigenvalues --  -11.23565 -11.23489 -11.23388 -11.23202 -11.23057
 Alpha  occ. eigenvalues --  -11.22971 -11.22812 -11.22751 -11.22469 -11.21384
 Alpha  occ. eigenvalues --  -11.20231 -11.20190 -11.19938  -6.79262  -3.90017
 Alpha  occ. eigenvalues --   -3.89998  -3.89974  -1.22400  -1.14642  -1.12888
 Alpha  occ. eigenvalues --   -1.07071  -1.05008  -1.03286  -1.00971  -0.98890
 Alpha  occ. eigenvalues --   -0.96602  -0.95148  -0.92614  -0.91374  -0.91221
 Alpha  occ. eigenvalues --   -0.87684  -0.85911  -0.83850  -0.81500  -0.81074
 Alpha  occ. eigenvalues --   -0.76355  -0.74356  -0.69696  -0.67606  -0.66899
 Alpha  occ. eigenvalues --   -0.65076  -0.64652  -0.63748  -0.62520  -0.61708
 Alpha  occ. eigenvalues --   -0.60170  -0.59531  -0.58986  -0.58138  -0.57919
 Alpha  occ. eigenvalues --   -0.56759  -0.56022  -0.55915  -0.55260  -0.54598
 Alpha  occ. eigenvalues --   -0.54138  -0.53887  -0.53522  -0.53004  -0.52852
 Alpha  occ. eigenvalues --   -0.52369  -0.52193  -0.51485  -0.50105  -0.49584
 Alpha  occ. eigenvalues --   -0.48864  -0.48081  -0.47605  -0.45780  -0.43836
 Alpha  occ. eigenvalues --   -0.43123  -0.42389  -0.40844  -0.38997  -0.35509
 Alpha  occ. eigenvalues --   -0.32933  -0.32250  -0.29524
 Alpha virt. eigenvalues --    0.02766   0.03327   0.03364   0.03738   0.04369
 Alpha virt. eigenvalues --    0.04622   0.05204   0.05324   0.05395   0.05771
 Alpha virt. eigenvalues --    0.06026   0.06708   0.06926   0.07205   0.07386

 Mulliken charges:
               1
     1  C    0.331386
     2  H    0.154992
     3  C   -0.376525
     4  C   -0.192434
     5  H   -0.069430
     6  H   -0.006594
     7  C    0.542676
     8  H   -0.082779
     9  N   -0.738692
    10  C   -1.153961
    11  C    0.615214
    12  C   -0.021300
    13  C    0.063529
    14  C   -0.482414
    15  C    1.019689
    16  H   -0.088636
    17  H   -0.066584
    18  H   -0.000923
    19  C    1.120962
    20  H   -0.137081
    21  H   -0.265270
    22  C    0.142814
    23  C   -0.357628
    24  C    0.752443
    25  H    0.099614
    26  H   -0.026960
    27  H   -0.125959
    28  C    1.013942
    29  H   -0.628395
    30  C    0.873501
    31  H   -0.711815
    32  C    0.282365
    33  H   -0.467294
    34  C   -0.047445
    35  H   -0.555752
    36  Si   0.670496
    37  C    1.011857
    38  H   -0.315555
    39  H   -0.294400
    40  H   -0.308032
    41  C    0.759454
    42  H   -0.298994
    43  H   -0.497835
    44  H   -0.283177
    45  C    0.967212
    46  H   -0.278520
    47  H   -0.346522
    48  H   -0.295132
    49  H   -0.119141
    50  H    0.042945
    51  H   -0.100393
    52  H   -0.723513
 Sum of Mulliken charges =  -0.00000

 Dipole moment (field-independent basis, Debye):
    X=              0.2022    Y=             -1.1313    Z=             -0.3621  Tot=              1.2049

 Test job not archived.
 1\1\GINC-SE069\SP\RHF\Aug-CC-pVDZ\C21H29N1Si1\OHZDE\09-Apr-2025\0\\#t
 hf aug-cc-pvdz iop(5/13=1,5/36=2,99/5=2) pseudo=read geom=check guess=
 (read,tcheck) scf=(maxcycle=1)\\title\\0,1\C,0,-0.288069,-2.561065,0.1
 62216\H,0,-0.459806,-3.176339,-0.744858\C,0,0.985207,-1.791261,-0.0014
 5\C,0,-0.284057,0.310431,-0.229357\H,0,-0.476904,0.879251,0.685973\H,0
 ,-0.194689,1.036861,-1.038633\C,0,-1.481342,-0.600092,-0.499148\H,0,-1
 .382892,-0.991827,-1.531078\N,0,-1.425849,-1.710278,0.443635\C,0,2.298
 408,0.2635,-0.140547\C,0,2.270083,-2.569684,0.040912\C,0,3.400277,-0.4

 Normal termination of Gaussian 16 at Wed Apr  9 02:43:59 2025.
