 Gaussian 16, Revision C.01,

 ----------------------------------------------------------------------
 #t hf aug-cc-pvdz symm=none int=(grid=ultrafine) guess=(read,tcheck) s
 table=(opt,rrhf)
 ----------------------------------------------------------------------
 -----
 title
 -----
 Symbolic Z-matrix:
 Charge =  0 Multiplicity = 1

 SCF Done:  E(RHF) =  -808.942240633     A.U. after   15 cycles
 Normal termination of Gaussian 16 at Wed Apr  9 01:10:36 2025.
 Gaussian 16:  ES64L-G16RevC.01  3-Jul-2019

 ----------------------------------------------------------------------
 #t hf aug-cc-pvdz iop(5/13=1,5/36=2,99/5=2) pseudo=read geom=check gue
 ss=(read,tcheck) scf=(maxcycle=1)
 ----------------------------------------------------------------------
 -----
 title
 -----
 Structure from the checkpoint file:  "BH10_290_forward_mol2.chk"
 Charge =  0 Multiplicity = 1

                         Standard orientation:
 ---------------------------------------------------------------------
 Center     Atomic      Atomic             Coordinates (Angstroms)
 Number     Number       Type             X           Y           Z
 ---------------------------------------------------------------------
      1          6           0       -2.737445    1.214736    0.227099
      2          6           0       -1.566251    0.493464    0.037768
      3          6           0       -1.607197   -0.889454   -0.153689
      4          6           0       -2.808277   -1.565177   -0.140679
      5          6           0       -3.991606   -0.852070    0.057331
      6          6           0       -3.946652    0.522596    0.237943
      7          1           0       -2.724240    2.288337    0.363080
      8          1           0       -2.836019   -2.639092   -0.289665
      9          1           0       -4.942712   -1.369477    0.063225
     10          1           0       -4.868104    1.074130    0.383364
     11          6           0       -0.196327   -1.390324   -0.308317
     12          6           0        0.594459   -0.090045   -0.587987
     13          1           0        0.615802    0.063529   -1.682097
     14          7           0       -0.250476    0.966023    0.014567
     15          1           0       -0.075991   -2.120399   -1.109111
     16          6           0       -0.027275    2.317671   -0.445304
     17          1           0       -0.312634    2.448050   -1.501344
     18          1           0       -0.602095    3.020759    0.157242
     19          1           0        1.023712    2.578258   -0.339843
     20         14           0        2.371169   -0.175179    0.088190
     21          6           0        2.298753   -0.263458    1.958171
     22          1           0        1.758804    0.597111    2.359209
     23          1           0        1.785418   -1.163347    2.304083
     24          1           0        3.302548   -0.267597    2.390637
     25          6           0        3.413207    1.300373   -0.436157
     26          1           0        4.469983    1.094082   -0.245610
     27          1           0        3.308252    1.512375   -1.503232
     28          1           0        3.157417    2.207667    0.114697
     29          6           0        3.145661   -1.730644   -0.627508
     30          1           0        3.162316   -1.699703   -1.720302
     31          1           0        4.178072   -1.843326   -0.286849
     32          1           0        2.599807   -2.628395   -0.328547
     33          1           0        0.130338   -1.868617    0.622411
 ---------------------------------------------------------------------

 SCF Done:  E(RHF) =  -809.124376093     A.U. after    2 cycles

 The electronic state is 1-A.
 Alpha  occ. eigenvalues --  -69.04266 -15.62508 -11.26804 -11.26088 -11.24930
 Alpha  occ. eigenvalues --  -11.24000 -11.23714 -11.23651 -11.22930 -11.22894
 Alpha  occ. eigenvalues --  -11.22532 -11.21036 -11.20865 -11.20441  -6.79605
 Alpha  occ. eigenvalues --   -3.90365  -3.90359  -3.90349  -1.23436  -1.12253
 Alpha  occ. eigenvalues --   -1.05321  -0.99815  -0.97722  -0.95300  -0.92073
 Alpha  occ. eigenvalues --   -0.91857  -0.91299  -0.83497  -0.79912  -0.78025
 Alpha  occ. eigenvalues --   -0.69069  -0.66614  -0.65071  -0.63816  -0.60994
 Alpha  occ. eigenvalues --   -0.59882  -0.59088  -0.57832  -0.57050  -0.56528
 Alpha  occ. eigenvalues --   -0.55630  -0.55512  -0.54323  -0.54152  -0.53432
 Alpha  occ. eigenvalues --   -0.52288  -0.51712  -0.49558  -0.49125  -0.47801
 Alpha  occ. eigenvalues --   -0.44174  -0.43106  -0.42972  -0.38614  -0.33142
 Alpha  occ. eigenvalues --   -0.27904
 Alpha virt. eigenvalues --    0.02707   0.03585   0.03648   0.04196   0.05116
 Alpha virt. eigenvalues --    0.05230   0.06049   0.06291   0.06509   0.06552
 Alpha virt. eigenvalues --    0.06837   0.08045   0.08383   0.08596   0.08804

 Mulliken charges:
               1
     1  C    1.240692
     2  C   -0.599822
     3  C   -0.250215
     4  C    0.858965
     5  C    0.573914
     6  C    0.239895
     7  H   -0.692712
     8  H   -0.531891
     9  H   -0.487110
    10  H   -0.493439
    11  C    0.028787
    12  C    0.754353
    13  H   -0.471523
    14  N   -0.488909
    15  H    0.008318
    16  C    1.012213
    17  H   -0.041609
    18  H   -0.178130
    19  H   -0.561825
    20  Si   0.253888
    21  C    0.803947
    22  H   -0.120742
    23  H   -0.269661
    24  H   -0.336863
    25  C    0.740530
    26  H   -0.405486
    27  H   -0.214092
    28  H   -0.289403
    29  C    0.684453
    30  H   -0.260613
    31  H   -0.326388
    32  H   -0.253692
    33  H    0.074170
 Sum of Mulliken charges =   0.00000

 Dipole moment (field-independent basis, Debye):
    X=              1.4183    Y=              0.2568    Z=             -0.5794  Tot=              1.5535

 Test job not archived.
 1\1\GINC-SE403\SP\RHF\Aug-CC-pVDZ\C12H19N1Si1\OHZDE\09-Apr-2025\0\\#t
 hf aug-cc-pvdz iop(5/13=1,5/36=2,99/5=2) pseudo=read geom=check guess=
 (read,tcheck) scf=(maxcycle=1)\\title\\0,1\C,0,-2.737445,1.214736,0.22
 7099\C,0,-1.566251,0.493464,0.037768\C,0,-1.607197,-0.889454,-0.153689
 \C,0,-2.808277,-1.565177,-0.140679\C,0,-3.991606,-0.85207,0.057331\C,0
 ,-3.946652,0.522596,0.237943\H,0,-2.72424,2.288337,0.36308\H,0,-2.8360
 19,-2.639092,-0.289665\H,0,-4.942712,-1.369477,0.063225\H,0,-4.868104,
 1.07413,0.383364\C,0,-0.196327,-1.390324,-0.308317\C,0,0.594459,-0.090

 Normal termination of Gaussian 16 at Wed Apr  9 01:11:19 2025.
