 Gaussian 16, Revision C.01,

 ----------------------------------------------------------------------
 #t hf aug-cc-pvdz symm=none int=(grid=ultrafine) guess=(read,tcheck) s
 table=(opt,rrhf)
 ----------------------------------------------------------------------
 -----
 title
 -----
 Symbolic Z-matrix:
 Charge = -1 Multiplicity = 1

 SCF Done:  E(RHF) =  -718.908499154     A.U. after   14 cycles
 Normal termination of Gaussian 16 at Wed Apr  9 01:09:04 2025.
 Gaussian 16:  ES64L-G16RevC.01  3-Jul-2019

 ----------------------------------------------------------------------
 #t hf aug-cc-pvdz iop(5/13=1,5/36=2,99/5=2) pseudo=read geom=check gue
 ss=(read,tcheck) scf=(maxcycle=1)
 ----------------------------------------------------------------------
 -----
 title
 -----
 Structure from the checkpoint file:  "BH10_324_forward_mol3.chk"
 Charge = -1 Multiplicity = 1

                         Standard orientation:
 ---------------------------------------------------------------------
 Center     Atomic      Atomic             Coordinates (Angstroms)
 Number     Number       Type             X           Y           Z
 ---------------------------------------------------------------------
      1         16           0       -2.227134   -0.126972   -0.065207
      2          6           0       -0.832148    0.973776    0.373378
      3          6           0        0.474251    0.655326   -0.361640
      4          1           0       -0.640072    0.932624    1.453457
      5          1           0       -1.085191    2.007923    0.129850
      6          7           0        1.460197    1.716279   -0.148817
      7          6           0        1.056826   -0.726233   -0.018130
      8          1           0        0.232355    0.608250   -1.429718
      9          8           0        2.249117   -0.880048    0.163700
     10          8           0        0.213959   -1.733924    0.016427
     11          1           0       -0.756292   -1.384585   -0.059605
     12          1           0        2.385084    1.300870   -0.219243
     13          1           0        1.378691    2.047081    0.807622
 ---------------------------------------------------------------------

 SCF Done:  E(RHF) =  -719.023782416     A.U. after    2 cycles

 The electronic state is 1-A.
 Alpha  occ. eigenvalues --  -93.29196 -20.44738 -20.40760 -15.48014 -11.24102
 Alpha  occ. eigenvalues --  -11.13964 -11.10966  -8.58984  -5.93148  -5.92789
 Alpha  occ. eigenvalues --   -5.92666  -1.25983  -1.16685  -1.03027  -0.86770
 Alpha  occ. eigenvalues --   -0.75825  -0.66680  -0.64149  -0.57493  -0.52954
 Alpha  occ. eigenvalues --   -0.51693  -0.48696  -0.45233  -0.43462  -0.41530
 Alpha  occ. eigenvalues --   -0.37444  -0.33853  -0.31850  -0.27926  -0.26577
 Alpha  occ. eigenvalues --   -0.15180  -0.13806
 Alpha virt. eigenvalues --    0.13148   0.14566   0.15278   0.15830   0.17505
 Alpha virt. eigenvalues --    0.17728   0.20057   0.21762   0.22608   0.24633
 Alpha virt. eigenvalues --    0.25519   0.26233   0.27113   0.27909   0.28196

 Mulliken charges:
               1
     1  S   -0.451577
     2  C    0.171134
     3  C   -0.105878
     4  H   -0.137889
     5  H   -0.046120
     6  N   -0.329427
     7  C    0.728488
     8  H   -0.026983
     9  O   -0.564123
    10  O   -0.607389
    11  H    0.279363
    12  H    0.036354
    13  H    0.054047
 Sum of Mulliken charges =  -1.00000

 Dipole moment (field-independent basis, Debye):
    X=              3.2576    Y=              2.4830    Z=              0.5999  Tot=              4.1397

 Test job not archived.
 1\1\GINC-SE069\SP\RHF\Aug-CC-pVDZ\C3H6N1O2S1(1-)\OHZDE\09-Apr-2025\0\\
 #t hf aug-cc-pvdz iop(5/13=1,5/36=2,99/5=2) pseudo=read geom=check gue
 ss=(read,tcheck) scf=(maxcycle=1)\\title\\-1,1\S,0,-2.227134,-0.126972
 ,-0.065207\C,0,-0.832148,0.973776,0.373378\C,0,0.474251,0.655326,-0.36
 164\H,0,-0.640072,0.932624,1.453457\H,0,-1.085192,2.007923,0.12985\N,0
 ,1.460197,1.716279,-0.148817\C,0,1.056826,-0.726233,-0.01813\H,0,0.232
 355,0.60825,-1.429718\O,0,2.249117,-0.880048,0.1637\O,0,0.213959,-1.73
 3924,0.016427\H,0,-0.756292,-1.384585,-0.059605\H,0,2.385084,1.30087,-

 Normal termination of Gaussian 16 at Wed Apr  9 01:09:09 2025.
