 Gaussian 16, Revision C.01,

 ----------------------------------------------------------------------
 #t hf aug-cc-pvdz symm=none int=(grid=ultrafine) guess=(read,tcheck) s
 table=(opt,rrhf)
 ----------------------------------------------------------------------
 -----
 title
 -----
 Symbolic Z-matrix:
 Charge =  0 Multiplicity = 1

 SCF Done:  E(RHF) =  -722.655610468     A.U. after   14 cycles
 Normal termination of Gaussian 16 at Wed Apr  9 00:57:12 2025.
 Gaussian 16:  ES64L-G16RevC.01  3-Jul-2019

 ----------------------------------------------------------------------
 #t hf aug-cc-pvdz iop(5/13=1,5/36=2,99/5=2) pseudo=read geom=check gue
 ss=(read,tcheck) scf=(maxcycle=1)
 ----------------------------------------------------------------------
 -----
 title
 -----
 Structure from the checkpoint file:  "BH10_169_forward_mol2.chk"
 Charge =  0 Multiplicity = 1

                         Standard orientation:
 ---------------------------------------------------------------------
 Center     Atomic      Atomic             Coordinates (Angstroms)
 Number     Number       Type             X           Y           Z
 ---------------------------------------------------------------------
      1          6           0       -2.183175    0.812360    0.706271
      2         16           0       -1.870532   -0.562660   -0.436564
      3          6           0       -0.322553   -1.246710    0.236400
      4          6           0        0.962646   -0.671086   -0.364408
      5          6           0        2.184495   -1.425042    0.158479
      6          6           0        1.088224    0.803485   -0.006490
      7          8           0        1.299116    1.170446    1.132832
      8          1           0       -2.258556    0.447569    1.730117
      9          1           0       -1.413781    1.578806    0.647478
     10          1           0       -3.140528    1.243333    0.415257
     11          1           0        2.102608   -2.489773   -0.069253
     12          1           0        2.268661   -1.300652    1.238622
     13          1           0        3.103047   -1.048997   -0.295939
     14          1           0       -0.321515   -1.113147    1.319769
     15          1           0       -0.359481   -2.318272    0.035460
     16          1           0        0.907489   -0.776877   -1.451367
     17          7           0        0.958263    1.677291   -1.038981
     18          1           0        0.959586    2.662756   -0.826635
     19          1           0        0.602389    1.375172   -1.929794
 ---------------------------------------------------------------------

 SCF Done:  E(RHF) =  -722.778890980     A.U. after    2 cycles

 The electronic state is 1-A.
 Alpha  occ. eigenvalues --  -93.52727 -20.53654 -15.65232 -11.36404 -11.27219
 Alpha  occ. eigenvalues --  -11.25981 -11.25961 -11.23456  -8.82483  -6.16656
 Alpha  occ. eigenvalues --   -6.16433  -6.16119  -1.35188  -1.18257  -1.09624
 Alpha  occ. eigenvalues --   -1.02667  -0.94200  -0.88345  -0.81110  -0.77274
 Alpha  occ. eigenvalues --   -0.71733  -0.69712  -0.63114  -0.62528  -0.60503
 Alpha  occ. eigenvalues --   -0.58693  -0.56897  -0.56634  -0.53963  -0.53589
 Alpha  occ. eigenvalues --   -0.50078  -0.48321  -0.43663  -0.42768  -0.42244
 Alpha  occ. eigenvalues --   -0.33960
 Alpha virt. eigenvalues --    0.03137   0.03776   0.04383   0.04998   0.05787
 Alpha virt. eigenvalues --    0.06347   0.07029   0.07378   0.07991   0.08985
 Alpha virt. eigenvalues --    0.09573   0.10403   0.11679   0.13205   0.13608

 Mulliken charges:
               1
     1  C    0.156248
     2  S    0.468312
     3  C    0.301650
     4  C   -0.686918
     5  C    0.660418
     6  C    0.663951
     7  O   -0.577238
     8  H   -0.080988
     9  H   -0.137613
    10  H   -0.105900
    11  H   -0.044676
    12  H    0.021646
    13  H   -0.053710
    14  H   -0.058406
    15  H   -0.104977
    16  H   -0.240701
    17  N   -0.169201
    18  H   -0.030282
    19  H    0.018387
 Sum of Mulliken charges =  -0.00000

 Dipole moment (field-independent basis, Debye):
    X=             -0.1293    Y=             -0.0489    Z=             -2.4347  Tot=              2.4386

 Test job not archived.
 1\1\GINC-SE253\SP\RHF\Aug-CC-pVDZ\C5H11N1O1S1\OHZDE\09-Apr-2025\0\\#t
 hf aug-cc-pvdz iop(5/13=1,5/36=2,99/5=2) pseudo=read geom=check guess=
 (read,tcheck) scf=(maxcycle=1)\\title\\0,1\C,0,-2.183175,0.81236,0.706
 271\S,0,-1.870532,-0.56266,-0.436564\C,0,-0.322553,-1.24671,0.2364\C,0
 ,0.962646,-0.671086,-0.364408\C,0,2.184495,-1.425042,0.158479\C,0,1.08
 8224,0.803485,-0.00649\O,0,1.299116,1.170446,1.132832\H,0,-2.258556,0.
 447569,1.730117\H,0,-1.413781,1.578806,0.647478\H,0,-3.140528,1.243333
 ,0.415257\H,0,2.102608,-2.489773,-0.069253\H,0,2.268661,-1.300652,1.23

 Normal termination of Gaussian 16 at Wed Apr  9 00:57:21 2025.
