 Gaussian 16, Revision C.01,

 ----------------------------------------------------------------------
 #t hf aug-cc-pvdz symm=none int=(grid=ultrafine) guess=(read,tcheck) s
 table=opt
 ----------------------------------------------------------------------
 -----
 title
 -----
 Symbolic Z-matrix:
 Charge =  0 Multiplicity = 2

 SCF Done:  E(UHF) =  -816.090018122     A.U. after   17 cycles
 Normal termination of Gaussian 16 at Wed Apr  9 01:05:54 2025.
 Gaussian 16:  ES64L-G16RevC.01  3-Jul-2019

 ----------------------------------------------------------------------
 #t hf aug-cc-pvdz iop(5/13=1,5/36=2,99/5=2) pseudo=read geom=check gue
 ss=(read,tcheck) scf=(maxcycle=1)
 ----------------------------------------------------------------------
 -----
 title
 -----
 Structure from the checkpoint file:  "BH10_220_reverse_mol2.chk"
 Charge =  0 Multiplicity = 2

                         Standard orientation:
 ---------------------------------------------------------------------
 Center     Atomic      Atomic             Coordinates (Angstroms)
 Number     Number       Type             X           Y           Z
 ---------------------------------------------------------------------
      1         15           0       -0.000886   -0.046919   -0.471136
      2          8           0        0.033532   -0.338291   -1.924860
      3          7           0        1.166566   -0.997000    0.323744
      4          7           0       -1.524313   -0.298801    0.159390
      5          7           0        0.369494    1.485116    0.083625
      6          6           0        1.749228    1.947536   -0.032524
      7          1           0        1.961689    2.337896   -1.034691
      8          1           0        1.918306    2.746107    0.693788
      9          1           0        2.442027    1.137812    0.183380
     10          6           0       -0.594482    2.556145   -0.150947
     11          1           0       -0.448488    3.338628    0.597972
     12          1           0       -0.470551    3.000173   -1.145614
     13          1           0       -1.610032    2.176653   -0.066633
     14          6           0        1.757761   -2.129251   -0.383555
     15          1           0        1.538886   -2.041950   -1.444480
     16          1           0        2.841071   -2.123329   -0.238584
     17          1           0        1.357903   -3.075770   -0.007294
     18          6           0        1.413212   -0.903348    1.682369
     19          1           0        1.104776   -0.011701    2.203670
     20          1           0        2.165556   -1.556615    2.097827
     21          6           0       -1.825418   -0.117617    1.569698
     22          1           0       -2.873783    0.175422    1.677715
     23          1           0       -1.660532   -1.034987    2.146894
     24          1           0       -1.206653    0.671677    1.992008
     25          6           0       -2.410164   -1.230125   -0.525842
     26          1           0       -2.367840   -2.232661   -0.081407
     27          1           0       -3.439868   -0.868352   -0.456355
     28          1           0       -2.130475   -1.294120   -1.574791
 ---------------------------------------------------------------------

 SCF Done:  E(UHF) =  -816.301227093     A.U. after    2 cycles

 The electronic state is 2-A.
 Alpha  occ. eigenvalues --  -81.38016 -20.49544 -15.63445 -15.62642 -15.62061
 Alpha  occ. eigenvalues --  -11.26772 -11.26615 -11.26517 -11.26186 -11.25884
 Alpha  occ. eigenvalues --  -11.25806  -7.86493  -5.01132  -5.01007  -5.00922
 Alpha  occ. eigenvalues --   -1.25437  -1.20145  -1.18921  -1.17783  -0.96439
 Alpha  occ. eigenvalues --   -0.96365  -0.95387  -0.91734  -0.85340  -0.84891
 Alpha  occ. eigenvalues --   -0.72474  -0.68521  -0.68098  -0.65225  -0.63811
 Alpha  occ. eigenvalues --   -0.62609  -0.62229  -0.60797  -0.60009  -0.58856
 Alpha  occ. eigenvalues --   -0.55649  -0.55343  -0.54919  -0.53316  -0.52954
 Alpha  occ. eigenvalues --   -0.52485  -0.52275  -0.51867  -0.47811  -0.46642
 Alpha  occ. eigenvalues --   -0.45627  -0.38225  -0.37552  -0.28672
 Alpha virt. eigenvalues --    0.02975   0.03652   0.03822   0.04285   0.05893
 Alpha virt. eigenvalues --    0.05999   0.06266   0.06775   0.07329   0.07744
 Alpha virt. eigenvalues --    0.08261   0.08415   0.08806   0.08958   0.09270

  Beta  occ. eigenvalues --  -81.38023 -20.49538 -15.62962 -15.62643 -15.62038
  Beta  occ. eigenvalues --  -11.26769 -11.26614 -11.26525 -11.25947 -11.25808
  Beta  occ. eigenvalues --  -11.23957  -7.86502  -5.01136  -5.01030  -5.00918
  Beta  occ. eigenvalues --   -1.25162  -1.19631  -1.17831  -1.17528  -0.96406
  Beta  occ. eigenvalues --   -0.95910  -0.94023  -0.90491  -0.85289  -0.81796
  Beta  occ. eigenvalues --   -0.71944  -0.68004  -0.67614  -0.64946  -0.63204
  Beta  occ. eigenvalues --   -0.62160  -0.61610  -0.60188  -0.59425  -0.58719
  Beta  occ. eigenvalues --   -0.55608  -0.55268  -0.54583  -0.53051  -0.52870
  Beta  occ. eigenvalues --   -0.52367  -0.52097  -0.51783  -0.46539  -0.45522
  Beta  occ. eigenvalues --   -0.41264  -0.37927  -0.36434
  Beta virt. eigenvalues --    0.03018   0.03663   0.03759   0.04286   0.05896
  Beta virt. eigenvalues --    0.05915   0.06274   0.06738   0.07347   0.07694
  Beta virt. eigenvalues --    0.08229   0.08362   0.08792   0.08837   0.09276

 Mulliken charges and spin densities:
               1          2
     1  P    2.490829  -0.053117
     2  O   -1.098145   0.005931
     3  N   -0.499916   0.040247
     4  N   -1.011201   0.009628
     5  N   -1.196219   0.010578
     6  C    0.799526  -0.004914
     7  H   -0.073758  -0.000789
     8  H   -0.165647   0.000323
     9  H   -0.276565  -0.009248
    10  C    0.857310   0.000857
    11  H   -0.176968   0.000366
    12  H   -0.093587  -0.000204
    13  H   -0.246290  -0.000129
    14  C    0.813782  -0.041490
    15  H   -0.211974   0.001356
    16  H   -0.178242   0.007448
    17  H   -0.104519   0.004795
    18  C    0.570571   1.250489
    19  H   -0.436052  -0.130026
    20  H   -0.380410  -0.096227
    21  C    1.011719   0.009188
    22  H   -0.201671   0.004693
    23  H   -0.107020  -0.010718
    24  H   -0.282946   0.003827
    25  C    0.670135  -0.002463
    26  H   -0.078994   0.000650
    27  H   -0.172500   0.000104
    28  H   -0.221249  -0.001153
 Sum of Mulliken charges =  -0.00000   1.00000

 Dipole moment (field-independent basis, Debye):
    X=             -0.1877    Y=              0.8704    Z=              3.5009  Tot=              3.6124
                          Isotropic Fermi Contact Couplings
        Atom                 a.u.       MegaHertz       Gauss      10(-4) cm-1
     1  P(31)             -0.01318     -23.86848      -8.51687      -7.96167
     2  O(17)              0.00077      -0.46905      -0.16737      -0.15646
     3  N(14)              0.02862       9.24611       3.29924       3.08417
     4  N(14)              0.00353       1.13975       0.40669       0.38018
     5  N(14)             -0.00141      -0.45624      -0.16280      -0.15218
     6  C(13)             -0.00196      -2.20254      -0.78592      -0.73469
     7  H(1)               0.00005       0.22653       0.08083       0.07556
     8  H(1)               0.00010       0.45155       0.16113       0.15062

 1\1\GINC-SE403\SP\UHF\Aug-CC-pVDZ\C6H17N3O1P1(2)\OHZDE\09-Apr-2025\0\\
 #t hf aug-cc-pvdz iop(5/13=1,5/36=2,99/5=2) pseudo=read geom=check gue
 ss=(read,tcheck) scf=(maxcycle=1)\\title\\0,2\P,0,-0.000886,-0.046919,
 -0.471136\O,0,0.033531,-0.338291,-1.92486\N,0,1.166564,-0.997003,0.323
 744\N,0,-1.524314,-0.298798,0.15939\N,0,0.369497,1.485115,0.083625\C,0
 ,1.749232,1.947532,-0.032524\H,0,1.961694,2.337892,-1.034691\H,0,1.918
 312,2.746103,0.693788\H,0,2.44203,1.137807,0.18338\C,0,-0.594476,2.556
 146,-0.150947\H,0,-0.448481,3.338629,0.597972\H,0,-0.470544,3.000174,-

 Normal termination of Gaussian 16 at Wed Apr  9 01:06:23 2025.
