 Gaussian 16, Revision C.01,

 ----------------------------------------------------------------------
 #t hf aug-cc-pvdz symm=none int=(grid=ultrafine) guess=(read,tcheck) s
 table=(opt,rrhf)
 ----------------------------------------------------------------------
 -----
 title
 -----
 Symbolic Z-matrix:
 Charge =  0 Multiplicity = 1

 SCF Done:  E(RHF) =  -988.506879873     A.U. after   15 cycles
 Normal termination of Gaussian 16 at Wed Apr  9 01:41:06 2025.
 Gaussian 16:  ES64L-G16RevC.01  3-Jul-2019

 ----------------------------------------------------------------------
 #t hf aug-cc-pvdz iop(5/13=1,5/36=2,99/5=2) pseudo=read geom=check gue
 ss=(read,tcheck) scf=(maxcycle=1)
 ----------------------------------------------------------------------
 -----
 title
 -----
 Structure from the checkpoint file:  "BH10_369_reverse_mol2.chk"
 Charge =  0 Multiplicity = 1

                         Standard orientation:
 ---------------------------------------------------------------------
 Center     Atomic      Atomic             Coordinates (Angstroms)
 Number     Number       Type             X           Y           Z
 ---------------------------------------------------------------------
      1          6           0        0.351797   -1.030408   -0.099709
      2          6           0       -0.835754   -0.307131   -0.085500
      3          6           0        1.841970   -0.728326   -0.052180
      4          6           0       -1.207075    1.168981   -0.070653
      5          6           0        2.240170    0.642886   -0.594236
      6          1           0        3.319228    0.756565   -0.476687
      7          1           0        2.024826    0.712559   -1.663187
      8          6           0       -0.091358    2.069196   -0.627067
      9          1           0       -0.451819    3.097734   -0.577932
     10          7           0        0.034121   -2.352943   -0.014257
     11          7           0       -1.237831   -2.500450    0.057082
     12          7           0       -1.792379   -1.286322    0.020744
     13          6           0       -3.241516   -1.252725    0.108804
     14          1           0       -3.572286   -0.550071    0.870588
     15          1           0       -3.692176   -0.999323   -0.849169
     16          1           0       -3.544236   -2.257550    0.391763
     17         16           0        1.508220    2.087936    0.208947
     18          6           0       -2.414983    1.466094   -0.984170
     19          1           0       -3.358469    1.132718   -0.561495
     20          1           0       -2.500157    2.544889   -1.127860
     21          1           0       -2.291735    1.006724   -1.967341
     22          6           0       -1.528400    1.594087    1.370486
     23          1           0       -1.843531    2.640718    1.392963
     24          1           0       -2.332139    0.992850    1.797418
     25          1           0       -0.649889    1.486660    2.006289
     26          6           0        2.588239   -1.761180   -0.914133
     27          1           0        3.663680   -1.571885   -0.868779
     28          1           0        2.393103   -2.771809   -0.562736
     29          1           0        2.271788   -1.702035   -1.958168
     30          6           0        2.305380   -0.871441    1.406124
     31          1           0        2.059867   -1.866131    1.778977
     32          1           0        3.387857   -0.732078    1.475985
     33          1           0        1.823234   -0.131295    2.045943
     34          1           0        0.083135    1.841592   -1.681308
 ---------------------------------------------------------------------

 SCF Done:  E(RHF) =  -988.698048211     A.U. after    2 cycles

 The electronic state is 1-A.
 Alpha  occ. eigenvalues --  -93.52433 -15.71335 -15.69149 -15.64374 -11.29152
 Alpha  occ. eigenvalues --  -11.29038 -11.27980 -11.27218 -11.26269 -11.25872
 Alpha  occ. eigenvalues --  -11.25501 -11.24413 -11.23727 -11.21597 -11.21580
 Alpha  occ. eigenvalues --   -8.82247  -6.16470  -6.16236  -6.15929  -1.39282
 Alpha  occ. eigenvalues --   -1.18671  -1.14302  -1.09674  -1.05359  -1.01023
 Alpha  occ. eigenvalues --   -0.97381  -0.95091  -0.93596  -0.92496  -0.85421
 Alpha  occ. eigenvalues --   -0.84845  -0.79332  -0.76952  -0.74250  -0.68374
 Alpha  occ. eigenvalues --   -0.67231  -0.64832  -0.63643  -0.61518  -0.61279
 Alpha  occ. eigenvalues --   -0.60492  -0.59579  -0.58648  -0.58201  -0.56659
 Alpha  occ. eigenvalues --   -0.55501  -0.54211  -0.53393  -0.52348  -0.51907
 Alpha  occ. eigenvalues --   -0.50468  -0.50060  -0.49567  -0.48125  -0.47397
 Alpha  occ. eigenvalues --   -0.46151  -0.42510  -0.40858  -0.38490  -0.34396
 Alpha  occ. eigenvalues --   -0.32899
 Alpha virt. eigenvalues --    0.02638   0.03569   0.03923   0.04136   0.05452
 Alpha virt. eigenvalues --    0.05665   0.05889   0.06014   0.06230   0.07397
 Alpha virt. eigenvalues --    0.07732   0.07792   0.08257   0.08402   0.09032

 Mulliken charges:
               1
     1  C    0.160392
     2  C   -0.293827
     3  C   -2.402042
     4  C   -2.441641
     5  C    1.022692
     6  H   -0.168962
     7  H   -0.141785
     8  C    1.045115
     9  H   -0.240598
    10  N   -0.876238
    11  N   -0.510450
    12  N   -0.329506
    13  C    0.986377
    14  H   -0.120944
    15  H   -0.027969
    16  H   -0.293412
    17  S    0.627303
    18  C    1.438077
    19  H   -0.191955
    20  H   -0.047729
    21  H   -0.015333
    22  C    1.196341
    23  H   -0.033818
    24  H   -0.138050
    25  H   -0.014221
    26  C    1.297558
    27  H   -0.062189
    28  H    0.003624
    29  H   -0.016580
    30  C    0.945734
    31  H   -0.026197
    32  H   -0.062855
    33  H   -0.061383
    34  H   -0.205529
 Sum of Mulliken charges =  -0.00000

 Dipole moment (field-independent basis, Debye):
    X=             -2.8487    Y=              2.7294    Z=             -0.8404  Tot=              4.0338

 Test job not archived.
 1\1\GINC-SE195\SP\RHF\Aug-CC-pVDZ\C11H19N3S1\OHZDE\09-Apr-2025\0\\#t h
 f aug-cc-pvdz iop(5/13=1,5/36=2,99/5=2) pseudo=read geom=check guess=(
 read,tcheck) scf=(maxcycle=1)\\title\\0,1\C,0,0.351797,-1.030408,-0.09
 9709\C,0,-0.835754,-0.307131,-0.0855\C,0,1.84197,-0.728326,-0.05218\C,
 0,-1.207075,1.168981,-0.070653\C,0,2.24017,0.642886,-0.594236\H,0,3.31
 9228,0.756566,-0.476687\H,0,2.024826,0.712559,-1.663187\C,0,-0.091358,
 2.069196,-0.627067\H,0,-0.45182,3.097734,-0.577932\N,0,0.034121,-2.352
 943,-0.014257\N,0,-1.237831,-2.50045,0.057082\N,0,-1.792379,-1.286322,

 Normal termination of Gaussian 16 at Wed Apr  9 01:42:01 2025.
