 Gaussian 16, Revision C.01,

 ----------------------------------------------------------------------
 #t hf aug-cc-pvdz symm=none int=(grid=ultrafine) guess=(read,tcheck) s
 table=opt
 ----------------------------------------------------------------------
 -----
 title
 -----
 Symbolic Z-matrix:
 Charge =  0 Multiplicity = 2

 SCF Done:  E(UHF) =  -676.691677250     A.U. after   20 cycles
 Normal termination of Gaussian 16 at Wed Apr  9 01:20:38 2025.
 Gaussian 16:  ES64L-G16RevC.01  3-Jul-2019

 ----------------------------------------------------------------------
 #t hf aug-cc-pvdz iop(5/13=1,5/36=2,99/5=2) pseudo=read geom=check gue
 ss=(read,tcheck) scf=(maxcycle=1)
 ----------------------------------------------------------------------
 -----
 title
 -----
 Structure from the checkpoint file:  "BH10_32_forward_mol2.chk"
 Charge =  0 Multiplicity = 2

                         Standard orientation:
 ---------------------------------------------------------------------
 Center     Atomic      Atomic             Coordinates (Angstroms)
 Number     Number       Type             X           Y           Z
 ---------------------------------------------------------------------
      1          6           0        0.501988    2.618673    0.116305
      2          6           0        0.882398    1.220784   -0.259321
      3          8           0       -0.146872    0.474675   -0.767577
      4          6           0        2.115901    0.729215   -0.178614
      5         14           0       -1.372299   -0.360107    0.016611
      6          6           0       -2.016944   -1.547901   -1.264031
      7          1           0       -2.373501   -1.011097   -2.145900
      8          1           0       -2.847619   -2.140336   -0.871847
      9          1           0       -1.233632   -2.237256   -1.586351
     10          6           0       -2.717338    0.823643    0.555162
     11          1           0       -2.376269    1.499925    1.342103
     12          1           0       -3.578210    0.273750    0.945781
     13          1           0       -3.063377    1.431506   -0.284028
     14          6           0       -0.658934   -1.243091    1.499650
     15          1           0        0.110398   -1.960279    1.205900
     16          1           0       -1.439706   -1.786562    2.038528
     17          1           0       -0.203234   -0.537617    2.198854
     18          1           0        1.370705    3.186421    0.447720
     19          1           0        0.052723    3.126065   -0.741121
     20          1           0       -0.240260    2.621772    0.919216
     21          6           0        2.521547   -0.658639   -0.575342
     22          6           0        3.035736   -1.479598    0.556509
     23          1           0        3.288169   -0.607109   -1.359105
     24          1           0        1.663562   -1.153870   -1.050304
     25          1           0        2.733796   -1.268513    1.574135
     26          1           0        3.644995   -2.355669    0.372522
     27          1           0        2.892499    1.384448    0.200054
 ---------------------------------------------------------------------

 SCF Done:  E(UHF) =  -676.849367093     A.U. after    2 cycles

 The electronic state is 2-A.
 Alpha  occ. eigenvalues --  -69.07471 -20.55888 -11.29454 -11.23331 -11.23151
 Alpha  occ. eigenvalues --  -11.22828 -11.21588 -11.20938 -11.20752 -11.20700
 Alpha  occ. eigenvalues --   -6.82291  -3.93211  -3.93051  -3.93029  -1.32004
 Alpha  occ. eigenvalues --   -1.06866  -1.01414  -0.96170  -0.93111  -0.92228
 Alpha  occ. eigenvalues --   -0.92210  -0.82870  -0.77208  -0.66490  -0.65285
 Alpha  occ. eigenvalues --   -0.63285  -0.59701  -0.58952  -0.57050  -0.56627
 Alpha  occ. eigenvalues --   -0.56344  -0.55627  -0.54608  -0.54367  -0.53971
 Alpha  occ. eigenvalues --   -0.53369  -0.52784  -0.52630  -0.50288  -0.47956
 Alpha  occ. eigenvalues --   -0.43310  -0.42306  -0.35224  -0.32772
 Alpha virt. eigenvalues --    0.02853   0.04100   0.04188   0.04620   0.05433
 Alpha virt. eigenvalues --    0.05654   0.06132   0.06258   0.06360   0.07677
 Alpha virt. eigenvalues --    0.07949   0.08259   0.08607   0.09244   0.09766

  Beta  occ. eigenvalues --  -69.07473 -20.55889 -11.29589 -11.23163 -11.23133
  Beta  occ. eigenvalues --  -11.21414 -11.20939 -11.20875 -11.20752 -11.20694
  Beta  occ. eigenvalues --   -6.82293  -3.93214  -3.93052  -3.93030  -1.32057
  Beta  occ. eigenvalues --   -1.06021  -0.99964  -0.96164  -0.92266  -0.92213
  Beta  occ. eigenvalues --   -0.90740  -0.79166  -0.76390  -0.65894  -0.65193
  Beta  occ. eigenvalues --   -0.63068  -0.58990  -0.58752  -0.56823  -0.56594
  Beta  occ. eigenvalues --   -0.56264  -0.55594  -0.54533  -0.54003  -0.53356
  Beta  occ. eigenvalues --   -0.53169  -0.52564  -0.50967  -0.49877  -0.47747
  Beta  occ. eigenvalues --   -0.43303  -0.42288  -0.32987
  Beta virt. eigenvalues --    0.02865   0.04091   0.04220   0.04631   0.05437
  Beta virt. eigenvalues --    0.05584   0.06058   0.06262   0.06366   0.07691
  Beta virt. eigenvalues --    0.07927   0.08156   0.08549   0.09211   0.09254

 Mulliken charges and spin densities:
               1          2
     1  C    0.464356   0.015601
     2  C   -0.264349  -0.081356
     3  O   -1.020018  -0.000766
     4  C    0.811686   0.090025
     5  Si   1.633602   0.001520
     6  C    0.505443   0.001478
     7  H   -0.296880   0.000006
     8  H   -0.311285   0.000136
     9  H   -0.279213  -0.000377
    10  C    0.544356   0.000261
    11  H   -0.370158   0.000051
    12  H   -0.301356   0.000050
    13  H   -0.314970   0.000068
    14  C    0.636650   0.001530
    15  H   -0.340395  -0.008385
    16  H   -0.282632   0.000053
    17  H   -0.231301   0.000943
    18  H   -0.114213  -0.000081
    19  H    0.030887  -0.001685
    20  H   -0.024242  -0.001148
    21  C    0.263935  -0.268308
    22  C    0.726974   1.436685
    23  H   -0.054636   0.020128
    24  H   -0.236905   0.038788
    25  H   -0.377944  -0.123669
    26  H   -0.299831  -0.118520
    27  H   -0.497561  -0.003028
 Sum of Mulliken charges =  -0.00000   1.00000

 Dipole moment (field-independent basis, Debye):
    X=             -0.8328    Y=              0.0871    Z=              0.8377  Tot=              1.1845
                          Isotropic Fermi Contact Couplings
        Atom                 a.u.       MegaHertz       Gauss      10(-4) cm-1
     1  C(13)              0.00344       3.86615       1.37954       1.28961
     2  C(13)             -0.01379     -15.50521      -5.53265      -5.17198
     3  O(17)              0.00145      -0.87799      -0.31329      -0.29287
     4  C(13)              0.02479      27.87128       9.94517       9.29686
     5  Si(29)            -0.00179       1.59050       0.56753       0.53053
     6  C(13)              0.00004       0.04427       0.01580       0.01477
     7  H(1)              -0.00000      -0.01075      -0.00384      -0.00359
     8  H(1)               0.00001       0.03685       0.01315       0.01229

 Normal termination of Gaussian 16 at Wed Apr  9 01:21:01 2025.
