 Gaussian 16, Revision C.01,

 ----------------------------------------------------------------------
 #t hf aug-cc-pvdz symm=none int=(grid=ultrafine) guess=(read,tcheck) s
 table=(opt,rrhf)
 ----------------------------------------------------------------------
 -----
 title
 -----
 Symbolic Z-matrix:
 Charge =  0 Multiplicity = 1

 SCF Done:  E(RHF) =  -997.714412644     A.U. after   16 cycles
 Normal termination of Gaussian 16 at Wed Apr  9 01:58:53 2025.
 Gaussian 16:  ES64L-G16RevC.01  3-Jul-2019

 ----------------------------------------------------------------------
 #t hf aug-cc-pvdz iop(5/13=1,5/36=2,99/5=2) pseudo=read geom=check gue
 ss=(read,tcheck) scf=(maxcycle=1)
 ----------------------------------------------------------------------
 -----
 title
 -----
 Structure from the checkpoint file:  "BH10_82_reverse_mol2.chk"
 Charge =  0 Multiplicity = 1

                         Standard orientation:
 ---------------------------------------------------------------------
 Center     Atomic      Atomic             Coordinates (Angstroms)
 Number     Number       Type             X           Y           Z
 ---------------------------------------------------------------------
      1          6           0       -0.014285   -0.112511    2.016472
      2          6           0       -1.920039   -0.370631    0.602299
      3          6           0        0.500411    1.053005    1.201300
      4          6           0       -1.580044    0.755934   -0.065234
      5          6           0       -2.601022    1.009616   -1.132694
      6          6           0       -1.123228   -0.794882    1.726801
      7          6           0       -3.145130   -0.899349    0.041109
      8          6           0        1.889278    0.790829    0.567977
      9          6           0        2.949553    0.685135    1.673936
     10          1           0        2.836848   -0.224972    2.266132
     11          1           0        2.888149    1.534855    2.361730
     12          1           0        2.138359    1.688782   -0.011990
     13          1           0        3.957941    0.678303    1.257675
     14          7           0       -0.497727    1.497909    0.200214
     15          6           0       -0.229067    2.734471   -0.501819
     16          1           0        0.213676    3.453329    0.191594
     17          1           0        0.460328    2.598351   -1.340325
     18          1           0       -1.155515    3.162572   -0.882743
     19          8           0       -3.798368   -1.859390    0.331384
     20          8           0       -3.522668   -0.061418   -1.003094
     21          1           0       -2.162296    0.992599   -2.134057
     22          1           0       -3.131659    1.955346   -0.992929
     23         14           0        2.065693   -0.647341   -0.678612
     24          6           0        0.736712   -0.614439   -2.005974
     25          6           0        3.730433   -0.394508   -1.519421
     26          6           0        2.055236   -2.319409    0.169863
     27          1           0        1.000992   -1.315205   -2.802417
     28          1           0       -0.235367   -0.916670   -1.614373
     29          1           0        0.635781    0.372960   -2.463716
     30          1           0        3.790602    0.582378   -2.007055
     31          1           0        4.562935   -0.466971   -0.815983
     32          1           0        3.887835   -1.154701   -2.289016
     33          1           0        2.819271   -2.385935    0.947949
     34          1           0        1.088127   -2.528882    0.628435
     35          1           0        2.260432   -3.109104   -0.558054
     36          1           0        0.639847    1.907340    1.883022
     37          1           0        0.588430   -0.383558    2.873577
     38          1           0       -1.444893   -1.636503    2.327605
 ---------------------------------------------------------------------

 SCF Done:  E(RHF) =  -997.956272073     A.U. after    2 cycles

 The electronic state is 1-A.
 Alpha  occ. eigenvalues --  -69.04751 -20.60375 -20.53373 -15.67575 -11.37594
 Alpha  occ. eigenvalues --  -11.32475 -11.32347 -11.30383 -11.29878 -11.25420
 Alpha  occ. eigenvalues --  -11.24387 -11.24015 -11.23211 -11.22644 -11.21193
 Alpha  occ. eigenvalues --  -11.21144 -11.20621  -6.80058  -3.90807  -3.90796
 Alpha  occ. eigenvalues --   -3.90791  -1.40432  -1.31876  -1.27208  -1.11049
 Alpha  occ. eigenvalues --   -1.09290  -1.02597  -0.98315  -0.97373  -0.96145
 Alpha  occ. eigenvalues --   -0.92588  -0.92127  -0.91980  -0.84286  -0.82109
 Alpha  occ. eigenvalues --   -0.78694  -0.72028  -0.71426  -0.70496  -0.69145
 Alpha  occ. eigenvalues --   -0.65703  -0.64635  -0.64008  -0.62585  -0.61725
 Alpha  occ. eigenvalues --   -0.60484  -0.59177  -0.58126  -0.57503  -0.57110
 Alpha  occ. eigenvalues --   -0.56969  -0.56018  -0.55880  -0.55497  -0.54194
 Alpha  occ. eigenvalues --   -0.54102  -0.53762  -0.52599  -0.51733  -0.49765
 Alpha  occ. eigenvalues --   -0.48217  -0.45551  -0.44690  -0.43421  -0.43051
 Alpha  occ. eigenvalues --   -0.41542  -0.41033  -0.28914
 Alpha virt. eigenvalues --    0.01871   0.02955   0.03154   0.03911   0.04930
 Alpha virt. eigenvalues --    0.05005   0.05442   0.05540   0.06164   0.06904
 Alpha virt. eigenvalues --    0.07114   0.07302   0.07532   0.07805   0.07929

 Mulliken charges:
               1
     1  C    0.271607
     2  C   -0.206864
     3  C    1.458251
     4  C   -1.249069
     5  C    1.354219
     6  C    0.918069
     7  C    0.213451
     8  C   -0.276219
     9  C    1.047521
    10  H   -0.163073
    11  H   -0.078260
    12  H   -0.291498
    13  H   -0.070945
    14  N   -0.394320
    15  C    0.941436
    16  H   -0.159000
    17  H   -0.025584
    18  H   -0.372836
    19  O   -0.548080
    20  O   -0.695819
    21  H    0.024315
    22  H   -0.020609
    23  Si  -0.344609
    24  C    1.216104
    25  C    0.799061
    26  C    0.907426
    27  H   -0.398820
    28  H   -0.441484
    29  H   -0.288295
    30  H   -0.221811
    31  H   -0.297409
    32  H   -0.312613
    33  H   -0.206459
    34  H   -0.223423
    35  H   -0.374356
    36  H   -0.251196
    37  H   -0.664544
    38  H   -0.574266
 Sum of Mulliken charges =  -0.00000

 Dipole moment (field-independent basis, Debye):
    X=              5.8724    Y=              5.8082    Z=             -0.4973  Tot=              8.2745

 Test job not archived.
 1\1\GINC-SE252\SP\RHF\Aug-CC-pVDZ\C13H21N1O2Si1\OHZDE\09-Apr-2025\0\\#
 t hf aug-cc-pvdz iop(5/13=1,5/36=2,99/5=2) pseudo=read geom=check gues
 s=(read,tcheck) scf=(maxcycle=1)\\title\\0,1\C,0,-0.014285,-0.112511,2
 .016472\C,0,-1.920039,-0.370631,0.602299\C,0,0.500411,1.053005,1.2013\
 C,0,-1.580044,0.755934,-0.065234\C,0,-2.601022,1.009616,-1.132694\C,0,
 -1.123228,-0.794882,1.726801\C,0,-3.14513,-0.899349,0.041109\C,0,1.889
 278,0.790829,0.567977\C,0,2.949553,0.685135,1.673936\H,0,2.836848,-0.2
 24972,2.266132\H,0,2.888149,1.534855,2.36173\H,0,2.138359,1.688782,-0.

 Normal termination of Gaussian 16 at Wed Apr  9 02:00:55 2025.
