 Gaussian 16, Revision C.01,

 ----------------------------------------------------------------------
 #t hf aug-cc-pvdz symm=none int=(grid=ultrafine) guess=(read,tcheck) s
 table=opt
 ----------------------------------------------------------------------
 -----
 title
 -----
 Symbolic Z-matrix:
 Charge =  0 Multiplicity = 2

 SCF Done:  E(UHF) =  -670.143783792     A.U. after   23 cycles

 1\1\GINC-SE083\Stability\UHF\Aug-CC-pVDZ\C7H13S1\OHZDE\09-Apr-2025\0\\
 #t hf aug-cc-pvdz symm=none int=(grid=ultrafine) guess=(read,tcheck) s
 table=opt\\title\\0,2\C,0,-0.496463,-0.954416,0.059733\C,0,0.745777,-1
 .436653,-0.616916\C,0,2.00947,-0.677536,-0.151529\H,0,0.647801,-1.3342
 03,-1.7009\H,0,0.893652,-2.503021,-0.409898\C,0,1.932314,0.794558,-0.4
 13261\H,0,2.874148,-1.097539,-0.677542\H,0,2.172223,-0.851898,0.915854
 \S,0,-1.569833,0.07472,-0.842651\C,0,-1.999061,1.383377,0.343564\H,0,-
 2.66614,2.066865,-0.180453\H,0,-1.101831,1.918116,0.653494\H,0,-2.5193

 Normal termination of Gaussian 16 at Wed Apr  9 01:00:33 2025.
 Gaussian 16:  ES64L-G16RevC.01  3-Jul-2019

 ----------------------------------------------------------------------
 #t hf aug-cc-pvdz iop(5/13=1,5/36=2,99/5=2) pseudo=read geom=check gue
 ss=(read,tcheck) scf=(maxcycle=1)
 ----------------------------------------------------------------------
 -----
 title
 -----
 Structure from the checkpoint file:  "BH10_22_forward_mol2.chk"
 Charge =  0 Multiplicity = 2

                         Standard orientation:
 ---------------------------------------------------------------------
 Center     Atomic      Atomic             Coordinates (Angstroms)
 Number     Number       Type             X           Y           Z
 ---------------------------------------------------------------------
      1          6           0       -0.496463   -0.954416    0.059733
      2          6           0        0.745777   -1.436653   -0.616916
      3          6           0        2.009470   -0.677536   -0.151529
      4          1           0        0.647801   -1.334203   -1.700900
      5          1           0        0.893652   -2.503021   -0.409898
      6          6           0        1.932314    0.794558   -0.413261
      7          1           0        2.874148   -1.097539   -0.677542
      8          1           0        2.172223   -0.851898    0.915854
      9         16           0       -1.569833    0.074720   -0.842651
     10          6           0       -1.999061    1.383377    0.343564
     11          1           0       -2.666140    2.066865   -0.180453
     12          1           0       -1.101831    1.918116    0.653494
     13          1           0       -2.519333    0.982949    1.211942
     14          6           0       -0.689235   -1.179533    1.520718
     15          1           0       -1.743021   -1.320077    1.775099
     16          1           0       -0.318069   -0.343559    2.129809
     17          1           0       -0.145561   -2.072490    1.840931
     18          6           0        2.018108    1.736345    0.515421
     19          1           0        1.955806    2.788774    0.265601
     20          1           0        2.162808    1.486644    1.562000
     21          1           0        1.779379    1.087069   -1.449904
 ---------------------------------------------------------------------

 SCF Done:  E(UHF) =  -670.251167905     A.U. after    2 cycles

 The electronic state is 2-A.
 Alpha  occ. eigenvalues --  -93.52483 -11.25856 -11.25787 -11.24197 -11.23919
 Alpha  occ. eigenvalues --  -11.23748 -11.23355 -11.22826  -8.82257  -6.16374
 Alpha  occ. eigenvalues --   -6.16151  -6.16026  -1.11398  -1.06106  -1.00571
 Alpha  occ. eigenvalues --   -0.96935  -0.90354  -0.85108  -0.76083  -0.72749
 Alpha  occ. eigenvalues --   -0.64373  -0.63473  -0.62332  -0.60417  -0.58600
 Alpha  occ. eigenvalues --   -0.57007  -0.56151  -0.55661  -0.52966  -0.49851
 Alpha  occ. eigenvalues --   -0.48880  -0.47738  -0.43822  -0.38763  -0.36610
 Alpha  occ. eigenvalues --   -0.28419
 Alpha virt. eigenvalues --    0.03447   0.04011   0.04397   0.04822   0.05906
 Alpha virt. eigenvalues --    0.06121   0.06470   0.06821   0.07275   0.08329
 Alpha virt. eigenvalues --    0.08823   0.09480   0.09840   0.11295   0.12220

  Beta  occ. eigenvalues --  -93.52505 -11.25730 -11.24163 -11.24065 -11.23690
  Beta  occ. eigenvalues --  -11.23684 -11.23181 -11.22869  -8.82277  -6.16582
  Beta  occ. eigenvalues --   -6.16296  -6.15793  -1.09058  -1.04846  -1.00076
  Beta  occ. eigenvalues --   -0.96456  -0.89252  -0.84938  -0.75860  -0.69687
  Beta  occ. eigenvalues --   -0.63823  -0.62768  -0.60796  -0.59024  -0.57686
  Beta  occ. eigenvalues --   -0.56238  -0.55645  -0.54879  -0.52346  -0.49374
  Beta  occ. eigenvalues --   -0.48274  -0.47082  -0.42457  -0.36679  -0.34159
  Beta virt. eigenvalues --    0.03422   0.04021   0.04402   0.04816   0.05879
  Beta virt. eigenvalues --    0.06118   0.06473   0.06779   0.07284   0.08325
  Beta virt. eigenvalues --    0.08817   0.09489   0.09778   0.11035   0.11544

 Mulliken charges and spin densities:
               1          2
     1  C   -0.099529   1.423291
     2  C    0.229457  -0.250743
     3  C    0.128947   0.063647
     4  H   -0.169301   0.001430
     5  H   -0.054282   0.014117
     6  C    0.962644   0.010384
     7  H    0.011629   0.000512
     8  H   -0.209972  -0.001736
     9  S    0.163040  -0.066479
    10  C    0.222626   0.028670
    11  H   -0.150839  -0.004248
    12  H   -0.138839   0.000950
    13  H   -0.079487  -0.001899
    14  C    0.205354  -0.268410
    15  H   -0.077361   0.018934
    16  H    0.060959   0.041381
    17  H   -0.184579   0.007721
    18  C    0.383016  -0.021212
    19  H   -0.374033   0.002034
    20  H   -0.350874   0.002420
    21  H   -0.478574  -0.000764
 Sum of Mulliken charges =   0.00000   1.00000

 Dipole moment (field-independent basis, Debye):
    X=              0.5238    Y=              0.1011    Z=              1.4053  Tot=              1.5032
                          Isotropic Fermi Contact Couplings
        Atom                 a.u.       MegaHertz       Gauss      10(-4) cm-1
     1  C(13)              0.25838     290.46590     103.64546      96.88900
     2  C(13)             -0.05713     -64.22916     -22.91856     -21.42454
     3  C(13)              0.05362      60.27851      21.50887      20.10675
     4  H(1)               0.00337      15.08312       5.38203       5.03119
     5  H(1)               0.00987      44.10589      15.73808      14.71214
     6  C(13)              0.00095       1.07164       0.38239       0.35746
     7  H(1)               0.00063       2.80235       0.99995       0.93476
     8  H(1)              -0.00140      -6.25658      -2.23250      -2.08697

 Normal termination of Gaussian 16 at Wed Apr  9 01:00:48 2025.
