 Gaussian 16, Revision C.01,

 ----------------------------------------------------------------------
 #t hf aug-cc-pvdz symm=none int=(grid=ultrafine) guess=(read,tcheck) s
 table=(opt,rrhf)
 ----------------------------------------------------------------------
 -----
 title
 -----
 Symbolic Z-matrix:
 Charge =  0 Multiplicity = 1

 SCF Done:  E(RHF) =  -679.009341254     A.U. after   14 cycles
 Normal termination of Gaussian 16 at Wed Apr  9 01:18:25 2025.
 Gaussian 16:  ES64L-G16RevC.01  3-Jul-2019

 ----------------------------------------------------------------------
 #t hf aug-cc-pvdz iop(5/13=1,5/36=2,99/5=2) pseudo=read geom=check gue
 ss=(read,tcheck) scf=(maxcycle=1)
 ----------------------------------------------------------------------
 -----
 title
 -----
 Structure from the checkpoint file:  "BH10_282_reverse_mol2.chk"
 Charge =  0 Multiplicity = 1

                         Standard orientation:
 ---------------------------------------------------------------------
 Center     Atomic      Atomic             Coordinates (Angstroms)
 Number     Number       Type             X           Y           Z
 ---------------------------------------------------------------------
      1          6           0        1.312948   -0.681078   -0.801955
      2          6           0        2.531614    0.453038    1.187287
      3          6           0        2.587918   -1.493852   -1.105843
      4          1           0        2.452355   -2.493349   -0.676132
      5          1           0        2.682377   -1.645894   -2.186862
      6          1           0        2.524125    0.671858    2.260626
      7          1           0        0.452794   -1.262227   -1.145902
      8          6           0        3.791514   -0.380699    0.878725
      9          1           0        3.797177   -1.238454    1.561863
     10          1           0        4.690432    0.197742    1.120087
     11          5           0        1.237799   -0.285166    0.708441
     12          6           0       -1.309159   -0.715175    0.940032
     13          6           0       -2.334781    0.126352    0.841607
     14          1           0       -2.330331    1.103795    1.309559
     15          6           0       -0.027241   -0.431036    1.635545
     16          6           0       -3.537419   -0.244899    0.077431
     17          8           0       -3.717023   -1.283073   -0.510029
     18          8           0       -4.452224    0.743081    0.106542
     19          6           0       -5.662973    0.487397   -0.606464
     20          1           0       -6.273132    1.377882   -0.479589
     21          1           0       -5.454763    0.312216   -1.662057
     22          1           0       -6.169947   -0.386338   -0.196775
     23          6           0        2.462791    1.818599    0.445687
     24          1           0        1.619378    2.384340    0.859499
     25          1           0        3.358446    2.404551    0.678592
     26          6           0        1.235948    0.696876   -1.522456
     27          1           0        0.237417    1.113323   -1.344773
     28          1           0        1.307146    0.541500   -2.604179
     29          6           0        3.894586   -0.902039   -0.560594
     30          1           0        4.241797   -0.104815   -1.217039
     31          1           0        4.672845   -1.669786   -0.602004
     32          6           0        2.287585    1.724060   -1.077657
     33          1           0        2.000577    2.708193   -1.459592
     34          1           0        3.244445    1.498660   -1.546105
     35          1           0       -1.408569   -1.673409    0.436547
     36          1           0        0.232956   -1.276106    2.294110
     37          1           0       -0.112533    0.436816    2.297748
 ---------------------------------------------------------------------

 SCF Done:  E(RHF) =  -679.214865232     A.U. after    2 cycles

 The electronic state is 1-A.
 Alpha  occ. eigenvalues --  -20.60835 -20.54444 -11.38273 -11.28954 -11.26709
 Alpha  occ. eigenvalues --  -11.23694 -11.23377 -11.23171 -11.22832 -11.22731
 Alpha  occ. eigenvalues --  -11.22616 -11.22510 -11.22332 -11.20556 -11.20414
 Alpha  occ. eigenvalues --   -7.59088  -1.41292  -1.31379  -1.11068  -1.08549
 Alpha  occ. eigenvalues --   -1.03708  -1.02065  -0.99774  -0.94848  -0.92157
 Alpha  occ. eigenvalues --   -0.91442  -0.81763  -0.79576  -0.78615  -0.75665
 Alpha  occ. eigenvalues --   -0.74814  -0.71798  -0.68172  -0.67711  -0.67562
 Alpha  occ. eigenvalues --   -0.64911  -0.61481  -0.60470  -0.60069  -0.58693
 Alpha  occ. eigenvalues --   -0.58242  -0.57057  -0.56618  -0.55787  -0.55305
 Alpha  occ. eigenvalues --   -0.54760  -0.53153  -0.52002  -0.50747  -0.48865
 Alpha  occ. eigenvalues --   -0.48458  -0.47924  -0.47502  -0.47167  -0.46281
 Alpha  occ. eigenvalues --   -0.45952  -0.42649  -0.41228  -0.39048  -0.36583
 Alpha virt. eigenvalues --    0.02608   0.03672   0.03915   0.04018   0.04759
 Alpha virt. eigenvalues --    0.05352   0.05677   0.05772   0.05823   0.06436
 Alpha virt. eigenvalues --    0.06716   0.06931   0.07805   0.08103   0.08157

 Mulliken charges:
               1
     1  C   -0.277065
     2  C   -0.375746
     3  C    0.724501
     4  H   -0.119034
     5  H   -0.114594
     6  H   -0.548443
     7  H   -0.482599
     8  C    0.618732
     9  H   -0.114016
    10  H   -0.100088
    11  B   -0.346302
    12  C    0.767542
    13  C    1.075477
    14  H   -0.649927
    15  C    0.467441
    16  C   -0.028183
    17  O   -0.482910
    18  O   -0.532740
    19  C    0.813209
    20  H   -0.280899
    21  H   -0.077254
    22  H   -0.076039
    23  C    0.627348
    24  H   -0.062285
    25  H   -0.146801
    26  C    0.567365
    27  H   -0.104145
    28  H   -0.194132
    29  C    0.250105
    30  H   -0.113108
    31  H   -0.138008
    32  C    0.088787
    33  H   -0.141037
    34  H   -0.122194
    35  H   -0.615726
    36  H    0.305218
    37  H   -0.062452
 Sum of Mulliken charges =  -0.00000

 Dipole moment (field-independent basis, Debye):
    X=              1.6083    Y=              1.3975    Z=              0.8961  Tot=              2.3114

 Test job not archived.
 1\1\GINC-SE329\SP\RHF\Aug-CC-pVDZ\C13H21B1O2\OHZDE\09-Apr-2025\0\\#t h
 f aug-cc-pvdz iop(5/13=1,5/36=2,99/5=2) pseudo=read geom=check guess=(
 read,tcheck) scf=(maxcycle=1)\\title\\0,1\C,0,1.312948,-0.681078,-0.80
 1955\C,0,2.531614,0.453038,1.187287\C,0,2.587918,-1.493852,-1.105843\H
 ,0,2.452355,-2.493349,-0.676132\H,0,2.682377,-1.645894,-2.186862\H,0,2
 .524125,0.671858,2.260626\H,0,0.452794,-1.262227,-1.145902\C,0,3.79151
 4,-0.380699,0.878725\H,0,3.797177,-1.238454,1.561863\H,0,4.690432,0.19
 7742,1.120087\B,0,1.237799,-0.285166,0.708441\C,0,-1.309159,-0.715175,

 Normal termination of Gaussian 16 at Wed Apr  9 01:19:18 2025.
