 Gaussian 16, Revision C.01,

 ----------------------------------------------------------------------
 #t hf aug-cc-pvdz symm=none int=(grid=ultrafine) guess=(read,tcheck) s
 table=(opt,rrhf)
 ----------------------------------------------------------------------
 -----
 title
 -----
 Symbolic Z-matrix:
 Charge =  0 Multiplicity = 1

 SCF Done:  E(RHF) =  -336.386537780     A.U. after   12 cycles

 1\1\GINC-SE187\Stability\RHF\Aug-CC-pVDZ\C8H15B1\OHZDE\09-Apr-2025\0\\
 #t hf aug-cc-pvdz symm=none int=(grid=ultrafine) guess=(read,tcheck) s
 table=(opt,rrhf)\\title\\0,1\C,0,-0.004175,1.297467,0.706683\C,0,-0.00
 4185,-1.297467,0.706683\C,0,-1.287618,1.287234,-0.174055\H,0,-2.150528
 ,1.44512,0.483636\H,0,-1.266469,2.148245,-0.851023\H,0,-0.031724,-2.21
 5011,1.30083\H,0,-0.031707,2.215011,1.300831\H,0,-0.444351,0.000001,2.
 721408\C,0,-1.287635,-1.28722,-0.174047\H,0,-2.150544,-1.445087,0.4836
 5\H,0,-1.266504,-2.148236,-0.851009\B,0,-0.136935,0.,1.565978\C,0,1.31

 Normal termination of Gaussian 16 at Wed Apr  9 01:01:43 2025.
 Gaussian 16:  ES64L-G16RevC.01  3-Jul-2019

 ----------------------------------------------------------------------
 #t hf aug-cc-pvdz iop(5/13=1,5/36=2,99/5=2) pseudo=read geom=check gue
 ss=(read,tcheck) scf=(maxcycle=1)
 ----------------------------------------------------------------------
 -----
 title
 -----
 Structure from the checkpoint file:  "BH10_282_forward_mol3.chk"
 Charge =  0 Multiplicity = 1

                         Standard orientation:
 ---------------------------------------------------------------------
 Center     Atomic      Atomic             Coordinates (Angstroms)
 Number     Number       Type             X           Y           Z
 ---------------------------------------------------------------------
      1          6           0        0.004174   -1.297467    0.706683
      2          6           0        0.004186    1.297467    0.706683
      3          6           0        1.287617   -1.287235   -0.174055
      4          1           0        2.150527   -1.445121    0.483636
      5          1           0        1.266468   -2.148246   -0.851023
      6          1           0        0.031725    2.215011    1.300830
      7          1           0        0.031706   -2.215011    1.300831
      8          1           0        0.444351   -0.000001    2.721408
      9          6           0        1.287636    1.287219   -0.174047
     10          1           0        2.150545    1.445086    0.483650
     11          1           0        1.266505    2.148235   -0.851009
     12          5           0        0.136935   -0.000000    1.565978
     13          6           0       -1.316342    1.287603   -0.093432
     14          1           0       -2.135028    1.450855    0.617181
     15          1           0       -1.341782    2.143177   -0.777862
     16          6           0       -1.316360   -1.287587   -0.093423
     17          1           0       -2.135045   -1.450820    0.617196
     18          1           0       -1.341817   -2.143166   -0.777846
     19          6           0        1.515361   -0.000007   -0.980270
     20          1           0        0.879740    0.000001   -1.864476
     21          1           0        2.541732   -0.000013   -1.359190
     22          6           0       -1.601385    0.000007   -0.878454
     23          1           0       -2.651891    0.000012   -1.184187
     24          1           0       -1.031732   -0.000000   -1.807138
 ---------------------------------------------------------------------

 SCF Done:  E(RHF) =  -336.485691432     A.U. after    2 cycles

 The electronic state is 1-A.
 Alpha  occ. eigenvalues --  -11.22944 -11.22941 -11.22447 -11.22445 -11.22302
 Alpha  occ. eigenvalues --  -11.22013 -11.20038 -11.20020  -7.58515  -1.10425
 Alpha  occ. eigenvalues --   -1.03345  -1.01574  -0.92707  -0.91049  -0.79185
 Alpha  occ. eigenvalues --   -0.77981  -0.75047  -0.67463  -0.64687  -0.59787
 Alpha  occ. eigenvalues --   -0.58618  -0.57891  -0.57033  -0.56265  -0.54321
 Alpha  occ. eigenvalues --   -0.50490  -0.48427  -0.47958  -0.47633  -0.47408
 Alpha  occ. eigenvalues --   -0.45877  -0.42253  -0.39718  -0.38980
 Alpha virt. eigenvalues --    0.02947   0.04066   0.04311   0.04339   0.05849
 Alpha virt. eigenvalues --    0.06053   0.06075   0.06083   0.06108   0.08328
 Alpha virt. eigenvalues --    0.08609   0.08641   0.08719   0.08782   0.08800

 Mulliken charges:
               1
     1  C   -0.023901
     2  C   -0.023899
     3  C    0.411192
     4  H   -0.117974
     5  H   -0.111696
     6  H   -0.354305
     7  H   -0.354304
     8  H    0.473223
     9  C    0.411195
    10  H   -0.117976
    11  H   -0.111699
    12  B   -0.320655
    13  C    0.386185
    14  H   -0.107441
    15  H   -0.079388
    16  C    0.386186
    17  H   -0.107443
    18  H   -0.079390
    19  C    0.166043
    20  H   -0.152207
    21  H   -0.115089
    22  C    0.208088
    23  H   -0.109999
    24  H   -0.154746
 Sum of Mulliken charges =  -0.00000

 Dipole moment (field-independent basis, Debye):
    X=             -0.0261    Y=              0.0000    Z=             -0.4670  Tot=              0.4677

 Test job not archived.
 1\1\GINC-SE187\SP\RHF\Aug-CC-pVDZ\C8H15B1\OHZDE\09-Apr-2025\0\\#t hf a
 ug-cc-pvdz iop(5/13=1,5/36=2,99/5=2) pseudo=read geom=check guess=(rea
 d,tcheck) scf=(maxcycle=1)\\title\\0,1\C,0,-0.004175,1.297467,0.706683
 \C,0,-0.004185,-1.297467,0.706683\C,0,-1.287618,1.287234,-0.174055\H,0
 ,-2.150528,1.44512,0.483636\H,0,-1.266469,2.148245,-0.851023\H,0,-0.03
 1724,-2.215011,1.30083\H,0,-0.031707,2.215011,1.300831\H,0,-0.444351,0
 .000001,2.721408\C,0,-1.287635,-1.28722,-0.174047\H,0,-2.150544,-1.445
 087,0.48365\H,0,-1.266504,-2.148236,-0.851009\B,0,-0.136935,0.,1.56597

 Normal termination of Gaussian 16 at Wed Apr  9 01:01:59 2025.
