 Gaussian 16, Revision C.01,

 ----------------------------------------------------------------------
 #t hf aug-cc-pvdz symm=none int=(grid=ultrafine) guess=(read,tcheck) s
 table=opt
 ----------------------------------------------------------------------
 -----
 title
 -----
 Symbolic Z-matrix:
 Charge =  0 Multiplicity = 2

 SCF Done:  E(UHF) =  -962.527403858     A.U. after   25 cycles
 Normal termination of Gaussian 16 at Wed Apr  9 00:59:42 2025.
 Gaussian 16:  ES64L-G16RevC.01  3-Jul-2019

 ----------------------------------------------------------------------
 #t hf aug-cc-pvdz iop(5/13=1,5/36=2,99/5=2) pseudo=read geom=check gue
 ss=(read,tcheck) scf=(maxcycle=1)
 ----------------------------------------------------------------------
 -----
 title
 -----
 Structure from the checkpoint file:  "BH10_156_forward_mol1.chk"
 Charge =  0 Multiplicity = 2

                         Standard orientation:
 ---------------------------------------------------------------------
 Center     Atomic      Atomic             Coordinates (Angstroms)
 Number     Number       Type             X           Y           Z
 ---------------------------------------------------------------------
      1          7           0        0.672592   -1.572215   -0.493794
      2          1           0        0.262715   -2.499578   -0.399269
      3          6           0       -0.227289   -0.523804   -0.172736
      4          1           0        0.279385    0.036233    0.941748
      5          6           0       -0.251339    0.603497   -1.198354
      6          6           0       -1.536663   -1.158507    0.261943
      7          1           0        0.761890    0.792219   -1.542127
      8          1           0       -0.840388    0.285219   -2.062413
      9         16           0       -0.982402    2.187475   -0.660679
     10          8           0       -1.625829   -2.374745    0.320239
     11          1           0       -0.003188    2.499953    0.208864
     12          7           0       -2.539739   -0.322496    0.574005
     13          1           0       -3.407855   -0.725197    0.889325
     14          1           0       -2.420712    0.681433    0.530460
     15          6           0        2.012310   -1.454618   -0.621932
     16          1           0        2.502339   -2.412047   -0.847459
     17          8           0        2.646834   -0.419643   -0.516303
     18          8           0        0.950518    0.518858    1.790105
     19          8           0        1.695061    1.503174    1.161227
     20          1           0        2.339476    0.984586    0.634588
 ---------------------------------------------------------------------

 SCF Done:  E(UHF) =  -962.721012483     A.U. after    2 cycles

 The electronic state is 2-A.
 Alpha  occ. eigenvalues --  -93.55101 -20.67210 -20.64022 -20.57836 -20.56642
 Alpha  occ. eigenvalues --  -15.68757 -15.66662 -11.39965 -11.39586 -11.34345
 Alpha  occ. eigenvalues --  -11.30226  -8.84897  -6.19084  -6.18888  -6.18593
 Alpha  occ. eigenvalues --   -1.46663  -1.39021  -1.38253  -1.25289  -1.20730
 Alpha  occ. eigenvalues --   -1.17992  -1.09097  -0.99914  -0.88742  -0.86330
 Alpha  occ. eigenvalues --   -0.82801  -0.79189  -0.77955  -0.74674  -0.72702
 Alpha  occ. eigenvalues --   -0.69012  -0.68056  -0.65913  -0.65442  -0.65115
 Alpha  occ. eigenvalues --   -0.62848  -0.61145  -0.60159  -0.57330  -0.54512
 Alpha  occ. eigenvalues --   -0.51421  -0.50015  -0.49023  -0.47589  -0.46667
 Alpha  occ. eigenvalues --   -0.44801  -0.39496  -0.37950
 Alpha virt. eigenvalues --    0.02971   0.03431   0.04388   0.05132   0.06526
 Alpha virt. eigenvalues --    0.06560   0.07781   0.07865   0.08872   0.09152
 Alpha virt. eigenvalues --    0.10748   0.11279   0.12592   0.12889   0.13600

  Beta  occ. eigenvalues --  -93.55094 -20.64334 -20.63926 -20.57653 -20.56419
  Beta  occ. eigenvalues --  -15.68792 -15.66625 -11.39973 -11.39748 -11.32587
  Beta  occ. eigenvalues --  -11.30350  -8.84888  -6.19070  -6.18869  -6.18593
  Beta  occ. eigenvalues --   -1.42591  -1.38545  -1.37851  -1.24275  -1.20521
  Beta  occ. eigenvalues --   -1.12463  -1.07869  -0.98225  -0.88549  -0.86102
  Beta  occ. eigenvalues --   -0.79602  -0.78480  -0.76043  -0.73704  -0.69546
  Beta  occ. eigenvalues --   -0.68124  -0.66667  -0.65019  -0.63437  -0.62366
  Beta  occ. eigenvalues --   -0.61319  -0.59447  -0.59232  -0.55522  -0.51572
  Beta  occ. eigenvalues --   -0.49068  -0.48408  -0.47371  -0.46668  -0.43917
  Beta  occ. eigenvalues --   -0.42000  -0.37887
  Beta virt. eigenvalues --    0.01111   0.03090   0.03437   0.04457   0.05144
  Beta virt. eigenvalues --    0.06537   0.06584   0.07811   0.07887   0.08883
  Beta virt. eigenvalues --    0.09290   0.10796   0.11397   0.12627   0.13053

 Mulliken charges and spin densities:
               1          2
     1  N   -0.125930  -0.017966
     2  H    0.018557   0.003841
     3  C   -0.781453   0.861302
     4  H    0.452755  -0.329404
     5  C    0.435625  -0.100478
     6  C    0.649093  -0.114469
     7  H   -0.091811   0.000079
     8  H   -0.029783   0.026690
     9  S    0.240680   0.004007
    10  O   -0.571625   0.048961
    11  H    0.152693   0.001489
    12  N   -0.112194   0.009450
    13  H   -0.018387  -0.002684
    14  H    0.082012  -0.001339
    15  C    0.732669  -0.009588
    16  H   -0.285292  -0.001889
    17  O   -0.468872   0.039272
    18  O   -0.303290   0.615107
    19  O   -0.305753  -0.030406
    20  H    0.330305  -0.001979
 Sum of Mulliken charges =  -0.00000   1.00000

 Dipole moment (field-independent basis, Debye):
    X=             -1.6841    Y=             -1.1953    Z=             -2.1638  Tot=              2.9911
                          Isotropic Fermi Contact Couplings
        Atom                 a.u.       MegaHertz       Gauss      10(-4) cm-1
     1  N(14)             -0.02129      -6.87880      -2.45453      -2.29452
     2  H(1)               0.00131       5.85205       2.08816       1.95204
     3  C(13)              0.22764     255.90536      91.31340      85.36084
     4  H(1)              -0.07820    -349.54974    -124.72804    -116.59724
     5  C(13)             -0.02351     -26.42910      -9.43056      -8.81580
     6  C(13)             -0.02805     -31.53538     -11.25261     -10.51907
     7  H(1)               0.00190       8.49779       3.03222       2.83456
     8  H(1)               0.01158      51.76503      18.47105      17.26695

 Normal termination of Gaussian 16 at Wed Apr  9 00:59:59 2025.
