 Gaussian 16, Revision C.01,

 ----------------------------------------------------------------------
 #t hf aug-cc-pvdz symm=none int=(grid=ultrafine) guess=(read,tcheck) s
 table=(opt,rrhf)
 ----------------------------------------------------------------------
 -----
 title
 -----
 Symbolic Z-matrix:
 Charge =  0 Multiplicity = 1

 SCF Done:  E(RHF) =  -616.248417448     A.U. after   12 cycles

 1\1\GINC-SE105\Stability\RHF\Aug-CC-pVDZ\C4H9Cl1\OHZDE\09-Apr-2025\0\\
 #t hf aug-cc-pvdz symm=none int=(grid=ultrafine) guess=(read,tcheck) s
 table=(opt,rrhf)\\title\\0,1\Cl,0,-1.479465,-0.000003,0.000001\C,0,0.3
 60813,-0.000001,-0.000004\C,0,0.810834,-0.728693,-1.255701\C,0,0.81083
 6,-0.72312,1.258914\C,0,0.810825,1.451817,-0.003216\H,0,0.446688,-1.75
 641,-1.263292\H,0,1.903674,-0.748641,-1.29011\H,0,0.446661,-0.225395,-
 2.151766\H,0,0.446692,-1.750797,1.271088\H,0,0.446668,-0.215856,2.1527
 44\H,0,1.903677,-0.74291,1.293406\H,0,0.446659,1.972278,-0.889428\H,0,

 Normal termination of Gaussian 16 at Wed Apr  9 00:53:55 2025.
 Gaussian 16:  ES64L-G16RevC.01  3-Jul-2019

 ----------------------------------------------------------------------
 #t hf aug-cc-pvdz iop(5/13=1,5/36=2,99/5=2) pseudo=read geom=check gue
 ss=(read,tcheck) scf=(maxcycle=1)
 ----------------------------------------------------------------------
 -----
 title
 -----
 Structure from the checkpoint file:  "BH10_101_forward_mol2.chk"
 Charge =  0 Multiplicity = 1

                         Standard orientation:
 ---------------------------------------------------------------------
 Center     Atomic      Atomic             Coordinates (Angstroms)
 Number     Number       Type             X           Y           Z
 ---------------------------------------------------------------------
      1         17           0       -1.479465   -0.000004    0.000001
      2          6           0        0.360813   -0.000001   -0.000004
      3          6           0        0.810835   -0.826514   -1.193588
      4          6           0        0.810836   -0.620418    1.312573
      5          6           0        0.810824    1.446937   -0.118988
      6          1           0        0.446690   -1.851563   -1.119194
      7          1           0        1.903675   -0.849142   -1.226296
      8          1           0        0.446662   -0.396280   -2.126937
      9          1           0        0.446693   -1.643851    1.406666
     10          1           0        0.446667   -0.043487    2.163102
     11          1           0        1.903677   -0.637393    1.348534
     12          1           0        0.446658    1.895064   -1.043884
     13          1           0        1.903665    1.486580   -0.122256
     14          1           0        0.446668    2.040118    0.720293
 ---------------------------------------------------------------------

 SCF Done:  E(RHF) =  -616.316807463     A.U. after    2 cycles

 The electronic state is 1-A.
 Alpha  occ. eigenvalues -- -103.63370 -11.31455 -11.23876 -11.23876 -11.23859
 Alpha  occ. eigenvalues --  -10.66690  -8.32392  -8.32130  -8.32130  -1.16751
 Alpha  occ. eigenvalues --   -1.04635  -0.95067  -0.95067  -0.75778  -0.63959
 Alpha  occ. eigenvalues --   -0.62621  -0.62621  -0.56455  -0.56455  -0.53190
 Alpha  occ. eigenvalues --   -0.50314  -0.50314  -0.48327  -0.43528  -0.43528
 Alpha virt. eigenvalues --    0.03322   0.04749   0.04749   0.05534   0.06981
 Alpha virt. eigenvalues --    0.06981   0.07499   0.07499   0.09429   0.10014
 Alpha virt. eigenvalues --    0.12227   0.14452   0.14452   0.15008   0.16300

 Mulliken charges:
               1
     1  Cl  -0.258346
     2  C   -2.424876
     3  C    0.949885
     4  C    0.949875
     5  C    0.949886
     6  H   -0.040386
     7  H    0.025314
     8  H   -0.040387
     9  H   -0.040398
    10  H   -0.040397
    11  H    0.025313
    12  H   -0.040398
    13  H    0.025308
    14  H   -0.040393
 Sum of Mulliken charges =  -0.00000

 Dipole moment (field-independent basis, Debye):
    X=              2.6639    Y=              0.0000    Z=             -0.0000  Tot=              2.6639

 Test job not archived.
 1\1\GINC-SE105\SP\RHF\Aug-CC-pVDZ\C4H9Cl1\OHZDE\09-Apr-2025\0\\#t hf a
 ug-cc-pvdz iop(5/13=1,5/36=2,99/5=2) pseudo=read geom=check guess=(rea
 d,tcheck) scf=(maxcycle=1)\\title\\0,1\Cl,0,-1.479465,-0.000003,0.0000
 01\C,0,0.360813,-0.000001,-0.000004\C,0,0.810834,-0.728693,-1.255701\C
 ,0,0.810836,-0.72312,1.258914\C,0,0.810825,1.451817,-0.003216\H,0,0.44
 6688,-1.75641,-1.263292\H,0,1.903674,-0.748641,-1.29011\H,0,0.446661,-
 0.225395,-2.151766\H,0,0.446692,-1.750797,1.271088\H,0,0.446668,-0.215
 856,2.152744\H,0,1.903677,-0.74291,1.293406\H,0,0.446659,1.972278,-0.8

 Normal termination of Gaussian 16 at Wed Apr  9 00:54:04 2025.
