 Gaussian 16, Revision C.01,

 ----------------------------------------------------------------------
 #t hf aug-cc-pvdz symm=none int=(grid=ultrafine) guess=(read,tcheck) s
 table=(opt,rrhf)
 ----------------------------------------------------------------------
 -----
 title
 -----
 Symbolic Z-matrix:
 Charge =  0 Multiplicity = 1

 SCF Done:  E(RHF) =  -730.880638027     A.U. after   16 cycles
 Normal termination of Gaussian 16 at Wed Apr  9 01:03:58 2025.
 Gaussian 16:  ES64L-G16RevC.01  3-Jul-2019

 ----------------------------------------------------------------------
 #t hf aug-cc-pvdz iop(5/13=1,5/36=2,99/5=2) pseudo=read geom=check gue
 ss=(read,tcheck) scf=(maxcycle=1)
 ----------------------------------------------------------------------
 -----
 title
 -----
 Structure from the checkpoint file:  "BH10_267_forward_mol2.chk"
 Charge =  0 Multiplicity = 1

                         Standard orientation:
 ---------------------------------------------------------------------
 Center     Atomic      Atomic             Coordinates (Angstroms)
 Number     Number       Type             X           Y           Z
 ---------------------------------------------------------------------
      1          6           0       -2.518899    1.293054    0.108455
      2          6           0       -3.654872    0.551141    0.394266
      3          6           0       -3.637593   -0.828040    0.235813
      4          6           0       -2.482938   -1.459421   -0.210153
      5          6           0       -1.343465   -0.717292   -0.475264
      6          6           0       -1.345811    0.664947   -0.305011
      7          1           0       -2.533489    2.372426    0.215345
      8          1           0       -4.556049    1.048257    0.732048
      9          1           0       -4.526477   -1.409905    0.447603
     10          1           0       -2.474427   -2.532818   -0.356505
     11          1           0       -0.452267   -1.208270   -0.841533
     12          6           0       -0.149808    1.503527   -0.579916
     13          7           0        1.066950    1.204892   -0.485045
     14         14           0        2.101428   -0.079687    0.086022
     15          6           0        2.453358   -1.232724   -1.350611
     16          1           0        2.826142   -0.669428   -2.209029
     17          1           0        3.219352   -1.961675   -1.072509
     18          1           0        1.571033   -1.787918   -1.675554
     19          6           0        3.688391    0.754893    0.616829
     20          1           0        3.499814    1.468982    1.422222
     21          1           0        4.423503    0.029723    0.976208
     22          1           0        4.129543    1.306655   -0.215920
     23          6           0        1.415267   -1.011922    1.566353
     24          1           0        0.554032   -1.636173    1.328246
     25          1           0        2.192347   -1.656467    1.987341
     26          1           0        1.110274   -0.313932    2.350436
     27          1           0       -0.413743    2.522943   -0.901948
 ---------------------------------------------------------------------

 SCF Done:  E(RHF) =  -731.044956769     A.U. after    2 cycles

 The electronic state is 1-A.
 Alpha  occ. eigenvalues --  -69.05623 -15.58803 -11.30288 -11.25656 -11.25601
 Alpha  occ. eigenvalues --  -11.25544 -11.25439 -11.25305 -11.25276 -11.20483
 Alpha  occ. eigenvalues --  -11.20100 -11.19603  -6.80602  -3.91500  -3.91370
 Alpha  occ. eigenvalues --   -3.91336  -1.17808  -1.14275  -1.02893  -1.02301
 Alpha  occ. eigenvalues --   -0.95661  -0.91600  -0.90995  -0.87136  -0.84114
 Alpha  occ. eigenvalues --   -0.78669  -0.72163  -0.66879  -0.66033  -0.62724
 Alpha  occ. eigenvalues --   -0.60992  -0.60128  -0.57697  -0.55939  -0.55794
 Alpha  occ. eigenvalues --   -0.54670  -0.53778  -0.52935  -0.52606  -0.52091
 Alpha  occ. eigenvalues --   -0.51672  -0.50560  -0.46404  -0.43182  -0.41724
 Alpha  occ. eigenvalues --   -0.35728  -0.35033  -0.33924
 Alpha virt. eigenvalues --    0.02821   0.03510   0.03760   0.04691   0.05113
 Alpha virt. eigenvalues --    0.05304   0.06446   0.06704   0.06889   0.07271
 Alpha virt. eigenvalues --    0.07550   0.07694   0.08528   0.08780   0.09185

 Mulliken charges:
               1
     1  C    0.554659
     2  C    0.233487
     3  C    0.635539
     4  C   -0.012907
     5  C    0.976439
     6  C    0.725182
     7  H   -0.573934
     8  H   -0.445832
     9  H   -0.448776
    10  H   -0.503735
    11  H   -0.707649
    12  C   -0.265473
    13  N   -0.384841
    14  Si   1.547530
    15  C    0.653015
    16  H   -0.237548
    17  H   -0.264417
    18  H   -0.359382
    19  C    0.586443
    20  H   -0.303685
    21  H   -0.290698
    22  H   -0.315788
    23  C    0.656750
    24  H   -0.328409
    25  H   -0.306624
    26  H   -0.296991
    27  H   -0.522355
 Sum of Mulliken charges =  -0.00000

 Dipole moment (field-independent basis, Debye):
    X=             -1.8722    Y=             -0.8715    Z=              0.3827  Tot=              2.1002

 Test job not archived.
 1\1\GINC-SE184\SP\RHF\Aug-CC-pVDZ\C10H15N1Si1\OHZDE\09-Apr-2025\0\\#t
 hf aug-cc-pvdz iop(5/13=1,5/36=2,99/5=2) pseudo=read geom=check guess=
 (read,tcheck) scf=(maxcycle=1)\\title\\0,1\C,0,-2.518899,1.293054,0.10
 8455\C,0,-3.654872,0.551141,0.394266\C,0,-3.637593,-0.82804,0.235813\C
 ,0,-2.482938,-1.459421,-0.210153\C,0,-1.343465,-0.717292,-0.475264\C,0
 ,-1.345811,0.664947,-0.305011\H,0,-2.533489,2.372426,0.215345\H,0,-4.5
 56049,1.048257,0.732048\H,0,-4.526477,-1.409905,0.447603\H,0,-2.474427
 ,-2.532818,-0.356505\H,0,-0.452267,-1.20827,-0.841533\C,0,-0.149808,1.

 Normal termination of Gaussian 16 at Wed Apr  9 01:04:23 2025.
