 Gaussian 16, Revision C.01,

 ----------------------------------------------------------------------
 #t hf aug-cc-pvdz symm=none int=(grid=ultrafine) guess=(read,tcheck) s
 table=opt
 ----------------------------------------------------------------------
 -----
 title
 -----
 Symbolic Z-matrix:
 Charge =  0 Multiplicity = 2

 SCF Done:  E(UHF) =  -1629.45912530     A.U. after   18 cycles
 Normal termination of Gaussian 16 at Wed Apr  9 02:05:22 2025.
 Gaussian 16:  ES64L-G16RevC.01  3-Jul-2019

 ----------------------------------------------------------------------
 #t hf aug-cc-pvdz iop(5/13=1,5/36=2,99/5=2) pseudo=read geom=check gue
 ss=(read,tcheck) scf=(maxcycle=1)
 ----------------------------------------------------------------------
 -----
 title
 -----
 Structure from the checkpoint file:  "BH10-RE_291_mol1.chk"
 Charge =  0 Multiplicity = 2

                         Standard orientation:
 ---------------------------------------------------------------------
 Center     Atomic      Atomic             Coordinates (Angstroms)
 Number     Number       Type             X           Y           Z
 ---------------------------------------------------------------------
      1          6           0       -0.007058    0.321317    2.322393
      2          6           0        1.287964    0.909803    2.713077
      3         14           0        0.000633    0.018634    0.396141
      4         14           0        0.748770    1.931258   -0.746997
      5         14           0       -2.163896   -0.544764   -0.343653
      6         14           0        1.428801   -1.781488   -0.104672
      7          6           0        2.623839    2.094456   -0.644576
      8          1           0        2.960831    2.994687   -1.166755
      9          1           0        2.959088    2.161339    0.392495
     10          1           0        3.126688    1.239165   -1.101706
     11          6           0        0.266106    1.792816   -2.565616
     12          1           0        0.653173    2.647857   -3.127286
     13          1           0        0.668800    0.886394   -3.022667
     14          1           0       -0.818354    1.777481   -2.695183
     15          6           0       -0.027652    3.500656   -0.047795
     16          1           0        0.281179    4.370682   -0.634626
     17          1           0       -1.118718    3.454171   -0.069456
     18          1           0        0.279345    3.673606    0.985856
     19          6           0       -2.078783   -1.337003   -2.053429
     20          1           0       -1.525767   -2.278510   -2.035322
     21          1           0       -3.086418   -1.553481   -2.420003
     22          1           0       -1.595572   -0.680261   -2.779794
     23          6           0       -2.961062   -1.777472    0.840261
     24          1           0       -3.066583   -1.367052    1.846831
     25          1           0       -3.959621   -2.054190    0.489715
     26          1           0       -2.369874   -2.692466    0.917084
     27          6           0       -3.264053    0.982725   -0.464787
     28          1           0       -3.358577    1.492908    0.495837
     29          1           0       -2.867224    1.702777   -1.184190
     30          1           0       -4.269095    0.705109   -0.795569
     31          6           0        0.605815   -3.417638    0.348940
     32          1           0       -0.295657   -3.594255   -0.241758
     33          1           0        1.288486   -4.253129    0.169044
     34          1           0        0.321547   -3.444497    1.403855
     35          6           0        1.812763   -1.796177   -1.950965
     36          1           0        2.420100   -2.669367   -2.205875
     37          1           0        0.904003   -1.835775   -2.554856
     38          1           0        2.372471   -0.907188   -2.250247
     39          6           0        3.057578   -1.672522    0.837721
     40          1           0        3.731261   -2.472826    0.517606
     41          1           0        3.562713   -0.719880    0.666385
     42          1           0        2.905213   -1.781705    1.913800
     43          6           0       -1.196090    1.175312    2.774746
     44          1           0       -2.150359    0.711171    2.522305
     45          1           0       -1.173223    1.322691    3.857889
     46          1           0       -1.174788    2.162200    2.306938
     47          1           0       -0.101547   -0.681924    2.755452
     48          1           0        2.185355    0.310358    2.780205
     49          1           0        1.394600    1.985313    2.792710
 ---------------------------------------------------------------------

 SCF Done:  E(UHF) =  -1629.69748798     A.U. after    2 cycles

 The electronic state is 2-A.
 Alpha  occ. eigenvalues --  -69.03739 -69.03735 -69.03685 -69.01500 -11.23369
 Alpha  occ. eigenvalues --  -11.22654 -11.22559 -11.20693 -11.20629 -11.20627
 Alpha  occ. eigenvalues --  -11.20615 -11.20597 -11.20597 -11.20592 -11.20567
 Alpha  occ. eigenvalues --  -11.20503  -6.79077  -6.79061  -6.79012  -6.77273
 Alpha  occ. eigenvalues --   -3.89796  -3.89795  -3.89791  -3.89785  -3.89783
 Alpha  occ. eigenvalues --   -3.89767  -3.89744  -3.89737  -3.89717  -3.87966
 Alpha  occ. eigenvalues --   -3.87850  -3.87838  -1.05380  -0.96350  -0.95450
 Alpha  occ. eigenvalues --   -0.95414  -0.92791  -0.91880  -0.91718  -0.91606
 Alpha  occ. eigenvalues --   -0.91494  -0.91460  -0.91414  -0.79412  -0.68616
 Alpha  occ. eigenvalues --   -0.63238  -0.61431  -0.61220  -0.59981  -0.58416
 Alpha  occ. eigenvalues --   -0.57870  -0.57671  -0.57345  -0.56739  -0.56446
 Alpha  occ. eigenvalues --   -0.56305  -0.55694  -0.55583  -0.55315  -0.54386
 Alpha  occ. eigenvalues --   -0.54148  -0.54070  -0.53650  -0.53627  -0.53410
 Alpha  occ. eigenvalues --   -0.53085  -0.52927  -0.52853  -0.51917  -0.50638
 Alpha  occ. eigenvalues --   -0.48880  -0.44459  -0.43284  -0.43197  -0.42710
 Alpha  occ. eigenvalues --   -0.42631  -0.42368  -0.42171  -0.33708  -0.33248
 Alpha  occ. eigenvalues --   -0.30218
 Alpha virt. eigenvalues --    0.02691   0.03452   0.03482   0.03647   0.05028
 Alpha virt. eigenvalues --    0.05045   0.05266   0.05448   0.05540   0.06701
 Alpha virt. eigenvalues --    0.06884   0.07006   0.07040   0.07221   0.07290

  Beta  occ. eigenvalues --  -69.03738 -69.03721 -69.03687 -69.01426 -11.22943
  Beta  occ. eigenvalues --  -11.22496 -11.20995 -11.20694 -11.20630 -11.20618
  Beta  occ. eigenvalues --  -11.20610 -11.20597 -11.20596 -11.20596 -11.20569
  Beta  occ. eigenvalues --  -11.20495  -6.79072  -6.79042  -6.79015  -6.77150
  Beta  occ. eigenvalues --   -3.89798  -3.89793  -3.89779  -3.89776  -3.89769
  Beta  occ. eigenvalues --   -3.89745  -3.89739  -3.89727  -3.89723  -3.87807
  Beta  occ. eigenvalues --   -3.87783  -3.87714  -1.03441  -0.96322  -0.95425
  Beta  occ. eigenvalues --   -0.95397  -0.91872  -0.91725  -0.91647  -0.91508
  Beta  occ. eigenvalues --   -0.91480  -0.91406  -0.88935  -0.76431  -0.68078
  Beta  occ. eigenvalues --   -0.62485  -0.61369  -0.61129  -0.59499  -0.58262
  Beta  occ. eigenvalues --   -0.57704  -0.57599  -0.56899  -0.56716  -0.56393
  Beta  occ. eigenvalues --   -0.56138  -0.55668  -0.55422  -0.55226  -0.54362
  Beta  occ. eigenvalues --   -0.54121  -0.54003  -0.53636  -0.53583  -0.53387
  Beta  occ. eigenvalues --   -0.53077  -0.52908  -0.52828  -0.51406  -0.49818
  Beta  occ. eigenvalues --   -0.48486  -0.43682  -0.43270  -0.43175  -0.42633
  Beta  occ. eigenvalues --   -0.42614  -0.42366  -0.38451  -0.33196  -0.33146
  Beta virt. eigenvalues --    0.02700   0.03451   0.03487   0.03598   0.05023
  Beta virt. eigenvalues --    0.05051   0.05228   0.05455   0.05514   0.06701
  Beta virt. eigenvalues --    0.06891   0.06984   0.07041   0.07225   0.07288

 Mulliken charges and spin densities:
               1          2
     1  C    0.299099  -0.324580
     2  C    0.863525   1.532036
     3  Si   2.494893  -0.042031
     4  Si   0.165232  -0.004550
     5  Si   0.216821   0.055452
     6  Si  -0.060165  -0.020044
     7  C    1.001634   0.006000
     8  H   -0.444445   0.000797
     9  H   -0.368161  -0.011431
    10  H   -0.449985   0.002043
    11  C    1.097947  -0.001947
    12  H   -0.421411   0.000227
    13  H   -0.459583   0.000073
    14  H   -0.476645   0.000334
    15  C    0.924114  -0.001554
    16  H   -0.469404   0.000164
    17  H   -0.410284  -0.000229
    18  H   -0.384291   0.001252
    19  C    1.074589   0.008123
    20  H   -0.472233  -0.001174
    21  H   -0.475864   0.001970
    22  H   -0.471998  -0.001751
    23  C    0.911239  -0.006250
    24  H   -0.408044  -0.000852
    25  H   -0.460773   0.000070
    26  H   -0.432127   0.000688
    27  C    0.975786  -0.004770
    28  H   -0.432620  -0.000351
    29  H   -0.441268   0.000343
    30  H   -0.459415   0.000409
    31  C    0.932270  -0.000082
    32  H   -0.440348   0.000461
    33  H   -0.467820   0.000153
    34  H   -0.375153   0.000608
    35  C    1.153197  -0.001539
    36  H   -0.404541   0.000281
    37  H   -0.490093  -0.001013
    38  H   -0.448652   0.000037
    39  C    0.948095   0.001570
    40  H   -0.488083   0.000487
    41  H   -0.391679   0.004327
    42  H   -0.349676   0.004230
    43  C    0.851558   0.042575
    44  H   -0.305483   0.003180
    45  H   -0.159021   0.004221
    46  H   -0.159726  -0.002212
    47  H   -0.449618   0.027602
    48  H   -0.510004  -0.137351
    49  H   -0.471389  -0.136002
 Sum of Mulliken charges =  -0.00000   1.00000

 Dipole moment (field-independent basis, Debye):
    X=             -0.0967    Y=             -0.1106    Z=             -0.1392  Tot=              0.2024
                          Isotropic Fermi Contact Couplings
        Atom                 a.u.       MegaHertz       Gauss      10(-4) cm-1
     1  C(13)             -0.05873     -66.02356     -23.55885     -22.02309
     2  C(13)              0.21082     237.00061      84.56771      79.05489
     3  Si(29)             0.09853     -87.56982     -31.24709     -29.21015
     4  Si(29)            -0.00270       2.39531       0.85471       0.79899
     5  Si(29)             0.01965     -17.46686      -6.23261      -5.82632
     6  Si(29)            -0.00365       3.24602       1.15826       1.08276
     7  C(13)              0.00178       1.99696       0.71257       0.66612
     8  H(1)               0.00012       0.53400       0.19055       0.17812

 Normal termination of Gaussian 16 at Wed Apr  9 02:07:49 2025.
