 Gaussian 16, Revision C.01,

 ----------------------------------------------------------------------
 #t hf aug-cc-pvdz symm=none int=(grid=ultrafine) guess=(read,tcheck) s
 table=opt
 ----------------------------------------------------------------------
 -----
 title
 -----
 Symbolic Z-matrix:
 Charge =  0 Multiplicity = 2

 SCF Done:  E(UHF) =  -515.188568228     A.U. after   17 cycles
 Normal termination of Gaussian 16 at Wed Apr  9 00:53:49 2025.
 Gaussian 16:  ES64L-G16RevC.01  3-Jul-2019

 ----------------------------------------------------------------------
 #t hf aug-cc-pvdz iop(5/13=1,5/36=2,99/5=2) pseudo=read geom=check gue
 ss=(read,tcheck) scf=(maxcycle=1)
 ----------------------------------------------------------------------
 -----
 title
 -----
 Structure from the checkpoint file:  "BH10_102_forward_mol3.chk"
 Charge =  0 Multiplicity = 2

                         Standard orientation:
 ---------------------------------------------------------------------
 Center     Atomic      Atomic             Coordinates (Angstroms)
 Number     Number       Type             X           Y           Z
 ---------------------------------------------------------------------
      1          6           0        0.383108    0.007994   -0.178738
      2          6           0        1.076546    1.309362    0.037367
      3          6           0        1.124880   -1.271719    0.010758
      4          1           0        2.088940    1.272544   -0.372309
      5          1           0        1.164677    1.553047    1.106881
      6          1           0        0.551522    2.140462   -0.440316
      7          1           0        2.091247   -1.227770   -0.498059
      8          1           0        0.572630   -2.125726   -0.386710
      9          1           0        1.328768   -1.477111    1.072470
     10         16           0       -1.353599   -0.099334    0.034739
     11          1           0       -1.647408    1.180077   -0.254098
 ---------------------------------------------------------------------

 SCF Done:  E(UHF) =  -515.247654414     A.U. after    2 cycles

 The electronic state is 2-A.
 Alpha  occ. eigenvalues --  -93.53982 -11.27108 -11.23950 -11.23692  -8.83783
 Alpha  occ. eigenvalues --   -6.17933  -6.17693  -6.17516  -1.10103  -0.94978
 Alpha  occ. eigenvalues --   -0.94807  -0.75749  -0.62924  -0.62001  -0.59847
 Alpha  occ. eigenvalues --   -0.55400  -0.52300  -0.51180  -0.46485  -0.42338
 Alpha  occ. eigenvalues --   -0.29565
 Alpha virt. eigenvalues --    0.03413   0.04752   0.05313   0.05753   0.07186
 Alpha virt. eigenvalues --    0.07364   0.07887   0.10263   0.11303   0.13573
 Alpha virt. eigenvalues --    0.14049   0.15232   0.16042   0.16627   0.16701

  Beta  occ. eigenvalues --  -93.53967 -11.24480 -11.24228 -11.23996  -8.83768
  Beta  occ. eigenvalues --   -6.18020  -6.17795  -6.17228  -1.06289  -0.94928
  Beta  occ. eigenvalues --   -0.94497  -0.71302  -0.61642  -0.59082  -0.58039
  Beta  occ. eigenvalues --   -0.54476  -0.52034  -0.50503  -0.45008  -0.37519
  Beta virt. eigenvalues --    0.03415   0.04767   0.05315   0.05596   0.07200
  Beta virt. eigenvalues --    0.07395   0.07906   0.10061   0.11182   0.11973
  Beta virt. eigenvalues --    0.14037   0.14414   0.15310   0.16126   0.16772

 Mulliken charges and spin densities:
               1          2
     1  C   -0.749582   1.309020
     2  C    0.320717  -0.197507
     3  C    0.349306  -0.230316
     4  H   -0.063565   0.005986
     5  H    0.057884   0.050817
     6  H   -0.097262   0.006540
     7  H   -0.035077   0.009345
     8  H   -0.101665   0.008878
     9  H    0.059378   0.048187
    10  S    0.236091   0.009340
    11  H    0.023774  -0.020289
 Sum of Mulliken charges =  -0.00000   1.00000

 Dipole moment (field-independent basis, Debye):
    X=              1.2735    Y=              0.8056    Z=             -0.0635  Tot=              1.5082
                          Isotropic Fermi Contact Couplings
        Atom                 a.u.       MegaHertz       Gauss      10(-4) cm-1
     1  C(13)              0.28768     323.41175     115.40136     107.87855
     2  C(13)             -0.04989     -56.08051     -20.01092     -18.70645
     3  C(13)             -0.05603     -62.99039     -22.47654     -21.01133
     4  H(1)               0.00469      20.98032       7.48630       6.99828
     5  H(1)               0.02289     102.30021      36.50326      34.12368
     6  H(1)               0.00724      32.34247      11.54060      10.78829
     7  H(1)               0.00775      34.63979      12.36034      11.55459
     8  H(1)               0.00517      23.10851       8.24569       7.70817

 Normal termination of Gaussian 16 at Wed Apr  9 00:53:53 2025.
