 Gaussian 16, Revision C.01,

 ----------------------------------------------------------------------
 #t hf aug-cc-pvdz symm=none int=(grid=ultrafine) guess=(read,tcheck) s
 table=opt
 ----------------------------------------------------------------------
 -----
 title
 -----
 Symbolic Z-matrix:
 Charge =  0 Multiplicity = 2

 SCF Done:  E(UHF) =  -431.345529711     A.U. after   16 cycles
 Normal termination of Gaussian 16 at Wed Apr  9 01:39:00 2025.
 Gaussian 16:  ES64L-G16RevC.01  3-Jul-2019

 ----------------------------------------------------------------------
 #t hf aug-cc-pvdz iop(5/13=1,5/36=2,99/5=2) pseudo=read geom=check gue
 ss=(read,tcheck) scf=(maxcycle=1)
 ----------------------------------------------------------------------
 -----
 title
 -----
 Structure from the checkpoint file:  "BH10_6_reverse_mol2.chk"
 Charge =  0 Multiplicity = 2

                         Standard orientation:
 ---------------------------------------------------------------------
 Center     Atomic      Atomic             Coordinates (Angstroms)
 Number     Number       Type             X           Y           Z
 ---------------------------------------------------------------------
      1          6           0        0.339430   -0.606170   -0.024083
      2          6           0       -1.088123   -1.139940   -0.028513
      3          6           0       -1.990434    0.110004   -0.102412
      4          1           0       -1.246168   -1.721466    0.879399
      5          1           0       -1.222554   -1.805552   -0.880418
      6          6           0       -1.058347    1.295927    0.184506
      7          1           0       -2.826807    0.060949    0.594590
      8          1           0       -2.411898    0.208704   -1.105195
      9          6           0        0.284034    0.861352   -0.445929
     10          1           0       -0.919710    1.432307    1.260097
     11          1           0       -1.418973    2.238412   -0.226929
     12          6           0        1.470443    1.666438   -0.079226
     13          9           0        0.865239   -0.700506    1.246202
     14          9           0        1.175272   -1.339400   -0.819181
     15          1           0        1.851471    2.426309   -0.746526
     16          1           0        1.934391    1.540776    0.889314
     17          1           0        0.153640    0.853054   -1.533580
 ---------------------------------------------------------------------

 SCF Done:  E(UHF) =  -431.485364182     A.U. after    2 cycles

 The electronic state is 2-A.
 Alpha  occ. eigenvalues --  -26.12191 -26.12018 -11.40983 -11.25347 -11.24545
 Alpha  occ. eigenvalues --  -11.24541 -11.24501 -11.24451  -1.68485  -1.63868
 Alpha  occ. eigenvalues --   -1.14745  -1.03481  -0.99032  -0.91704  -0.84852
 Alpha  occ. eigenvalues --   -0.82855  -0.80236  -0.75288  -0.74368  -0.71911
 Alpha  occ. eigenvalues --   -0.68157  -0.66879  -0.64672  -0.61335  -0.57271
 Alpha  occ. eigenvalues --   -0.56348  -0.53040  -0.51413  -0.50090  -0.49268
 Alpha  occ. eigenvalues --   -0.48059  -0.35971
 Alpha virt. eigenvalues --    0.03306   0.04159   0.04526   0.05043   0.06334
 Alpha virt. eigenvalues --    0.06607   0.06763   0.07261   0.08277   0.10202
 Alpha virt. eigenvalues --    0.12362   0.13252   0.13642   0.14323   0.14438

  Beta  occ. eigenvalues --  -26.12196 -26.12028 -11.40859 -11.25692 -11.24542
  Beta  occ. eigenvalues --  -11.24480 -11.24211 -11.22096  -1.68489  -1.63890
  Beta  occ. eigenvalues --   -1.14241  -1.01360  -0.98724  -0.88042  -0.83630
  Beta  occ. eigenvalues --   -0.81606  -0.80155  -0.74747  -0.74306  -0.71875
  Beta  occ. eigenvalues --   -0.68148  -0.66542  -0.64394  -0.60563  -0.56569
  Beta  occ. eigenvalues --   -0.55505  -0.52380  -0.50039  -0.49629  -0.48390
  Beta  occ. eigenvalues --   -0.47902
  Beta virt. eigenvalues --    0.03306   0.04198   0.04469   0.05041   0.06288
  Beta virt. eigenvalues --    0.06501   0.06684   0.07246   0.07888   0.09607
  Beta virt. eigenvalues --    0.11013   0.12386   0.13459   0.14042   0.14396

 Mulliken charges and spin densities:
               1          2
     1  C    0.293800   0.006294
     2  C    0.242213   0.002417
     3  C    0.468768   0.008569
     4  H   -0.047633   0.000605
     5  H    0.000978   0.000442
     6  C    0.237506   0.059163
     7  H   -0.093508  -0.000039
     8  H   -0.144808   0.000183
     9  C   -0.067043  -0.245453
    10  H   -0.125170  -0.009898
    11  H   -0.128368  -0.006623
    12  C    0.853084   1.402584
    13  F   -0.413304   0.001684
    14  F   -0.366612   0.001696
    15  H   -0.301560  -0.112683
    16  H   -0.235562  -0.112554
    17  H   -0.172785   0.003613
 Sum of Mulliken charges =  -0.00000   1.00000

 Dipole moment (field-independent basis, Debye):
    X=             -2.6424    Y=              1.5516    Z=             -0.7333  Tot=              3.1508
                          Isotropic Fermi Contact Couplings
        Atom                 a.u.       MegaHertz       Gauss      10(-4) cm-1
     1  C(13)              0.02386      26.82677       9.57246       8.94845
     2  C(13)             -0.00218      -2.45177      -0.87485      -0.81782
     3  C(13)              0.00024       0.26796       0.09561       0.08938
     4  H(1)               0.00031       1.40660       0.50191       0.46919
     5  H(1)               0.00003       0.14130       0.05042       0.04713
     6  C(13)              0.05519      62.04635      22.13968      20.69643
     7  H(1)               0.00049       2.19329       0.78262       0.73160
     8  H(1)              -0.00007      -0.32513      -0.11601      -0.10845

 Normal termination of Gaussian 16 at Wed Apr  9 01:39:06 2025.
