 Gaussian 16, Revision C.01,

 ----------------------------------------------------------------------
 #t hf aug-cc-pvdz symm=none int=(grid=ultrafine) guess=(read,tcheck) s
 table=(opt,rrhf)
 ----------------------------------------------------------------------
 -----
 title
 -----
 Symbolic Z-matrix:
 Charge =  0 Multiplicity = 1

 SCF Done:  E(RHF) =  -1125.16353989     A.U. after   16 cycles
 Normal termination of Gaussian 16 at Wed Apr  9 02:00:10 2025.
 Gaussian 16:  ES64L-G16RevC.01  3-Jul-2019

 ----------------------------------------------------------------------
 #t hf aug-cc-pvdz iop(5/13=1,5/36=2,99/5=2) pseudo=read geom=check gue
 ss=(read,tcheck) scf=(maxcycle=1)
 ----------------------------------------------------------------------
 -----
 title
 -----
 Structure from the checkpoint file:  "BH10_296_forward_mol1.chk"
 Charge =  0 Multiplicity = 1

                         Standard orientation:
 ---------------------------------------------------------------------
 Center     Atomic      Atomic             Coordinates (Angstroms)
 Number     Number       Type             X           Y           Z
 ---------------------------------------------------------------------
      1          6           0        0.128961   -3.006560   -0.081461
      2          6           0       -0.113072   -1.870068    0.931470
      3          6           0        2.190256   -0.596158   -0.694610
      4          1           0       -0.550166   -2.880268   -0.933932
      5          6           0        0.943960   -1.825309    2.059530
      6          1           0        0.428518   -1.661501    3.011038
      7          1           0        1.437439   -2.798035    2.161014
      8          1           0        2.880652   -0.029820   -1.328882
      9          1           0       -1.072633   -2.108892    1.411099
     10          1           0       -0.634328    0.371892    1.201870
     11          6           0        1.996086   -0.717131    1.937285
     12          1           0        1.485690    0.245742    2.020828
     13          1           0        2.658173   -0.772946    2.808195
     14          6           0        2.880432   -0.680957    0.687131
     15          1           0        3.536137    0.188490    0.798386
     16          1           0        3.551049   -1.547226    0.688916
     17          6           0        2.106657   -1.968272   -1.394018
     18          1           0        1.521556   -1.847554   -2.313204
     19          6           0        1.556349   -3.146955   -0.599086
     20          1           0        1.606897   -4.036296   -1.236279
     21          1           0        2.224786   -3.356731    0.240952
     22          1           0        3.119654   -2.237077   -1.715736
     23          1           0       -0.147399   -3.959892    0.385548
     24          6           0        0.838690    0.166220   -0.710263
     25          1           0        0.435463   -0.002690   -1.720560
     26         14           0        1.020309    2.041020   -0.726279
     27          6           0        1.611372    2.788494    0.897303
     28          1           0        1.715455    3.872476    0.794143
     29          1           0        0.905226    2.600625    1.706729
     30          1           0        2.583381    2.390881    1.197031
     31          6           0       -0.638097    2.817946   -1.175388
     32          1           0       -1.007544    2.425990   -2.127038
     33          1           0       -1.399551    2.632694   -0.416244
     34          1           0       -0.539282    3.901669   -1.282364
     35          6           0        2.254346    2.551595   -2.058789
     36          1           0        1.997803    2.115692   -3.028311
     37          1           0        2.265849    3.638676   -2.177124
     38          1           0        3.272908    2.239351   -1.816065
     39          5           0       -0.295711   -0.425153    0.269131
     40          6           0       -1.996238    1.154156    1.806350
     41          6           0       -2.982287    0.546302    1.128211
     42          1           0       -3.954074    0.426877    1.588169
     43          6           0       -1.541974    2.031500    2.662659
     44          1           0       -0.684673    1.836950    3.291558
     45          1           0       -2.009797    3.008004    2.712109
     46          6           0       -2.769776   -0.126345   -0.105964
     47          8           0       -1.658496   -0.472460   -0.565852
     48          8           0       -3.856939   -0.479859   -0.758471
     49          6           0       -3.687072   -1.290491   -1.932907
     50          1           0       -3.084915   -0.761841   -2.670110
     51          1           0       -3.203943   -2.231315   -1.673404
     52          1           0       -4.692163   -1.461699   -2.306200
 ---------------------------------------------------------------------

 SCF Done:  E(RHF) =  -1125.44564690     A.U. after    2 cycles

 The electronic state is 1-A.
 Alpha  occ. eigenvalues --  -69.01907 -20.65270 -20.61265 -11.43997 -11.34107
 Alpha  occ. eigenvalues --  -11.32015 -11.25886 -11.25832 -11.21149 -11.20570
 Alpha  occ. eigenvalues --  -11.20509 -11.20339 -11.20334 -11.20295 -11.20256
 Alpha  occ. eigenvalues --  -11.19148 -11.18964 -11.18836 -11.17584 -11.16269
 Alpha  occ. eigenvalues --   -7.57543  -6.77261  -3.87962  -3.87955  -3.87933
 Alpha  occ. eigenvalues --   -1.46906  -1.36985  -1.11842  -1.08421  -1.04299
 Alpha  occ. eigenvalues --   -1.01726  -1.01642  -0.97882  -0.95316  -0.92896
 Alpha  occ. eigenvalues --   -0.90380  -0.90068  -0.89509  -0.86577  -0.84524
 Alpha  occ. eigenvalues --   -0.80744  -0.77830  -0.76809  -0.75562  -0.72480
 Alpha  occ. eigenvalues --   -0.71036  -0.69521  -0.66766  -0.64470  -0.64052
 Alpha  occ. eigenvalues --   -0.62825  -0.62126  -0.61461  -0.60336  -0.58747
 Alpha  occ. eigenvalues --   -0.57617  -0.57169  -0.56716  -0.56134  -0.55676
 Alpha  occ. eigenvalues --   -0.55299  -0.55083  -0.54474  -0.53829  -0.52879
 Alpha  occ. eigenvalues --   -0.52594  -0.52293  -0.51680  -0.51259  -0.48224
 Alpha  occ. eigenvalues --   -0.47068  -0.47029  -0.46354  -0.45123  -0.44680
 Alpha  occ. eigenvalues --   -0.44093  -0.41913  -0.41614  -0.41152  -0.40378
 Alpha  occ. eigenvalues --   -0.39671  -0.38652  -0.35646  -0.31173
 Alpha virt. eigenvalues --    0.02453   0.03259   0.03578   0.03830   0.04580
 Alpha virt. eigenvalues --    0.04812   0.05003   0.05137   0.05430   0.06042
 Alpha virt. eigenvalues --    0.06370   0.06583   0.06866   0.07043   0.07224

 Mulliken charges:
               1
     1  C    0.620751
     2  C    0.017715
     3  C   -0.322426
     4  H   -0.088416
     5  C    0.447631
     6  H   -0.200737
     7  H   -0.207120
     8  H   -0.285980
     9  H   -0.397155
    10  H    0.115575
    11  C    0.791215
    12  H    0.071772
    13  H   -0.366427
    14  C    0.323985
    15  H   -0.256123
    16  H   -0.174337
    17  C    0.578453
    18  H   -0.096851
    19  C    0.425295
    20  H   -0.246091
    21  H    0.000496
    22  H   -0.179659
    23  H   -0.268109
    24  C    1.388912
    25  H   -0.330626
    26  Si  -0.791297
    27  C    1.176687
    28  H   -0.438772
    29  H   -0.500212
    30  H   -0.260377
    31  C    1.156362
    32  H   -0.217431
    33  H   -0.335439
    34  H   -0.468675
    35  C    0.942892
    36  H   -0.253641
    37  H   -0.483227
    38  H   -0.321208
    39  B   -0.548080
    40  C   -0.909474
    41  C    1.282129
    42  H   -0.524156
    43  C    1.351910
    44  H   -0.322397
    45  H   -0.231420
    46  C    0.077801
    47  O   -0.600203
    48  O   -0.659940
    49  C    1.050255
    50  H   -0.093572
    51  H   -0.097730
    52  H   -0.342529
 Sum of Mulliken charges =   0.00000

 Dipole moment (field-independent basis, Debye):
    X=             -3.7729    Y=              0.1825    Z=             -0.1586  Tot=              3.7807

 Test job not archived.
 1\1\GINC-SE097\SP\RHF\Aug-CC-pVDZ\C17H31B1O2Si1\OHZDE\09-Apr-2025\0\\#
 t hf aug-cc-pvdz iop(5/13=1,5/36=2,99/5=2) pseudo=read geom=check gues
 s=(read,tcheck) scf=(maxcycle=1)\\title\\0,1\C,0,0.128961,-3.00656,-0.
 081461\C,0,-0.113072,-1.870068,0.93147\C,0,2.190256,-0.596158,-0.69461
 \H,0,-0.550166,-2.880268,-0.933932\C,0,0.94396,-1.825309,2.05953\H,0,0
 .428518,-1.661501,3.011038\H,0,1.437439,-2.798035,2.161014\H,0,2.88065
 2,-0.02982,-1.328882\H,0,-1.072633,-2.108892,1.411099\H,0,-0.634328,0.
 371892,1.20187\C,0,1.996086,-0.717131,1.937285\H,0,1.48569,0.245742,2.

 Normal termination of Gaussian 16 at Wed Apr  9 02:03:16 2025.
