 Gaussian 16, Revision C.01,

 ----------------------------------------------------------------------
 #t hf aug-cc-pvdz symm=none int=(grid=ultrafine) guess=(read,tcheck) s
 table=(opt,rrhf)
 ----------------------------------------------------------------------
 -----
 title
 -----
 Symbolic Z-matrix:
 Charge =  0 Multiplicity = 1

 SCF Done:  E(RHF) =  -1566.58083720     A.U. after   14 cycles
 Normal termination of Gaussian 16 at Wed Apr  9 00:55:33 2025.
 Gaussian 16:  ES64L-G16RevC.01  3-Jul-2019

 ----------------------------------------------------------------------
 #t hf aug-cc-pvdz iop(5/13=1,5/36=2,99/5=2) pseudo=read geom=check gue
 ss=(read,tcheck) scf=(maxcycle=1)
 ----------------------------------------------------------------------
 -----
 title
 -----
 Structure from the checkpoint file:  "BH10_166_reverse_mol3.chk"
 Charge =  0 Multiplicity = 1

                         Standard orientation:
 ---------------------------------------------------------------------
 Center     Atomic      Atomic             Coordinates (Angstroms)
 Number     Number       Type             X           Y           Z
 ---------------------------------------------------------------------
      1          8           0        1.947460    0.120187    1.075988
      2          8           0        0.546123   -0.013160    1.288554
      3          6           0       -0.114264    0.006548    0.078736
      4         17           0       -1.812607   -0.112399    0.543284
      5         17           0        0.192837    1.505286   -0.823171
      6         17           0        0.354398   -1.398991   -0.931610
      7          1           0        2.248239   -0.791742    1.206695
 ---------------------------------------------------------------------

 SCF Done:  E(RHF) =  -1566.69739570     A.U. after    2 cycles

 The electronic state is 1-A.
 Alpha  occ. eigenvalues -- -103.70082-103.69703-103.69329 -20.70357 -20.68582
 Alpha  occ. eigenvalues --  -11.50810 -10.73454 -10.73065 -10.72698  -8.39179
 Alpha  occ. eigenvalues --   -8.38821  -8.38815  -8.38780  -8.38447  -8.38437
 Alpha  occ. eigenvalues --   -8.38420  -8.38067  -8.38066  -1.50796  -1.31106
 Alpha  occ. eigenvalues --   -1.21308  -1.17193  -1.16820  -0.88163  -0.79416
 Alpha  occ. eigenvalues --   -0.73956  -0.73397  -0.66760  -0.61530  -0.57144
 Alpha  occ. eigenvalues --   -0.54874  -0.52197  -0.51749  -0.51189  -0.48583
 Alpha  occ. eigenvalues --   -0.48317  -0.47088
 Alpha virt. eigenvalues --    0.03619   0.06393   0.08057   0.08474   0.09733
 Alpha virt. eigenvalues --    0.11868   0.12773   0.13579   0.13842   0.14536
 Alpha virt. eigenvalues --    0.15636   0.17027   0.18650   0.18946   0.19116

 Mulliken charges:
               1
     1  O   -0.177683
     2  O   -0.291625
     3  C   -0.167521
     4  Cl   0.152704
     5  Cl   0.148856
     6  Cl   0.104343
     7  H    0.230926
 Sum of Mulliken charges =  -0.00000

 Dipole moment (field-independent basis, Debye):
    X=              0.8828    Y=             -1.4241    Z=              0.1265  Tot=              1.6803

 Test job not archived.
 1\1\GINC-SE247\SP\RHF\Aug-CC-pVDZ\C1H1Cl3O2\OHZDE\09-Apr-2025\0\\#t hf
  aug-cc-pvdz iop(5/13=1,5/36=2,99/5=2) pseudo=read geom=check guess=(r
 ead,tcheck) scf=(maxcycle=1)\\title\\0,1\O,0,1.94746,0.120186,1.075988
 \O,0,0.546123,-0.01316,1.288554\C,0,-0.114264,0.006548,0.078736\Cl,0,-
 1.812607,-0.112398,0.543284\Cl,0,0.192837,1.505286,-0.823171\Cl,0,0.35
 4398,-1.398991,-0.93161\H,0,2.248239,-0.791743,1.206695\\Version=ES64L
 -G16RevC.01\State=1-A\HF=-1566.6973957\RMSD=2.792e-03\Dipole=0.3473054
 ,-0.5602968,0.0497705\Quadrupole=1.8577394,-0.0185553,-1.8391841,-2.87

 Normal termination of Gaussian 16 at Wed Apr  9 00:55:36 2025.
