 Gaussian 16, Revision C.01,

 ----------------------------------------------------------------------
 #t hf aug-cc-pvdz symm=none int=(grid=ultrafine) guess=(read,tcheck) s
 table=(opt,rrhf)
 ----------------------------------------------------------------------
 -----
 title
 -----
 Symbolic Z-matrix:
 Charge =  0 Multiplicity = 1

 SCF Done:  E(RHF) =  -1310.51841596     A.U. after   15 cycles
 Normal termination of Gaussian 16 at Wed Apr  9 02:06:51 2025.
 Gaussian 16:  ES64L-G16RevC.01  3-Jul-2019

 ----------------------------------------------------------------------
 #t hf aug-cc-pvdz iop(5/13=1,5/36=2,99/5=2) pseudo=read geom=check gue
 ss=(read,tcheck) scf=(maxcycle=1)
 ----------------------------------------------------------------------
 -----
 title
 -----
 Structure from the checkpoint file:  "BH10_88_reverse_mol2.chk"
 Charge =  0 Multiplicity = 1

                         Standard orientation:
 ---------------------------------------------------------------------
 Center     Atomic      Atomic             Coordinates (Angstroms)
 Number     Number       Type             X           Y           Z
 ---------------------------------------------------------------------
      1          6           0        0.178413   -0.823932   -0.251321
      2          6           0        0.500657   -0.272352    1.130337
      3          6           0       -0.564110   -2.225417   -0.101967
      4          8           0       -1.366366   -2.245085   -1.271389
      5          6           0       -1.602871   -2.057438    0.990328
      6          6           0       -2.559970   -1.317695    0.447685
      7          6           0       -2.113499   -1.063430   -0.978505
      8          6           0       -0.942530   -0.033538   -0.995351
      9          6           0       -1.204798    1.374631   -0.526340
     10          8           0       -2.427548    1.543859   -0.036993
     11          8           0       -0.417906    2.282477   -0.669853
     12          8           0       -0.130481    0.600147    1.670003
     13          8           0        1.488552   -0.938219    1.712770
     14          6           0        1.927608   -0.413504    2.970391
     15          6           0       -2.710640    2.842510    0.498822
     16         16           0        1.657913   -1.140659   -1.282432
     17          6           0        2.179990    0.504161   -1.853826
     18          6           0        2.969451    1.333536   -0.854407
     19          8           0        2.228455    1.668188    0.297614
     20          1           0        2.736767   -1.064048    3.290772
     21          1           0        1.113307   -0.423203    3.694574
     22          1           0        2.281880    0.606383    2.825380
     23          1           0       -3.737290    2.795994    0.851167
     24          1           0       -2.599565    3.604287   -0.271600
     25          1           0       -2.027689    3.050810    1.321518
     26          1           0        1.312237    1.062419   -2.209276
     27          1           0        2.806519    0.292878   -2.723904
     28          1           0        3.329212    2.238006   -1.363973
     29          1           0        3.839884    0.774028   -0.508613
     30          1           0        1.413353    2.117914    0.030295
     31          1           0       -3.433059   -0.891018    0.914570
     32          1           0       -1.497128   -2.382814    2.014391
     33          1           0        0.106321   -3.077919   -0.056420
     34          1           0       -2.881053   -0.889682   -1.726354
     35          1           0       -0.634177    0.060390   -2.035895
 ---------------------------------------------------------------------

 SCF Done:  E(RHF) =  -1310.81685641     A.U. after    2 cycles

 The electronic state is 1-A.
 Alpha  occ. eigenvalues --  -93.53080 -20.62740 -20.61535 -20.58565 -20.56457
 Alpha  occ. eigenvalues --  -20.55835 -20.55627 -11.40781 -11.39657 -11.32054
 Alpha  occ. eigenvalues --  -11.31435 -11.30679 -11.30093 -11.29041 -11.28463
 Alpha  occ. eigenvalues --  -11.27512 -11.26580 -11.25058 -11.24773  -8.82814
 Alpha  occ. eigenvalues --   -6.17044  -6.16795  -6.16485  -1.43783  -1.42800
 Alpha  occ. eigenvalues --   -1.38295  -1.33690  -1.32870  -1.31289  -1.12339
 Alpha  occ. eigenvalues --   -1.07353  -1.05177  -1.02951  -0.98333  -0.97595
 Alpha  occ. eigenvalues --   -0.92063  -0.87289  -0.83473  -0.81941  -0.79752
 Alpha  occ. eigenvalues --   -0.78079  -0.77310  -0.75399  -0.73117  -0.70992
 Alpha  occ. eigenvalues --   -0.70057  -0.69063  -0.68792  -0.68148  -0.66203
 Alpha  occ. eigenvalues --   -0.65376  -0.63499  -0.63121  -0.61056  -0.59437
 Alpha  occ. eigenvalues --   -0.59032  -0.57763  -0.57493  -0.56624  -0.55683
 Alpha  occ. eigenvalues --   -0.54855  -0.54575  -0.53753  -0.53062  -0.51901
 Alpha  occ. eigenvalues --   -0.50448  -0.49204  -0.48661  -0.47699  -0.47428
 Alpha  occ. eigenvalues --   -0.47195  -0.45589  -0.45090  -0.41958  -0.37147
 Alpha  occ. eigenvalues --   -0.34296
 Alpha virt. eigenvalues --    0.03078   0.03739   0.03934   0.04452   0.04825
 Alpha virt. eigenvalues --    0.05253   0.05286   0.05850   0.06349   0.06927
 Alpha virt. eigenvalues --    0.07273   0.07631   0.08008   0.08627   0.09639

 Mulliken charges:
               1
     1  C   -0.485969
     2  C    0.209362
     3  C    1.443977
     4  O   -0.905674
     5  C    0.761307
     6  C    0.891159
     7  C    0.961615
     8  C   -0.278314
     9  C    0.608532
    10  O   -0.648963
    11  O   -0.617047
    12  O   -0.511488
    13  O   -0.790813
    14  C    0.954275
    15  C    0.933155
    16  S    0.423035
    17  C    0.077790
    18  C    0.788271
    19  O   -0.597213
    20  H   -0.280585
    21  H   -0.105867
    22  H   -0.069782
    23  H   -0.275524
    24  H   -0.123494
    25  H   -0.077652
    26  H   -0.225241
    27  H   -0.101302
    28  H   -0.166500
    29  H   -0.212735
    30  H    0.249826
    31  H   -0.375287
    32  H   -0.420355
    33  H   -0.461946
    34  H   -0.342142
    35  H   -0.228411
 Sum of Mulliken charges =   0.00000

 Dipole moment (field-independent basis, Debye):
    X=             -1.4481    Y=              0.8904    Z=              0.6128  Tot=              1.8070

 Test job not archived.
 1\1\GINC-SE292\SP\RHF\Aug-CC-pVDZ\C12H16O6S1\OHZDE\09-Apr-2025\0\\#t h
 f aug-cc-pvdz iop(5/13=1,5/36=2,99/5=2) pseudo=read geom=check guess=(
 read,tcheck) scf=(maxcycle=1)\\title\\0,1\C,0,0.178413,-0.823932,-0.25
 1321\C,0,0.500657,-0.272352,1.130337\C,0,-0.56411,-2.225417,-0.101967\
 O,0,-1.366366,-2.245085,-1.271389\C,0,-1.602871,-2.057438,0.990328\C,0
 ,-2.55997,-1.317695,0.447685\C,0,-2.113499,-1.06343,-0.978505\C,0,-0.9
 4253,-0.033538,-0.995351\C,0,-1.204798,1.374631,-0.52634\O,0,-2.427548
 ,1.543859,-0.036993\O,0,-0.417906,2.282477,-0.669853\O,0,-0.130481,0.6

 Normal termination of Gaussian 16 at Wed Apr  9 02:08:02 2025.
