 Gaussian 16, Revision C.01,

 ----------------------------------------------------------------------
 #t hf aug-cc-pvdz symm=none int=(grid=ultrafine) guess=(read,tcheck) s
 table=opt
 ----------------------------------------------------------------------
 -----
 title
 -----
 Symbolic Z-matrix:
 Charge =  0 Multiplicity = 2

 SCF Done:  E(UHF) =  -1247.52047547     A.U. after   17 cycles
 Normal termination of Gaussian 16 at Wed Apr  9 01:10:31 2025.
 Gaussian 16:  ES64L-G16RevC.01  3-Jul-2019

 ----------------------------------------------------------------------
 #t hf aug-cc-pvdz iop(5/13=1,5/36=2,99/5=2) pseudo=read geom=check gue
 ss=(read,tcheck) scf=(maxcycle=1)
 ----------------------------------------------------------------------
 -----
 title
 -----
 Structure from the checkpoint file:  "BH10_182_reverse_mol2.chk"
 Charge =  0 Multiplicity = 2

                         Standard orientation:
 ---------------------------------------------------------------------
 Center     Atomic      Atomic             Coordinates (Angstroms)
 Number     Number       Type             X           Y           Z
 ---------------------------------------------------------------------
      1          7           0        0.482203    0.474211   -1.113904
      2         16           0        1.857344   -0.205343   -0.509921
      3          8           0        1.584742   -0.502944    1.046038
      4          6           0        1.101885   -1.794231    1.492577
      5          6           0       -0.412772   -1.882789    1.491167
      6          1           0        1.493444   -1.866211    2.505330
      7          1           0        1.555973   -2.570532    0.875815
      8          6           0       -1.039328   -2.047633    0.149695
      9          1           0       -0.824017   -1.007957    2.006021
     10          1           0       -0.674654   -2.746036    2.126765
     11          6           0       -2.510496   -1.908962   -0.024579
     12          1           0       -0.474768   -2.575991   -0.615661
     13          6           0        0.141331    1.855422   -0.870330
     14          1           0       -0.306114    2.284705   -1.768565
     15          6           0       -0.853734    2.045242    0.255139
     16          9           0       -1.973345    1.321595    0.032924
     17          9           0       -1.219358    3.332125    0.342732
     18          9           0       -0.378745    1.670664    1.446972
     19          8           0        2.856236    0.826409   -0.516780
     20          8           0        2.012086   -1.469403   -1.185878
     21          6           0       -2.939631   -1.710747   -1.476358
     22          1           0       -2.876871   -1.081104    0.591161
     23          1           0       -3.007344   -2.809348    0.373162
     24          1           0       -2.556324   -0.768913   -1.877197
     25          1           0       -4.026802   -1.684776   -1.566824
     26          1           0       -2.569352   -2.519978   -2.110097
     27          1           0        1.047268    2.414834   -0.639473
     28          1           0       -0.278373   -0.192441   -1.198921
 ---------------------------------------------------------------------

 SCF Done:  E(UHF) =  -1247.88821996     A.U. after    2 cycles

 The electronic state is 2-A.
 Alpha  occ. eigenvalues --  -93.85510 -26.17927 -26.17884 -26.17707 -20.63305
 Alpha  occ. eigenvalues --  -20.58088 -20.57771 -15.68653 -11.53591 -11.32878
 Alpha  occ. eigenvalues --  -11.31990 -11.25546 -11.25483 -11.24517 -11.23896
 Alpha  occ. eigenvalues --   -9.11176  -6.45873  -6.45773  -6.45712  -1.77677
 Alpha  occ. eigenvalues --   -1.70525  -1.70407  -1.48478  -1.35768  -1.33648
 Alpha  occ. eigenvalues --   -1.24128  -1.10745  -1.08459  -1.04147  -0.98471
 Alpha  occ. eigenvalues --   -0.95647  -0.89804  -0.89571  -0.88533  -0.84955
 Alpha  occ. eigenvalues --   -0.83507  -0.80335  -0.79277  -0.78891  -0.77594
 Alpha  occ. eigenvalues --   -0.74441  -0.74201  -0.73240  -0.72982  -0.71764
 Alpha  occ. eigenvalues --   -0.68272  -0.66491  -0.65024  -0.64744  -0.63635
 Alpha  occ. eigenvalues --   -0.61655  -0.60501  -0.59201  -0.57687  -0.56295
 Alpha  occ. eigenvalues --   -0.55275  -0.53787  -0.52962  -0.51759  -0.51677
 Alpha  occ. eigenvalues --   -0.51107  -0.49713  -0.49391  -0.45268  -0.35546
 Alpha virt. eigenvalues --    0.02959   0.03442   0.04093   0.04582   0.05386
 Alpha virt. eigenvalues --    0.05937   0.06321   0.06602   0.07381   0.08019
 Alpha virt. eigenvalues --    0.08710   0.09038   0.09150   0.10449   0.10933

  Beta  occ. eigenvalues --  -93.85511 -26.17925 -26.17884 -26.17707 -20.63316
  Beta  occ. eigenvalues --  -20.58085 -20.57769 -15.68570 -11.53590 -11.32880
  Beta  occ. eigenvalues --  -11.31939 -11.25830 -11.24829 -11.23836 -11.23066
  Beta  occ. eigenvalues --   -9.11177  -6.45873  -6.45770  -6.45715  -1.77676
  Beta  occ. eigenvalues --   -1.70526  -1.70404  -1.48472  -1.35777  -1.33641
  Beta  occ. eigenvalues --   -1.23962  -1.08496  -1.08144  -1.03973  -0.98306
  Beta  occ. eigenvalues --   -0.94125  -0.89725  -0.89563  -0.87850  -0.84898
  Beta  occ. eigenvalues --   -0.83179  -0.79290  -0.78889  -0.77791  -0.76816
  Beta  occ. eigenvalues --   -0.74433  -0.74147  -0.73182  -0.72975  -0.71564
  Beta  occ. eigenvalues --   -0.68125  -0.65908  -0.64635  -0.64054  -0.62412
  Beta  occ. eigenvalues --   -0.61376  -0.60316  -0.58543  -0.57006  -0.55379
  Beta  occ. eigenvalues --   -0.55003  -0.53515  -0.52880  -0.51634  -0.51281
  Beta  occ. eigenvalues --   -0.50450  -0.49253  -0.48863  -0.45020
  Beta virt. eigenvalues --    0.02943   0.03449   0.04099   0.04597   0.05387
  Beta virt. eigenvalues --    0.05911   0.06312   0.06476   0.07370   0.07892
  Beta virt. eigenvalues --    0.08706   0.08922   0.09163   0.09980   0.10723

 Mulliken charges and spin densities:
               1          2
     1  N   -0.616347   0.014529
     2  S    2.910798   0.002758
     3  O   -0.989968  -0.001150
     4  C    1.119997   0.014685
     5  C   -0.113600  -0.292323
     6  H   -0.228665  -0.001690
     7  H   -0.107647  -0.003122
     8  C    0.434404   1.587838
     9  H   -0.158392   0.015895
    10  H    0.000688   0.055292
    11  C    0.087709  -0.314233
    12  H   -0.667702  -0.152190
    13  C    0.389915   0.003519
    14  H   -0.120768   0.000168
    15  C    0.992823  -0.002149
    16  F   -0.321461   0.000924
    17  F   -0.309419   0.000008
    18  F   -0.318479   0.000028
    19  O   -0.933627   0.000105
    20  O   -0.998192   0.001899
    21  C    0.548579   0.023391
    22  H   -0.095257   0.008586
    23  H   -0.047151   0.055172
    24  H   -0.158568   0.005417
    25  H   -0.063587  -0.001341
    26  H   -0.045856  -0.002427
    27  H   -0.055130   0.000474
    28  H   -0.135097  -0.020064
 Sum of Mulliken charges =  -0.00000   1.00000

 Dipole moment (field-independent basis, Debye):
    X=             -3.8009    Y=             -1.4612    Z=              0.5408  Tot=              4.1078
                          Isotropic Fermi Contact Couplings
        Atom                 a.u.       MegaHertz       Gauss      10(-4) cm-1
     1  N(14)              0.01627       5.25788       1.87614       1.75384
     2  S(33)             -0.00033      -0.11323      -0.04040      -0.03777
     3  O(17)             -0.00169       1.02719       0.36653       0.34263
     4  C(13)              0.01202      13.51276       4.82169       4.50737
     5  C(13)             -0.06027     -67.75819     -24.17781     -22.60170
     6  H(1)              -0.00103      -4.60337      -1.64260      -1.53552
     7  H(1)              -0.00069      -3.08900      -1.10223      -1.03038
     8  C(13)              0.23136     260.09066      92.80681      86.75690

 Normal termination of Gaussian 16 at Wed Apr  9 01:11:12 2025.
