 Gaussian 16, Revision C.01,

 ----------------------------------------------------------------------
 #t hf aug-cc-pvdz symm=none int=(grid=ultrafine) guess=(read,tcheck) s
 table=(opt,rrhf)
 ----------------------------------------------------------------------
 -----
 title
 -----
 Symbolic Z-matrix:
 Charge =  0 Multiplicity = 1

 SCF Done:  E(RHF) =  -1749.92548691     A.U. after   16 cycles
 Normal termination of Gaussian 16 at Wed Apr  9 01:04:34 2025.
 Gaussian 16:  ES64L-G16RevC.01  3-Jul-2019

 ----------------------------------------------------------------------
 #t hf aug-cc-pvdz iop(5/13=1,5/36=2,99/5=2) pseudo=read geom=check gue
 ss=(read,tcheck) scf=(maxcycle=1)
 ----------------------------------------------------------------------
 -----
 title
 -----
 Structure from the checkpoint file:  "BH10_277_forward_mol1.chk"
 Charge =  0 Multiplicity = 1

                         Standard orientation:
 ---------------------------------------------------------------------
 Center     Atomic      Atomic             Coordinates (Angstroms)
 Number     Number       Type             X           Y           Z
 ---------------------------------------------------------------------
      1          6           0       -3.379036    1.443455   -0.355572
      2          6           0       -2.208331    0.717348   -0.484397
      3          6           0       -2.168254   -0.622335   -0.093495
      4          6           0       -3.313915   -1.211878    0.435420
      5          6           0       -4.488861   -0.484025    0.555869
      6          6           0       -4.522990    0.844427    0.160599
      7          1           0       -3.399241    2.483728   -0.655453
      8          1           0       -1.320287    1.204618   -0.870725
      9          1           0       -3.286833   -2.249252    0.749288
     10          1           0       -5.374834   -0.954660    0.963432
     11          1           0       -5.436795    1.417200    0.259340
     12          6           0       -0.958127   -1.449403   -0.241622
     13          6           0        0.144624   -1.138828   -1.075207
     14          6           0        0.525038   -0.783440    0.405319
     15          1           0       -1.040973   -2.464953    0.124215
     16          1           0        0.096158   -0.273703   -1.722673
     17          1           0        0.773994   -1.940261   -1.438401
     18          1           0        0.074897    0.054542    0.916919
     19          1           0        0.890633   -1.578797    1.038969
     20          5           0        2.123351    0.136040    0.119655
     21         17           0        2.654863    0.475824    1.830402
     22         17           0        1.710213    1.659005   -0.811531
     23         17           0        3.259961   -0.974275   -0.772087
 ---------------------------------------------------------------------

 SCF Done:  E(RHF) =  -1750.08514034     A.U. after    2 cycles

 The electronic state is 1-A.
 Alpha  occ. eigenvalues -- -103.63020-103.62850-103.62548 -11.34429 -11.30840
 Alpha  occ. eigenvalues --  -11.28945 -11.28130 -11.27945 -11.27508 -11.27412
 Alpha  occ. eigenvalues --  -11.27241 -11.27165 -10.66493 -10.66326 -10.66018
 Alpha  occ. eigenvalues --   -8.32185  -8.32020  -8.31981  -8.31961  -8.31808
 Alpha  occ. eigenvalues --   -8.31792  -8.31714  -8.31492  -8.31480  -7.74450
 Alpha  occ. eigenvalues --   -1.20839  -1.16882  -1.14956  -1.10507  -1.10212
 Alpha  occ. eigenvalues --   -1.05383  -1.04429  -0.92186  -0.89584  -0.86571
 Alpha  occ. eigenvalues --   -0.82463  -0.75552  -0.72128  -0.68995  -0.66286
 Alpha  occ. eigenvalues --   -0.66084  -0.64474  -0.62343  -0.60703  -0.58562
 Alpha  occ. eigenvalues --   -0.58045  -0.55268  -0.54148  -0.54116  -0.53253
 Alpha  occ. eigenvalues --   -0.52537  -0.51035  -0.46206  -0.46067  -0.43734
 Alpha  occ. eigenvalues --   -0.43536  -0.42632  -0.42177  -0.37250  -0.35369
 Alpha virt. eigenvalues --    0.01924   0.02773   0.03567   0.03639   0.04764
 Alpha virt. eigenvalues --    0.04952   0.05570   0.06615   0.07119   0.07206
 Alpha virt. eigenvalues --    0.07571   0.07787   0.08628   0.09233   0.09711

 Mulliken charges:
               1
     1  C    0.118664
     2  C    0.539107
     3  C    0.742466
     4  C    0.493015
     5  C    0.475241
     6  C    0.637025
     7  H   -0.464193
     8  H   -0.717051
     9  H   -0.581399
    10  H   -0.441621
    11  H   -0.435674
    12  C    0.903344
    13  C    0.752874
    14  C    0.312170
    15  H   -0.571878
    16  H   -0.382942
    17  H   -0.241953
    18  H   -0.456275
    19  H   -0.347432
    20  B    1.127508
    21  Cl  -0.471872
    22  Cl  -0.499078
    23  Cl  -0.490047
 Sum of Mulliken charges =  -0.00000

 Dipole moment (field-independent basis, Debye):
    X=             -8.0528    Y=             -3.1376    Z=             -0.5900  Tot=              8.6626

 Test job not archived.
 1\1\GINC-SE363\SP\RHF\Aug-CC-pVDZ\C9H10B1Cl3\OHZDE\09-Apr-2025\0\\#t h
 f aug-cc-pvdz iop(5/13=1,5/36=2,99/5=2) pseudo=read geom=check guess=(
 read,tcheck) scf=(maxcycle=1)\\title\\0,1\C,0,-3.379036,1.443455,-0.35
 5572\C,0,-2.208331,0.717348,-0.484397\C,0,-2.168254,-0.622335,-0.09349
 5\C,0,-3.313915,-1.211878,0.43542\C,0,-4.488861,-0.484025,0.555869\C,0
 ,-4.52299,0.844427,0.160599\H,0,-3.399241,2.483728,-0.655453\H,0,-1.32
 0287,1.204618,-0.870725\H,0,-3.286833,-2.249252,0.749288\H,0,-5.374834
 ,-0.95466,0.963432\H,0,-5.436795,1.4172,0.25934\C,0,-0.958127,-1.44940

 Normal termination of Gaussian 16 at Wed Apr  9 01:04:56 2025.
