 Gaussian 16, Revision C.01,

 ----------------------------------------------------------------------
 #t hf aug-cc-pvdz symm=none int=(grid=ultrafine) guess=(read,tcheck) s
 table=(opt,rrhf)
 ----------------------------------------------------------------------
 -----
 title
 -----
 Symbolic Z-matrix:
 Charge =  0 Multiplicity = 1

 SCF Done:  E(RHF) =  -614.646163018     A.U. after   14 cycles
 Normal termination of Gaussian 16 at Wed Apr  9 00:53:04 2025.
 Gaussian 16:  ES64L-G16RevC.01  3-Jul-2019

 ----------------------------------------------------------------------
 #t hf aug-cc-pvdz iop(5/13=1,5/36=2,99/5=2) pseudo=read geom=check gue
 ss=(read,tcheck) scf=(maxcycle=1)
 ----------------------------------------------------------------------
 -----
 title
 -----
 Structure from the checkpoint file:  "BH10-RE_127_mol2.chk"
 Charge =  0 Multiplicity = 1

                         Standard orientation:
 ---------------------------------------------------------------------
 Center     Atomic      Atomic             Coordinates (Angstroms)
 Number     Number       Type             X           Y           Z
 ---------------------------------------------------------------------
      1         16           0        1.408561   -0.519481   -0.164514
      2          6           0       -0.300181   -0.594014    0.379620
      3          6           0       -1.266297    0.265291   -0.424372
      4          6           0       -2.693944    0.151790    0.099656
      5          1           0       -3.373899    0.775523   -0.483053
      6          1           0       -2.760173    0.473564    1.141984
      7          1           0       -3.057845   -0.877677    0.044881
      8          1           0       -0.934048    1.304778   -0.378255
      9          1           0       -1.221216   -0.033405   -1.474649
     10          1           0       -0.540850   -1.659893    0.283108
     11          1           0       -0.336140   -0.352400    1.444356
     12          9           0        1.694414    1.082534    0.191603
 ---------------------------------------------------------------------

 SCF Done:  E(RHF) =  -614.743708692     A.U. after    2 cycles

 The electronic state is 1-A.
 Alpha  occ. eigenvalues --  -93.61091 -26.11988 -11.28303 -11.24592 -11.23673
 Alpha  occ. eigenvalues --   -8.90009  -6.24223  -6.23829  -6.23412  -1.63297
 Alpha  occ. eigenvalues --   -1.09240  -1.00060  -0.88957  -0.82152  -0.72843
 Alpha  occ. eigenvalues --   -0.72597  -0.68748  -0.64794  -0.59489  -0.56530
 Alpha  occ. eigenvalues --   -0.56119  -0.50857  -0.49394  -0.46745  -0.36925
 Alpha virt. eigenvalues --    0.03354   0.04428   0.04773   0.05653   0.06807
 Alpha virt. eigenvalues --    0.07328   0.07677   0.08416   0.09733   0.11660
 Alpha virt. eigenvalues --    0.13000   0.14780   0.15408   0.15903   0.16552

 Mulliken charges:
               1
     1  S    0.862710
     2  C   -0.205508
     3  C    0.079514
     4  C    0.326512
     5  H   -0.080411
     6  H   -0.058624
     7  H   -0.062803
     8  H   -0.057656
     9  H   -0.075221
    10  H   -0.010896
    11  H   -0.078551
    12  F   -0.639066
 Sum of Mulliken charges =  -0.00000

 Dipole moment (field-independent basis, Debye):
    X=             -2.4678    Y=             -1.7176    Z=              0.0754  Tot=              3.0076

 Test job not archived.
 1\1\GINC-SE220\SP\RHF\Aug-CC-pVDZ\C3H7F1S1\OHZDE\09-Apr-2025\0\\#t hf
 aug-cc-pvdz iop(5/13=1,5/36=2,99/5=2) pseudo=read geom=check guess=(re
 ad,tcheck) scf=(maxcycle=1)\\title\\0,1\S,0,1.408561,-0.519481,-0.1645
 14\C,0,-0.300181,-0.594014,0.37962\C,0,-1.266297,0.265291,-0.424372\C,
 0,-2.693944,0.15179,0.099656\H,0,-3.373899,0.775523,-0.483053\H,0,-2.7
 60173,0.473564,1.141984\H,0,-3.057845,-0.877677,0.044881\H,0,-0.934048
 ,1.304778,-0.378255\H,0,-1.221216,-0.033405,-1.474649\H,0,-0.54085,-1.
 659893,0.283108\H,0,-0.33614,-0.3524,1.444356\F,0,1.694414,1.082534,0.

 Normal termination of Gaussian 16 at Wed Apr  9 00:53:08 2025.
