 Gaussian 16, Revision C.01,

 ----------------------------------------------------------------------
 #t hf aug-cc-pvdz symm=none int=(grid=ultrafine) guess=(read,tcheck) s
 table=(opt,rrhf)
 ----------------------------------------------------------------------
 -----
 title
 -----
 Symbolic Z-matrix:
 Charge =  0 Multiplicity = 1

 SCF Done:  E(RHF) =  -678.961083227     A.U. after   15 cycles
 Normal termination of Gaussian 16 at Wed Apr  9 01:17:13 2025.
 Gaussian 16:  ES64L-G16RevC.01  3-Jul-2019

 ----------------------------------------------------------------------
 #t hf aug-cc-pvdz iop(5/13=1,5/36=2,99/5=2) pseudo=read geom=check gue
 ss=(read,tcheck) scf=(maxcycle=1)
 ----------------------------------------------------------------------
 -----
 title
 -----
 Structure from the checkpoint file:  "BH10_284_forward_mol1.chk"
 Charge =  0 Multiplicity = 1

                         Standard orientation:
 ---------------------------------------------------------------------
 Center     Atomic      Atomic             Coordinates (Angstroms)
 Number     Number       Type             X           Y           Z
 ---------------------------------------------------------------------
      1          6           0       -0.569558   -0.961519    0.916453
      2          1           0        0.195540   -1.499377    1.489716
      3          5           0        0.032560   -0.063096   -0.236416
      4          6           0       -1.326339   -0.058512    1.908381
      5          1           0       -0.580697    0.549949    2.432772
      6          1           0       -1.817390   -0.667348    2.676227
      7          6           0       -1.445844   -2.025285    0.213301
      8          1           0       -0.774874   -2.700462   -0.330927
      9          6           0        1.537714    3.462684   -0.063551
     10          1           0        1.624711    3.705414    0.989806
     11          1           0        1.446427    4.288715   -0.756398
     12          6           0        1.541232    2.204636   -0.493626
     13          6           0        1.683992    1.035997    0.378368
     14          1           0        1.451011    2.004329   -1.555358
     15          1           0       -1.960819   -2.643092    0.957879
     16          1           0        2.024649    1.226121    1.390766
     17          6           0        1.977113   -0.224357   -0.127393
     18          8           0        1.171341   -0.679548   -1.050102
     19          8           0        2.831962   -1.036402    0.455054
     20          6           0        2.786305   -2.429035    0.098079
     21          1           0        1.785853   -2.828360    0.254856
     22          1           0        3.076716   -2.560455   -0.942749
     23          1           0        3.501085   -2.913993    0.756507
     24          6           0       -2.475532   -1.465694   -0.781617
     25          1           0       -2.845729   -2.287225   -1.402493
     26          1           0       -3.346364   -1.096596   -0.240951
     27          6           0       -1.091532    0.733077   -0.993187
     28          1           0       -0.704726    1.390320   -1.775719
     29          6           0       -1.930875   -0.360609   -1.699851
     30          1           0       -1.297440   -0.821568   -2.466229
     31          1           0       -2.765814    0.104582   -2.235712
     32          6           0       -1.876017    1.601858    0.007688
     33          1           0       -2.735150    2.064408   -0.491544
     34          1           0       -1.220030    2.425042    0.306837
     35          6           0       -2.363369    0.878845    1.273138
     36          1           0       -2.656414    1.629554    2.013467
     37          1           0       -3.273506    0.320614    1.054623
 ---------------------------------------------------------------------

 SCF Done:  E(RHF) =  -679.167715506     A.U. after    2 cycles

 The electronic state is 1-A.
 Alpha  occ. eigenvalues --  -20.64346 -20.60258 -11.41948 -11.31505 -11.25317
 Alpha  occ. eigenvalues --  -11.24033 -11.22178 -11.21894 -11.21634 -11.21485
 Alpha  occ. eigenvalues --  -11.21414 -11.21093 -11.20957 -11.19494 -11.19099
 Alpha  occ. eigenvalues --   -7.62109  -1.45443  -1.36438  -1.09654  -1.08579
 Alpha  occ. eigenvalues --   -1.02347  -1.02179  -1.00880  -0.95490  -0.91883
 Alpha  occ. eigenvalues --   -0.90124  -0.82914  -0.79142  -0.78301  -0.77105
 Alpha  occ. eigenvalues --   -0.74633  -0.74463  -0.71165  -0.71141  -0.66770
 Alpha  occ. eigenvalues --   -0.64220  -0.63028  -0.62722  -0.61148  -0.58768
 Alpha  occ. eigenvalues --   -0.58109  -0.57604  -0.56898  -0.55877  -0.55113
 Alpha  occ. eigenvalues --   -0.54436  -0.53477  -0.52495  -0.50572  -0.49801
 Alpha  occ. eigenvalues --   -0.49301  -0.47586  -0.46521  -0.46048  -0.45048
 Alpha  occ. eigenvalues --   -0.43764  -0.41307  -0.40687  -0.37507  -0.30957
 Alpha virt. eigenvalues --    0.02785   0.03713   0.04048   0.04234   0.05266
 Alpha virt. eigenvalues --    0.05318   0.05433   0.05561   0.06083   0.07094
 Alpha virt. eigenvalues --    0.07292   0.07463   0.07881   0.08012   0.08162

 Mulliken charges:
               1
     1  C   -0.057277
     2  H   -0.452317
     3  B   -0.013961
     4  C    0.743830
     5  H   -0.035714
     6  H   -0.197138
     7  C    0.430608
     8  H   -0.111477
     9  C    0.913933
    10  H   -0.414922
    11  H   -0.393882
    12  C    0.350184
    13  C    1.361150
    14  H   -0.547754
    15  H   -0.191465
    16  H   -0.625298
    17  C    0.294673
    18  O   -0.886670
    19  O   -0.699957
    20  C    0.888660
    21  H   -0.211393
    22  H   -0.068560
    23  H   -0.234540
    24  C    0.219761
    25  H   -0.158802
    26  H   -0.100771
    27  C   -0.329981
    28  H   -0.336108
    29  C    0.680545
    30  H   -0.036164
    31  H   -0.196114
    32  C    0.671944
    33  H   -0.192350
    34  H   -0.044557
    35  C    0.248273
    36  H   -0.174199
    37  H   -0.092192
 Sum of Mulliken charges =  -0.00000

 Dipole moment (field-independent basis, Debye):
    X=              1.3334    Y=             -1.7653    Z=              0.3824  Tot=              2.2451

 Test job not archived.
 1\1\GINC-SE112\SP\RHF\Aug-CC-pVDZ\C13H21B1O2\OHZDE\09-Apr-2025\0\\#t h
 f aug-cc-pvdz iop(5/13=1,5/36=2,99/5=2) pseudo=read geom=check guess=(
 read,tcheck) scf=(maxcycle=1)\\title\\0,1\C,0,-0.569558,-0.961519,0.91
 6453\H,0,0.19554,-1.499377,1.489716\B,0,0.03256,-0.063096,-0.236416\C,
 0,-1.326339,-0.058512,1.908381\H,0,-0.580697,0.549949,2.432772\H,0,-1.
 81739,-0.667349,2.676227\C,0,-1.445843,-2.025285,0.213301\H,0,-0.77487
 3,-2.700462,-0.330927\C,0,1.537713,3.462684,-0.063551\H,0,1.62471,3.70
 5414,0.989806\H,0,1.446426,4.288715,-0.756398\C,0,1.541231,2.204636,-0

 Normal termination of Gaussian 16 at Wed Apr  9 01:18:20 2025.
