 Gaussian 16, Revision C.01,

 ----------------------------------------------------------------------
 #t hf aug-cc-pvdz symm=none int=(grid=ultrafine) guess=(read,tcheck) s
 table=(opt,rrhf)
 ----------------------------------------------------------------------
 -----
 title
 -----
 Symbolic Z-matrix:
 Charge =  0 Multiplicity = 1

 SCF Done:  E(RHF) =  -1087.17984028     A.U. after   15 cycles
 Normal termination of Gaussian 16 at Wed Apr  9 00:56:31 2025.
 Gaussian 16:  ES64L-G16RevC.01  3-Jul-2019

 ----------------------------------------------------------------------
 #t hf aug-cc-pvdz iop(5/13=1,5/36=2,99/5=2) pseudo=read geom=check gue
 ss=(read,tcheck) scf=(maxcycle=1)
 ----------------------------------------------------------------------
 -----
 title
 -----
 Structure from the checkpoint file:  "BH10_172_reverse_mol3.chk"
 Charge =  0 Multiplicity = 1

                         Standard orientation:
 ---------------------------------------------------------------------
 Center     Atomic      Atomic             Coordinates (Angstroms)
 Number     Number       Type             X           Y           Z
 ---------------------------------------------------------------------
      1          6           0        1.392626    0.000993   -0.000254
      2          6           0        0.706547    1.203472   -0.002816
      3          6           0       -0.679594    1.199832   -0.007145
      4          6           0       -1.381727   -0.001272    0.005564
      5          6           0       -0.676549   -1.201534    0.010568
      6          6           0        0.708770   -1.203402    0.004210
      7         16           0       -3.156021   -0.078807   -0.018036
      8          1           0        1.251133    2.138280   -0.007590
      9          1           0       -1.209127    2.144470   -0.020720
     10          1           0       -1.209832   -2.144260    0.025794
     11          1           0        1.255226   -2.137056    0.008471
     12         17           0        3.138984    0.002952   -0.000913
     13          1           0       -3.374229    1.220754    0.237376
 ---------------------------------------------------------------------

 SCF Done:  E(RHF) =  -1087.28654384     A.U. after    2 cycles

 The electronic state is 1-A.
 Alpha  occ. eigenvalues -- -103.66985 -93.55814 -11.31519 -11.29807 -11.26951
 Alpha  occ. eigenvalues --  -11.26897 -11.26759 -11.26605 -10.70276  -8.85602
 Alpha  occ. eigenvalues --   -8.36015  -8.35707  -8.35689  -6.19811  -6.19608
 Alpha  occ. eigenvalues --   -6.19186  -1.20835  -1.15264  -1.04912  -1.04048
 Alpha  occ. eigenvalues --   -0.94368  -0.86515  -0.81894  -0.70505  -0.67800
 Alpha  occ. eigenvalues --   -0.65703  -0.61952  -0.59101  -0.56414  -0.54472
 Alpha  occ. eigenvalues --   -0.52944  -0.49969  -0.48088  -0.47182  -0.41609
 Alpha  occ. eigenvalues --   -0.36769  -0.31860
 Alpha virt. eigenvalues --    0.03310   0.03998   0.04630   0.05964   0.06730
 Alpha virt. eigenvalues --    0.07778   0.08564   0.09433   0.10074   0.10849
 Alpha virt. eigenvalues --    0.12087   0.12423   0.13054   0.13408   0.13604

 Mulliken charges:
               1
     1  C   -0.548061
     2  C    0.743583
     3  C    0.818442
     4  C    0.052217
     5  C    0.265758
     6  C    0.694265
     7  S    0.279587
     8  H   -0.431000
     9  H   -0.596325
    10  H   -0.494976
    11  H   -0.438455
    12  Cl  -0.361865
    13  H    0.016829
 Sum of Mulliken charges =  -0.00000

 Dipole moment (field-independent basis, Debye):
    X=             -1.1341    Y=              0.7725    Z=              0.1573  Tot=              1.3812

 Test job not archived.
 1\1\GINC-SE362\SP\RHF\Aug-CC-pVDZ\C6H5Cl1S1\OHZDE\09-Apr-2025\0\\#t hf
  aug-cc-pvdz iop(5/13=1,5/36=2,99/5=2) pseudo=read geom=check guess=(r
 ead,tcheck) scf=(maxcycle=1)\\title\\0,1\C,0,1.392626,0.000993,-0.0002
 54\C,0,0.706547,1.203472,-0.002816\C,0,-0.679594,1.199832,-0.007145\C,
 0,-1.381727,-0.001272,0.005564\C,0,-0.676549,-1.201534,0.010568\C,0,0.
 70877,-1.203402,0.00421\S,0,-3.156021,-0.078807,-0.018036\H,0,1.251133
 ,2.13828,-0.00759\H,0,-1.209127,2.14447,-0.02072\H,0,-1.209832,-2.1442
 6,0.025794\H,0,1.255226,-2.137056,0.008471\Cl,0,3.138984,0.002952,-0.0

 Normal termination of Gaussian 16 at Wed Apr  9 00:56:36 2025.
