 Gaussian 16, Revision C.01,

 ----------------------------------------------------------------------
 #t hf aug-cc-pvdz symm=none int=(grid=ultrafine) guess=(read,tcheck) s
 table=(opt,rrhf)
 ----------------------------------------------------------------------
 -----
 title
 -----
 Symbolic Z-matrix:
 Charge =  0 Multiplicity = 1

 SCF Done:  E(RHF) =  -1437.75244194     A.U. after   14 cycles
 Normal termination of Gaussian 16 at Wed Apr  9 01:18:12 2025.
 Gaussian 16:  ES64L-G16RevC.01  3-Jul-2019

 ----------------------------------------------------------------------
 #t hf aug-cc-pvdz iop(5/13=1,5/36=2,99/5=2) pseudo=read geom=check gue
 ss=(read,tcheck) scf=(maxcycle=1)
 ----------------------------------------------------------------------
 -----
 title
 -----
 Structure from the checkpoint file:  "BH10_327_reverse_mol2.chk"
 Charge =  0 Multiplicity = 1

                         Standard orientation:
 ---------------------------------------------------------------------
 Center     Atomic      Atomic             Coordinates (Angstroms)
 Number     Number       Type             X           Y           Z
 ---------------------------------------------------------------------
      1         16           0       -1.400889    1.532448    0.529859
      2          6           0       -2.370379    0.591278   -0.719603
      3         16           0        0.152158    2.361155   -0.562498
      4          6           0        1.270748    0.951326   -0.865209
      5          6           0        1.707345    0.189036    0.383061
      6          1           0        2.135228    1.402396   -1.361765
      7          1           0        0.800109    0.267697   -1.566571
      8          6           0       -2.634837   -0.849945   -0.264806
      9          1           0       -1.817608    0.610871   -1.656024
     10          1           0       -3.327703    1.092637   -0.847077
     11          7           0        2.530224    1.007061    1.271008
     12          6           0        2.510123   -1.032630   -0.077480
     13          1           0        0.820114   -0.196950    0.890032
     14          8           0        2.018490   -1.940779   -0.706650
     15          8           0        3.786575   -0.999353    0.244619
     16          7           0       -3.482180   -0.869623    0.909424
     17          6           0       -1.312000   -1.584935   -0.067021
     18          1           0       -3.162564   -1.337539   -1.089328
     19          8           0       -0.915519   -1.971669    1.002315
     20          8           0       -0.624288   -1.696033   -1.200289
     21          1           0        0.295753   -2.008977   -1.009481
     22          1           0        3.899585   -0.159732    0.750706
     23          1           0       -3.920923   -1.775274    1.020289
     24          1           0       -2.921036   -0.722801    1.742806
     25          1           0        2.294545    0.850139    2.243633
     26          1           0        2.399814    1.995711    1.088355
 ---------------------------------------------------------------------

 SCF Done:  E(RHF) =  -1437.98956016     A.U. after    2 cycles

 The electronic state is 1-A.
 Alpha  occ. eigenvalues --  -93.57677 -93.56954 -20.63120 -20.61280 -20.57627
 Alpha  occ. eigenvalues --  -20.56428 -15.65577 -15.61982 -11.41278 -11.39541
 Alpha  occ. eigenvalues --  -11.31403 -11.30111 -11.30046 -11.28857  -8.87225
 Alpha  occ. eigenvalues --   -8.86546  -6.21370  -6.21122  -6.20810  -6.20718
 Alpha  occ. eigenvalues --   -6.20416  -6.20170  -1.44221  -1.42487  -1.34910
 Alpha  occ. eigenvalues --   -1.32651  -1.20890  -1.18377  -1.09151  -1.04831
 Alpha  occ. eigenvalues --   -0.99353  -0.94209  -0.89593  -0.84611  -0.81986
 Alpha  occ. eigenvalues --   -0.78427  -0.75550  -0.72845  -0.72554  -0.71825
 Alpha  occ. eigenvalues --   -0.70319  -0.68946  -0.67056  -0.65614  -0.64153
 Alpha  occ. eigenvalues --   -0.62274  -0.60975  -0.60003  -0.58746  -0.57809
 Alpha  occ. eigenvalues --   -0.56773  -0.55857  -0.52867  -0.51245  -0.50707
 Alpha  occ. eigenvalues --   -0.50109  -0.48639  -0.47095  -0.45144  -0.43880
 Alpha  occ. eigenvalues --   -0.41375  -0.38558  -0.36057
 Alpha virt. eigenvalues --    0.02783   0.03524   0.03836   0.04936   0.05129
 Alpha virt. eigenvalues --    0.05569   0.05904   0.07460   0.07740   0.07918
 Alpha virt. eigenvalues --    0.08519   0.09371   0.09673   0.10310   0.11134

 Mulliken charges:
               1
     1  S    0.084267
     2  C    0.230583
     3  S    0.163538
     4  C    0.393326
     5  C    0.523187
     6  H   -0.009702
     7  H   -0.289201
     8  C    0.509814
     9  H   -0.140360
    10  H   -0.094215
    11  N   -0.616031
    12  C    0.521610
    13  H   -0.183726
    14  O   -0.541650
    15  O   -0.470859
    16  N   -0.353791
    17  C    0.555516
    18  H   -0.008932
    19  O   -0.544127
    20  O   -0.550773
    21  H    0.268030
    22  H    0.288785
    23  H   -0.007452
    24  H    0.060411
    25  H    0.067308
    26  H    0.144447
 Sum of Mulliken charges =  -0.00000

 Dipole moment (field-independent basis, Debye):
    X=             -0.2449    Y=              2.9853    Z=              0.2189  Tot=              3.0034

 Test job not archived.
 1\1\GINC-SE071\SP\RHF\Aug-CC-pVDZ\C6H12N2O4S2\OHZDE\09-Apr-2025\0\\#t
 hf aug-cc-pvdz iop(5/13=1,5/36=2,99/5=2) pseudo=read geom=check guess=
 (read,tcheck) scf=(maxcycle=1)\\title\\0,1\S,0,-1.400889,1.532448,0.52
 9859\C,0,-2.370379,0.591278,-0.719603\S,0,0.152158,2.361155,-0.562498\
 C,0,1.270748,0.951326,-0.865209\C,0,1.707345,0.189036,0.383061\H,0,2.1
 35228,1.402396,-1.361765\H,0,0.800109,0.267697,-1.566571\C,0,-2.634837
 ,-0.849945,-0.264806\H,0,-1.817608,0.610871,-1.656024\H,0,-3.327703,1.
 092637,-0.847077\N,0,2.530224,1.007061,1.271008\C,0,2.510123,-1.03263,

 Normal termination of Gaussian 16 at Wed Apr  9 01:18:41 2025.
