 Gaussian 16, Revision C.01,

 ----------------------------------------------------------------------
 #t hf aug-cc-pvdz symm=none int=(grid=ultrafine) guess=(read,tcheck) s
 table=(opt,rrhf)
 ----------------------------------------------------------------------
 -----
 title
 -----
 Symbolic Z-matrix:
 Charge =  0 Multiplicity = 1

 SCF Done:  E(RHF) =  -652.885402935     A.U. after   14 cycles

 1\1\GINC-SE184\Stability\RHF\Aug-CC-pVDZ\C5H7Cl1\OHZDE\09-Apr-2025\0\\
 #t hf aug-cc-pvdz symm=none int=(grid=ultrafine) guess=(read,tcheck) s
 table=(opt,rrhf)\\title\\0,1\C,0,0.467353,0.363625,-0.295774\C,0,-0.70
 6433,0.185539,0.615292\C,0,-1.910357,-0.050217,0.183904\C,0,1.188485,1
 .679834,-0.08106\H,0,-0.519117,0.271093,1.682191\H,0,1.53008,1.769066,
 0.951505\H,0,0.504027,2.504522,-0.292786\H,0,2.052702,1.761805,-0.7401
 43\C,0,-3.108564,-0.286996,-0.256468\H,0,-3.463153,-1.302897,-0.390869
 \H,0,-3.788966,0.521509,-0.499267\Cl,0,1.64398,-1.007616,-0.022058\H,0

 Normal termination of Gaussian 16 at Wed Apr  9 00:52:47 2025.
 Gaussian 16:  ES64L-G16RevC.01  3-Jul-2019

 ----------------------------------------------------------------------
 #t hf aug-cc-pvdz iop(5/13=1,5/36=2,99/5=2) pseudo=read geom=check gue
 ss=(read,tcheck) scf=(maxcycle=1)
 ----------------------------------------------------------------------
 -----
 title
 -----
 Structure from the checkpoint file:  "BH10-RE_123_mol2.chk"
 Charge =  0 Multiplicity = 1

                         Standard orientation:
 ---------------------------------------------------------------------
 Center     Atomic      Atomic             Coordinates (Angstroms)
 Number     Number       Type             X           Y           Z
 ---------------------------------------------------------------------
      1          6           0        0.467353    0.363625   -0.295774
      2          6           0       -0.706433    0.185539    0.615292
      3          6           0       -1.910357   -0.050217    0.183904
      4          6           0        1.188485    1.679834   -0.081060
      5          1           0       -0.519117    0.271093    1.682191
      6          1           0        1.530080    1.769066    0.951505
      7          1           0        0.504027    2.504522   -0.292786
      8          1           0        2.052702    1.761805   -0.740143
      9          6           0       -3.108564   -0.286996   -0.256468
     10          1           0       -3.463153   -1.302897   -0.390869
     11          1           0       -3.788966    0.521509   -0.499267
     12         17           0        1.643980   -1.007616   -0.022058
     13          1           0        0.153862    0.253673   -1.331015
 ---------------------------------------------------------------------

 SCF Done:  E(RHF) =  -652.965077918     A.U. after    2 cycles

 The electronic state is 1-A.
 Alpha  occ. eigenvalues -- -103.64268 -11.31963 -11.27839 -11.26293 -11.25851
 Alpha  occ. eigenvalues --  -11.24562 -10.67570  -8.33278  -8.33001  -8.32996
 Alpha  occ. eigenvalues --   -1.16990  -1.08636  -1.02237  -0.96399  -0.83477
 Alpha  occ. eigenvalues --   -0.73717  -0.66732  -0.62752  -0.62234  -0.60205
 Alpha  occ. eigenvalues --   -0.57562  -0.53786  -0.51693  -0.45105  -0.44280
 Alpha  occ. eigenvalues --   -0.39239  -0.38109
 Alpha virt. eigenvalues --    0.03340   0.04210   0.04685   0.05060   0.06327
 Alpha virt. eigenvalues --    0.06675   0.07653   0.09388   0.10411   0.10970
 Alpha virt. eigenvalues --    0.12358   0.12644   0.13320   0.14577   0.15530

 Mulliken charges:
               1
     1  C   -0.582072
     2  C    1.092908
     3  C   -0.867870
     4  C    0.502061
     5  H   -0.330803
     6  H    0.035710
     7  H   -0.003197
     8  H   -0.058324
     9  C    0.929704
    10  H   -0.212026
    11  H   -0.227156
    12  Cl  -0.177151
    13  H   -0.101783
 Sum of Mulliken charges =   0.00000

 Dipole moment (field-independent basis, Debye):
    X=             -1.6794    Y=              1.9004    Z=             -0.3806  Tot=              2.5645

 Test job not archived.
 1\1\GINC-SE184\SP\RHF\Aug-CC-pVDZ\C5H7Cl1\OHZDE\09-Apr-2025\0\\#t hf a
 ug-cc-pvdz iop(5/13=1,5/36=2,99/5=2) pseudo=read geom=check guess=(rea
 d,tcheck) scf=(maxcycle=1)\\title\\0,1\C,0,0.467353,0.363625,-0.295774
 \C,0,-0.706433,0.185539,0.615292\C,0,-1.910357,-0.050217,0.183904\C,0,
 1.188485,1.679834,-0.08106\H,0,-0.519117,0.271093,1.682191\H,0,1.53008
 ,1.769066,0.951505\H,0,0.504027,2.504522,-0.292786\H,0,2.052702,1.7618
 05,-0.740143\C,0,-3.108564,-0.286996,-0.256468\H,0,-3.463153,-1.302897
 ,-0.390869\H,0,-3.788966,0.521509,-0.499267\Cl,0,1.64398,-1.007616,-0.

 Normal termination of Gaussian 16 at Wed Apr  9 00:52:51 2025.
