 Gaussian 16, Revision C.01,

 ----------------------------------------------------------------------
 #t hf aug-cc-pvdz symm=none int=(grid=ultrafine) guess=(read,tcheck) s
 table=opt
 ----------------------------------------------------------------------
 -----
 title
 -----
 Symbolic Z-matrix:
 Charge =  0 Multiplicity = 2

 SCF Done:  E(UHF) =  -1785.60931515     A.U. after   18 cycles
 Normal termination of Gaussian 16 at Wed Apr  9 04:04:49 2025.
 Gaussian 16:  ES64L-G16RevC.01  3-Jul-2019

 ----------------------------------------------------------------------
 #t hf aug-cc-pvdz iop(5/13=1,5/36=2,99/5=2) pseudo=read geom=check gue
 ss=(read,tcheck) scf=(maxcycle=1)
 ----------------------------------------------------------------------
 -----
 title
 -----
 Structure from the checkpoint file:  "BH10_307_reverse_mol2.chk"
 Charge =  0 Multiplicity = 2

                         Standard orientation:
 ---------------------------------------------------------------------
 Center     Atomic      Atomic             Coordinates (Angstroms)
 Number     Number       Type             X           Y           Z
 ---------------------------------------------------------------------
      1          6           0       -2.267841    0.574779   -0.228636
      2          6           0       -1.095685    0.420139   -1.134783
      3          1           0       -2.167725    1.290195    0.585681
      4         14           0        0.495082    0.029012   -0.113388
      5         14           0        1.330895    1.971463    0.917684
      6         14           0        2.158571   -0.861795   -1.520572
      7         14           0        0.013316   -1.565376    1.546232
      8          6           0       -1.041309   -2.958856    0.840686
      9          1           0       -1.237853   -3.716658    1.604676
     10          1           0       -2.003441   -2.586560    0.486383
     11          1           0       -0.544995   -3.451229    0.001728
     12          6           0       -0.899831   -0.787821    3.000754
     13          1           0       -1.132201   -1.543402    3.756934
     14          1           0       -0.299020   -0.012512    3.481874
     15          1           0       -1.838774   -0.333241    2.680336
     16          6           0        1.615537   -2.319930    2.198605
     17          1           0        2.294382   -1.559296    2.589717
     18          1           0        1.399115   -3.020555    3.010285
     19          1           0        2.147139   -2.872614    1.420819
     20          6           0       -0.051506    2.988461    1.700253
     21          1           0       -0.611489    2.403233    2.433080
     22          1           0        0.363179    3.859823    2.215504
     23          1           0       -0.760446    3.351755    0.953284
     24          6           0        2.544191    1.486584    2.278051
     25          1           0        2.986926    2.380170    2.727402
     26          1           0        2.051325    0.926264    3.075560
     27          1           0        3.359054    0.870116    1.892845
     28          6           0        2.247305    3.061145   -0.320168
     29          1           0        2.635951    3.957417    0.172049
     30          1           0        3.095102    2.533855   -0.763596
     31          1           0        1.595618    3.384044   -1.134700
     32          6           0        3.830276   -0.830544   -0.647663
     33          1           0        4.592137   -1.310284   -1.268852
     34          1           0        4.160435    0.192550   -0.453558
     35          1           0        3.800467   -1.357272    0.308146
     36          6           0        2.324830    0.104423   -3.132080
     37          1           0        2.530865    1.162071   -2.953905
     38          1           0        3.148977   -0.300116   -3.727102
     39          1           0        1.418269    0.037152   -3.737695
     40          6           0        1.745037   -2.648924   -1.962509
     41          1           0        2.484081   -3.054319   -2.659603
     42          1           0        1.736156   -3.290722   -1.078933
     43          1           0        0.763993   -2.726468   -2.437904
     44          6           0       -0.900813    1.655083   -2.042860
     45          1           0       -1.755030    1.787077   -2.711945
     46          1           0       -0.810985    2.565974   -1.447232
     47          1           0       -0.003712    1.568939   -2.658462
     48          6           0       -3.756191   -0.954794   -1.584633
     49          6           0       -3.682559    0.138600   -0.515863
     50          1           0       -3.378278   -0.602533   -2.546937
     51          1           0       -3.180013   -1.837437   -1.299024
     52          1           0       -4.793238   -1.266127   -1.731461
     53          6           0       -4.322675   -0.374689    0.783614
     54          6           0       -4.490521    1.361496   -0.999835
     55          1           0       -4.272077    0.385082    1.567795
     56          1           0       -5.375617   -0.623679    0.624887
     57          1           0       -3.813703   -1.268266    1.149937
     58          1           0       -5.535825    1.087537   -1.172662
     59          1           0       -4.469230    2.161234   -0.255839
     60          1           0       -4.085334    1.758031   -1.932833
     61          1           0       -1.253763   -0.446410   -1.783673
 ---------------------------------------------------------------------

 SCF Done:  E(UHF) =  -1785.89479588     A.U. after    2 cycles

 The electronic state is 2-A.
 Alpha  occ. eigenvalues --  -69.03632 -69.03622 -69.03455 -69.01204 -11.24067
 Alpha  occ. eigenvalues --  -11.22753 -11.22645 -11.22086 -11.22024 -11.21968
 Alpha  occ. eigenvalues --  -11.21928 -11.20592 -11.20558 -11.20544 -11.20541
 Alpha  occ. eigenvalues --  -11.20532 -11.20508 -11.20378 -11.20301 -11.20294
 Alpha  occ. eigenvalues --   -6.78972  -6.78963  -6.78795  -6.77001  -3.89689
 Alpha  occ. eigenvalues --   -3.89684  -3.89683  -3.89678  -3.89668  -3.89664
 Alpha  occ. eigenvalues --   -3.89513  -3.89506  -3.89487  -3.87652  -3.87594
 Alpha  occ. eigenvalues --   -3.87589  -1.10859  -1.03136  -0.96249  -0.95370
 Alpha  occ. eigenvalues --   -0.95252  -0.93019  -0.92769  -0.92251  -0.91775
 Alpha  occ. eigenvalues --   -0.91578  -0.91532  -0.91411  -0.91284  -0.91275
 Alpha  occ. eigenvalues --   -0.80943  -0.72333  -0.68724  -0.63876  -0.61671
 Alpha  occ. eigenvalues --   -0.61261  -0.61240  -0.60836  -0.59010  -0.58040
 Alpha  occ. eigenvalues --   -0.57779  -0.57520  -0.57385  -0.56627  -0.56516
 Alpha  occ. eigenvalues --   -0.56106  -0.55883  -0.55604  -0.55273  -0.55084
 Alpha  occ. eigenvalues --   -0.54506  -0.54262  -0.53965  -0.53670  -0.53538
 Alpha  occ. eigenvalues --   -0.53501  -0.53247  -0.52942  -0.52823  -0.52705
 Alpha  occ. eigenvalues --   -0.52536  -0.51550  -0.51255  -0.49367  -0.47891
 Alpha  occ. eigenvalues --   -0.47027  -0.45535  -0.43501  -0.43144  -0.43060
 Alpha  occ. eigenvalues --   -0.42569  -0.42376  -0.42222  -0.38752  -0.33524
 Alpha  occ. eigenvalues --   -0.33095  -0.30783
 Alpha virt. eigenvalues --    0.02692   0.03429   0.03464   0.03537   0.04735
 Alpha virt. eigenvalues --    0.04752   0.04965   0.04997   0.05186   0.06237
 Alpha virt. eigenvalues --    0.06327   0.06449   0.06567   0.06597   0.06952

  Beta  occ. eigenvalues --  -69.03633 -69.03615 -69.03456 -69.01172 -11.24363
  Beta  occ. eigenvalues --  -11.22411 -11.22363 -11.21940 -11.21825 -11.21816
  Beta  occ. eigenvalues --  -11.20594 -11.20558 -11.20545 -11.20535 -11.20532
  Beta  occ. eigenvalues --  -11.20507 -11.20379 -11.20297 -11.20286 -11.20239
  Beta  occ. eigenvalues --   -6.78971  -6.78954  -6.78796  -6.76947  -3.89689
  Beta  occ. eigenvalues --   -3.89684  -3.89679  -3.89673  -3.89667  -3.89642
  Beta  occ. eigenvalues --   -3.89514  -3.89507  -3.89490  -3.87574  -3.87564
  Beta  occ. eigenvalues --   -3.87547  -1.09217  -1.02095  -0.96221  -0.95366
  Beta  occ. eigenvalues --   -0.95227  -0.92803  -0.92209  -0.91768  -0.91643
  Beta  occ. eigenvalues --   -0.91554  -0.91419  -0.91280  -0.91267  -0.88495
  Beta  occ. eigenvalues --   -0.80032  -0.70838  -0.68454  -0.63596  -0.61400
  Beta  occ. eigenvalues --   -0.61239  -0.60889  -0.60088  -0.58955  -0.57854
  Beta  occ. eigenvalues --   -0.57617  -0.57488  -0.57040  -0.56603  -0.56398
  Beta  occ. eigenvalues --   -0.55973  -0.55583  -0.55392  -0.55187  -0.54650
  Beta  occ. eigenvalues --   -0.54292  -0.53970  -0.53881  -0.53541  -0.53498
  Beta  occ. eigenvalues --   -0.53473  -0.53195  -0.52930  -0.52781  -0.52635
  Beta  occ. eigenvalues --   -0.51808  -0.51317  -0.50770  -0.48982  -0.46714
  Beta  occ. eigenvalues --   -0.46041  -0.45308  -0.43441  -0.43134  -0.43047
  Beta  occ. eigenvalues --   -0.42548  -0.42362  -0.42219  -0.37430  -0.33081
  Beta  occ. eigenvalues --   -0.32987
  Beta virt. eigenvalues --    0.02693   0.03425   0.03464   0.03518   0.04738
  Beta virt. eigenvalues --    0.04755   0.04966   0.04978   0.05177   0.06238
  Beta virt. eigenvalues --    0.06329   0.06451   0.06568   0.06596   0.06951

 Mulliken charges and spin densities:
               1          2
     1  C    1.415917   1.693555
     2  C    0.234679  -0.291991
     3  H   -0.758832  -0.195968
     4  Si   1.678142   0.019473
     5  Si  -0.067705  -0.004589
     6  Si  -0.356008   0.016241
     7  Si   0.640380  -0.034859
     8  C    1.140613   0.004532
     9  H   -0.387009  -0.001334
    10  H   -0.835761   0.001812
    11  H   -0.432673  -0.000975
    12  C    1.064456   0.006801
    13  H   -0.403310  -0.000933
    14  H   -0.428039   0.001498
    15  H   -0.676727   0.001716
    16  C    1.116020   0.000624
    17  H   -0.478979   0.000422
    18  H   -0.466252  -0.000392
    19  H   -0.496970   0.000068
    20  C    1.088931  -0.004980
    21  H   -0.395689   0.000667
    22  H   -0.536186  -0.000538
    23  H   -0.391037   0.004182
    24  C    1.135806  -0.001460
    25  H   -0.473097   0.000351
    26  H   -0.438167  -0.000453
    27  H   -0.478189  -0.000740
    28  C    1.040018  -0.000845
    29  H   -0.466590  -0.000026
    30  H   -0.456297   0.000428
    31  H   -0.422041   0.000196
    32  C    1.223240   0.003406
    33  H   -0.420227   0.000765
    34  H   -0.447153   0.000010
    35  H   -0.481265  -0.000755
    36  C    1.023509  -0.001615
    37  H   -0.411546   0.000215
    38  H   -0.533921  -0.000149
    39  H   -0.348911   0.000252
    40  C    1.074292  -0.004079
    41  H   -0.458128  -0.000134
    42  H   -0.447230   0.000333
    43  H   -0.433843   0.000035
    44  C    1.043160   0.042109
    45  H   -0.227976  -0.004977
    46  H   -0.211872  -0.011605
    47  H   -0.424002   0.002962
    48  C    1.333353   0.033768
    49  C   -2.984322  -0.369380
    50  H   -0.081455  -0.002257
    51  H   -0.173825  -0.001576
    52  H   -0.123810  -0.000551
    53  C    1.323871   0.054572
    54  C    1.373871   0.056381
    55  H   -0.114151   0.003887
    56  H   -0.103429   0.002994
    57  H   -0.201592   0.000826
    58  H   -0.061501   0.007807
    59  H   -0.092497   0.000662
    60  H   -0.120807  -0.012566
    61  H   -0.201237  -0.013821
 Sum of Mulliken charges =   0.00000   1.00000

 Dipole moment (field-independent basis, Debye):
    X=             -0.2295    Y=              0.0979    Z=             -0.3081  Tot=              0.3964
                          Isotropic Fermi Contact Couplings
        Atom                 a.u.       MegaHertz       Gauss      10(-4) cm-1
     1  C(13)              0.24340     273.62848      97.63744      91.27263
     2  C(13)             -0.05927     -66.62816     -23.77458     -22.22476
     3  H(1)              -0.02425    -108.37447     -38.67071     -36.14983
     4  Si(29)             0.04332     -38.49991     -13.73773     -12.84219
     5  Si(29)            -0.00109       0.96664       0.34492       0.32244
     6  Si(29)             0.00713      -6.33958      -2.26212      -2.11466
     7  Si(29)            -0.00030       0.26602       0.09492       0.08873
     8  C(13)              0.00055       0.61879       0.22080       0.20641

 Normal termination of Gaussian 16 at Wed Apr  9 04:09:44 2025.
