 Gaussian 16, Revision C.01,

 ----------------------------------------------------------------------
 #t hf aug-cc-pvdz symm=none int=(grid=ultrafine) guess=(read,tcheck) s
 table=(opt,rrhf)
 ----------------------------------------------------------------------
 -----
 title
 -----
 Symbolic Z-matrix:
 Charge = -1 Multiplicity = 1

 SCF Done:  E(RHF) =  -1399.64616867     A.U. after   16 cycles
 Normal termination of Gaussian 16 at Wed Apr  9 01:22:32 2025.
 Gaussian 16:  ES64L-G16RevC.01  3-Jul-2019

 ----------------------------------------------------------------------
 #t hf aug-cc-pvdz iop(5/13=1,5/36=2,99/5=2) pseudo=read geom=check gue
 ss=(read,tcheck) scf=(maxcycle=1)
 ----------------------------------------------------------------------
 -----
 title
 -----
 Structure from the checkpoint file:  "BH10_314_reverse_mol2.chk"
 Charge = -1 Multiplicity = 1

                         Standard orientation:
 ---------------------------------------------------------------------
 Center     Atomic      Atomic             Coordinates (Angstroms)
 Number     Number       Type             X           Y           Z
 ---------------------------------------------------------------------
      1          6           0       -0.881603    0.978902    0.349601
      2          6           0       -2.374385    0.632262    0.244353
      3          6           0       -2.537792   -0.837857    0.693427
      4          1           0       -2.915880    1.264992    0.948458
      5          6           0       -1.575963   -1.761349   -0.036028
      6          6           0       -0.151345   -1.274406    0.005518
      7          8           0       -0.160450    0.068952   -0.458884
      8          6           0       -0.552525    2.390480   -0.199765
      9          6           0        0.886514   -1.988943   -0.827001
     10          8           0        2.203756   -1.672644   -0.401881
     11          1           0        0.755808   -1.713513   -1.877518
     12          1           0        0.771976   -3.068017   -0.723682
     13         15           0        2.669772   -0.181494    0.131059
     14          8           0        2.048953    0.086506    1.469720
     15          8           0        2.527134    0.831679   -0.974713
     16          8           0        4.245189   -0.508906    0.341664
     17          1           0        4.714928   -0.347656   -0.481686
     18          8           0       -1.960950   -2.786598   -0.553548
     19          8           0       -3.859993   -1.295836    0.547980
     20          1           0       -2.241773   -0.890661    1.748649
     21          1           0       -3.802821   -2.128036    0.056870
     22          8           0       -1.347407    3.286993   -0.045202
     23          8           0        0.608085    2.571441   -0.781028
     24          1           0        1.250770    1.789263   -0.845793
     25          8           0       -0.482293    0.895543    1.680204
     26          1           0        0.501655    0.751594    1.703515
     27          6           0       -2.921375    0.840223   -1.163532
     28          1           0       -3.947356    0.477266   -1.217215
     29          1           0       -2.907929    1.897915   -1.421059
     30          1           0       -2.324746    0.298232   -1.902003
     31          1           0        0.173435   -1.301876    1.051649
 ---------------------------------------------------------------------

 SCF Done:  E(RHF) =  -1400.04370549     A.U. after    2 cycles

 The electronic state is 1-A.
 Alpha  occ. eigenvalues --  -81.28730 -20.49733 -20.48985 -20.48471 -20.47365
 Alpha  occ. eigenvalues --  -20.46965 -20.46680 -20.45858 -20.42814 -20.38707
 Alpha  occ. eigenvalues --  -20.38682 -11.26787 -11.26325 -11.25767 -11.20932
 Alpha  occ. eigenvalues --  -11.20818 -11.20224 -11.14972 -11.12423  -7.76524
 Alpha  occ. eigenvalues --   -4.91197  -4.91181  -4.91100  -1.30831  -1.29275
 Alpha  occ. eigenvalues --   -1.27088  -1.23919  -1.23597  -1.20913  -1.19898
 Alpha  occ. eigenvalues --   -1.18909  -1.13060  -1.10402  -0.98323  -0.95860
 Alpha  occ. eigenvalues --   -0.86951  -0.82946  -0.78205  -0.74803  -0.71534
 Alpha  occ. eigenvalues --   -0.67760  -0.66746  -0.65036  -0.64972  -0.62473
 Alpha  occ. eigenvalues --   -0.60448  -0.59412  -0.58151  -0.55912  -0.55144
 Alpha  occ. eigenvalues --   -0.54137  -0.53506  -0.53230  -0.51007  -0.50304
 Alpha  occ. eigenvalues --   -0.49296  -0.48810  -0.47567  -0.46996  -0.45706
 Alpha  occ. eigenvalues --   -0.45327  -0.44214  -0.44117  -0.43580  -0.42793
 Alpha  occ. eigenvalues --   -0.41694  -0.40951  -0.39884  -0.39313  -0.38454
 Alpha  occ. eigenvalues --   -0.36813  -0.36205  -0.35692  -0.35228  -0.34290
 Alpha  occ. eigenvalues --   -0.32908  -0.32431  -0.31097
 Alpha virt. eigenvalues --    0.11411   0.12063   0.12535   0.12905   0.13520
 Alpha virt. eigenvalues --    0.13975   0.14331   0.15371   0.16211   0.16557
 Alpha virt. eigenvalues --    0.17296   0.17495   0.18551   0.19633   0.20489

 Mulliken charges:
               1
     1  C   -0.127186
     2  C   -0.508979
     3  C    0.979070
     4  H   -0.150174
     5  C    0.187590
     6  C   -0.044170
     7  O   -0.787261
     8  C    0.875123
     9  C    1.268031
    10  O   -0.938076
    11  H   -0.059378
    12  H   -0.209017
    13  P    2.725108
    14  O   -1.103220
    15  O   -1.129905
    16  O   -0.715467
    17  H    0.117017
    18  O   -0.610810
    19  O   -0.687087
    20  H    0.022692
    21  H    0.193163
    22  O   -0.570648
    23  O   -0.504314
    24  H    0.321120
    25  O   -0.664777
    26  H    0.224829
    27  C    0.972140
    28  H   -0.026855
    29  H   -0.021458
    30  H   -0.010460
    31  H   -0.016640
 Sum of Mulliken charges =  -1.00000

 Dipole moment (field-independent basis, Debye):
    X=             -2.1952    Y=             -5.4127    Z=             -1.7533  Tot=              6.0983

 Test job not archived.
 1\1\GINC-SE335\SP\RHF\Aug-CC-pVDZ\C8H12O10P1(1-)\OHZDE\09-Apr-2025\0\\
 #t hf aug-cc-pvdz iop(5/13=1,5/36=2,99/5=2) pseudo=read geom=check gue
 ss=(read,tcheck) scf=(maxcycle=1)\\title\\-1,1\C,0,-0.881603,0.978902,
 0.349601\C,0,-2.374385,0.632262,0.244353\C,0,-2.537792,-0.837857,0.693
 427\H,0,-2.91588,1.264992,0.948458\C,0,-1.575963,-1.761349,-0.036028\C
 ,0,-0.151345,-1.274406,0.005518\O,0,-0.16045,0.068952,-0.458884\C,0,-0
 .552525,2.39048,-0.199765\C,0,0.886514,-1.988943,-0.827001\O,0,2.20375
 6,-1.672644,-0.401881\H,0,0.755808,-1.713513,-1.877518\H,0,0.771976,-3

 Normal termination of Gaussian 16 at Wed Apr  9 01:23:26 2025.
