 Gaussian 16, Revision C.01,

 ----------------------------------------------------------------------
 #t hf aug-cc-pvdz symm=none int=(grid=ultrafine) guess=(read,tcheck) s
 table=(opt,rrhf)
 ----------------------------------------------------------------------
 -----
 title
 -----
 Symbolic Z-matrix:
 Charge = -1 Multiplicity = 1

 SCF Done:  E(RHF) =  -1360.60793802     A.U. after   16 cycles
 Normal termination of Gaussian 16 at Wed Apr  9 01:17:09 2025.
 Gaussian 16:  ES64L-G16RevC.01  3-Jul-2019

 ----------------------------------------------------------------------
 #t hf aug-cc-pvdz iop(5/13=1,5/36=2,99/5=2) pseudo=read geom=check gue
 ss=(read,tcheck) scf=(maxcycle=1)
 ----------------------------------------------------------------------
 -----
 title
 -----
 Structure from the checkpoint file:  "BH10_313_forward_mol2.chk"
 Charge = -1 Multiplicity = 1

                         Standard orientation:
 ---------------------------------------------------------------------
 Center     Atomic      Atomic             Coordinates (Angstroms)
 Number     Number       Type             X           Y           Z
 ---------------------------------------------------------------------
      1          6           0       -1.089824    1.078966    0.256177
      2          6           0       -2.578367    0.770856    0.215668
      3          6           0       -2.852755   -0.704058    0.538416
      4          1           0       -2.941430    0.981401   -0.789547
      5          1           0       -3.119968    1.414519    0.907997
      6          6           0       -1.863336   -1.649986   -0.130878
      7          6           0       -0.441165   -1.189287    0.038978
      8          8           0       -0.414413    0.112741   -0.535815
      9          6           0       -0.738099    2.435454   -0.400815
     10          6           0        0.710160   -1.975771   -0.538953
     11          8           0        1.883098   -1.670923    0.200457
     12          1           0        0.844266   -1.739786   -1.597759
     13          1           0        0.531298   -3.045267   -0.425285
     14         15           0        2.677254   -0.232724   -0.001918
     15          8           0        1.935708    0.860777    0.747655
     16          8           0        3.043118   -0.068664   -1.431976
     17          8           0        3.975797   -0.578541    0.917154
     18          1           0        4.596099   -1.104302    0.404151
     19          8           0       -2.241422   -2.647914   -0.700866
     20          8           0       -4.173148   -1.056326    0.204148
     21          1           0       -2.691023   -0.859017    1.615652
     22          1           0       -4.111834   -1.893741   -0.278054
     23          8           0       -1.595494    3.183377   -0.799949
     24          8           0        0.543369    2.717809   -0.455324
     25          1           0        1.139000    1.993795   -0.085752
     26          8           0       -0.629671    1.053841    1.574355
     27          1           0        0.355799    1.014512    1.531488
     28          1           0       -0.256241   -1.117722    1.115612
 ---------------------------------------------------------------------

 SCF Done:  E(RHF) =  -1360.99427889     A.U. after    2 cycles

 The electronic state is 1-A.
 Alpha  occ. eigenvalues --  -81.28354 -20.49992 -20.49487 -20.48972 -20.47771
 Alpha  occ. eigenvalues --  -20.47431 -20.47050 -20.46598 -20.43966 -20.39671
 Alpha  occ. eigenvalues --  -20.37422 -11.27521 -11.26619 -11.26578 -11.21874
 Alpha  occ. eigenvalues --  -11.20978 -11.19920 -11.14789  -7.76150  -4.90816
 Alpha  occ. eigenvalues --   -4.90794  -4.90718  -1.31469  -1.29749  -1.27754
 Alpha  occ. eigenvalues --   -1.24095  -1.23698  -1.21331  -1.20296  -1.20082
 Alpha  occ. eigenvalues --   -1.13115  -1.09702  -0.96886  -0.96004  -0.85655
 Alpha  occ. eigenvalues --   -0.79028  -0.77168  -0.71876  -0.68180  -0.67561
 Alpha  occ. eigenvalues --   -0.66641  -0.64789  -0.63691  -0.60830  -0.59671
 Alpha  occ. eigenvalues --   -0.58358  -0.56494  -0.55417  -0.54053  -0.53026
 Alpha  occ. eigenvalues --   -0.52725  -0.51335  -0.50732  -0.49432  -0.48805
 Alpha  occ. eigenvalues --   -0.48216  -0.46221  -0.45759  -0.44601  -0.44396
 Alpha  occ. eigenvalues --   -0.43553  -0.42743  -0.42134  -0.41200  -0.40740
 Alpha  occ. eigenvalues --   -0.38416  -0.37696  -0.37164  -0.36770  -0.36065
 Alpha  occ. eigenvalues --   -0.33575  -0.33348  -0.32547  -0.31598
 Alpha virt. eigenvalues --    0.11285   0.12092   0.12703   0.12886   0.13722
 Alpha virt. eigenvalues --    0.14733   0.15076   0.15727   0.16847   0.17366
 Alpha virt. eigenvalues --    0.17962   0.19222   0.20051   0.20487   0.21106

 Mulliken charges:
               1
     1  C   -0.422481
     2  C    0.827137
     3  C    0.631426
     4  H    0.035706
     5  H    0.041042
     6  C    0.239701
     7  C    0.018511
     8  O   -0.820480
     9  C    0.778682
    10  C    1.134234
    11  O   -0.991811
    12  H   -0.020532
    13  H   -0.209297
    14  P    2.632026
    15  O   -1.274785
    16  O   -0.969388
    17  O   -0.704603
    18  H    0.104623
    19  O   -0.587616
    20  O   -0.633883
    21  H    0.031779
    22  H    0.162901
    23  O   -0.499443
    24  O   -0.476933
    25  H    0.304896
    26  O   -0.549756
    27  H    0.210299
    28  H    0.008047
 Sum of Mulliken charges =  -1.00000

 Dipole moment (field-independent basis, Debye):
    X=             -2.7001    Y=             -5.7966    Z=              2.6923  Tot=              6.9383

 Test job not archived.
 1\1\GINC-SE423\SP\RHF\Aug-CC-pVDZ\C7H10O10P1(1-)\OHZDE\09-Apr-2025\0\\
 #t hf aug-cc-pvdz iop(5/13=1,5/36=2,99/5=2) pseudo=read geom=check gue
 ss=(read,tcheck) scf=(maxcycle=1)\\title\\-1,1\C,0,-1.089824,1.078966,
 0.256177\C,0,-2.578367,0.770856,0.215668\C,0,-2.852755,-0.704058,0.538
 416\H,0,-2.94143,0.981401,-0.789547\H,0,-3.119968,1.414519,0.907997\C,
 0,-1.863336,-1.649986,-0.130878\C,0,-0.441165,-1.189287,0.038978\O,0,-
 0.414413,0.112741,-0.535815\C,0,-0.738099,2.435454,-0.400815\C,0,0.710
 16,-1.975771,-0.538953\O,0,1.883098,-1.670923,0.200457\H,0,0.844266,-1

 Normal termination of Gaussian 16 at Wed Apr  9 01:17:49 2025.
