 Gaussian 16, Revision C.01,

 ----------------------------------------------------------------------
 #t hf aug-cc-pvdz symm=none int=(grid=ultrafine) guess=(read,tcheck) s
 table=(opt,rrhf)
 ----------------------------------------------------------------------
 -----
 title
 -----
 Symbolic Z-matrix:
 Charge =  0 Multiplicity = 1

 SCF Done:  E(RHF) =  -1273.93991324     A.U. after   16 cycles
 Normal termination of Gaussian 16 at Wed Apr  9 01:30:32 2025.
 Gaussian 16:  ES64L-G16RevC.01  3-Jul-2019

 ----------------------------------------------------------------------
 #t hf aug-cc-pvdz iop(5/13=1,5/36=2,99/5=2) pseudo=read geom=check gue
 ss=(read,tcheck) scf=(maxcycle=1)
 ----------------------------------------------------------------------
 -----
 title
 -----
 Structure from the checkpoint file:  "BH10_350_reverse_mol2.chk"
 Charge =  0 Multiplicity = 1

                         Standard orientation:
 ---------------------------------------------------------------------
 Center     Atomic      Atomic             Coordinates (Angstroms)
 Number     Number       Type             X           Y           Z
 ---------------------------------------------------------------------
      1          7           0       -0.319928    0.891959   -0.521109
      2          6           0       -1.644435    0.449823   -0.438084
      3          6           0       -1.799904   -0.844235   -0.141864
      4         16           0       -0.227264   -1.639022    0.094932
      5          6           0        0.669470   -0.037955   -0.065209
      6          6           0       -2.735545    1.426873   -0.726896
      7          1           0       -2.683541    2.293991   -0.064042
      8          1           0       -3.710069    0.962502   -0.597181
      9          1           0       -2.671505    1.791805   -1.755156
     10          6           0       -3.030344   -1.674092   -0.009261
     11          1           0       -3.927002   -1.072306   -0.154546
     12          1           0       -3.096321   -2.136112    0.980366
     13          1           0       -3.050926   -2.480646   -0.748383
     14          6           0        0.031780    2.293948   -0.633068
     15          1           0       -0.598561    2.771948   -1.380633
     16          1           0        1.058581    2.377930   -0.976805
     17          1           0       -0.063809    2.833722    0.316387
     18          6           0        1.805728   -0.247496   -1.092259
     19          8           0        1.783186    0.328878   -2.146637
     20          6           0        2.916956   -1.189213   -0.711818
     21          1           0        3.410378   -1.533935   -1.618425
     22          1           0        2.559608   -2.034604   -0.124345
     23          1           0        3.642758   -0.650010   -0.097697
     24         16           0        1.500228    0.473744    1.534167
     25          6           0        0.033174    0.610770    2.579036
     26          1           0       -0.496136   -0.340834    2.605609
     27          1           0       -0.631299    1.398086    2.226357
     28          1           0        0.383144    0.857642    3.580309
 ---------------------------------------------------------------------

 SCF Done:  E(RHF) =  -1274.12640355     A.U. after    2 cycles

 The electronic state is 1-A.
 Alpha  occ. eigenvalues --  -93.54374 -93.53389 -20.56738 -15.64198 -11.35189
 Alpha  occ. eigenvalues --  -11.35083 -11.28991 -11.26548 -11.26493 -11.25345
 Alpha  occ. eigenvalues --  -11.25002 -11.24462 -11.24279  -8.84181  -8.83176
 Alpha  occ. eigenvalues --   -6.18375  -6.18202  -6.17813  -6.17348  -6.17134
 Alpha  occ. eigenvalues --   -6.16831  -1.36688  -1.25341  -1.08930  -1.07956
 Alpha  occ. eigenvalues --   -1.01536  -1.00751  -0.97963  -0.93666  -0.91218
 Alpha  occ. eigenvalues --   -0.85064  -0.81598  -0.75854  -0.70956  -0.68526
 Alpha  occ. eigenvalues --   -0.65558  -0.63692  -0.63218  -0.61372  -0.60549
 Alpha  occ. eigenvalues --   -0.59883  -0.58814  -0.58021  -0.57842  -0.57197
 Alpha  occ. eigenvalues --   -0.55396  -0.55038  -0.54494  -0.53454  -0.51330
 Alpha  occ. eigenvalues --   -0.49765  -0.48244  -0.45706  -0.43615  -0.41897
 Alpha  occ. eigenvalues --   -0.39237  -0.34674  -0.27025
 Alpha virt. eigenvalues --    0.02975   0.03745   0.03976   0.04374   0.05560
 Alpha virt. eigenvalues --    0.05964   0.06193   0.06429   0.06794   0.07523
 Alpha virt. eigenvalues --    0.08125   0.08316   0.08402   0.09114   0.10229

 Mulliken charges:
               1
     1  N   -0.303731
     2  C   -0.359179
     3  C   -1.156116
     4  S    0.593325
     5  C   -0.642308
     6  C    0.512894
     7  H    0.165810
     8  H   -0.147997
     9  H    0.151780
    10  C    0.498676
    11  H   -0.063193
    12  H    0.064736
    13  H    0.090277
    14  C    0.834443
    15  H   -0.249182
    16  H   -0.182968
    17  H   -0.108106
    18  C    0.107088
    19  O   -0.561096
    20  C    0.596162
    21  H   -0.090181
    22  H   -0.052292
    23  H    0.070567
    24  S    0.334311
    25  C    0.287364
    26  H   -0.041584
    27  H   -0.149439
    28  H   -0.200062
 Sum of Mulliken charges =   0.00000

 Dipole moment (field-independent basis, Debye):
    X=             -2.4750    Y=              0.7585    Z=              2.2072  Tot=              3.4019

 Test job not archived.
 1\1\GINC-SE435\SP\RHF\Aug-CC-pVDZ\C9H15N1O1S2\OHZDE\09-Apr-2025\0\\#t
 hf aug-cc-pvdz iop(5/13=1,5/36=2,99/5=2) pseudo=read geom=check guess=
 (read,tcheck) scf=(maxcycle=1)\\title\\0,1\N,0,-0.319928,0.891959,-0.5
 21109\C,0,-1.644435,0.449823,-0.438084\C,0,-1.799904,-0.844235,-0.1418
 64\S,0,-0.227264,-1.639022,0.094932\C,0,0.66947,-0.037955,-0.065209\C,
 0,-2.735545,1.426873,-0.726896\H,0,-2.683541,2.293991,-0.064042\H,0,-3
 .710069,0.962502,-0.597181\H,0,-2.671505,1.791805,-1.755156\C,0,-3.030
 344,-1.674092,-0.009261\H,0,-3.927002,-1.072306,-0.154546\H,0,-3.09632

 Normal termination of Gaussian 16 at Wed Apr  9 01:31:03 2025.
