 Gaussian 16, Revision C.01,

 ----------------------------------------------------------------------
 #t hf aug-cc-pvdz symm=none int=(grid=ultrafine) guess=(read,tcheck) s
 table=(opt,rrhf)
 ----------------------------------------------------------------------
 -----
 title
 -----
 Symbolic Z-matrix:
 Charge =  0 Multiplicity = 1

 SCF Done:  E(RHF) =  -1375.34811880     A.U. after   18 cycles
 Normal termination of Gaussian 16 at Wed Apr  9 02:46:39 2025.
 Gaussian 16:  ES64L-G16RevC.01  3-Jul-2019

 ----------------------------------------------------------------------
 #t hf aug-cc-pvdz iop(5/13=1,5/36=2,99/5=2) pseudo=read geom=check gue
 ss=(read,tcheck) scf=(maxcycle=1)
 ----------------------------------------------------------------------
 -----
 title
 -----
 Structure from the checkpoint file:  "BH10_395_forward_mol1.chk"
 Charge =  0 Multiplicity = 1

                         Standard orientation:
 ---------------------------------------------------------------------
 Center     Atomic      Atomic             Coordinates (Angstroms)
 Number     Number       Type             X           Y           Z
 ---------------------------------------------------------------------
      1          6           0        1.173351   -2.485796    0.397896
      2          7           0       -0.116429   -1.841500    0.510709
      3          6           0        2.202120   -1.623776   -0.299314
      4          6           0        0.324611   -0.511512   -1.500483
      5          1           0       -0.139919    0.465657   -1.475480
      6          1           0        0.427163   -0.771588   -2.559113
      7          6           0        2.353500    0.779613   -0.698086
      8          6           0        3.540419   -1.957389   -0.118218
      9          1           0        4.179463   -2.075074   -0.972801
     10          1           0        3.771277   -2.658483    0.684607
     11          6           0        3.602568    0.916738   -0.091146
     12          6           0        4.621898   -0.008873   -0.230300
     13          6           0        1.714260   -0.456707   -0.915507
     14          1           0        4.794270   -0.352186   -1.237762
     15          1           0        3.721908    1.736735    0.612377
     16          6           0        5.842359    0.022270    0.645126
     17          1           0        6.308855   -0.962336    0.708789
     18          1           0        6.591536    0.708979    0.237748
     19          1           0        5.597762    0.346201    1.657636
     20          1           0        1.077427   -3.458480   -0.122920
     21          6           0       -0.613761   -1.533261   -0.822525
     22          1           0        1.552949   -2.705863    1.400770
     23         16           0        1.475228    2.333941   -0.896977
     24          6           0       -1.058556   -2.646312    1.265730
     25          6           0       -2.045435   -1.031410   -0.795713
     26          1           0       -0.608073   -2.466826   -1.420162
     27          6           0       -2.841438   -1.169440    0.339274
     28          6           0       -2.292959   -1.823151    1.578540
     29          1           0       -3.059568   -2.452966    2.037606
     30          1           0       -2.027580   -1.049238    2.303792
     31          1           0       -0.575515   -2.969236    2.190490
     32          1           0       -1.339232   -3.559199    0.707629
     33          6           0       -2.586361   -0.434561   -1.933977
     34          6           0       -4.148772   -0.687802    0.319421
     35          6           0       -4.674282   -0.083755   -0.808637
     36          6           0       -3.886748    0.038668   -1.946603
     37          1           0       -4.285227    0.502206   -2.841081
     38          1           0       -1.977765   -0.330865   -2.824554
     39          1           0       -4.760333   -0.794038    1.209513
     40          1           0       -5.693322    0.284300   -0.805333
     41          6           0        0.079869    2.176748    0.210808
     42          6           0        0.208525    1.597439    1.467551
     43          6           0       -1.150256    2.685057   -0.194289
     44          6           0       -2.243585    2.619322    0.656859
     45          6           0       -2.115661    2.043739    1.912221
     46          6           0       -0.887982    1.533234    2.312212
     47          1           0       -1.254435    3.111873   -1.184589
     48          1           0       -3.202728    2.998395    0.326595
     49          1           0        1.159859    1.183997    1.776160
     50          1           0       -2.972810    1.982468    2.571643
     51          1           0       -0.780696    1.078515    3.290044
 ---------------------------------------------------------------------

 SCF Done:  E(RHF) =  -1375.64682330     A.U. after    2 cycles

 The electronic state is 1-A.
 Alpha  occ. eigenvalues --  -93.52944 -15.60992 -11.26982 -11.26937 -11.26483
 Alpha  occ. eigenvalues --  -11.26482 -11.26316 -11.25876 -11.25103 -11.24741
 Alpha  occ. eigenvalues --  -11.24338 -11.24034 -11.23925 -11.23841 -11.23833
 Alpha  occ. eigenvalues --  -11.23715 -11.23664 -11.23656 -11.23604 -11.23570
 Alpha  occ. eigenvalues --  -11.23511 -11.23410 -11.23352 -11.23083 -11.23056
 Alpha  occ. eigenvalues --  -11.22711  -8.82651  -6.16902  -6.16667  -6.16366
 Alpha  occ. eigenvalues --   -1.22748  -1.14878  -1.14547  -1.12762  -1.07320
 Alpha  occ. eigenvalues --   -1.05754  -1.04313  -1.03713  -1.00942  -1.00623
 Alpha  occ. eigenvalues --   -0.99199  -0.96858  -0.93113  -0.91832  -0.88845
 Alpha  occ. eigenvalues --   -0.85877  -0.83562  -0.82771  -0.82144  -0.80809
 Alpha  occ. eigenvalues --   -0.78199  -0.77120  -0.74913  -0.70042  -0.69538
 Alpha  occ. eigenvalues --   -0.67587  -0.67005  -0.66210  -0.65059  -0.63374
 Alpha  occ. eigenvalues --   -0.63298  -0.62680  -0.61278  -0.60749  -0.59972
 Alpha  occ. eigenvalues --   -0.59680  -0.59051  -0.58651  -0.58030  -0.57103
 Alpha  occ. eigenvalues --   -0.56688  -0.55585  -0.54875  -0.54526  -0.53053
 Alpha  occ. eigenvalues --   -0.52660  -0.52378  -0.51409  -0.50892  -0.50093
 Alpha  occ. eigenvalues --   -0.49780  -0.49523  -0.48100  -0.47637  -0.46673
 Alpha  occ. eigenvalues --   -0.45409  -0.44665  -0.43057  -0.37872  -0.36004
 Alpha  occ. eigenvalues --   -0.33345  -0.33089  -0.32254  -0.31831  -0.29350
 Alpha  occ. eigenvalues --   -0.29124
 Alpha virt. eigenvalues --    0.02740   0.03125   0.03455   0.03837   0.04547
 Alpha virt. eigenvalues --    0.04799   0.04941   0.05495   0.05592   0.05877
 Alpha virt. eigenvalues --    0.06221   0.06426   0.06600   0.07300   0.07361

 Mulliken charges:
               1
     1  C    0.560548
     2  N   -0.833926
     3  C   -1.143622
     4  C    0.040376
     5  H   -0.282523
     6  H    0.073992
     7  C   -0.816279
     8  C    1.272705
     9  H   -0.175578
    10  H   -0.430476
    11  C    1.042790
    12  C   -0.302954
    13  C    0.556573
    14  H   -0.214113
    15  H   -0.581207
    16  C    0.779588
    17  H   -0.073929
    18  H    0.077527
    19  H   -0.084224
    20  H    0.134388
    21  C   -0.292883
    22  H   -0.326738
    23  S    0.347929
    24  C    1.065843
    25  C    0.712103
    26  H   -0.042590
    27  C   -0.487707
    28  C    0.736398
    29  H   -0.034384
    30  H    0.063341
    31  H   -0.310881
    32  H   -0.040718
    33  C    0.289617
    34  C    0.635417
    35  C    0.463237
    36  C    0.440653
    37  H   -0.557116
    38  H   -0.685684
    39  H   -0.740752
    40  H   -0.535316
    41  C   -0.666670
    42  C    1.022011
    43  C    0.957846
    44  C    0.575194
    45  C    0.671722
    46  C    0.479741
    47  H   -0.711632
    48  H   -0.635111
    49  H   -0.691783
    50  H   -0.653561
    51  H   -0.647184
 Sum of Mulliken charges =   0.00000

 Dipole moment (field-independent basis, Debye):
    X=              0.3690    Y=             -2.6593    Z=              1.1976  Tot=              2.9398

 Test job not archived.
 1\1\GINC-SE335\SP\RHF\Aug-CC-pVDZ\C24H25N1S1\OHZDE\09-Apr-2025\0\\#t h
 f aug-cc-pvdz iop(5/13=1,5/36=2,99/5=2) pseudo=read geom=check guess=(
 read,tcheck) scf=(maxcycle=1)\\title\\0,1\C,0,1.173351,-2.485796,0.397
 896\N,0,-0.116429,-1.8415,0.510709\C,0,2.20212,-1.623776,-0.299314\C,0
 ,0.324611,-0.511512,-1.500483\H,0,-0.139919,0.465657,-1.47548\H,0,0.42
 7163,-0.771588,-2.559113\C,0,2.3535,0.779613,-0.698086\C,0,3.540419,-1
 .957389,-0.118218\H,0,4.179463,-2.075074,-0.972801\H,0,3.771277,-2.658
 483,0.684607\C,0,3.602568,0.916738,-0.091146\C,0,4.621898,-0.008873,-0

 Normal termination of Gaussian 16 at Wed Apr  9 02:49:58 2025.
