 Gaussian 16, Revision C.01,

 ----------------------------------------------------------------------
 #t hf aug-cc-pvdz symm=none int=(grid=ultrafine) guess=(read,tcheck) s
 table=(opt,rrhf)
 ----------------------------------------------------------------------
 -----
 title
 -----
 Symbolic Z-matrix:
 Charge =  0 Multiplicity = 1

 SCF Done:  E(RHF) =  -1375.46180421     A.U. after   17 cycles
 Normal termination of Gaussian 16 at Wed Apr  9 02:47:27 2025.
 Gaussian 16:  ES64L-G16RevC.01  3-Jul-2019

 ----------------------------------------------------------------------
 #t hf aug-cc-pvdz iop(5/13=1,5/36=2,99/5=2) pseudo=read geom=check gue
 ss=(read,tcheck) scf=(maxcycle=1)
 ----------------------------------------------------------------------
 -----
 title
 -----
 Structure from the checkpoint file:  "BH10_395_reverse_mol2.chk"
 Charge =  0 Multiplicity = 1

                         Standard orientation:
 ---------------------------------------------------------------------
 Center     Atomic      Atomic             Coordinates (Angstroms)
 Number     Number       Type             X           Y           Z
 ---------------------------------------------------------------------
      1          6           0       -0.102494   -2.590145    1.067154
      2          7           0        1.119239   -2.169892    0.414155
      3          6           0       -1.320783   -1.870288    0.575100
      4          6           0        0.097070   -0.278243   -0.665035
      5          1           0        0.345638   -0.644576   -1.665733
      6          1           0        0.075197    0.805568   -0.725510
      7          6           0       -2.499782   -0.145241   -0.648672
      8          6           0       -2.654481   -2.365031    1.067303
      9          6           0       -3.678031   -0.761293   -0.514771
     10          6           0       -3.757652   -2.164718    0.026852
     11          6           0       -1.242037   -0.803207   -0.226688
     12          6           0       -3.673768   -3.185044   -1.115259
     13          1           0       -2.713804   -3.108463   -1.629908
     14          1           0       -3.779714   -4.203402   -0.732330
     15          1           0       -4.463978   -3.015103   -1.849204
     16          1           0       -0.042804   -2.453544    2.167807
     17          6           0        1.186235   -0.717345    0.308694
     18          1           0       -0.229479   -3.665735    0.902603
     19         16           0       -2.464727    1.449318   -1.443430
     20          6           0        2.296096   -2.765497    1.013060
     21          6           0        2.554696   -0.219502   -0.106675
     22          1           0        0.957803   -0.261626    1.292180
     23          6           0        3.645771   -1.079377   -0.219689
     24          6           0        3.489740   -2.541994    0.103602
     25          1           0        4.401676   -2.915736    0.576310
     26          1           0        3.341667   -3.113842   -0.817540
     27          1           0        2.112292   -3.834692    1.142427
     28          1           0        2.497452   -2.345264    2.015932
     29          6           0        2.734370    1.142810   -0.349326
     30          6           0        4.882856   -0.565935   -0.605559
     31          6           0        5.048337    0.782414   -0.868930
     32          6           0        3.966582    1.643770   -0.731019
     33          1           0        4.084859    2.704599   -0.916434
     34          1           0        1.899581    1.823956   -0.229618
     35          1           0        5.728640   -1.240379   -0.689766
     36          1           0        6.017599    1.163896   -1.166856
     37          6           0       -1.656356    2.451251   -0.211115
     38          6           0       -0.899062    3.537417   -0.643697
     39          6           0       -1.756035    2.179773    1.149796
     40          6           0       -1.085598    2.978246    2.065240
     41          6           0       -0.331503    4.061985    1.636435
     42          6           0       -0.248688    4.343060    0.279037
     43          1           0       -2.349189    1.340691    1.489751
     44          1           0       -1.158824    2.752804    3.122539
     45          1           0       -0.807060    3.738704   -1.704488
     46          1           0        0.189543    4.682609    2.354782
     47          1           0        0.338284    5.185363   -0.067230
     48          1           0       -2.915542   -1.821566    1.985550
     49          1           0       -2.590482   -3.421894    1.342418
     50          1           0       -4.723736   -2.289514    0.523494
     51          1           0       -4.587563   -0.269903   -0.840407
 ---------------------------------------------------------------------

 SCF Done:  E(RHF) =  -1375.76073134     A.U. after    2 cycles

 The electronic state is 1-A.
 Alpha  occ. eigenvalues --  -93.53836 -15.60883 -11.27764 -11.26989 -11.26507
 Alpha  occ. eigenvalues --  -11.26460 -11.25807 -11.25034 -11.25009 -11.24821
 Alpha  occ. eigenvalues --  -11.24669 -11.24665 -11.24558 -11.24475 -11.24008
 Alpha  occ. eigenvalues --  -11.23964 -11.23884 -11.23818 -11.23761 -11.23483
 Alpha  occ. eigenvalues --  -11.23345 -11.23255 -11.23191 -11.23143 -11.22630
 Alpha  occ. eigenvalues --  -11.22297  -8.83567  -6.17816  -6.17610  -6.17253
 Alpha  occ. eigenvalues --   -1.22455  -1.16027  -1.14845  -1.13777  -1.07337
 Alpha  occ. eigenvalues --   -1.06711  -1.04465  -1.03252  -1.01956  -1.01620
 Alpha  occ. eigenvalues --   -0.98757  -0.96953  -0.93125  -0.92480  -0.88488
 Alpha  occ. eigenvalues --   -0.86063  -0.84073  -0.83833  -0.82392  -0.81017
 Alpha  occ. eigenvalues --   -0.79042  -0.76666  -0.74303  -0.70789  -0.69549
 Alpha  occ. eigenvalues --   -0.67605  -0.66526  -0.65592  -0.64793  -0.64156
 Alpha  occ. eigenvalues --   -0.63520  -0.62220  -0.61994  -0.61618  -0.60248
 Alpha  occ. eigenvalues --   -0.59816  -0.59580  -0.58600  -0.57737  -0.57445
 Alpha  occ. eigenvalues --   -0.56474  -0.55693  -0.54633  -0.53734  -0.52788
 Alpha  occ. eigenvalues --   -0.52338  -0.52257  -0.51495  -0.51147  -0.50494
 Alpha  occ. eigenvalues --   -0.50184  -0.49481  -0.48231  -0.47673  -0.47462
 Alpha  occ. eigenvalues --   -0.46022  -0.44866  -0.43419  -0.42141  -0.38425
 Alpha  occ. eigenvalues --   -0.35439  -0.34829  -0.32654  -0.32007  -0.31714
 Alpha  occ. eigenvalues --   -0.29446
 Alpha virt. eigenvalues --    0.02782   0.03206   0.03422   0.03729   0.04388
 Alpha virt. eigenvalues --    0.04741   0.04988   0.05231   0.05431   0.05923
 Alpha virt. eigenvalues --    0.06225   0.06500   0.06629   0.07236   0.07468

 Mulliken charges:
               1
     1  C    0.550702
     2  N   -0.802629
     3  C   -1.581642
     4  C    0.101748
     5  H    0.060198
     6  H   -0.091726
     7  C   -0.972744
     8  C    1.106513
     9  C    0.832759
    10  C   -0.513579
    11  C    0.330470
    12  C    0.856975
    13  H   -0.036912
    14  H   -0.078545
    15  H   -0.106285
    16  H    0.138407
    17  C    0.039648
    18  H   -0.085011
    19  S    0.458431
    20  C    1.107069
    21  C   -0.048557
    22  H   -0.186667
    23  C   -0.400274
    24  C    0.797891
    25  H   -0.017342
    26  H    0.098498
    27  H   -0.285090
    28  H   -0.127507
    29  C    0.655936
    30  C    0.761603
    31  C    0.243052
    32  C    0.288112
    33  H   -0.563040
    34  H   -0.507919
    35  H   -0.625798
    36  H   -0.474629
    37  C   -0.651491
    38  C    1.013206
    39  C    1.070423
    40  C    0.097384
    41  C    0.819171
    42  C    0.365503
    43  H   -0.611415
    44  H   -0.618879
    45  H   -0.612265
    46  H   -0.534425
    47  H   -0.529737
    48  H    0.005949
    49  H   -0.086482
    50  H   -0.110365
    51  H   -0.538695
 Sum of Mulliken charges =  -0.00000

 Dipole moment (field-independent basis, Debye):
    X=             -0.0311    Y=             -1.3153    Z=              2.1912  Tot=              2.5558

 Test job not archived.
 1\1\GINC-SE424\SP\RHF\Aug-CC-pVDZ\C24H25N1S1\OHZDE\09-Apr-2025\0\\#t h
 f aug-cc-pvdz iop(5/13=1,5/36=2,99/5=2) pseudo=read geom=check guess=(
 read,tcheck) scf=(maxcycle=1)\\title\\0,1\C,0,-0.102494,-2.590145,1.06
 7154\N,0,1.119239,-2.169892,0.414155\C,0,-1.320783,-1.870288,0.5751\C,
 0,0.09707,-0.278243,-0.665035\H,0,0.345638,-0.644576,-1.665733\H,0,0.0
 75197,0.805568,-0.72551\C,0,-2.499782,-0.145241,-0.648672\C,0,-2.65448
 1,-2.365031,1.067303\C,0,-3.678031,-0.761293,-0.514771\C,0,-3.757652,-
 2.164718,0.026852\C,0,-1.242037,-0.803207,-0.226688\C,0,-3.673768,-3.1

 Normal termination of Gaussian 16 at Wed Apr  9 02:50:46 2025.
