 Gaussian 16, Revision C.01,

 ----------------------------------------------------------------------
 #t hf aug-cc-pvdz symm=none int=(grid=ultrafine) guess=(read,tcheck) s
 table=(opt,rrhf)
 ----------------------------------------------------------------------
 -----
 title
 -----
 Symbolic Z-matrix:
 Charge =  1 Multiplicity = 1

 SCF Done:  E(RHF) =  -1529.70650044     A.U. after   18 cycles
 Normal termination of Gaussian 16 at Wed Apr  9 02:15:11 2025.
 Gaussian 16:  ES64L-G16RevC.01  3-Jul-2019

 ----------------------------------------------------------------------
 #t hf aug-cc-pvdz iop(5/13=1,5/36=2,99/5=2) pseudo=read geom=check gue
 ss=(read,tcheck) scf=(maxcycle=1)
 ----------------------------------------------------------------------
 -----
 title
 -----
 Structure from the checkpoint file:  "BH10_246_forward_mol1.chk"
 Charge =  1 Multiplicity = 1

                         Standard orientation:
 ---------------------------------------------------------------------
 Center     Atomic      Atomic             Coordinates (Angstroms)
 Number     Number       Type             X           Y           Z
 ---------------------------------------------------------------------
      1          6           0        1.139774   -0.792441   -0.472852
      2          6           0        1.904830    1.756018   -0.407639
      3          6           0        3.324359    1.243069   -0.676962
      4          6           0        3.573442   -0.139284   -0.103467
      5          6           0        2.605992   -1.121431   -0.753190
      6          1           0        3.492929    1.218800   -1.758828
      7          1           0        4.023220    1.968042   -0.255136
      8          1           0        3.412293   -0.139124    0.975911
      9          1           0        2.778189   -1.122164   -1.833794
     10          1           0        2.803814   -2.127669   -0.384116
     11          7           0        0.925723    0.667100   -0.699891
     12          8           0       -0.286548    1.034033   -0.841557
     13          6           0        0.238383   -1.557996   -1.440012
     14          1           0        0.466338   -2.621184   -1.358298
     15          1           0       -0.817487   -1.417410   -1.212033
     16          1           0        0.418460   -1.246634   -2.469578
     17          6           0        0.756309   -1.149478    0.973371
     18          1           0       -0.288827   -0.910065    1.171142
     19          1           0        0.872076   -2.226249    1.099841
     20          1           0        1.386525   -0.664188    1.715674
     21          6           0        1.598136    2.927896   -1.339073
     22          1           0        0.637325    3.385642   -1.109858
     23          1           0        2.372604    3.685637   -1.215031
     24          1           0        1.594513    2.606968   -2.381397
     25          6           0        1.742060    2.207541    1.053286
     26          1           0        2.409609    3.052315    1.227908
     27          1           0        0.727177    2.555836    1.247579
     28          1           0        1.998216    1.427832    1.768275
     29          6           0       -1.838274    1.474497    1.103890
     30          1           0       -1.276747    1.154790    1.982306
     31          1           0       -0.904739    1.149315    0.159459
     32          6           0       -2.900724    0.561029    0.679487
     33          6           0       -3.573811    0.654091   -0.547245
     34          6           0       -3.164623   -0.534042    1.513687
     35          6           0       -4.507954   -0.295500   -0.906897
     36          1           0       -3.351265    1.449818   -1.243396
     37          6           0       -4.107210   -1.480190    1.164828
     38          1           0       -2.643348   -0.630768    2.458719
     39          6           0       -4.775976   -1.355762   -0.047030
     40          1           0       -5.025970   -0.227504   -1.853884
     41          1           0       -4.327017   -2.311123    1.821347
     42          8           0       -1.886639    2.806548    1.088590
     43          6           0       -2.801902    3.539616    0.266381
     44          1           0       -3.818022    3.169071    0.399210
     45          1           0       -2.729728    4.567524    0.608870
     46          1           0       -2.502100    3.480222   -0.780837
     47         17           0       -5.945765   -2.541418   -0.499782
     48          7           0        4.951043   -0.540212   -0.295773
     49          6           0        5.486091   -1.529608    0.480972
     50          6           0        6.920900   -1.894290    0.209885
     51          1           0        7.494015   -1.751339    1.126296
     52          1           0        6.970574   -2.953315   -0.044581
     53          1           0        7.374138   -1.309949   -0.591096
     54          8           0        4.820767   -2.070733    1.344123
     55          1           0        5.494429   -0.138427   -1.042516
 ---------------------------------------------------------------------

 SCF Done:  E(RHF) =  -1530.04748114     A.U. after    2 cycles

 The electronic state is 1-A.
 Alpha  occ. eigenvalues -- -103.77613 -20.82751 -20.76842 -20.61515 -15.86582
 Alpha  occ. eigenvalues --  -15.73909 -11.51271 -11.44625 -11.44341 -11.43004
 Alpha  occ. eigenvalues --  -11.41928 -11.41368 -11.40392 -11.39812 -11.39770
 Alpha  occ. eigenvalues --  -11.38231 -11.38157 -11.38068 -11.35541 -11.34953
 Alpha  occ. eigenvalues --  -11.34776 -11.34408 -11.34156 -11.33902 -11.32149
 Alpha  occ. eigenvalues --  -10.80903  -8.46643  -8.46310  -8.46303  -1.59749
 Alpha  occ. eigenvalues --   -1.53901  -1.43398  -1.32609  -1.31089  -1.28039
 Alpha  occ. eigenvalues --   -1.27278  -1.22438  -1.18794  -1.16226  -1.15130
 Alpha  occ. eigenvalues --   -1.12609  -1.10789  -1.07069  -1.06572  -1.05312
 Alpha  occ. eigenvalues --   -1.04869  -1.02346  -0.98714  -0.96056  -0.95145
 Alpha  occ. eigenvalues --   -0.94180  -0.91476  -0.88458  -0.86333  -0.85917
 Alpha  occ. eigenvalues --   -0.83500  -0.81815  -0.81554  -0.80375  -0.79364
 Alpha  occ. eigenvalues --   -0.78389  -0.77825  -0.76681  -0.76027  -0.73980
 Alpha  occ. eigenvalues --   -0.73909  -0.73009  -0.71564  -0.71216  -0.71064
 Alpha  occ. eigenvalues --   -0.70522  -0.69774  -0.69286  -0.68539  -0.68087
 Alpha  occ. eigenvalues --   -0.67673  -0.67153  -0.66086  -0.65926  -0.65479
 Alpha  occ. eigenvalues --   -0.64680  -0.64345  -0.64185  -0.63840  -0.63604
 Alpha  occ. eigenvalues --   -0.62560  -0.61710  -0.60829  -0.60254  -0.60027
 Alpha  occ. eigenvalues --   -0.59491  -0.58048  -0.57759  -0.57580  -0.52181
 Alpha  occ. eigenvalues --   -0.50053  -0.48645  -0.48453  -0.43986
 Alpha virt. eigenvalues --   -0.16007  -0.05781  -0.04935  -0.04488  -0.04345
 Alpha virt. eigenvalues --   -0.03433  -0.02954  -0.02818  -0.02743  -0.02465
 Alpha virt. eigenvalues --   -0.02273  -0.01764  -0.01333  -0.01034  -0.00814

 Mulliken charges:
               1
     1  C   -3.828808
     2  C   -3.766752
     3  C    1.839735
     4  C   -0.347288
     5  C    1.823256
     6  H    0.001032
     7  H   -0.098858
     8  H   -0.387967
     9  H    0.040237
    10  H   -0.120683
    11  N    0.122275
    12  O   -0.699519
    13  C    1.720400
    14  H    0.075593
    15  H   -0.081573
    16  H   -0.025994
    17  C    1.526737
    18  H   -0.467462
    19  H    0.057176
    20  H    0.036952
    21  C    1.656486
    22  H   -0.069386
    23  H    0.097805
    24  H    0.008452
    25  C    1.448277
    26  H    0.018730
    27  H   -0.241870
    28  H    0.020684
    29  C    0.382733
    30  H   -0.459582
    31  H   -0.170842
    32  C    0.665321
    33  C    0.755416
    34  C    1.219905
    35  C    0.558683
    36  H   -0.780177
    37  C    0.756019
    38  H   -0.681439
    39  C   -0.076370
    40  H   -0.519859
    41  H   -0.485467
    42  O   -0.595555
    43  C    1.109277
    44  H   -0.053010
    45  H   -0.331526
    46  H   -0.125387
    47  Cl  -0.276486
    48  N   -0.041717
    49  C   -0.053005
    50  C    0.554988
    51  H    0.051150
    52  H    0.050019
    53  H   -0.178497
    54  O   -0.566434
    55  H   -0.065830
 Sum of Mulliken charges =   1.00000

 Dipole moment (field-independent basis, Debye):
    X=             -0.9321    Y=              5.5440    Z=             -1.9827  Tot=              5.9612

 Test job not archived.
 1\1\GINC-SE253\SP\RHF\Aug-CC-pVDZ\C19H30Cl1N2O3(1+)\OHZDE\09-Apr-2025\
 0\\#t hf aug-cc-pvdz iop(5/13=1,5/36=2,99/5=2) pseudo=read geom=check
 guess=(read,tcheck) scf=(maxcycle=1)\\title\\1,1\C,0,1.139774,-0.79244
 1,-0.472852\C,0,1.90483,1.756018,-0.407639\C,0,3.324359,1.243069,-0.67
 6962\C,0,3.573442,-0.139284,-0.103467\C,0,2.605992,-1.121431,-0.75319\
 H,0,3.492929,1.2188,-1.758828\H,0,4.02322,1.968042,-0.255136\H,0,3.412
 293,-0.139124,0.975911\H,0,2.778189,-1.122164,-1.833794\H,0,2.803814,-
 2.127669,-0.384116\N,0,0.925723,0.6671,-0.699891\O,0,-0.286548,1.03403

 Normal termination of Gaussian 16 at Wed Apr  9 02:18:49 2025.
