 Gaussian 16, Revision C.01,

 ----------------------------------------------------------------------
 #t hf aug-cc-pvdz symm=none int=(grid=ultrafine) guess=(read,tcheck) s
 table=(opt,rrhf)
 ----------------------------------------------------------------------
 -----
 title
 -----
 Symbolic Z-matrix:
 Charge =  0 Multiplicity = 1

 SCF Done:  E(RHF) =  -782.662735839     A.U. after   13 cycles
 Normal termination of Gaussian 16 at Wed Apr  9 01:17:25 2025.
 Gaussian 16:  ES64L-G16RevC.01  3-Jul-2019

 ----------------------------------------------------------------------
 #t hf aug-cc-pvdz iop(5/13=1,5/36=2,99/5=2) pseudo=read geom=check gue
 ss=(read,tcheck) scf=(maxcycle=1)
 ----------------------------------------------------------------------
 -----
 title
 -----
 Structure from the checkpoint file:  "BH10_296_forward_mol2.chk"
 Charge =  0 Multiplicity = 1

                         Standard orientation:
 ---------------------------------------------------------------------
 Center     Atomic      Atomic             Coordinates (Angstroms)
 Number     Number       Type             X           Y           Z
 ---------------------------------------------------------------------
      1          6           0       -2.846573   -0.378033   -1.046103
      2          6           0       -1.689592    0.602844   -1.395594
      3          6           0       -0.447243   -0.689659    1.153509
      4          1           0       -3.311834   -0.708297   -1.978334
      5          6           0       -1.652218    1.833503   -0.461037
      6          1           0       -0.737010    2.406695   -0.646071
      7          1           0       -2.477284    2.495013   -0.748157
      8          1           0        0.163173   -1.174540    1.921928
      9          1           0       -1.895884    0.995284   -2.395199
     10          1           0        0.150691   -0.478964   -2.497344
     11          6           0       -1.782586    1.561863    1.034348
     12          1           0       -1.831691    2.525491    1.551356
     13          1           0       -2.744740    1.081091    1.230740
     14          6           0       -0.671646    0.739411    1.679014
     15          1           0        0.267132    1.298157    1.618958
     16          1           0       -0.899561    0.662995    2.747723
     17          6           0       -1.765778   -1.503198    1.087369
     18          1           0       -1.558221   -2.519485    1.436220
     19          6           0       -2.448339   -1.647363   -0.278891
     20          1           0       -1.800431   -2.250581   -0.925807
     21          1           0       -3.348317   -2.253671   -0.135539
     22          1           0       -2.476483   -1.087190    1.809106
     23          1           0       -3.629232    0.157954   -0.499743
     24          6           0        0.345176   -0.758860   -0.167207
     25          1           0        0.590660   -1.811232   -0.384904
     26         14           0        2.125498   -0.065482   -0.115067
     27          6           0        2.219639    1.765311   -0.543677
     28          1           0        1.682665    2.392609    0.170091
     29          1           0        3.262023    2.095720   -0.553645
     30          1           0        1.806330    1.962684   -1.536660
     31          6           0        3.148534   -1.010136   -1.375323
     32          1           0        4.176199   -0.638039   -1.398819
     33          1           0        3.187907   -2.076062   -1.136722
     34          1           0        2.734617   -0.909404   -2.380841
     35          6           0        2.859120   -0.340073    1.593335
     36          1           0        2.834873   -1.397803    1.867620
     37          1           0        3.903881   -0.017994    1.610805
     38          1           0        2.328300    0.216714    2.368036
     39          5           0       -0.349141   -0.220810   -1.436462
 ---------------------------------------------------------------------

 SCF Done:  E(RHF) =  -782.835637548     A.U. after    2 cycles

 The electronic state is 1-A.
 Alpha  occ. eigenvalues --  -69.04289 -11.22896 -11.22486 -11.22429 -11.22154
 Alpha  occ. eigenvalues --  -11.22060 -11.21998 -11.21871 -11.20501 -11.20394
 Alpha  occ. eigenvalues --  -11.20159 -11.19812 -11.18601  -7.58442  -6.79553
 Alpha  occ. eigenvalues --   -3.90276  -3.90253  -3.90251  -1.10317  -1.03525
 Alpha  occ. eigenvalues --   -1.03377  -0.97038  -0.94234  -0.91720  -0.91495
 Alpha  occ. eigenvalues --   -0.91158  -0.87224  -0.79639  -0.78798  -0.71392
 Alpha  occ. eigenvalues --   -0.66348  -0.64193  -0.62412  -0.61596  -0.59815
 Alpha  occ. eigenvalues --   -0.58354  -0.57477  -0.57254  -0.56632  -0.56072
 Alpha  occ. eigenvalues --   -0.55399  -0.54748  -0.54162  -0.53397  -0.52923
 Alpha  occ. eigenvalues --   -0.52175  -0.49387  -0.48745  -0.47795  -0.46577
 Alpha  occ. eigenvalues --   -0.44800  -0.44584  -0.43277  -0.43075  -0.41889
 Alpha  occ. eigenvalues --   -0.41153  -0.40171  -0.38098
 Alpha virt. eigenvalues --    0.02722   0.03627   0.03892   0.03943   0.05107
 Alpha virt. eigenvalues --    0.05413   0.05423   0.05575   0.05717   0.07059
 Alpha virt. eigenvalues --    0.07175   0.07371   0.07503   0.07596   0.07925

 Mulliken charges:
               1
     1  C    0.316747
     2  C    0.105073
     3  C    0.049451
     4  H   -0.199565
     5  C    0.635644
     6  H   -0.094965
     7  H   -0.151095
     8  H   -0.304858
     9  H   -0.377489
    10  H    0.587331
    11  C    0.293543
    12  H   -0.229527
    13  H   -0.046455
    14  C    0.436641
    15  H   -0.207964
    16  H   -0.157261
    17  C    0.337194
    18  H   -0.163476
    19  C    0.685079
    20  H    0.019866
    21  H   -0.231309
    22  H   -0.128997
    23  H   -0.126599
    24  C    0.410150
    25  H   -0.397982
    26  Si  -0.110822
    27  C    0.929937
    28  H   -0.321226
    29  H   -0.422494
    30  H   -0.279221
    31  C    0.682583
    32  H   -0.423803
    33  H   -0.273338
    34  H   -0.251264
    35  C    0.954593
    36  H   -0.311294
    37  H   -0.471806
    38  H   -0.260008
    39  B   -0.501012
 Sum of Mulliken charges =   0.00000

 Dipole moment (field-independent basis, Debye):
    X=             -0.0776    Y=             -0.1242    Z=              0.5283  Tot=              0.5482

 Test job not archived.
 1\1\GINC-SE149\SP\RHF\Aug-CC-pVDZ\C12H25B1Si1\OHZDE\09-Apr-2025\0\\#t
 hf aug-cc-pvdz iop(5/13=1,5/36=2,99/5=2) pseudo=read geom=check guess=
 (read,tcheck) scf=(maxcycle=1)\\title\\0,1\C,0,-2.846573,-0.378033,-1.
 046103\C,0,-1.689592,0.602844,-1.395594\C,0,-0.447243,-0.689659,1.1535
 09\H,0,-3.311834,-0.708297,-1.978334\C,0,-1.652218,1.833503,-0.461037\
 H,0,-0.73701,2.406695,-0.646071\H,0,-2.477284,2.495013,-0.748157\H,0,0
 .163173,-1.17454,1.921928\H,0,-1.895884,0.995284,-2.395199\H,0,0.15069
 1,-0.478964,-2.497344\C,0,-1.782586,1.561863,1.034348\H,0,-1.831691,2.

 Normal termination of Gaussian 16 at Wed Apr  9 01:18:33 2025.
