 Gaussian 16, Revision C.01,

 ----------------------------------------------------------------------
 #t hf aug-cc-pvdz symm=none int=(grid=ultrafine) guess=(read,tcheck) s
 table=(opt,rrhf)
 ----------------------------------------------------------------------
 -----
 title
 -----
 Symbolic Z-matrix:
 Charge =  0 Multiplicity = 1

 SCF Done:  E(RHF) =  -215.950602841     A.U. after   12 cycles
 Normal termination of Gaussian 16 at Wed Apr  9 01:01:02 2025.
 Gaussian 16:  ES64L-G16RevC.01  3-Jul-2019

 ----------------------------------------------------------------------
 #t hf aug-cc-pvdz iop(5/13=1,5/36=2,99/5=2) pseudo=read geom=check gue
 ss=(read,tcheck) scf=(maxcycle=1)
 ----------------------------------------------------------------------
 -----
 title
 -----
 Structure from the checkpoint file:  "BH10_292_forward_mol2.chk"
 Charge =  0 Multiplicity = 1

                         Standard orientation:
 ---------------------------------------------------------------------
 Center     Atomic      Atomic             Coordinates (Angstroms)
 Number     Number       Type             X           Y           Z
 ---------------------------------------------------------------------
      1          6           0       -0.536558    0.689685    0.000037
      2          6           0        0.775457    0.565908    0.000014
      3          9           0        1.380523   -0.644086   -0.000060
      4          6           0       -1.516475   -0.439031    0.000016
      5          1           0       -2.163531   -0.389511    0.879479
      6          1           0       -2.163742   -0.389294   -0.879278
      7          1           0       -1.010763   -1.403580   -0.000159
      8          1           0       -0.915322    1.705825    0.000074
      9          1           0        1.494109    1.373967    0.000022
 ---------------------------------------------------------------------

 SCF Done:  E(RHF) =  -216.026062612     A.U. after    2 cycles

 The electronic state is 1-A.
 Alpha  occ. eigenvalues --  -26.12517 -11.32585 -11.24932 -11.23916  -1.66337
 Alpha  occ. eigenvalues --   -1.07726  -0.95272  -0.83135  -0.77178  -0.73916
 Alpha  occ. eigenvalues --   -0.68117  -0.62191  -0.57685  -0.54466  -0.52852
 Alpha  occ. eigenvalues --   -0.37524
 Alpha virt. eigenvalues --    0.03415   0.04524   0.05386   0.05851   0.07256
 Alpha virt. eigenvalues --    0.10832   0.11392   0.12274   0.13549   0.14222
 Alpha virt. eigenvalues --    0.15988   0.16372   0.16555   0.16866   0.18547

 Mulliken charges:
               1
     1  C    0.093932
     2  C    0.649838
     3  F   -0.334539
     4  C    0.244320
     5  H    0.022644
     6  H    0.022617
     7  H   -0.112119
     8  H   -0.345083
     9  H   -0.241611
 Sum of Mulliken charges =  -0.00000

 Dipole moment (field-independent basis, Debye):
    X=             -1.2611    Y=              1.4772    Z=              0.0001  Tot=              1.9422

 Test job not archived.
 1\1\GINC-SE054\SP\RHF\Aug-CC-pVDZ\C3H5F1\OHZDE\09-Apr-2025\0\\#t hf au
 g-cc-pvdz iop(5/13=1,5/36=2,99/5=2) pseudo=read geom=check guess=(read
 ,tcheck) scf=(maxcycle=1)\\title\\0,1\C,0,-0.536558,0.689685,0.000037\
 C,0,0.775457,0.565908,0.000014\F,0,1.380523,-0.644086,-0.00006\C,0,-1.
 516475,-0.439031,0.000016\H,0,-2.163531,-0.389511,0.879479\H,0,-2.1637
 42,-0.389294,-0.879278\H,0,-1.010763,-1.40358,-0.000159\H,0,-0.915322,
 1.705825,0.000074\H,0,1.494109,1.373967,0.000022\\Version=ES64L-G16Rev
 C.01\State=1-A\HF=-216.0260626\RMSD=7.600e-03\Dipole=-0.4961437,0.5811

 Normal termination of Gaussian 16 at Wed Apr  9 01:01:05 2025.
