 Gaussian 16, Revision C.01,

 ----------------------------------------------------------------------
 #t hf aug-cc-pvdz symm=none int=(grid=ultrafine) guess=(read,tcheck) s
 table=(opt,rrhf)
 ----------------------------------------------------------------------
 -----
 title
 -----
 Symbolic Z-matrix:
 Charge =  0 Multiplicity = 1

 SCF Done:  E(RHF) =  -1667.46334714     A.U. after   15 cycles
 Normal termination of Gaussian 16 at Wed Apr  9 01:57:17 2025.
 Gaussian 16:  ES64L-G16RevC.01  3-Jul-2019

 ----------------------------------------------------------------------
 #t hf aug-cc-pvdz iop(5/13=1,5/36=2,99/5=2) pseudo=read geom=check gue
 ss=(read,tcheck) scf=(maxcycle=1)
 ----------------------------------------------------------------------
 -----
 title
 -----
 Structure from the checkpoint file:  "BH10_358_forward_mol1.chk"
 Charge =  0 Multiplicity = 1

                         Standard orientation:
 ---------------------------------------------------------------------
 Center     Atomic      Atomic             Coordinates (Angstroms)
 Number     Number       Type             X           Y           Z
 ---------------------------------------------------------------------
      1          6           0       -0.688438    1.844416   -0.175500
      2          6           0       -0.456469    0.527385    0.512351
      3          6           0        0.731564    0.296984    1.213443
      4          6           0        2.003956    0.196335   -0.312895
      5          6           0        3.326535    0.164667    0.458224
      6          6           0        4.454727    0.006746   -0.538255
      7          7           0       -1.301221   -0.477514    0.345639
      8          6           0       -2.545546   -0.449975   -0.406126
      9          6           0       -3.748356   -0.059779    0.447790
     10          1           0       -2.697419   -1.443624   -0.832032
     11          1           0       -2.435607    0.237380   -1.246119
     12          6           0       -5.037428   -0.044615   -0.364194
     13          1           0       -3.568904    0.922576    0.896902
     14          1           0       -3.840063   -0.768489    1.276957
     15          6           0       -6.244654    0.351013    0.480879
     16          1           0       -5.215081   -1.026563   -0.804420
     17          1           0       -4.936524    0.663402   -1.195829
     18          6           0       -7.574319    0.380287   -0.279071
     19          1           0       -6.080572    1.352713    0.891817
     20          1           0       -6.336414   -0.329727    1.334394
     21          6           0       -8.093564   -1.031397   -0.606338
     22          7           0       -8.641901    1.128128    0.394064
     23          1           0       -7.414057    0.853886   -1.253423
     24          8           0       -7.379106   -1.945662   -0.910462
     25          8           0       -9.418222   -1.142558   -0.548897
     26          1           0       -9.743230   -0.271348   -0.235410
     27          8           0        0.294143    2.790099    0.114748
     28          1           0       -1.661333    2.243841    0.125117
     29          1           0       -0.725880    1.643287   -1.255168
     30          1           0        1.081552    2.497199   -0.395190
     31          8           0        0.732623   -0.918898    1.889801
     32          1           0        1.143566    1.152801    1.739682
     33          1           0        1.659151   -1.194904    1.981577
     34          8           0        1.894341    1.142954   -1.145086
     35          1           0        1.663075   -0.820480   -0.589565
     36          8           0        3.346976   -0.921028    1.382069
     37          1           0        3.452380    1.114054    0.988615
     38          1           0        4.240360   -0.993959    1.734564
     39          8           0        5.658497   -0.143354    0.252061
     40          1           0        4.530041    0.881726   -1.180245
     41          1           0        4.312749   -0.892594   -1.143208
     42          1           0       -8.625124    2.112150    0.160656
     43          1           0       -8.576165    1.045912    1.403185
     44         15           0        7.086568   -0.264556   -0.466383
     45          8           0        8.064387   -0.190301    0.799018
     46          1           0        8.267508    0.705244    1.089211
     47          8           0        7.233125   -1.795859   -0.888023
     48          1           0        7.195066   -2.428975   -0.163073
     49          8           0        7.311460    0.672128   -1.565148
     50          1           0       -1.059576   -1.314035    0.866339
 ---------------------------------------------------------------------

 SCF Done:  E(RHF) =  -1667.94933728     A.U. after    2 cycles

 The electronic state is 1-A.
 Alpha  occ. eigenvalues --  -81.45241 -20.62667 -20.62372 -20.61813 -20.61450
 Alpha  occ. eigenvalues --  -20.59691 -20.57546 -20.56054 -20.55662 -20.52908
 Alpha  occ. eigenvalues --  -20.49207 -15.68778 -15.65868 -11.39808 -11.34117
 Alpha  occ. eigenvalues --  -11.32608 -11.31387 -11.30984 -11.30787 -11.30385
 Alpha  occ. eigenvalues --  -11.30296 -11.27825 -11.26408 -11.25820 -11.25009
 Alpha  occ. eigenvalues --   -7.93105  -5.07801  -5.07721  -5.07686  -1.42622
 Alpha  occ. eigenvalues --   -1.40473  -1.36807  -1.35683  -1.34855  -1.33512
 Alpha  occ. eigenvalues --   -1.33488  -1.32375  -1.27885  -1.26424  -1.26321
 Alpha  occ. eigenvalues --   -1.20592  -1.10512  -1.05802  -1.03587  -1.00990
 Alpha  occ. eigenvalues --   -0.95978  -0.94076  -0.91352  -0.88395  -0.84718
 Alpha  occ. eigenvalues --   -0.83281  -0.83039  -0.80443  -0.80037  -0.78762
 Alpha  occ. eigenvalues --   -0.76165  -0.75323  -0.74573  -0.72949  -0.72225
 Alpha  occ. eigenvalues --   -0.71089  -0.70394  -0.69840  -0.68815  -0.68077
 Alpha  occ. eigenvalues --   -0.67464  -0.66016  -0.65375  -0.64875  -0.64309
 Alpha  occ. eigenvalues --   -0.63946  -0.62417  -0.62213  -0.61879  -0.61167
 Alpha  occ. eigenvalues --   -0.60877  -0.60248  -0.59688  -0.59411  -0.58124
 Alpha  occ. eigenvalues --   -0.57286  -0.57103  -0.56913  -0.56017  -0.55038
 Alpha  occ. eigenvalues --   -0.54607  -0.53528  -0.53070  -0.52556  -0.51526
 Alpha  occ. eigenvalues --   -0.51165  -0.50374  -0.49534  -0.49437  -0.49346
 Alpha  occ. eigenvalues --   -0.48967  -0.47814  -0.46872  -0.46377  -0.45636
 Alpha  occ. eigenvalues --   -0.43047  -0.39325  -0.31273
 Alpha virt. eigenvalues --    0.01533   0.02588   0.02689   0.03427   0.03528
 Alpha virt. eigenvalues --    0.04271   0.04474   0.04842   0.05276   0.05839
 Alpha virt. eigenvalues --    0.06487   0.06574   0.06686   0.07048   0.07558

 Mulliken charges:
               1
     1  C    0.995980
     2  C   -0.132784
     3  C    1.097328
     4  C    0.950269
     5  C    0.376949
     6  C    0.908284
     7  N   -0.576895
     8  C    0.790441
     9  C    0.234848
    10  H   -0.317808
    11  H   -0.218660
    12  C    0.540066
    13  H   -0.260965
    14  H   -0.194159
    15  C    0.401389
    16  H   -0.200976
    17  H   -0.168368
    18  C    0.599655
    19  H   -0.177130
    20  H   -0.120201
    21  C    0.542306
    22  N   -0.631331
    23  H   -0.059839
    24  O   -0.455715
    25  O   -0.486507
    26  H    0.260909
    27  O   -0.595937
    28  H   -0.094817
    29  H    0.105421
    30  H    0.270498
    31  O   -0.764524
    32  H   -0.273571
    33  H    0.227228
    34  O   -0.954405
    35  H   -0.219266
    36  O   -0.709999
    37  H   -0.242742
    38  H    0.178200
    39  O   -1.272095
    40  H   -0.132907
    41  H   -0.110724
    42  H    0.080151
    43  H    0.081578
    44  P    2.464972
    45  O   -0.629055
    46  H    0.174730
    47  O   -0.625524
    48  H    0.155951
    49  O   -0.840063
    50  H    0.029812
 Sum of Mulliken charges =  -0.00000

 Dipole moment (field-independent basis, Debye):
    X=             -5.0610    Y=              1.0174    Z=              6.1371  Tot=              8.0195

 Test job not archived.
 1\1\GINC-SE331\SP\RHF\Aug-CC-pVDZ\C12H25N2O10P1\OHZDE\09-Apr-2025\0\\#
 t hf aug-cc-pvdz iop(5/13=1,5/36=2,99/5=2) pseudo=read geom=check gues
 s=(read,tcheck) scf=(maxcycle=1)\\title\\0,1\C,0,-0.688438,1.844416,-0
 .1755\C,0,-0.456469,0.527385,0.512351\C,0,0.731564,0.296984,1.213443\C
 ,0,2.003956,0.196335,-0.312895\C,0,3.326535,0.164667,0.458224\C,0,4.45
 4727,0.006746,-0.538255\N,0,-1.301221,-0.477514,0.345639\C,0,-2.545546
 ,-0.449975,-0.406126\C,0,-3.748356,-0.059779,0.44779\H,0,-2.697419,-1.
 443624,-0.832032\H,0,-2.435607,0.23738,-1.246119\C,0,-5.037428,-0.0446

 Normal termination of Gaussian 16 at Wed Apr  9 01:59:09 2025.
