 Gaussian 16, Revision C.01,

 ----------------------------------------------------------------------
 #t hf aug-cc-pvdz symm=none int=(grid=ultrafine) guess=(read,tcheck) s
 table=(opt,rrhf)
 ----------------------------------------------------------------------
 -----
 title
 -----
 Symbolic Z-matrix:
 Charge =  0 Multiplicity = 1

 SCF Done:  E(RHF) =  -1375.42388410     A.U. after   17 cycles
 Normal termination of Gaussian 16 at Wed Apr  9 02:35:15 2025.
 Gaussian 16:  ES64L-G16RevC.01  3-Jul-2019

 ----------------------------------------------------------------------
 #t hf aug-cc-pvdz iop(5/13=1,5/36=2,99/5=2) pseudo=read geom=check gue
 ss=(read,tcheck) scf=(maxcycle=1)
 ----------------------------------------------------------------------
 -----
 title
 -----
 Structure from the checkpoint file:  "BH10_395_forward_mol2.chk"
 Charge =  0 Multiplicity = 1

                         Standard orientation:
 ---------------------------------------------------------------------
 Center     Atomic      Atomic             Coordinates (Angstroms)
 Number     Number       Type             X           Y           Z
 ---------------------------------------------------------------------
      1          6           0        0.695059   -2.829518    1.049688
      2          7           0        1.656478   -2.080577    0.259680
      3          6           0       -0.620455   -2.091440    1.180080
      4          6           0        0.344572   -0.069065    0.075508
      5          1           0        0.497568    0.173524   -0.978521
      6          1           0        0.123442    0.872769    0.584127
      7          6           0       -1.972827   -0.846476   -0.492898
      8          6           0       -1.477795   -2.374312    2.156759
      9          6           0       -3.066456   -1.821045   -0.504203
     10          6           0       -4.305915   -1.616639   -0.948355
     11          6           0       -0.829613   -1.003095    0.204740
     12          6           0       -5.373163   -2.662723   -0.964445
     13          1           0       -5.015486   -3.609540   -0.555810
     14          1           0       -6.242927   -2.344788   -0.381610
     15          1           0       -5.728418   -2.844094   -1.983362
     16          1           0        1.087230   -3.044294    2.059302
     17          6           0        1.633762   -0.673441    0.644910
     18          1           0        0.521960   -3.790558    0.554876
     19         16           0       -2.174513    0.573443   -1.567594
     20          6           0        2.970627   -2.688853    0.290913
     21          6           0        2.843056    0.099873    0.164546
     22          1           0        1.611715   -0.593041    1.748190
     23          6           0        3.897511   -0.523271   -0.499675
     24          6           0        3.869384   -2.011357   -0.725444
     25          1           0        4.882743   -2.415775   -0.663048
     26          1           0        3.492409   -2.228470   -1.729527
     27          1           0        2.860348   -3.750013    0.054923
     28          1           0        3.422147   -2.624226    1.298218
     29          6           0        2.901851    1.474064    0.397577
     30          6           0        4.978911    0.242598   -0.932187
     31          6           0        5.024079    1.607770   -0.711336
     32          6           0        3.978683    2.226780   -0.036485
     33          1           0        4.005213    3.293022    0.153252
     34          1           0        2.090827    1.962254    0.925811
     35          1           0        5.799004   -0.248887   -1.445035
     36          1           0        5.873191    2.186726   -1.054052
     37          6           0       -2.022001    1.935534   -0.428467
     38          6           0       -2.601310    1.899900    0.836978
     39          6           0       -1.332582    3.071164   -0.839726
     40          6           0       -1.226195    4.165285    0.008635
     41          6           0       -1.788862    4.125020    1.275973
     42          6           0       -2.473293    2.987077    1.686809
     43          1           0       -0.864817    3.089456   -1.816614
     44          1           0       -0.686374    5.045426   -0.319705
     45          1           0       -3.141325    1.017189    1.155653
     46          1           0       -1.695349    4.974213    1.941642
     47          1           0       -2.919226    2.948948    2.673596
     48          1           0       -2.415416   -1.843535    2.256823
     49          1           0       -1.259522   -3.142932    2.890261
     50          1           0       -4.574216   -0.635941   -1.328840
     51          1           0       -2.810005   -2.801457   -0.116185
 ---------------------------------------------------------------------

 SCF Done:  E(RHF) =  -1375.72554157     A.U. after    2 cycles

 The electronic state is 1-A.
 Alpha  occ. eigenvalues --  -93.53332 -15.61333 -11.27494 -11.27051 -11.26800
 Alpha  occ. eigenvalues --  -11.26788 -11.26107 -11.25564 -11.25491 -11.24849
 Alpha  occ. eigenvalues --  -11.24828 -11.24618 -11.24572 -11.24500 -11.24348
 Alpha  occ. eigenvalues --  -11.24238 -11.23820 -11.23731 -11.23631 -11.23593
 Alpha  occ. eigenvalues --  -11.23550 -11.23459 -11.23415 -11.23359 -11.22964
 Alpha  occ. eigenvalues --  -11.22946  -8.83094  -6.17333  -6.17120  -6.16811
 Alpha  occ. eigenvalues --   -1.22880  -1.15701  -1.14751  -1.12678  -1.07826
 Alpha  occ. eigenvalues --   -1.05883  -1.04829  -1.04135  -1.01677  -1.01210
 Alpha  occ. eigenvalues --   -0.99504  -0.96691  -0.93142  -0.92185  -0.89833
 Alpha  occ. eigenvalues --   -0.85943  -0.83607  -0.83373  -0.81906  -0.81168
 Alpha  occ. eigenvalues --   -0.79105  -0.75694  -0.74289  -0.70945  -0.69824
 Alpha  occ. eigenvalues --   -0.68571  -0.67485  -0.66300  -0.65242  -0.64135
 Alpha  occ. eigenvalues --   -0.63566  -0.63208  -0.61976  -0.61113  -0.60062
 Alpha  occ. eigenvalues --   -0.59824  -0.59553  -0.58831  -0.57296  -0.56914
 Alpha  occ. eigenvalues --   -0.56588  -0.55958  -0.55554  -0.54207  -0.53346
 Alpha  occ. eigenvalues --   -0.52962  -0.52589  -0.52417  -0.51392  -0.50913
 Alpha  occ. eigenvalues --   -0.50386  -0.49302  -0.48384  -0.47814  -0.46264
 Alpha  occ. eigenvalues --   -0.46045  -0.44461  -0.41960  -0.38939  -0.37786
 Alpha  occ. eigenvalues --   -0.35682  -0.34681  -0.33024  -0.32325  -0.31999
 Alpha  occ. eigenvalues --   -0.28533
 Alpha virt. eigenvalues --    0.02820   0.03192   0.03314   0.03832   0.04357
 Alpha virt. eigenvalues --    0.04445   0.05016   0.05205   0.05593   0.05739
 Alpha virt. eigenvalues --    0.05976   0.06530   0.06757   0.07140   0.07230

 Mulliken charges:
               1
     1  C    0.436249
     2  N   -0.705429
     3  C   -0.510100
     4  C   -0.498183
     5  H   -0.024880
     6  H   -0.072050
     7  C   -0.802067
     8  C    1.660403
     9  C    1.250344
    10  C    0.006505
    11  C   -0.491568
    12  C    0.390008
    13  H   -0.178202
    14  H    0.087277
    15  H    0.095337
    16  H   -0.035331
    17  C    0.582608
    18  H   -0.267541
    19  S    0.305171
    20  C    1.148496
    21  C   -0.045940
    22  H   -0.005285
    23  C   -0.581454
    24  C    0.753581
    25  H   -0.024929
    26  H    0.083212
    27  H   -0.259219
    28  H   -0.162599
    29  C    1.043112
    30  C    1.169529
    31  C    0.194441
    32  C    0.129080
    33  H   -0.557368
    34  H   -0.679218
    35  H   -0.635363
    36  H   -0.476991
    37  C   -0.313344
    38  C    0.834326
    39  C    0.897563
    40  C    0.268929
    41  C    0.813861
    42  C    0.172632
    43  H   -0.652284
    44  H   -0.527075
    45  H   -0.608062
    46  H   -0.497605
    47  H   -0.559552
    48  H   -0.435628
    49  H   -0.585939
    50  H   -0.545615
    51  H   -0.583844
 Sum of Mulliken charges =  -0.00000

 Dipole moment (field-independent basis, Debye):
    X=              0.6799    Y=             -0.6776    Z=              1.9400  Tot=              2.1645

 Test job not archived.
 1\1\GINC-SE368\SP\RHF\Aug-CC-pVDZ\C24H25N1S1\OHZDE\09-Apr-2025\0\\#t h
 f aug-cc-pvdz iop(5/13=1,5/36=2,99/5=2) pseudo=read geom=check guess=(
 read,tcheck) scf=(maxcycle=1)\\title\\0,1\C,0,0.695059,-2.829518,1.049
 688\N,0,1.656478,-2.080577,0.25968\C,0,-0.620455,-2.09144,1.18008\C,0,
 0.344572,-0.069065,0.075508\H,0,0.497568,0.173524,-0.978521\H,0,0.1234
 42,0.872769,0.584127\C,0,-1.972827,-0.846476,-0.492898\C,0,-1.477795,-
 2.374312,2.156759\C,0,-3.066456,-1.821045,-0.504203\C,0,-4.305915,-1.6
 16639,-0.948355\C,0,-0.829613,-1.003095,0.20474\C,0,-5.373163,-2.66272

 Normal termination of Gaussian 16 at Wed Apr  9 02:37:56 2025.
