 Gaussian 16, Revision C.01,

 ----------------------------------------------------------------------
 #t hf aug-cc-pvdz symm=none int=(grid=ultrafine) guess=(read,tcheck) s
 table=(opt,rrhf)
 ----------------------------------------------------------------------
 -----
 title
 -----
 Symbolic Z-matrix:
 Charge =  0 Multiplicity = 1

 SCF Done:  E(RHF) =  -965.964503547     A.U. after   15 cycles
 Normal termination of Gaussian 16 at Wed Apr  9 01:23:21 2025.
 Gaussian 16:  ES64L-G16RevC.01  3-Jul-2019

 ----------------------------------------------------------------------
 #t hf aug-cc-pvdz iop(5/13=1,5/36=2,99/5=2) pseudo=read geom=check gue
 ss=(read,tcheck) scf=(maxcycle=1)
 ----------------------------------------------------------------------
 -----
 title
 -----
 Structure from the checkpoint file:  "BH10_344_forward_mol1.chk"
 Charge =  0 Multiplicity = 1

                         Standard orientation:
 ---------------------------------------------------------------------
 Center     Atomic      Atomic             Coordinates (Angstroms)
 Number     Number       Type             X           Y           Z
 ---------------------------------------------------------------------
      1          6           0       -0.053862   -1.860226   -0.340594
      2          6           0        1.015339   -1.083373   -0.842176
      3          1           0        0.042934   -2.156729    0.699898
      4          1           0        1.115722   -0.847203   -1.892980
      5          1           0       -0.378413   -2.674573   -0.983090
      6         16           0        1.715767    0.058522    0.204015
      7          8           0        1.439640    1.446226   -0.238750
      8          8           0        1.346793   -0.284622    1.589136
      9          6           0        3.479400   -0.145122    0.077029
     10          6           0        4.255215    0.808984   -0.401513
     11          1           0        3.819636   -1.110539    0.429781
     12          1           0        5.328149    0.674990   -0.470540
     13          1           0        3.824300    1.747644   -0.729148
     14          6           0       -2.785416   -1.442789    0.079547
     15          6           0       -1.557760    0.317937   -0.291642
     16          6           0       -3.598092   -0.358567    0.185645
     17          1           0       -3.008639   -2.489838    0.196849
     18          1           0       -0.700209    0.954224   -0.480028
     19          1           0       -4.648989   -0.272341    0.403722
     20          7           0       -1.524876   -0.996257   -0.222678
     21          7           0       -2.805815    0.744900   -0.050625
     22          6           0       -3.228928    2.136416   -0.017075
     23          1           0       -3.648496    2.374256    0.959787
     24          1           0       -2.359537    2.766595   -0.190793
     25          1           0       -3.970727    2.324276   -0.792972
 ---------------------------------------------------------------------

 SCF Done:  E(RHF) =  -966.208968719     A.U. after    2 cycles

 The electronic state is 1-A.
 Alpha  occ. eigenvalues --  -93.72937 -20.50707 -20.50660 -15.72738 -15.68737
 Alpha  occ. eigenvalues --  -11.34795 -11.31711 -11.30838 -11.30315 -11.29563
 Alpha  occ. eigenvalues --  -11.24812 -11.24085 -11.17688  -8.99605  -6.34243
 Alpha  occ. eigenvalues --   -6.34054  -6.33947  -1.37020  -1.35653  -1.24157
 Alpha  occ. eigenvalues --   -1.21436  -1.06941  -1.04935  -1.02637  -0.99728
 Alpha  occ. eigenvalues --   -0.90799  -0.85484  -0.83622  -0.80217  -0.76187
 Alpha  occ. eigenvalues --   -0.72312  -0.69176  -0.67330  -0.65651  -0.64687
 Alpha  occ. eigenvalues --   -0.64074  -0.63281  -0.62768  -0.60811  -0.60040
 Alpha  occ. eigenvalues --   -0.59805  -0.57006  -0.55997  -0.53835  -0.53035
 Alpha  occ. eigenvalues --   -0.47460  -0.46658  -0.44344  -0.43208  -0.41580
 Alpha  occ. eigenvalues --   -0.38807  -0.36674  -0.28738
 Alpha virt. eigenvalues --    0.01838   0.02907   0.03705   0.04425   0.04973
 Alpha virt. eigenvalues --    0.05879   0.06183   0.06810   0.07481   0.07728
 Alpha virt. eigenvalues --    0.08400   0.08960   0.10322   0.11158   0.11256

 Mulliken charges:
               1
     1  C    0.626980
     2  C   -0.008122
     3  H   -0.130732
     4  H   -0.488523
     5  H   -0.252825
     6  S    2.788331
     7  O   -1.291420
     8  O   -1.245085
     9  C    0.308058
    10  C    0.544124
    11  H   -0.437252
    12  H   -0.265946
    13  H   -0.236955
    14  C    0.322637
    15  C    0.259656
    16  C    0.800449
    17  H   -0.343928
    18  H   -0.374837
    19  H   -0.340561
    20  N   -0.334756
    21  N   -0.392496
    22  C    0.880312
    23  H   -0.092483
    24  H   -0.209428
    25  H   -0.085197
 Sum of Mulliken charges =  -0.00000

 Dipole moment (field-independent basis, Debye):
    X=             -7.3116    Y=             -0.2686    Z=             -2.1838  Tot=              7.6354

 Test job not archived.
 1\1\GINC-SE039\SP\RHF\Aug-CC-pVDZ\C8H12N2O2S1\OHZDE\09-Apr-2025\0\\#t
 hf aug-cc-pvdz iop(5/13=1,5/36=2,99/5=2) pseudo=read geom=check guess=
 (read,tcheck) scf=(maxcycle=1)\\title\\0,1\C,0,-0.053862,-1.860226,-0.
 340594\C,0,1.015339,-1.083373,-0.842176\H,0,0.042934,-2.156729,0.69989
 8\H,0,1.115722,-0.847203,-1.89298\H,0,-0.378413,-2.674573,-0.98309\S,0
 ,1.715767,0.058522,0.204015\O,0,1.43964,1.446226,-0.23875\O,0,1.346793
 ,-0.284622,1.589136\C,0,3.4794,-0.145122,0.077029\C,0,4.255215,0.80898
 4,-0.401513\H,0,3.819636,-1.110539,0.429781\H,0,5.328149,0.67499,-0.47

 Normal termination of Gaussian 16 at Wed Apr  9 01:23:47 2025.
