 Gaussian 16, Revision C.01,

 ----------------------------------------------------------------------
 #t hf aug-cc-pvdz symm=none int=(grid=ultrafine) guess=(read,tcheck) s
 table=opt
 ----------------------------------------------------------------------
 -----
 title
 -----
 Symbolic Z-matrix:
 Charge =  0 Multiplicity = 2

 SCF Done:  E(UHF) =  -2063.98463033     A.U. after   19 cycles
 Normal termination of Gaussian 16 at Wed Apr  9 01:58:04 2025.
 Gaussian 16:  ES64L-G16RevC.01  3-Jul-2019

 ----------------------------------------------------------------------
 #t hf aug-cc-pvdz iop(5/13=1,5/36=2,99/5=2) pseudo=read geom=check gue
 ss=(read,tcheck) scf=(maxcycle=1)
 ----------------------------------------------------------------------
 -----
 title
 -----
 Structure from the checkpoint file:  "BH10_293_forward_mol1.chk"
 Charge =  0 Multiplicity = 2

                         Standard orientation:
 ---------------------------------------------------------------------
 Center     Atomic      Atomic             Coordinates (Angstroms)
 Number     Number       Type             X           Y           Z
 ---------------------------------------------------------------------
      1         14           0        0.376275   -0.005322    0.001268
      2         14           0        0.540870    2.200276    0.787319
      3         14           0        2.291278   -0.654261   -1.190106
      4         14           0       -0.302155   -1.579894    1.605056
      5          6           0       -0.866181   -3.149605    0.738734
      6          1           0       -0.061651   -3.599702    0.154216
      7          1           0       -1.205470   -3.888752    1.469932
      8          1           0       -1.696048   -2.947215    0.058545
      9          6           0        1.181581   -1.963821    2.703540
     10          1           0        1.545784   -1.070083    3.215371
     11          1           0        0.912163   -2.698699    3.467613
     12          1           0        2.011024   -2.377027    2.124744
     13          6           0       -1.706570   -0.920517    2.667480
     14          1           0       -2.621731   -0.791997    2.085327
     15          1           0       -1.927158   -1.627942    3.472212
     16          1           0       -1.455744    0.036559    3.130755
     17          6           0        2.262780   -2.510575   -1.496352
     18          1           0        3.124676   -2.811004   -2.098949
     19          1           0        2.300221   -3.073458   -0.561017
     20          1           0        1.360220   -2.812079   -2.032705
     21          6           0        2.324227    0.248203   -2.838712
     22          1           0        2.375605    1.330290   -2.701938
     23          1           0        3.193054   -0.056870   -3.428939
     24          1           0        1.426596    0.031474   -3.422208
     25          6           0        3.830929   -0.217378   -0.194395
     26          1           0        3.828167   -0.705365    0.783072
     27          1           0        4.733170   -0.537103   -0.723706
     28          1           0        3.909523    0.859562   -0.028812
     29          6           0       -1.133084    2.944175    1.218225
     30          1           0       -0.994601    3.934926    1.660740
     31          1           0       -1.762453    3.063670    0.334156
     32          1           0       -1.679889    2.331900    1.937979
     33          6           0        1.602212    2.164982    2.344692
     34          1           0        2.580438    1.717288    2.156056
     35          1           0        1.765601    3.179101    2.720692
     36          1           0        1.121082    1.590697    3.139975
     37          6           0        1.371237    3.284119   -0.507839
     38          1           0        1.434566    4.318358   -0.157783
     39          1           0        2.386716    2.945060   -0.723673
     40          1           0        0.814012    3.283096   -1.447455
     41          1           0       -0.791938   -0.115112   -1.231653
     42         16           0       -1.927288   -0.378026   -2.403495
     43          6           0       -3.025778    0.924859   -1.757745
     44          6           0       -3.535016    0.619432   -0.357476
     45          8           0       -4.167456   -0.638129   -0.268416
     46          1           0       -2.513501    1.887875   -1.778502
     47          1           0       -3.860728    0.973699   -2.459885
     48          1           0       -2.701932    0.682194    0.351032
     49          1           0       -4.275263    1.366811   -0.062839
     50          1           0       -3.624023   -1.261132   -0.769539
 ---------------------------------------------------------------------

 SCF Done:  E(UHF) =  -2064.25302893     A.U. after    2 cycles

 The electronic state is 2-A.
 Alpha  occ. eigenvalues --  -93.53002 -69.05214 -69.04724 -69.04713 -69.03112
 Alpha  occ. eigenvalues --  -20.56511 -11.28843 -11.26974 -11.21634 -11.21630
 Alpha  occ. eigenvalues --  -11.21568 -11.21417 -11.21335 -11.21177 -11.20855
 Alpha  occ. eigenvalues --  -11.20826 -11.20806  -8.82743  -6.80498  -6.80022
 Alpha  occ. eigenvalues --   -6.80006  -6.78947  -6.17776  -6.16524  -6.16164
 Alpha  occ. eigenvalues --   -3.91239  -3.91233  -3.91223  -3.90757  -3.90754
 Alpha  occ. eigenvalues --   -3.90745  -3.90740  -3.90735  -3.90731  -3.90082
 Alpha  occ. eigenvalues --   -3.89380  -3.89375  -1.32038  -1.05118  -0.97088
 Alpha  occ. eigenvalues --   -0.96240  -0.95931  -0.92920  -0.92658  -0.92477
 Alpha  occ. eigenvalues --   -0.92315  -0.92150  -0.91997  -0.91766  -0.81730
 Alpha  occ. eigenvalues --   -0.71565  -0.69835  -0.64989  -0.62395  -0.61998
 Alpha  occ. eigenvalues --   -0.61662  -0.59803  -0.59095  -0.58179  -0.58101
 Alpha  occ. eigenvalues --   -0.57430  -0.57251  -0.56823  -0.56644  -0.56439
 Alpha  occ. eigenvalues --   -0.56318  -0.55546  -0.54970  -0.54870  -0.54745
 Alpha  occ. eigenvalues --   -0.54458  -0.54254  -0.54002  -0.53834  -0.53466
 Alpha  occ. eigenvalues --   -0.53278  -0.52028  -0.48857  -0.45910  -0.45254
 Alpha  occ. eigenvalues --   -0.44270  -0.43990  -0.43885  -0.43567  -0.43424
 Alpha  occ. eigenvalues --   -0.43076  -0.36367  -0.34973  -0.34575  -0.29504
 Alpha virt. eigenvalues --    0.02466   0.03325   0.03538   0.03836   0.04769
 Alpha virt. eigenvalues --    0.04854   0.05172   0.05456   0.05637   0.06466
 Alpha virt. eigenvalues --    0.06640   0.06754   0.07034   0.07153   0.07293

  Beta  occ. eigenvalues --  -93.52313 -69.05219 -69.04735 -69.04722 -69.02779
  Beta  occ. eigenvalues --  -20.56510 -11.28823 -11.27064 -11.21636 -11.21587
  Beta  occ. eigenvalues --  -11.21572 -11.21380 -11.21295 -11.21181 -11.20859
  Beta  occ. eigenvalues --  -11.20831 -11.20812  -8.81958  -6.80506  -6.80039
  Beta  occ. eigenvalues --   -6.80020  -6.78481  -6.16120  -6.15708  -6.14892
  Beta  occ. eigenvalues --   -3.91249  -3.91235  -3.91233  -3.90786  -3.90768
  Beta  occ. eigenvalues --   -3.90764  -3.90758  -3.90747  -3.90739  -3.89147
  Beta  occ. eigenvalues --   -3.89139  -3.88668  -1.32033  -1.03950  -0.97019
  Beta  occ. eigenvalues --   -0.96202  -0.95898  -0.92683  -0.92595  -0.92291
  Beta  occ. eigenvalues --   -0.92092  -0.91996  -0.91811  -0.90122  -0.79418
  Beta  occ. eigenvalues --   -0.70032  -0.68769  -0.64811  -0.62329  -0.61976
  Beta  occ. eigenvalues --   -0.61434  -0.59412  -0.58137  -0.58101  -0.57790
  Beta  occ. eigenvalues --   -0.57262  -0.57153  -0.56698  -0.56438  -0.56322
  Beta  occ. eigenvalues --   -0.56140  -0.55311  -0.54894  -0.54796  -0.54456
  Beta  occ. eigenvalues --   -0.54410  -0.53992  -0.53836  -0.53466  -0.53334
  Beta  occ. eigenvalues --   -0.53269  -0.51841  -0.47038  -0.45274  -0.44309
  Beta  occ. eigenvalues --   -0.44262  -0.43867  -0.43512  -0.43288  -0.43098
  Beta  occ. eigenvalues --   -0.42051  -0.35177  -0.34538  -0.33902
  Beta virt. eigenvalues --    0.02447   0.02949   0.03349   0.03561   0.04069
  Beta virt. eigenvalues --    0.04792   0.04869   0.05178   0.05518   0.05644
  Beta virt. eigenvalues --    0.06475   0.06645   0.06779   0.07040   0.07218

 Mulliken charges and spin densities:
               1          2
     1  Si   1.042471   0.727785
     2  Si   1.108184  -0.048697
     3  Si   0.135238  -0.069918
     4  Si   1.936552  -0.075236
     5  C    0.735403  -0.007401
     6  H   -0.462908   0.003629
     7  H   -0.370589  -0.001446
     8  H   -0.440781   0.002543
     9  C    0.813366   0.013750
    10  H   -0.456188  -0.008399
    11  H   -0.384203   0.004095
    12  H   -0.476238  -0.002166
    13  C    0.859858  -0.008978
    14  H   -0.475823  -0.001848
    15  H   -0.336969  -0.001397
    16  H   -0.428310   0.006293
    17  C    0.802720  -0.000988
    18  H   -0.440506  -0.001431
    19  H   -0.390153   0.004328
    20  H   -0.311090   0.000503
    21  C    0.798759  -0.005522
    22  H   -0.445851   0.004472
    23  H   -0.410379  -0.002435
    24  H   -0.365178   0.001533
    25  C    0.977012   0.012751
    26  H   -0.393518  -0.006764
    27  H   -0.414847   0.003623
    28  H   -0.417158  -0.001844
    29  C    0.933827  -0.014701
    30  H   -0.369435  -0.002689
    31  H   -0.473473   0.001392
    32  H   -0.406156   0.000892
    33  C    0.945526   0.014659
    34  H   -0.411796  -0.009119
    35  H   -0.375387   0.005802
    36  H   -0.383298  -0.003670
    37  C    0.774542  -0.005084
    38  H   -0.423415  -0.001853
    39  H   -0.456654   0.004135
    40  H   -0.346334   0.000116
    41  H   -0.655881  -0.220796
    42  S    0.144602   0.739216
    43  C    0.267180  -0.081711
    44  C    1.114464   0.031055
    45  O   -0.689616  -0.002021
    46  H   -0.168472   0.007233
    47  H   -0.133632   0.005333
    48  H   -0.789341   0.004522
    49  H   -0.117450   0.000418
    50  H    0.231327  -0.013962
 Sum of Mulliken charges =  -0.00000   1.00000

 Dipole moment (field-independent basis, Debye):
    X=              2.5053    Y=              1.6511    Z=              1.0982  Tot=              3.1951
                          Isotropic Fermi Contact Couplings
        Atom                 a.u.       MegaHertz       Gauss      10(-4) cm-1
     1  Si(29)             0.19161    -170.28782     -60.76293     -56.80190
     2  Si(29)            -0.00628       5.58317       1.99221       1.86234
     3  Si(29)            -0.01140      10.12971       3.61453       3.37891
     4  Si(29)            -0.01001       8.89217       3.17295       2.96611
     5  C(13)             -0.00134      -1.50294      -0.53629      -0.50133
     6  H(1)               0.00004       0.16240       0.05795       0.05417
     7  H(1)              -0.00029      -1.29952      -0.46370      -0.43347
     8  H(1)              -0.00001      -0.06558      -0.02340      -0.02187

 Normal termination of Gaussian 16 at Wed Apr  9 02:00:49 2025.
