 Gaussian 16, Revision C.01,

 ----------------------------------------------------------------------
 #t hf aug-cc-pvdz symm=none int=(grid=ultrafine) guess=(read,tcheck) s
 table=(opt,rrhf)
 ----------------------------------------------------------------------
 -----
 title
 -----
 Symbolic Z-matrix:
 Charge =  0 Multiplicity = 1

 SCF Done:  E(RHF) =  -1155.50155955     A.U. after   17 cycles
 Normal termination of Gaussian 16 at Wed Apr  9 02:25:54 2025.
 Gaussian 16:  ES64L-G16RevC.01  3-Jul-2019

 ----------------------------------------------------------------------
 #t hf aug-cc-pvdz iop(5/13=1,5/36=2,99/5=2) pseudo=read geom=check gue
 ss=(read,tcheck) scf=(maxcycle=1)
 ----------------------------------------------------------------------
 -----
 title
 -----
 Structure from the checkpoint file:  "BH10_401_forward_mol1.chk"
 Charge =  0 Multiplicity = 1

                         Standard orientation:
 ---------------------------------------------------------------------
 Center     Atomic      Atomic             Coordinates (Angstroms)
 Number     Number       Type             X           Y           Z
 ---------------------------------------------------------------------
      1          6           0        0.042101   -2.587548    0.080725
      2          1           0       -0.342214   -3.365581   -0.604927
      3          6           0        1.209212   -1.865766   -0.567011
      4          6           0       -0.252545    0.130975   -0.872163
      5          1           0       -0.433107    0.962437   -0.194101
      6          1           0       -0.298884    0.538236   -1.886670
      7          6           0       -1.389281   -0.874823   -0.672618
      8          1           0       -1.466923   -1.516964   -1.571687
      9          7           0       -1.029808   -1.698491    0.474422
     10          6           0        2.168392    0.374131   -0.212731
     11          6           0        2.344053   -2.627079   -0.819169
     12          1           0        2.803882   -2.593054   -1.788499
     13          1           0        2.390339   -3.615829   -0.360766
     14          6           0        3.430399   -0.138298    0.115077
     15          6           0        4.043953   -1.206936   -0.513844
     16          6           0        1.122059   -0.461696   -0.657160
     17          1           0        3.991809   -1.196159   -1.590511
     18          1           0        3.924453    0.265913    0.996970
     19          6           0        5.274645   -1.860390    0.050219
     20          1           0        5.355032   -2.899025   -0.275958
     21          1           0        6.180007   -1.345683   -0.288317
     22          1           0        5.264757   -1.850936    1.141284
     23          6           0       -2.150903   -2.416299    1.047555
     24          1           0       -2.652134   -3.052360    0.294600
     25          1           0       -1.770881   -3.078249    1.828873
     26          6           0       -2.716980   -0.166065   -0.504762
     27          6           0       -3.540590   -0.406332    0.593714
     28          6           0       -3.138104   -1.422685    1.629167
     29          1           0       -2.670966   -0.920356    2.481815
     30          1           0       -4.024323   -1.942146    2.002371
     31          1           0        0.421964   -3.106687    0.967859
     32          6           0       -4.744233    0.287209    0.708812
     33          1           0       -5.382166    0.093197    1.564738
     34          6           0       -3.129291    0.746401   -1.475976
     35          1           0       -2.503531    0.922632   -2.343352
     36          6           0       -5.138059    1.204520   -0.249319
     37          1           0       -6.077576    1.733337   -0.143208
     38          6           0       -4.326001    1.430623   -1.354078
     39          1           0       -4.626987    2.136036   -2.119177
     40         14           0        1.855281    2.160866    0.358359
     41          6           0        0.744917    2.231245    1.877027
     42          1           0        1.187514    1.649126    2.689333
     43          1           0        0.646193    3.263884    2.223817
     44          1           0       -0.258577    1.839919    1.705567
     45          6           0        3.501642    2.931500    0.842634
     46          1           0        4.229459    2.874396    0.030261
     47          1           0        3.352601    3.987388    1.084873
     48          1           0        3.943426    2.456626    1.721360
     49          6           0        1.147778    3.209809   -1.034737
     50          1           0        0.114282    2.960100   -1.276460
     51          1           0        1.175539    4.265742   -0.751651
     52          1           0        1.742745    3.096400   -1.944585
 ---------------------------------------------------------------------

 SCF Done:  E(RHF) =  -1155.77939800     A.U. after    2 cycles

 The electronic state is 1-A.
 Alpha  occ. eigenvalues --  -69.03845 -15.60868 -11.26749 -11.26031 -11.25782
 Alpha  occ. eigenvalues --  -11.25235 -11.24310 -11.24200 -11.24193 -11.23837
 Alpha  occ. eigenvalues --  -11.23775 -11.23757 -11.23673 -11.23592 -11.23521
 Alpha  occ. eigenvalues --  -11.23274 -11.23068 -11.22761 -11.22271 -11.21758
 Alpha  occ. eigenvalues --  -11.19915 -11.19803 -11.19698  -6.79110  -3.89842
 Alpha  occ. eigenvalues --   -3.89831  -3.89805  -1.22570  -1.14642  -1.11402
 Alpha  occ. eigenvalues --   -1.06632  -1.05260  -1.03783  -1.00673  -0.99084
 Alpha  occ. eigenvalues --   -0.96252  -0.94880  -0.92244  -0.91050  -0.90856
 Alpha  occ. eigenvalues --   -0.88389  -0.85663  -0.83409  -0.81826  -0.81095
 Alpha  occ. eigenvalues --   -0.76658  -0.74535  -0.69837  -0.67587  -0.66994
 Alpha  occ. eigenvalues --   -0.65646  -0.64592  -0.63471  -0.62935  -0.61265
 Alpha  occ. eigenvalues --   -0.59914  -0.59543  -0.59128  -0.58338  -0.57420
 Alpha  occ. eigenvalues --   -0.56824  -0.56223  -0.56048  -0.55605  -0.55027
 Alpha  occ. eigenvalues --   -0.54558  -0.53789  -0.53434  -0.53047  -0.52575
 Alpha  occ. eigenvalues --   -0.52383  -0.52121  -0.51738  -0.50901  -0.49898
 Alpha  occ. eigenvalues --   -0.48904  -0.47753  -0.46131  -0.45570  -0.43825
 Alpha  occ. eigenvalues --   -0.42148  -0.41973  -0.41178  -0.35688  -0.33077
 Alpha  occ. eigenvalues --   -0.32420  -0.29959  -0.28144
 Alpha virt. eigenvalues --    0.02755   0.03321   0.03419   0.03680   0.04376
 Alpha virt. eigenvalues --    0.04794   0.05084   0.05224   0.05478   0.05856
 Alpha virt. eigenvalues --    0.06153   0.06598   0.06804   0.07066   0.07413

 Mulliken charges:
               1
     1  C    0.676643
     2  H    0.109740
     3  C   -0.458258
     4  C   -0.323845
     5  H   -0.451169
     6  H    0.002588
     7  C    0.319924
     8  H   -0.052116
     9  N   -0.772012
    10  C   -1.347895
    11  C    1.008984
    12  H   -0.158709
    13  H   -0.462337
    14  C    1.159215
    15  C   -0.225456
    16  C   -0.130147
    17  H   -0.243875
    18  H   -0.662486
    19  C    0.758133
    20  H   -0.067642
    21  H    0.059595
    22  H   -0.094199
    23  C    1.261920
    24  H   -0.138662
    25  H   -0.293439
    26  C   -0.089245
    27  C   -0.372697
    28  C    0.675773
    29  H    0.085155
    30  H   -0.029946
    31  H   -0.242733
    32  C    1.112356
    33  H   -0.649721
    34  C    0.779858
    35  H   -0.720370
    36  C    0.270746
    37  H   -0.482726
    38  C    0.115526
    39  H   -0.553152
    40  Si   0.591202
    41  C    1.022223
    42  H   -0.320920
    43  H   -0.276779
    44  H   -0.366852
    45  C    0.836780
    46  H   -0.264150
    47  H   -0.453440
    48  H   -0.307911
    49  C    1.055613
    50  H   -0.367837
    51  H   -0.272192
    52  H   -0.249058
 Sum of Mulliken charges =   0.00000

 Dipole moment (field-independent basis, Debye):
    X=              0.2352    Y=             -1.2290    Z=             -0.0444  Tot=              1.2521

 Test job not archived.
 1\1\GINC-SE329\SP\RHF\Aug-CC-pVDZ\C21H29N1Si1\OHZDE\09-Apr-2025\0\\#t
 hf aug-cc-pvdz iop(5/13=1,5/36=2,99/5=2) pseudo=read geom=check guess=
 (read,tcheck) scf=(maxcycle=1)\\title\\0,1\C,0,0.042101,-2.587548,0.08
 0725\H,0,-0.342214,-3.365581,-0.604927\C,0,1.209212,-1.865766,-0.56701
 1\C,0,-0.252545,0.130975,-0.872163\H,0,-0.433107,0.962437,-0.194101\H,
 0,-0.298884,0.538236,-1.88667\C,0,-1.389281,-0.874823,-0.672618\H,0,-1
 .466923,-1.516964,-1.571687\N,0,-1.029808,-1.698491,0.474422\C,0,2.168
 392,0.374131,-0.212731\C,0,2.344053,-2.627079,-0.819169\H,0,2.803882,-

 Normal termination of Gaussian 16 at Wed Apr  9 02:28:51 2025.
