 Gaussian 16, Revision C.01,

 ----------------------------------------------------------------------
 #t hf aug-cc-pvdz symm=none int=(grid=ultrafine) guess=(read,tcheck) s
 table=(opt,rrhf)
 ----------------------------------------------------------------------
 -----
 title
 -----
 Symbolic Z-matrix:
 Charge =  0 Multiplicity = 1

 SCF Done:  E(RHF) =  -725.808501210     A.U. after   14 cycles
 Normal termination of Gaussian 16 at Wed Apr  9 01:08:11 2025.
 Gaussian 16:  ES64L-G16RevC.01  3-Jul-2019

 ----------------------------------------------------------------------
 #t hf aug-cc-pvdz iop(5/13=1,5/36=2,99/5=2) pseudo=read geom=check gue
 ss=(read,tcheck) scf=(maxcycle=1)
 ----------------------------------------------------------------------
 -----
 title
 -----
 Structure from the checkpoint file:  "BH10_322_forward_mol2.chk"
 Charge =  0 Multiplicity = 1

                         Standard orientation:
 ---------------------------------------------------------------------
 Center     Atomic      Atomic             Coordinates (Angstroms)
 Number     Number       Type             X           Y           Z
 ---------------------------------------------------------------------
      1          6           0        1.053369    0.025774   -0.018733
      2          8           0        1.602967    0.671159   -0.865082
      3          8           0        1.605813   -1.041886    0.574795
      4          6           0       -0.334709    0.308851    0.524242
      5          6           0       -0.771111    1.732747    0.277637
      6          1           0       -0.100040    2.416920    0.801536
      7          1           0       -1.784703    1.883743    0.646979
      8          1           0       -0.734226    1.965857   -0.785285
      9         17           0       -1.461431   -0.856054   -0.281308
     10          1           0        2.467970   -1.196514    0.163433
     11          1           0       -0.360202    0.044498    1.578997
 ---------------------------------------------------------------------

 SCF Done:  E(RHF) =  -725.912244355     A.U. after    2 cycles

 The electronic state is 1-A.
 Alpha  occ. eigenvalues -- -103.66588 -20.64120 -20.58308 -11.41803 -11.33477
 Alpha  occ. eigenvalues --  -11.25221 -10.69867  -8.35587  -8.35289  -8.35277
 Alpha  occ. eigenvalues --   -1.44798  -1.34932  -1.18688  -1.04018  -0.93742
 Alpha  occ. eigenvalues --   -0.81626  -0.74114  -0.72741  -0.67740  -0.63654
 Alpha  occ. eigenvalues --   -0.62411  -0.57838  -0.55517  -0.53417  -0.51784
 Alpha  occ. eigenvalues --   -0.50343  -0.46143  -0.45594
 Alpha virt. eigenvalues --    0.03220   0.04080   0.05210   0.05805   0.07354
 Alpha virt. eigenvalues --    0.08390   0.10578   0.11395   0.11718   0.13271
 Alpha virt. eigenvalues --    0.13764   0.14729   0.15387   0.16375   0.16992

 Mulliken charges:
               1
     1  C    0.676551
     2  O   -0.428112
     3  O   -0.449901
     4  C   -0.427334
     5  C    0.593851
     6  H   -0.016132
     7  H   -0.034259
     8  H    0.010618
     9  Cl  -0.111130
    10  H    0.187841
    11  H   -0.001994
 Sum of Mulliken charges =  -0.00000

 Dipole moment (field-independent basis, Debye):
    X=              0.4628    Y=              0.4296    Z=              2.0630  Tot=              2.1574

 Test job not archived.
 1\1\GINC-SE328\SP\RHF\Aug-CC-pVDZ\C3H5Cl1O2\OHZDE\09-Apr-2025\0\\#t hf
  aug-cc-pvdz iop(5/13=1,5/36=2,99/5=2) pseudo=read geom=check guess=(r
 ead,tcheck) scf=(maxcycle=1)\\title\\0,1\C,0,1.053369,0.025775,-0.0187
 33\O,0,1.602966,0.67116,-0.865082\O,0,1.605813,-1.041885,0.574795\C,0,
 -0.334709,0.308851,0.524242\C,0,-0.771112,1.732747,0.277637\H,0,-0.100
 041,2.41692,0.801536\H,0,-1.784704,1.883742,0.646979\H,0,-0.734227,1.9
 65857,-0.785285\Cl,0,-1.461431,-0.856055,-0.281308\H,0,2.46797,-1.1965
 13,0.163433\H,0,-0.360202,0.044498,1.578997\\Version=ES64L-G16RevC.01\

 Normal termination of Gaussian 16 at Wed Apr  9 01:08:15 2025.
