 Gaussian 16, Revision C.01,

 ----------------------------------------------------------------------
 #t hf aug-cc-pvdz symm=none int=(grid=ultrafine) guess=(read,tcheck) s
 table=(opt,rrhf)
 ----------------------------------------------------------------------
 -----
 title
 -----
 Symbolic Z-matrix:
 Charge =  0 Multiplicity = 1

 SCF Done:  E(RHF) =  -1273.89262509     A.U. after   16 cycles
 Normal termination of Gaussian 16 at Wed Apr  9 01:27:20 2025.
 Gaussian 16:  ES64L-G16RevC.01  3-Jul-2019

 ----------------------------------------------------------------------
 #t hf aug-cc-pvdz iop(5/13=1,5/36=2,99/5=2) pseudo=read geom=check gue
 ss=(read,tcheck) scf=(maxcycle=1)
 ----------------------------------------------------------------------
 -----
 title
 -----
 Structure from the checkpoint file:  "BH10_350_forward_mol1.chk"
 Charge =  0 Multiplicity = 1

                         Standard orientation:
 ---------------------------------------------------------------------
 Center     Atomic      Atomic             Coordinates (Angstroms)
 Number     Number       Type             X           Y           Z
 ---------------------------------------------------------------------
      1          7           0        0.839211    0.975724   -0.191824
      2          6           0        2.174649    0.627446    0.079378
      3          6           0        2.344840   -0.711393    0.063140
      4         16           0        0.827454   -1.498853   -0.289594
      5          6           0       -0.006894   -0.021015   -0.422702
      6          6           0        3.185528    1.691568    0.345872
      7          1           0        3.218482    2.424034   -0.463675
      8          1           0        4.177608    1.254940    0.438732
      9          1           0        2.971304    2.227966    1.273661
     10          6           0        3.585166   -1.505782    0.311057
     11          1           0        4.445274   -0.856056    0.469217
     12          1           0        3.810424   -2.157935   -0.535142
     13          1           0        3.477147   -2.137180    1.195613
     14          6           0        0.386493    2.365220   -0.234471
     15          1           0        0.837005    2.927016    0.581526
     16          1           0       -0.692064    2.366321   -0.103618
     17          1           0        0.657638    2.824752   -1.185856
     18          6           0       -1.955028   -0.371632   -0.683283
     19          8           0       -2.028606   -1.594966   -0.607580
     20          6           0       -2.215150    0.359451   -1.985267
     21          1           0       -1.638395   -0.111384   -2.781064
     22          1           0       -1.966533    1.419921   -1.925153
     23          1           0       -3.278113    0.258397   -2.216196
     24         16           0       -2.655929    0.654475    0.740825
     25          6           0       -2.392214   -0.540987    2.069225
     26          1           0       -2.464472   -1.534814    1.625559
     27          1           0       -3.173995   -0.410452    2.815224
     28          1           0       -1.415680   -0.413087    2.537184
 ---------------------------------------------------------------------

 SCF Done:  E(RHF) =  -1274.08138882     A.U. after    2 cycles

 The electronic state is 1-A.
 Alpha  occ. eigenvalues --  -93.57120 -93.50014 -20.49028 -15.71369 -11.35350
 Alpha  occ. eigenvalues --  -11.30811 -11.30772 -11.29359 -11.28648 -11.27047
 Alpha  occ. eigenvalues --  -11.26233 -11.23446 -11.22333  -8.86985  -8.79856
 Alpha  occ. eigenvalues --   -6.21114  -6.20959  -6.20629  -6.14016  -6.13806
 Alpha  occ. eigenvalues --   -6.13539  -1.30867  -1.29695  -1.11941  -1.06846
 Alpha  occ. eigenvalues --   -1.01177  -1.00765  -0.97593  -0.95062  -0.92749
 Alpha  occ. eigenvalues --   -0.83927  -0.80848  -0.74416  -0.70794  -0.68068
 Alpha  occ. eigenvalues --   -0.67104  -0.62647  -0.61546  -0.61173  -0.60965
 Alpha  occ. eigenvalues --   -0.60153  -0.59467  -0.59016  -0.57109  -0.56656
 Alpha  occ. eigenvalues --   -0.56372  -0.55428  -0.54581  -0.53596  -0.49924
 Alpha  occ. eigenvalues --   -0.49535  -0.47695  -0.44192  -0.40118  -0.37411
 Alpha  occ. eigenvalues --   -0.35153  -0.34537  -0.31608
 Alpha virt. eigenvalues --    0.02047   0.03082   0.03754   0.04279   0.05586
 Alpha virt. eigenvalues --    0.05680   0.05810   0.06021   0.06945   0.07697
 Alpha virt. eigenvalues --    0.07929   0.07995   0.08527   0.09256   0.09754

 Mulliken charges:
               1
     1  N   -0.594912
     2  C   -0.012033
     3  C   -1.051110
     4  S    0.512477
     5  C   -0.627966
     6  C    0.574215
     7  H    0.154101
     8  H   -0.126755
     9  H    0.148236
    10  C    0.705963
    11  H   -0.080154
    12  H    0.075592
    13  H    0.112295
    14  C    0.952660
    15  H   -0.172177
    16  H   -0.276773
    17  H   -0.079733
    18  C    0.025816
    19  O   -0.821223
    20  C    0.747078
    21  H   -0.029893
    22  H   -0.098789
    23  H   -0.040790
    24  S    0.191167
    25  C    0.131575
    26  H   -0.060033
    27  H   -0.113621
    28  H   -0.145212
 Sum of Mulliken charges =  -0.00000

 Dipole moment (field-independent basis, Debye):
    X=              7.2112    Y=              4.2565    Z=              0.6362  Tot=              8.3978

 Test job not archived.
 1\1\GINC-SE329\SP\RHF\Aug-CC-pVDZ\C9H15N1O1S2\OHZDE\09-Apr-2025\0\\#t
 hf aug-cc-pvdz iop(5/13=1,5/36=2,99/5=2) pseudo=read geom=check guess=
 (read,tcheck) scf=(maxcycle=1)\\title\\0,1\N,0,0.839211,0.975724,-0.19
 1824\C,0,2.174649,0.627446,0.079378\C,0,2.34484,-0.711393,0.06314\S,0,
 0.827454,-1.498853,-0.289594\C,0,-0.006894,-0.021015,-0.422702\C,0,3.1
 85528,1.691568,0.345872\H,0,3.218482,2.424034,-0.463675\H,0,4.177608,1
 .25494,0.438732\H,0,2.971304,2.227966,1.273661\C,0,3.585166,-1.505782,
 0.311057\H,0,4.445274,-0.856056,0.469217\H,0,3.810424,-2.157935,-0.535

 Normal termination of Gaussian 16 at Wed Apr  9 01:27:49 2025.
