 Gaussian 16, Revision C.01,

 ----------------------------------------------------------------------
 #t hf aug-cc-pvdz symm=none int=(grid=ultrafine) guess=(read,tcheck) s
 table=(opt,rrhf)
 ----------------------------------------------------------------------
 -----
 title
 -----
 Symbolic Z-matrix:
 Charge =  0 Multiplicity = 1

 SCF Done:  E(RHF) =  -893.758953498     A.U. after   16 cycles
 Normal termination of Gaussian 16 at Wed Apr  9 01:50:51 2025.
 Gaussian 16:  ES64L-G16RevC.01  3-Jul-2019

 ----------------------------------------------------------------------
 #t hf aug-cc-pvdz iop(5/13=1,5/36=2,99/5=2) pseudo=read geom=check gue
 ss=(read,tcheck) scf=(maxcycle=1)
 ----------------------------------------------------------------------
 -----
 title
 -----
 Structure from the checkpoint file:  "BH10_91_forward_mol1.chk"
 Charge =  0 Multiplicity = 1

                         Standard orientation:
 ---------------------------------------------------------------------
 Center     Atomic      Atomic             Coordinates (Angstroms)
 Number     Number       Type             X           Y           Z
 ---------------------------------------------------------------------
      1          6           0        0.759371   -1.174278    0.472785
      2          6           0        0.500566   -0.462347    1.613797
      3          6           0        1.107667    1.239166    0.163792
      4          6           0        0.715334    0.917159    1.444358
      5          1           0        1.476047    2.209984   -0.139796
      6          1           0        0.504345    1.654274    2.208504
      7          1           0        0.077339   -0.902050    2.507436
      8          1           0        0.719815   -2.248872    0.365421
      9         16           0        1.857157   -0.225319   -0.639042
     10          6           0       -2.467681    0.547166    0.467290
     11          6           0       -0.844192   -0.452945   -1.016072
     12          6           0       -0.641352    0.923569   -1.062520
     13          6           0       -1.761011    1.648386   -0.332240
     14          1           0       -2.135821    0.529652    1.509222
     15          1           0       -0.501374   -1.157061   -1.760276
     16          1           0       -0.154951    1.395400   -1.906405
     17          1           0       -2.436864    2.077251   -1.077645
     18          1           0       -1.406168    2.470786    0.288308
     19          1           0       -3.554490    0.619955    0.474545
     20          8           0        3.268425   -0.368785   -0.159778
     21          6           0       -2.027563   -0.758601   -0.180026
     22          8           0       -2.562077   -1.832197   -0.049175
 ---------------------------------------------------------------------

 SCF Done:  E(RHF) =  -893.945575690     A.U. after    2 cycles

 The electronic state is 1-A.
 Alpha  occ. eigenvalues --  -93.67437 -20.55918 -20.52874 -11.34643 -11.30654
 Alpha  occ. eigenvalues --  -11.29884 -11.29637 -11.28378 -11.27520 -11.27026
 Alpha  occ. eigenvalues --  -11.26657 -11.25581  -8.95670  -6.29949  -6.29761
 Alpha  occ. eigenvalues --   -6.29479  -1.35473  -1.31212  -1.17732  -1.13777
 Alpha  occ. eigenvalues --   -1.01277  -1.00968  -0.96069  -0.94289  -0.81480
 Alpha  occ. eigenvalues --   -0.80083  -0.77189  -0.74491  -0.73117  -0.69708
 Alpha  occ. eigenvalues --   -0.67177  -0.62479  -0.61069  -0.60391  -0.60132
 Alpha  occ. eigenvalues --   -0.59005  -0.58570  -0.57478  -0.56612  -0.55504
 Alpha  occ. eigenvalues --   -0.53331  -0.51686  -0.48884  -0.44550  -0.42617
 Alpha  occ. eigenvalues --   -0.39760  -0.35857  -0.35005
 Alpha virt. eigenvalues --    0.02356   0.03091   0.03778   0.03954   0.04234
 Alpha virt. eigenvalues --    0.05190   0.05562   0.05766   0.06291   0.07555
 Alpha virt. eigenvalues --    0.07663   0.08737   0.09320   0.10855   0.11488

 Mulliken charges:
               1
     1  C    0.397594
     2  C    0.340526
     3  C    0.237100
     4  C    0.375953
     5  H   -0.507911
     6  H   -0.414656
     7  H   -0.415374
     8  H   -0.534354
     9  S    1.499223
    10  C    0.228434
    11  C    0.530644
    12  C    0.372611
    13  C    0.501657
    14  H    0.052381
    15  H   -0.492086
    16  H   -0.448533
    17  H   -0.065209
    18  H   -0.107129
    19  H   -0.070203
    20  O   -1.097036
    21  C    0.196828
    22  O   -0.580457
 Sum of Mulliken charges =   0.00000

 Dipole moment (field-independent basis, Debye):
    X=             -2.8887    Y=              4.5532    Z=              0.2527  Tot=              5.3981

 Test job not archived.
 1\1\GINC-SE071\SP\RHF\Aug-CC-pVDZ\C9H10O2S1\OHZDE\09-Apr-2025\0\\#t hf
  aug-cc-pvdz iop(5/13=1,5/36=2,99/5=2) pseudo=read geom=check guess=(r
 ead,tcheck) scf=(maxcycle=1)\\title\\0,1\C,0,0.759371,-1.174278,0.4727
 85\C,0,0.500566,-0.462347,1.613797\C,0,1.107667,1.239166,0.163792\C,0,
 0.715334,0.917159,1.444358\H,0,1.476047,2.209984,-0.139796\H,0,0.50434
 5,1.654274,2.208504\H,0,0.077339,-0.90205,2.507436\H,0,0.719815,-2.248
 872,0.365421\S,0,1.857157,-0.225319,-0.639042\C,0,-2.467681,0.547166,0
 .46729\C,0,-0.844192,-0.452945,-1.016072\C,0,-0.641352,0.923569,-1.062

 Normal termination of Gaussian 16 at Wed Apr  9 01:51:09 2025.
