 Gaussian 16, Revision C.01,

 ----------------------------------------------------------------------
 #t hf aug-cc-pvdz symm=none int=(grid=ultrafine) guess=(read,tcheck) s
 table=(opt,rrhf)
 ----------------------------------------------------------------------
 -----
 title
 -----
 Symbolic Z-matrix:
 Charge =  0 Multiplicity = 1

 SCF Done:  E(RHF) =  -1125.27612025     A.U. after   15 cycles
 Normal termination of Gaussian 16 at Wed Apr  9 02:15:28 2025.
 Gaussian 16:  ES64L-G16RevC.01  3-Jul-2019

 ----------------------------------------------------------------------
 #t hf aug-cc-pvdz iop(5/13=1,5/36=2,99/5=2) pseudo=read geom=check gue
 ss=(read,tcheck) scf=(maxcycle=1)
 ----------------------------------------------------------------------
 -----
 title
 -----
 Structure from the checkpoint file:  "BH10_299_reverse_mol2.chk"
 Charge =  0 Multiplicity = 1

                         Standard orientation:
 ---------------------------------------------------------------------
 Center     Atomic      Atomic             Coordinates (Angstroms)
 Number     Number       Type             X           Y           Z
 ---------------------------------------------------------------------
      1          6           0       -0.108499   -2.759245    0.227597
      2          6           0        0.663781   -1.813588    1.192889
      3          6           0        1.510873   -0.503658   -1.489653
      4          1           0       -1.029150   -3.078417    0.722265
      5          6           0        2.181618   -2.094358    1.221262
      6          1           0        2.690648   -1.300294    1.779086
      7          1           0        2.341165   -3.010996    1.800325
      8          1           0        1.741064    0.142004   -2.342302
      9          1           0        0.308556   -2.036506    2.204783
     10          6           0        2.868003   -2.281015   -0.127497
     11          1           0        3.907401   -2.571378    0.056155
     12          1           0        2.418295   -3.132192   -0.645747
     13          6           0        2.873036   -1.073144   -1.057316
     14          1           0        3.470837   -0.277791   -0.603301
     15          1           0        3.411172   -1.361410   -1.967040
     16          6           0        0.568654   -1.602266   -2.045798
     17          1           0        0.051548   -1.195471   -2.920011
     18          6           0       -0.523083   -2.145216   -1.116593
     19          1           0       -1.237502   -1.338130   -0.923018
     20          1           0       -1.088692   -2.898513   -1.674196
     21          1           0        1.176074   -2.431502   -2.424028
     22          1           0        0.472912   -3.671516    0.060750
     23          6           0        0.817963    0.386187   -0.432338
     24          1           0       -0.066185    0.853761   -0.892794
     25         14           0        1.801795    1.956827    0.030537
     26          6           0        2.977721    1.695735    1.479919
     27          1           0        3.763153    0.969786    1.262893
     28          1           0        3.463674    2.639686    1.742247
     29          1           0        2.443372    1.348959    2.368886
     30          6           0        0.623817    3.342974    0.508503
     31          1           0        1.163298    4.294045    0.531313
     32          1           0       -0.195951    3.439838   -0.207144
     33          1           0        0.185238    3.193289    1.496577
     34          6           0        2.784378    2.536699   -1.464493
     35          1           0        2.124819    2.734309   -2.313510
     36          1           0        3.305556    3.468415   -1.228079
     37          1           0        3.532878    1.810516   -1.786287
     38          5           0        0.260908   -0.331206    0.823558
     39          6           0       -3.137885   -0.500676    1.327349
     40          6           0       -3.421731    0.294421    0.125203
     41          8           0       -2.646835    0.998814   -0.480589
     42          8           0       -4.700343    0.132320   -0.264566
     43          6           0       -5.085587    0.845020   -1.440499
     44          1           0       -4.475759    0.537325   -2.290134
     45          1           0       -6.129518    0.593333   -1.608002
     46          1           0       -4.969517    1.918648   -1.292010
     47          6           0       -1.994906   -0.437922    2.017772
     48          6           0       -0.809212    0.419923    1.741304
     49          1           0       -0.303256    0.625688    2.694488
     50          1           0       -1.115565    1.361847    1.295061
     51          1           0       -3.929498   -1.167632    1.643000
     52          1           0       -1.916964   -1.107529    2.870041
 ---------------------------------------------------------------------

 SCF Done:  E(RHF) =  -1125.55405792     A.U. after    2 cycles

 The electronic state is 1-A.
 Alpha  occ. eigenvalues --  -69.03896 -20.61244 -20.55195 -11.38900 -11.29317
 Alpha  occ. eigenvalues --  -11.27501 -11.23963 -11.22447 -11.22219 -11.22040
 Alpha  occ. eigenvalues --  -11.21810 -11.21676 -11.21614 -11.21555 -11.20910
 Alpha  occ. eigenvalues --  -11.20296 -11.19968 -11.19847 -11.19697 -11.17865
 Alpha  occ. eigenvalues --   -7.58673  -6.79210  -3.89873  -3.89859  -3.89855
 Alpha  occ. eigenvalues --   -1.41816  -1.31911  -1.10253  -1.08495  -1.03314
 Alpha  occ. eigenvalues --   -1.03110  -0.99893  -0.96777  -0.94407  -0.92831
 Alpha  occ. eigenvalues --   -0.91424  -0.91122  -0.90807  -0.86975  -0.82842
 Alpha  occ. eigenvalues --   -0.79249  -0.78070  -0.76478  -0.71248  -0.70221
 Alpha  occ. eigenvalues --   -0.68185  -0.67031  -0.65908  -0.65043  -0.64013
 Alpha  occ. eigenvalues --   -0.61530  -0.60972  -0.59431  -0.59185  -0.57932
 Alpha  occ. eigenvalues --   -0.57216  -0.57082  -0.56634  -0.56189  -0.55824
 Alpha  occ. eigenvalues --   -0.55259  -0.54680  -0.54132  -0.53427  -0.53275
 Alpha  occ. eigenvalues --   -0.53098  -0.52765  -0.52190  -0.51782  -0.49014
 Alpha  occ. eigenvalues --   -0.48414  -0.47933  -0.47101  -0.46315  -0.45854
 Alpha  occ. eigenvalues --   -0.44693  -0.44081  -0.42909  -0.42826  -0.41408
 Alpha  occ. eigenvalues --   -0.41156  -0.40309  -0.37731  -0.36220
 Alpha virt. eigenvalues --    0.02660   0.03517   0.03609   0.03784   0.04662
 Alpha virt. eigenvalues --    0.04877   0.05034   0.05272   0.05413   0.06207
 Alpha virt. eigenvalues --    0.06469   0.06729   0.06851   0.07106   0.07237

 Mulliken charges:
               1
     1  C    0.599586
     2  C    0.108821
     3  C   -0.121634
     4  H   -0.207233
     5  C    0.688880
     6  H   -0.085756
     7  H   -0.175263
     8  H   -0.334980
     9  H   -0.470544
    10  C    0.360087
    11  H   -0.251100
    12  H   -0.010991
    13  C    0.662752
    14  H   -0.195888
    15  H   -0.177251
    16  C    0.363063
    17  H   -0.165935
    18  C    0.984924
    19  H    0.215405
    20  H   -0.315466
    21  H   -0.139639
    22  H   -0.157410
    23  C    0.737085
    24  H   -0.385762
    25  Si  -0.682806
    26  C    1.094718
    27  H   -0.321371
    28  H   -0.493020
    29  H   -0.264013
    30  C    1.022334
    31  H   -0.547120
    32  H   -0.208137
    33  H   -0.284237
    34  C    1.085669
    35  H   -0.358496
    36  H   -0.492296
    37  H   -0.298101
    38  B   -1.159944
    39  C    1.311157
    40  C    0.203207
    41  O   -0.392546
    42  O   -0.652806
    43  C    0.870757
    44  H   -0.103895
    45  H   -0.287532
    46  H   -0.110767
    47  C    0.640404
    48  C    0.468653
    49  H    0.118393
    50  H   -0.421819
    51  H   -0.636089
    52  H   -0.626050
 Sum of Mulliken charges =  -0.00000

 Dipole moment (field-independent basis, Debye):
    X=             -0.5549    Y=             -0.6920    Z=              0.4976  Tot=              1.0171

 Test job not archived.
 1\1\GINC-SE455\SP\RHF\Aug-CC-pVDZ\C17H31B1O2Si1\OHZDE\09-Apr-2025\0\\#
 t hf aug-cc-pvdz iop(5/13=1,5/36=2,99/5=2) pseudo=read geom=check gues
 s=(read,tcheck) scf=(maxcycle=1)\\title\\0,1\C,0,-0.108499,-2.759245,0
 .227597\C,0,0.663781,-1.813588,1.192889\C,0,1.510873,-0.503658,-1.4896
 53\H,0,-1.02915,-3.078417,0.722265\C,0,2.181618,-2.094358,1.221262\H,0
 ,2.690648,-1.300294,1.779086\H,0,2.341165,-3.010996,1.800325\H,0,1.741
 064,0.142004,-2.342302\H,0,0.308556,-2.036506,2.204783\C,0,2.868003,-2
 .281015,-0.127497\H,0,3.907401,-2.571377,0.056155\H,0,2.418295,-3.1321

 Normal termination of Gaussian 16 at Wed Apr  9 02:18:28 2025.
