 Gaussian 16, Revision C.01,

 ----------------------------------------------------------------------
 #t hf aug-cc-pvdz symm=none int=(grid=ultrafine) guess=(read,tcheck) s
 table=(opt,rrhf)
 ----------------------------------------------------------------------
 -----
 title
 -----
 Symbolic Z-matrix:
 Charge =  0 Multiplicity = 1

 SCF Done:  E(RHF) =  -420.789369903     A.U. after   13 cycles
 Normal termination of Gaussian 16 at Wed Apr  9 01:53:05 2025.
 Gaussian 16:  ES64L-G16RevC.01  3-Jul-2019

 ----------------------------------------------------------------------
 #t hf aug-cc-pvdz iop(5/13=1,5/36=2,99/5=2) pseudo=read geom=check gue
 ss=(read,tcheck) scf=(maxcycle=1)
 ----------------------------------------------------------------------
 -----
 title
 -----
 Structure from the checkpoint file:  "BH10_99_forward_mol2.chk"
 Charge =  0 Multiplicity = 1

                         Standard orientation:
 ---------------------------------------------------------------------
 Center     Atomic      Atomic             Coordinates (Angstroms)
 Number     Number       Type             X           Y           Z
 ---------------------------------------------------------------------
      1          6           0       -0.285603    0.383929   -0.658697
      2          6           0        1.048336    0.027845   -0.005033
      3          8           0        1.491756   -1.181264   -0.397078
      4          8           0        1.660603    0.737222    0.741152
      5          6           0       -1.311899   -0.707010   -0.426580
      6          1           0       -0.096088    0.400766   -1.738681
      7          7           0       -0.816255    1.660898   -0.246853
      8          1           0        2.339468   -1.340862    0.041317
      9          1           0       -0.119546    2.389925   -0.339623
     10          1           0       -1.079345    1.627333    0.732084
     11          1           0       -2.250406   -0.438794   -0.910782
     12          9           0       -1.560957   -0.807101    0.944686
     13          1           0       -0.955563   -1.676988   -0.769256
 ---------------------------------------------------------------------

 SCF Done:  E(RHF) =  -420.925533217     A.U. after    2 cycles

 The electronic state is 1-A.
 Alpha  occ. eigenvalues --  -26.11499 -20.63791 -20.57687 -15.62046 -11.40679
 Alpha  occ. eigenvalues --  -11.33529 -11.30395  -1.64663  -1.44208  -1.34336
 Alpha  occ. eigenvalues --   -1.18544  -1.03098  -0.93057  -0.82930  -0.76424
 Alpha  occ. eigenvalues --   -0.76173  -0.73790  -0.72736  -0.69834  -0.66703
 Alpha  occ. eigenvalues --   -0.64733  -0.62597  -0.58786  -0.55454  -0.53630
 Alpha  occ. eigenvalues --   -0.51344  -0.48496  -0.41360
 Alpha virt. eigenvalues --    0.03066   0.04180   0.04765   0.04957   0.06601
 Alpha virt. eigenvalues --    0.08081   0.09788   0.11008   0.11261   0.13515
 Alpha virt. eigenvalues --    0.13887   0.14375   0.14515   0.15599   0.16576

 Mulliken charges:
               1
     1  C    0.113476
     2  C    0.644358
     3  O   -0.527368
     4  O   -0.463409
     5  C    0.926470
     6  H    0.042193
     7  N   -0.348908
     8  H    0.194115
     9  H    0.008983
    10  H    0.061403
    11  H   -0.080228
    12  F   -0.438602
    13  H   -0.132483
 Sum of Mulliken charges =  -0.00000

 Dipole moment (field-independent basis, Debye):
    X=              0.5886    Y=             -1.0997    Z=             -2.4978  Tot=              2.7920

 Test job not archived.
 1\1\GINC-SE016\SP\RHF\Aug-CC-pVDZ\C3H6F1N1O2\OHZDE\09-Apr-2025\0\\#t h
 f aug-cc-pvdz iop(5/13=1,5/36=2,99/5=2) pseudo=read geom=check guess=(
 read,tcheck) scf=(maxcycle=1)\\title\\0,1\C,0,-0.285603,0.383929,-0.65
 8697\C,0,1.048336,0.027845,-0.005033\O,0,1.491756,-1.181264,-0.397078\
 O,0,1.660603,0.737222,0.741152\C,0,-1.311899,-0.70701,-0.42658\H,0,-0.
 096088,0.400766,-1.738681\N,0,-0.816255,1.660898,-0.246853\H,0,2.33946
 8,-1.340862,0.041317\H,0,-0.119545,2.389925,-0.339623\H,0,-1.079345,1.
 627333,0.732084\H,0,-2.250406,-0.438793,-0.910782\F,0,-1.560957,-0.807

 Normal termination of Gaussian 16 at Wed Apr  9 01:53:09 2025.
