 Gaussian 16, Revision C.01,

 ----------------------------------------------------------------------
 #t hf aug-cc-pvdz symm=none int=(grid=ultrafine) guess=(read,tcheck) s
 table=opt
 ----------------------------------------------------------------------
 -----
 title
 -----
 Symbolic Z-matrix:
 Charge =  0 Multiplicity = 2

 SCF Done:  E(UHF) =  -551.037824016     A.U. after   20 cycles
 Normal termination of Gaussian 16 at Wed Apr  9 01:01:11 2025.
 Gaussian 16:  ES64L-G16RevC.01  3-Jul-2019

 ----------------------------------------------------------------------
 #t hf aug-cc-pvdz iop(5/13=1,5/36=2,99/5=2) pseudo=read geom=check gue
 ss=(read,tcheck) scf=(maxcycle=1)
 ----------------------------------------------------------------------
 -----
 title
 -----
 Structure from the checkpoint file:  "BH10_293_forward_mol3.chk"
 Charge =  0 Multiplicity = 2

                         Standard orientation:
 ---------------------------------------------------------------------
 Center     Atomic      Atomic             Coordinates (Angstroms)
 Number     Number       Type             X           Y           Z
 ---------------------------------------------------------------------
      1         16           0       -1.456914   -0.302031    0.067278
      2          6           0       -0.134035    0.878284   -0.256825
      3          6           0        1.215005    0.460348    0.312317
      4          8           0        1.652915   -0.776189   -0.201351
      5          1           0       -0.071722    0.949779   -1.348750
      6          1           0       -0.439059    1.862015    0.109158
      7          1           0        1.969690    1.196569    0.029097
      8          1           0        1.163056    0.436641    1.407647
      9          1           0        0.979517   -1.434798    0.004262
 ---------------------------------------------------------------------

 SCF Done:  E(UHF) =  -551.104823397     A.U. after    2 cycles

 The electronic state is 2-A.
 Alpha  occ. eigenvalues --  -93.56181 -20.57565 -11.29993 -11.28271  -8.85926
 Alpha  occ. eigenvalues --   -6.21267  -6.19591  -6.19166  -1.33127  -1.07063
 Alpha  occ. eigenvalues --   -0.94064  -0.82323  -0.71569  -0.65824  -0.62027
 Alpha  occ. eigenvalues --   -0.59332  -0.53601  -0.48217  -0.47303  -0.43584
 Alpha  occ. eigenvalues --   -0.38281
 Alpha virt. eigenvalues --    0.03522   0.04878   0.05231   0.05717   0.07321
 Alpha virt. eigenvalues --    0.08381   0.11832   0.12275   0.12692   0.14374
 Alpha virt. eigenvalues --    0.15539   0.15706   0.16604   0.17270   0.18144

  Beta  occ. eigenvalues --  -93.55282 -20.57565 -11.29983 -11.28396  -8.84924
  Beta  occ. eigenvalues --   -6.19058  -6.18617  -6.17319  -1.33124  -1.05176
  Beta  occ. eigenvalues --   -0.90597  -0.77978  -0.71352  -0.65389  -0.61608
  Beta  occ. eigenvalues --   -0.57615  -0.53164  -0.47361  -0.46727  -0.36085
  Beta virt. eigenvalues --    0.00895   0.03590   0.05041   0.05362   0.05753
  Beta virt. eigenvalues --    0.07400   0.08505   0.12001   0.12635   0.13501
  Beta virt. eigenvalues --    0.14604   0.15686   0.16360   0.16809   0.17783

 Mulliken charges and spin densities:
               1          2
     1  S    0.183169   1.094825
     2  C   -0.306567  -0.119686
     3  C    0.726589  -0.004874
     4  O   -0.537630   0.000954
     5  H    0.016720   0.024175
     6  H   -0.009240   0.012219
     7  H   -0.140582   0.000752
     8  H   -0.099588   0.001675
     9  H    0.167130  -0.010040
 Sum of Mulliken charges =  -0.00000   1.00000

 Dipole moment (field-independent basis, Debye):
    X=             -0.4362    Y=              1.5537    Z=              0.5063  Tot=              1.6913
                          Isotropic Fermi Contact Couplings
        Atom                 a.u.       MegaHertz       Gauss      10(-4) cm-1
     1  S(33)              0.19162      65.81654      23.48498      21.95403
     2  C(13)             -0.02621     -29.46241     -10.51292      -9.82760
     3  C(13)              0.00205       2.30577       0.82275       0.76912
     4  O(17)             -0.00070       0.42589       0.15197       0.14206
     5  H(1)               0.01557      69.61286      24.83960      23.22035
     6  H(1)               0.00789      35.28711      12.59132      11.77051
     7  H(1)              -0.00047      -2.12054      -0.75666      -0.70734
     8  H(1)              -0.00026      -1.17150      -0.41802      -0.39077

 Normal termination of Gaussian 16 at Wed Apr  9 01:01:14 2025.
