 Gaussian 16, Revision C.01,

 ----------------------------------------------------------------------
 #t hf aug-cc-pvdz symm=none int=(grid=ultrafine) guess=(read,tcheck) s
 table=opt
 ----------------------------------------------------------------------
 -----
 title
 -----
 Symbolic Z-matrix:
 Charge =  0 Multiplicity = 2

 SCF Done:  E(UHF) =  -639.926954993     A.U. after   22 cycles
 Normal termination of Gaussian 16 at Wed Apr  9 01:05:06 2025.
 Gaussian 16:  ES64L-G16RevC.01  3-Jul-2019

 ----------------------------------------------------------------------
 #t hf aug-cc-pvdz iop(5/13=1,5/36=2,99/5=2) pseudo=read geom=check gue
 ss=(read,tcheck) scf=(maxcycle=1)
 ----------------------------------------------------------------------
 -----
 title
 -----
 Structure from the checkpoint file:  "BH10_279_forward_mol1.chk"
 Charge =  0 Multiplicity = 2

                         Standard orientation:
 ---------------------------------------------------------------------
 Center     Atomic      Atomic             Coordinates (Angstroms)
 Number     Number       Type             X           Y           Z
 ---------------------------------------------------------------------
      1          6           0        1.886660   -1.009108    1.509835
      2          1           0        2.921868   -1.004646    1.863424
      3          1           0        1.262258   -0.606065    2.310344
      4          1           0        1.595697   -2.049343    1.348196
      5          6           0        2.752021   -0.741156   -1.447127
      6          1           0        2.462796   -1.776159   -1.640956
      7          1           0        2.622702   -0.179511   -2.374558
      8          1           0        3.815737   -0.730637   -1.192285
      9          6           0        2.178009    1.792187    0.238849
     10          1           0        2.034826    2.389220   -0.664200
     11          1           0        1.560904    2.228043    1.027441
     12          1           0        3.224910    1.885355    0.541726
     13         14           0        1.726130   -0.001097   -0.065604
     14          1           0        0.225352   -0.030501   -0.541270
     15          6           0       -3.392459    0.183883   -0.774890
     16          6           0       -2.043300   -0.009384   -0.066927
     17          1           0       -3.432296    1.162450   -1.254635
     18          1           0       -3.533618   -0.583773   -1.536557
     19          1           0       -4.204707    0.112874   -0.047918
     20          6           0       -1.984369   -1.390845    0.585263
     21          6           0       -1.832630    1.097277    0.967276
     22          1           0       -1.019970   -1.541378    1.074379
     23          1           0       -2.768309   -1.505499    1.338006
     24          1           0       -2.108993   -2.166982   -0.171509
     25          1           0       -2.627125    1.090752    1.717387
     26          1           0       -0.880246    0.961998    1.484743
     27          1           0       -1.820379    2.071666    0.476458
     28          8           0       -1.110103    0.093796   -1.114179
 ---------------------------------------------------------------------

 SCF Done:  E(UHF) =  -640.066503042     A.U. after    2 cycles

 The electronic state is 2-A.
 Alpha  occ. eigenvalues --  -69.04109 -20.60403 -11.29135 -11.22868 -11.22382
 Alpha  occ. eigenvalues --  -11.22171 -11.20899 -11.20625 -11.20548  -6.79414
 Alpha  occ. eigenvalues --   -3.90417  -3.90096  -3.90091  -1.34667  -1.05433
 Alpha  occ. eigenvalues --   -0.95964  -0.94129  -0.93689  -0.91905  -0.91690
 Alpha  occ. eigenvalues --   -0.77090  -0.70994  -0.64008  -0.63844  -0.62163
 Alpha  occ. eigenvalues --   -0.58644  -0.57350  -0.56871  -0.56185  -0.56106
 Alpha  occ. eigenvalues --   -0.54433  -0.54232  -0.53975  -0.53259  -0.53120
 Alpha  occ. eigenvalues --   -0.51934  -0.51910  -0.46934  -0.44962  -0.43328
 Alpha  occ. eigenvalues --   -0.43215  -0.37186
 Alpha virt. eigenvalues --    0.02967   0.04012   0.04432   0.04587   0.05714
 Alpha virt. eigenvalues --    0.05760   0.05834   0.06441   0.06623   0.07705
 Alpha virt. eigenvalues --    0.07906   0.08068   0.08283   0.08867   0.09312

  Beta  occ. eigenvalues --  -69.03918 -20.56569 -11.29358 -11.22655 -11.22346
  Beta  occ. eigenvalues --  -11.22145 -11.20872 -11.20605 -11.20522  -6.79128
  Beta  occ. eigenvalues --   -3.89973  -3.89967  -3.89653  -1.23660  -1.02813
  Beta  occ. eigenvalues --   -0.95669  -0.93626  -0.93366  -0.91799  -0.91588
  Beta  occ. eigenvalues --   -0.74748  -0.63711  -0.62830  -0.62423  -0.60243
  Beta  occ. eigenvalues --   -0.57029  -0.56577  -0.56105  -0.55753  -0.54902
  Beta  occ. eigenvalues --   -0.54243  -0.54048  -0.53124  -0.52218  -0.51892
  Beta  occ. eigenvalues --   -0.50741  -0.48234  -0.43232  -0.43037  -0.42831
  Beta  occ. eigenvalues --   -0.41849
  Beta virt. eigenvalues --    0.02907   0.04015   0.04438   0.04537   0.05685
  Beta virt. eigenvalues --    0.05741   0.05824   0.06443   0.06615   0.07684
  Beta virt. eigenvalues --    0.07909   0.08067   0.08269   0.08802   0.09131

 Mulliken charges and spin densities:
               1          2
     1  C    0.654814   0.015603
     2  H   -0.376318   0.005175
     3  H   -0.346954  -0.002537
     4  H   -0.309863  -0.002088
     5  C    0.526904   0.010289
     6  H   -0.301691  -0.002817
     7  H   -0.314684  -0.001525
     8  H   -0.332623   0.005980
     9  C    0.592134   0.012882
    10  H   -0.321918  -0.002257
    11  H   -0.351924  -0.001561
    12  H   -0.296788   0.005318
    13  Si   0.798587   0.307458
    14  H    0.476220  -0.207845
    15  C    1.181593   0.073470
    16  C   -2.492448  -0.243673
    17  H   -0.008127   0.001998
    18  H   -0.015655   0.001740
    19  H    0.039729   0.007032
    20  C    1.029482   0.031628
    21  C    1.012994   0.031173
    22  H   -0.263213  -0.002437
    23  H    0.057706  -0.001460
    24  H    0.024700  -0.001348
    25  H    0.020971  -0.002427
    26  H   -0.172192  -0.000517
    27  H    0.001271  -0.002253
    28  O   -0.512709   0.964997
 Sum of Mulliken charges =  -0.00000   1.00000

 Dipole moment (field-independent basis, Debye):
    X=             -0.2708    Y=             -0.1072    Z=              1.4081  Tot=              1.4379
                          Isotropic Fermi Contact Couplings
        Atom                 a.u.       MegaHertz       Gauss      10(-4) cm-1
     1  C(13)              0.00564       6.34414       2.26375       2.11618
     2  H(1)               0.00236      10.56759       3.77078       3.52497
     3  H(1)              -0.00011      -0.50337      -0.17962      -0.16791
     4  H(1)              -0.00009      -0.39752      -0.14184      -0.13260
     5  C(13)              0.00576       6.47704       2.31117       2.16051
     6  H(1)              -0.00006      -0.26399      -0.09420      -0.08806
     7  H(1)              -0.00005      -0.24444      -0.08722      -0.08154
     8  H(1)               0.00250      11.16141       3.98267       3.72304

 Normal termination of Gaussian 16 at Wed Apr  9 01:05:28 2025.
