 Gaussian 16, Revision C.01,

 ----------------------------------------------------------------------
 #t hf aug-cc-pvdz symm=none int=(grid=ultrafine) guess=(read,tcheck) s
 table=(opt,rrhf)
 ----------------------------------------------------------------------
 -----
 title
 -----
 Symbolic Z-matrix:
 Charge =  0 Multiplicity = 1

 SCF Done:  E(RHF) =  -683.303179116     A.U. after   15 cycles
 Normal termination of Gaussian 16 at Wed Apr  9 00:57:46 2025.
 Gaussian 16:  ES64L-G16RevC.01  3-Jul-2019

 ----------------------------------------------------------------------
 #t hf aug-cc-pvdz iop(5/13=1,5/36=2,99/5=2) pseudo=read geom=check gue
 ss=(read,tcheck) scf=(maxcycle=1)
 ----------------------------------------------------------------------
 -----
 title
 -----
 Structure from the checkpoint file:  "BH10_184_reverse_mol3.chk"
 Charge =  0 Multiplicity = 1

                         Standard orientation:
 ---------------------------------------------------------------------
 Center     Atomic      Atomic             Coordinates (Angstroms)
 Number     Number       Type             X           Y           Z
 ---------------------------------------------------------------------
      1          6           0       -1.835649   -0.000000    0.013038
      2          6           0       -1.121767   -1.200378    0.005299
      3          6           0        0.261928   -1.196702   -0.010276
      4          6           0        0.971284    0.000000   -0.007298
      5          6           0        0.261928    1.196702   -0.010276
      6          6           0       -1.121767    1.200378    0.005298
      7         16           0        2.759815    0.000000   -0.077669
      8          1           0       -1.657916   -2.142940    0.011042
      9          1           0        0.801714   -2.135223   -0.025071
     10          1           0        0.801714    2.135223   -0.025070
     11          1           0       -1.657916    2.142940    0.011041
     12          7           0       -3.222700   -0.000000    0.073403
     13          1           0       -3.684799    0.840892   -0.233378
     14          1           0       -3.684799   -0.840890   -0.233385
     15          1           0        2.988126   -0.000005    1.248995
 ---------------------------------------------------------------------

 SCF Done:  E(RHF) =  -683.408184403     A.U. after    2 cycles

 The electronic state is 1-A.
 Alpha  occ. eigenvalues --  -93.53429 -15.63900 -11.29926 -11.26183 -11.25416
 Alpha  occ. eigenvalues --  -11.25404 -11.24001 -11.24001  -8.83122  -6.17329
 Alpha  occ. eigenvalues --   -6.17117  -6.16782  -1.20870  -1.13370  -1.02062
 Alpha  occ. eigenvalues --   -1.01955  -0.92137  -0.84817  -0.80580  -0.71371
 Alpha  occ. eigenvalues --   -0.70269  -0.64380  -0.61377  -0.60544  -0.59664
 Alpha  occ. eigenvalues --   -0.55164  -0.53658  -0.50377  -0.47404  -0.44216
 Alpha  occ. eigenvalues --   -0.36104  -0.35094  -0.30300
 Alpha virt. eigenvalues --    0.02880   0.03709   0.04269   0.05825   0.05938
 Alpha virt. eigenvalues --    0.06819   0.08937   0.09114   0.10101   0.10667
 Alpha virt. eigenvalues --    0.11009   0.12683   0.13222   0.13513   0.14171

 Mulliken charges:
               1
     1  C   -0.006973
     2  C    0.896516
     3  C    0.129522
     4  C    0.091800
     5  C    0.129521
     6  C    0.896519
     7  S    0.217784
     8  H   -0.583344
     9  H   -0.449770
    10  H   -0.449770
    11  H   -0.583345
    12  N   -0.271241
    13  H   -0.042972
    14  H   -0.042971
    15  H    0.068723
 Sum of Mulliken charges =  -0.00000

 Dipole moment (field-independent basis, Debye):
    X=             -3.0052    Y=             -0.0000    Z=             -0.0901  Tot=              3.0066

 Test job not archived.
 1\1\GINC-SE120\SP\RHF\Aug-CC-pVDZ\C6H7N1S1\OHZDE\09-Apr-2025\0\\#t hf
 aug-cc-pvdz iop(5/13=1,5/36=2,99/5=2) pseudo=read geom=check guess=(re
 ad,tcheck) scf=(maxcycle=1)\\title\\0,1\C,0,-1.835649,0.,0.013038\C,0,
 -1.121767,-1.200378,0.005299\C,0,0.261928,-1.196702,-0.010276\C,0,0.97
 1284,0.,-0.007298\C,0,0.261928,1.196702,-0.010276\C,0,-1.121767,1.2003
 78,0.005298\S,0,2.759815,0.,-0.077669\H,0,-1.657916,-2.14294,0.011042\
 H,0,0.801714,-2.135223,-0.025071\H,0,0.801714,2.135223,-0.02507\H,0,-1
 .657916,2.14294,0.011041\N,0,-3.2227,0.,0.073403\H,0,-3.684799,0.84089

 Normal termination of Gaussian 16 at Wed Apr  9 00:57:53 2025.
