 Gaussian 16, Revision C.01,

 ----------------------------------------------------------------------
 #t hf aug-cc-pvdz symm=none int=(grid=ultrafine) guess=(read,tcheck) s
 table=opt
 ----------------------------------------------------------------------
 -----
 title
 -----
 Symbolic Z-matrix:
 Charge =  0 Multiplicity = 2

 SCF Done:  E(UHF) =  -759.107537711     A.U. after   16 cycles
 Normal termination of Gaussian 16 at Wed Apr  9 01:19:35 2025.
 Gaussian 16:  ES64L-G16RevC.01  3-Jul-2019

 ----------------------------------------------------------------------
 #t hf aug-cc-pvdz iop(5/13=1,5/36=2,99/5=2) pseudo=read geom=check gue
 ss=(read,tcheck) scf=(maxcycle=1)
 ----------------------------------------------------------------------
 -----
 title
 -----
 Structure from the checkpoint file:  "BH10_287_reverse_mol2.chk"
 Charge =  0 Multiplicity = 2

                         Standard orientation:
 ---------------------------------------------------------------------
 Center     Atomic      Atomic             Coordinates (Angstroms)
 Number     Number       Type             X           Y           Z
 ---------------------------------------------------------------------
      1         14           0        1.444292   -0.002664    0.049038
      2          6           0        1.563014   -1.428156   -1.177528
      3          6           0        2.251247   -2.684392   -0.634156
      4          6           0        0.553579    1.438578   -0.779833
      5          6           0        0.490299    2.724122    0.051159
      6          6           0        3.169690    0.535681    0.594089
      7          6           0        4.065672    1.035093   -0.544500
      8          6           0        0.474312   -0.576709    1.585594
      9          6           0       -0.874172   -1.080415    1.235355
     10          6           0       -2.074053   -0.198758    1.184682
     11          6           0       -3.020487   -0.509214    0.024277
     12          6           0       -5.187683    0.073445   -1.169138
     13          6           0       -4.253325    0.386936   -0.006301
     14          1           0        0.548424   -1.673130   -1.508570
     15          1           0        2.088224   -1.072770   -2.070718
     16          1           0        1.721699   -3.087181    0.233048
     17          1           0        2.296073   -3.478196   -1.383607
     18          1           0        3.277387   -2.476349   -0.319978
     19          1           0       -0.457674    1.110854   -1.041998
     20          1           0        1.051104    1.641238   -1.734628
     21          1           0       -0.049879    3.517595   -0.470862
     22          1           0       -0.015230    2.562995    1.006762
     23          1           0        1.489817    3.104780    0.275769
     24          1           0        3.650595   -0.305904    1.104184
     25          1           0        3.064889    1.316313    1.355311
     26          1           0        4.221558    0.260966   -1.300243
     27          1           0        3.626299    1.898186   -1.051452
     28          1           0        5.051078    1.338315   -0.182505
     29          1           0       -2.643966   -0.277321    2.125337
     30          1           0       -1.760076    0.849643    1.126498
     31          1           0       -2.474863   -0.411426   -0.921107
     32          1           0       -3.332968   -1.558021    0.086301
     33          1           0       -5.545260   -0.958496   -1.118572
     34          1           0       -6.061656    0.728310   -1.170307
     35          1           0       -4.677252    0.198320   -2.127915
     36          1           0       -3.935046    1.433747   -0.063147
     37          1           0       -4.796118    0.285428    0.939736
     38          1           0       -0.996974   -2.129367    0.985349
     39          1           0        1.076144   -1.348196    2.078052
     40          1           0        0.415014    0.269693    2.280538
 ---------------------------------------------------------------------

 SCF Done:  E(UHF) =  -759.280547832     A.U. after    2 cycles

 The electronic state is 2-A.
 Alpha  occ. eigenvalues --  -69.02979 -11.22603 -11.22480 -11.22440 -11.22397
 Alpha  occ. eigenvalues --  -11.22384 -11.22336 -11.22276 -11.21957 -11.20704
 Alpha  occ. eigenvalues --  -11.20671 -11.20651 -11.20558  -6.78429  -3.89215
 Alpha  occ. eigenvalues --   -3.89111  -3.89109  -1.08174  -1.03643  -1.01800
 Alpha  occ. eigenvalues --   -1.00079  -0.99783  -0.95790  -0.87377  -0.84756
 Alpha  occ. eigenvalues --   -0.83172  -0.82096  -0.79316  -0.77621  -0.65179
 Alpha  occ. eigenvalues --   -0.63658  -0.61771  -0.61472  -0.61262  -0.59176
 Alpha  occ. eigenvalues --   -0.58538  -0.57839  -0.57020  -0.56775  -0.54559
 Alpha  occ. eigenvalues --   -0.54388  -0.53035  -0.52266  -0.50844  -0.50560
 Alpha  occ. eigenvalues --   -0.49987  -0.49559  -0.49072  -0.48856  -0.47946
 Alpha  occ. eigenvalues --   -0.47262  -0.46533  -0.45969  -0.43323  -0.39835
 Alpha  occ. eigenvalues --   -0.39798  -0.29354
 Alpha virt. eigenvalues --    0.02878   0.03646   0.03756   0.03977   0.04871
 Alpha virt. eigenvalues --    0.05186   0.05334   0.05706   0.06056   0.06704
 Alpha virt. eigenvalues --    0.06924   0.07084   0.07493   0.08240   0.08285

  Beta  occ. eigenvalues --  -69.02911 -11.22662 -11.22479 -11.22435 -11.22389
  Beta  occ. eigenvalues --  -11.22383 -11.22190 -11.21958 -11.20989 -11.20678
  Beta  occ. eigenvalues --  -11.20621 -11.20561 -11.20119  -6.78317  -3.89073
  Beta  occ. eigenvalues --   -3.89055  -3.88979  -1.06997  -1.02587  -1.00590
  Beta  occ. eigenvalues --   -1.00074  -0.99733  -0.95213  -0.86805  -0.84731
  Beta  occ. eigenvalues --   -0.83098  -0.82093  -0.79030  -0.73611  -0.64612
  Beta  occ. eigenvalues --   -0.63109  -0.61503  -0.61263  -0.60929  -0.58934
  Beta  occ. eigenvalues --   -0.57928  -0.57355  -0.56846  -0.56652  -0.54101
  Beta  occ. eigenvalues --   -0.53719  -0.52745  -0.51935  -0.50655  -0.50006
  Beta  occ. eigenvalues --   -0.49711  -0.49486  -0.49019  -0.48434  -0.47889
  Beta  occ. eigenvalues --   -0.46875  -0.46250  -0.45370  -0.41124  -0.39815
  Beta  occ. eigenvalues --   -0.39626
  Beta virt. eigenvalues --    0.02882   0.03648   0.03763   0.03992   0.04875
  Beta virt. eigenvalues --    0.05189   0.05340   0.05710   0.06040   0.06706
  Beta virt. eigenvalues --    0.06933   0.07081   0.07498   0.08198   0.08277

 Mulliken charges and spin densities:
               1          2
     1  Si   0.091912   0.021617
     2  C    0.613411  -0.000275
     3  C    0.381238   0.001428
     4  C    0.865232  -0.007662
     5  C    0.393113   0.002944
     6  C    0.476281   0.003580
     7  C    0.446001  -0.000176
     8  C    0.858672  -0.253699
     9  C    0.607867   1.593368
    10  C    0.386249  -0.327450
    11  C   -0.043380   0.046528
    12  C    0.693386   0.000853
    13  C    0.411170  -0.000377
    14  H   -0.265095  -0.002980
    15  H   -0.336758  -0.004365
    16  H   -0.143239   0.000404
    17  H   -0.108879   0.000705
    18  H   -0.137386  -0.000069
    19  H   -0.496979  -0.002879
    20  H   -0.299576  -0.004403
    21  H   -0.102221   0.000324
    22  H   -0.196869  -0.000175
    23  H   -0.166027  -0.000321
    24  H   -0.330633  -0.000425
    25  H   -0.337417  -0.000583
    26  H   -0.128979  -0.000709
    27  H   -0.149631  -0.000320
    28  H   -0.109371   0.001000
    29  H   -0.068866   0.043911
    30  H   -0.451669   0.002232
    31  H   -0.237145   0.004317
    32  H   -0.222362  -0.003172
    33  H   -0.082382   0.000003
    34  H   -0.061715   0.000587
    35  H   -0.095511  -0.000109
    36  H   -0.183259   0.000227
    37  H   -0.179075  -0.001514
    38  H   -0.677146  -0.132712
    39  H   -0.256073   0.007952
    40  H   -0.356889   0.012391
 Sum of Mulliken charges =  -0.00000   1.00000

 Dipole moment (field-independent basis, Debye):
    X=              0.0713    Y=              0.1242    Z=             -0.0758  Tot=              0.1620
                          Isotropic Fermi Contact Couplings
        Atom                 a.u.       MegaHertz       Gauss      10(-4) cm-1
     1  Si(29)             0.08901     -79.10634     -28.22711     -26.38703
     2  C(13)             -0.00174      -1.95884      -0.69896      -0.65340
     3  C(13)              0.00015       0.16498       0.05887       0.05503
     4  C(13)             -0.00183      -2.05283      -0.73250      -0.68475
     5  C(13)              0.00039       0.44064       0.15723       0.14698
     6  C(13)              0.00529       5.94757       2.12224       1.98390
     7  C(13)              0.00129       1.44864       0.51691       0.48321
     8  C(13)             -0.05973     -67.14795     -23.96006     -22.39815

 Normal termination of Gaussian 16 at Wed Apr  9 01:20:40 2025.
