 Gaussian 16, Revision C.01,

 ----------------------------------------------------------------------
 #t hf aug-cc-pvdz symm=none int=(grid=ultrafine) guess=(read,tcheck) s
 table=(opt,rrhf)
 ----------------------------------------------------------------------
 -----
 title
 -----
 Symbolic Z-matrix:
 Charge =  0 Multiplicity = 1

 SCF Done:  E(RHF) =  -753.552597151     A.U. after   17 cycles
 Normal termination of Gaussian 16 at Wed Apr  9 02:10:57 2025.
 Gaussian 16:  ES64L-G16RevC.01  3-Jul-2019

 ----------------------------------------------------------------------
 #t hf aug-cc-pvdz iop(5/13=1,5/36=2,99/5=2) pseudo=read geom=check gue
 ss=(read,tcheck) scf=(maxcycle=1)
 ----------------------------------------------------------------------
 -----
 title
 -----
 Structure from the checkpoint file:  "BH10_94_forward_mol1.chk"
 Charge =  0 Multiplicity = 1

                         Standard orientation:
 ---------------------------------------------------------------------
 Center     Atomic      Atomic             Coordinates (Angstroms)
 Number     Number       Type             X           Y           Z
 ---------------------------------------------------------------------
      1          6           0        4.018719   -2.394676    0.635736
      2          8           0        2.673351   -1.963711    0.468977
      3          1           0        4.444776   -2.697738   -0.322668
      4          6           0       -0.157264   -0.423823    0.489712
      5          6           0        0.945025   -0.253527   -0.345344
      6          6           0       -1.511629   -0.687853   -0.007828
      7          6           0       -1.948124   -0.265210   -1.268665
      8          6           0       -2.421136   -1.378028    0.798892
      9          6           0       -3.240939   -0.515894   -1.695830
     10          6           0       -3.713901   -1.635863    0.368492
     11          6           0        2.987374    1.317062   -0.982765
     12          6           0       -4.133621   -1.203600   -0.881296
     13          6           0        1.731844    1.625839   -0.222671
     14          6           0        0.682617    2.423296   -0.651408
     15          6           0       -0.490229    2.483381    0.105587
     16          6           0       -0.653816    1.797070    1.287654
     17          6           0       -1.962991    1.747830    2.007881
     18          8           0        3.422330    0.014449   -0.574192
     19          5           0        2.399657   -0.781441   -0.122009
     20          1           0        0.705247   -0.205981   -1.408009
     21          1           0        0.025886   -0.755394    1.506997
     22          1           0       -1.273811    0.281613   -1.915599
     23          1           0       -2.100639   -1.725335    1.774985
     24          1           0       -3.556716   -0.172682   -2.674257
     25          1           0       -4.395768   -2.178377    1.012872
     26          1           0        3.796785    2.012888   -0.752763
     27          1           0        2.818644    1.327738   -2.063841
     28          1           0       -5.142748   -1.402746   -1.220511
     29          1           0        1.889194    1.568522    0.850366
     30          1           0        0.216686    1.563837    1.886396
     31          1           0       -2.094872    0.800347    2.533624
     32          1           0       -2.800794    1.861213    1.317966
     33          1           0       -2.024744    2.544525    2.756874
     34          1           0        4.004957   -3.249265    1.310330
     35          1           0        4.636476   -1.599887    1.057201
     36          1           0        0.666121    2.786928   -1.674345
     37          1           0       -1.369992    2.925080   -0.352733
 ---------------------------------------------------------------------

 SCF Done:  E(RHF) =  -753.784342924     A.U. after    2 cycles

 The electronic state is 1-A.
 Alpha  occ. eigenvalues --  -20.57450 -20.57150 -11.30222 -11.28491 -11.26097
 Alpha  occ. eigenvalues --  -11.24940 -11.24641 -11.24556 -11.23717 -11.23696
 Alpha  occ. eigenvalues --  -11.23663 -11.23089 -11.23078 -11.23008 -11.22901
 Alpha  occ. eigenvalues --  -11.22581 -11.22537  -7.65051  -1.34971  -1.31622
 Alpha  occ. eigenvalues --   -1.14355  -1.10773  -1.05000  -1.03699  -1.00354
 Alpha  occ. eigenvalues --   -0.97650  -0.96707  -0.93650  -0.88760  -0.84964
 Alpha  occ. eigenvalues --   -0.82566  -0.81578  -0.77718  -0.73204  -0.72542
 Alpha  occ. eigenvalues --   -0.70529  -0.68852  -0.67366  -0.65527  -0.64186
 Alpha  occ. eigenvalues --   -0.63680  -0.63371  -0.62034  -0.60990  -0.59451
 Alpha  occ. eigenvalues --   -0.58726  -0.58176  -0.57559  -0.55446  -0.54531
 Alpha  occ. eigenvalues --   -0.53109  -0.51518  -0.51324  -0.50735  -0.50293
 Alpha  occ. eigenvalues --   -0.49365  -0.49133  -0.48341  -0.47100  -0.46492
 Alpha  occ. eigenvalues --   -0.46191  -0.36025  -0.33690  -0.32201  -0.25664
 Alpha virt. eigenvalues --    0.02992   0.03544   0.03655   0.04322   0.04839
 Alpha virt. eigenvalues --    0.04907   0.05274   0.05349   0.06411   0.06475
 Alpha virt. eigenvalues --    0.06490   0.06999   0.07095   0.07729   0.08113

 Mulliken charges:
               1
     1  C    0.838630
     2  O   -0.633251
     3  H   -0.160346
     4  C    1.331644
     5  C   -0.088723
     6  C    0.303311
     7  C    0.485379
     8  C    0.836031
     9  C    0.168301
    10  C    0.235014
    11  C    1.093410
    12  C    0.901358
    13  C    0.274690
    14  C    0.277007
    15  C    0.323098
    16  C    0.253100
    17  C    0.650128
    18  O   -0.752476
    19  B    0.682322
    20  H   -0.578150
    21  H   -0.773263
    22  H   -0.747331
    23  H   -0.679146
    24  H   -0.516276
    25  H   -0.499633
    26  H   -0.124197
    27  H   -0.145981
    28  H   -0.476004
    29  H   -0.267850
    30  H   -0.630164
    31  H   -0.045150
    32  H   -0.064417
    33  H    0.034460
    34  H   -0.304592
    35  H   -0.134955
    36  H   -0.523600
    37  H   -0.542377
 Sum of Mulliken charges =  -0.00000

 Dipole moment (field-independent basis, Debye):
    X=              0.8511    Y=              0.9652    Z=              0.1112  Tot=              1.2916

 Test job not archived.
 1\1\GINC-SE364\SP\RHF\Aug-CC-pVDZ\C15H19B1O2\OHZDE\09-Apr-2025\0\\#t h
 f aug-cc-pvdz iop(5/13=1,5/36=2,99/5=2) pseudo=read geom=check guess=(
 read,tcheck) scf=(maxcycle=1)\\title\\0,1\C,0,4.018719,-2.394676,0.635
 736\O,0,2.673351,-1.963711,0.468977\H,0,4.444776,-2.697738,-0.322668\C
 ,0,-0.157264,-0.423823,0.489712\C,0,0.945025,-0.253527,-0.345344\C,0,-
 1.511629,-0.687853,-0.007828\C,0,-1.948124,-0.26521,-1.268665\C,0,-2.4
 21136,-1.378028,0.798892\C,0,-3.240939,-0.515894,-1.69583\C,0,-3.71390
 1,-1.635863,0.368492\C,0,2.987374,1.317062,-0.982765\C,0,-4.133621,-1.

 Normal termination of Gaussian 16 at Wed Apr  9 02:12:06 2025.
