 Gaussian 16, Revision C.01,

 ----------------------------------------------------------------------
 #t hf aug-cc-pvdz symm=none int=(grid=ultrafine) guess=(read,tcheck) s
 table=(opt,rrhf)
 ----------------------------------------------------------------------
 -----
 title
 -----
 Symbolic Z-matrix:
 Charge =  0 Multiplicity = 1

 SCF Done:  E(RHF) =  -1125.27003155     A.U. after   15 cycles
 Normal termination of Gaussian 16 at Wed Apr  9 02:16:46 2025.
 Gaussian 16:  ES64L-G16RevC.01  3-Jul-2019

 ----------------------------------------------------------------------
 #t hf aug-cc-pvdz iop(5/13=1,5/36=2,99/5=2) pseudo=read geom=check gue
 ss=(read,tcheck) scf=(maxcycle=1)
 ----------------------------------------------------------------------
 -----
 title
 -----
 Structure from the checkpoint file:  "BH10_300_reverse_mol2.chk"
 Charge =  0 Multiplicity = 1

                         Standard orientation:
 ---------------------------------------------------------------------
 Center     Atomic      Atomic             Coordinates (Angstroms)
 Number     Number       Type             X           Y           Z
 ---------------------------------------------------------------------
      1          6           0        1.284905    2.330918    0.640552
      2          6           0        0.569877    1.166877    1.389354
      3          6           0       -1.411875    1.478220   -0.972103
      4          1           0        2.359744    2.219673    0.797572
      5          6           0       -0.687863    1.628147    2.157157
      6          1           0       -1.237754    0.752065    2.518454
      7          1           0       -0.353309    2.158203    3.055639
      8          1           0       -2.084989    1.373913   -1.827536
      9          1           0        1.271925    0.821235    2.151046
     10          6           0       -1.642071    2.551413    1.407974
     11          1           0       -2.426222    2.869560    2.102234
     12          1           0       -1.114282    3.467603    1.130042
     13          6           0       -2.317029    1.966185    0.173083
     14          1           0       -2.978836    1.153439    0.484135
     15          1           0       -2.975537    2.738244   -0.239627
     16          6           0       -0.375410    2.550118   -1.394436
     17          1           0       -0.310914    2.550400   -2.486861
     18          6           0        1.058353    2.401647   -0.875326
     19          1           0        1.496420    1.510652   -1.338053
     20          1           0        1.642026    3.240547   -1.267480
     21          1           0       -0.762064    3.538320   -1.124388
     22          1           0        1.009551    3.284200    1.101704
     23          6           0       -0.777486    0.084664   -0.737313
     24          1           0       -0.283616   -0.234088   -1.669929
     25         14           0       -2.085110   -1.310457   -0.587674
     26          6           0       -2.635366   -1.636155    1.180089
     27          1           0       -3.165417   -0.786430    1.613976
     28          1           0       -3.312784   -2.494440    1.206442
     29          1           0       -1.787560   -1.866937    1.828877
     30          6           0       -1.401215   -2.911843   -1.303086
     31          1           0       -2.209835   -3.642243   -1.396299
     32          1           0       -0.983855   -2.755715   -2.301116
     33          1           0       -0.625758   -3.366745   -0.686702
     34          6           0       -3.584790   -0.862179   -1.630594
     35          1           0       -3.307103   -0.699792   -2.675276
     36          1           0       -4.303817   -1.685753   -1.606454
     37          1           0       -4.097751    0.034014   -1.278296
     38          5           0        0.324836    0.008171    0.351250
     39          6           0        1.342501   -1.249490    0.358701
     40          6           0        1.399585   -1.858347    1.729969
     41          1           0        1.971712   -1.301044    2.463400
     42          6           0        0.806431   -2.989906    2.083647
     43          1           0        0.235466   -3.587065    1.381716
     44          1           0        0.879456   -3.365325    3.096877
     45          6           0        2.687861   -0.720666   -0.051340
     46          8           0        3.540993   -0.300417    0.686073
     47          8           0        2.819082   -0.719881   -1.391879
     48          6           0        4.035858   -0.162242   -1.895919
     49          1           0        3.976840   -0.257831   -2.976906
     50          1           0        4.120735    0.886055   -1.608326
     51          1           0        4.895187   -0.708304   -1.508187
     52          1           0        1.035497   -1.982651   -0.385492
 ---------------------------------------------------------------------

 SCF Done:  E(RHF) =  -1125.54683330     A.U. after    2 cycles

 The electronic state is 1-A.
 Alpha  occ. eigenvalues --  -69.04765 -20.61645 -20.55638 -11.39053 -11.29608
 Alpha  occ. eigenvalues --  -11.24850 -11.23257 -11.23140 -11.23121 -11.22470
 Alpha  occ. eigenvalues --  -11.22280 -11.22229 -11.22181 -11.22158 -11.21947
 Alpha  occ. eigenvalues --  -11.20766 -11.20601 -11.20465 -11.19922 -11.19339
 Alpha  occ. eigenvalues --   -7.60125  -6.80058  -3.90730  -3.90718  -3.90710
 Alpha  occ. eigenvalues --   -1.42244  -1.32461  -1.10768  -1.07944  -1.03747
 Alpha  occ. eigenvalues --   -1.03572  -1.00403  -0.97378  -0.94946  -0.93152
 Alpha  occ. eigenvalues --   -0.91972  -0.91889  -0.91261  -0.87670  -0.79961
 Alpha  occ. eigenvalues --   -0.79606  -0.78754  -0.75834  -0.72334  -0.70653
 Alpha  occ. eigenvalues --   -0.69155  -0.68875  -0.66596  -0.64438  -0.63456
 Alpha  occ. eigenvalues --   -0.62402  -0.61264  -0.60185  -0.59813  -0.58432
 Alpha  occ. eigenvalues --   -0.57868  -0.57536  -0.57359  -0.57133  -0.56697
 Alpha  occ. eigenvalues --   -0.56077  -0.55527  -0.54857  -0.54048  -0.53748
 Alpha  occ. eigenvalues --   -0.53439  -0.53162  -0.51628  -0.50251  -0.49261
 Alpha  occ. eigenvalues --   -0.48824  -0.48588  -0.47397  -0.46835  -0.46667
 Alpha  occ. eigenvalues --   -0.44989  -0.44601  -0.43414  -0.43278  -0.42181
 Alpha  occ. eigenvalues --   -0.41614  -0.40944  -0.38699  -0.35723
 Alpha virt. eigenvalues --    0.02571   0.03438   0.03599   0.03890   0.04752
 Alpha virt. eigenvalues --    0.04918   0.05060   0.05253   0.05362   0.06469
 Alpha virt. eigenvalues --    0.06658   0.06693   0.06997   0.07057   0.07217

 Mulliken charges:
               1
     1  C    0.371848
     2  C    0.194085
     3  C   -0.062440
     4  H   -0.291544
     5  C    0.607018
     6  H   -0.105621
     7  H   -0.186285
     8  H   -0.323215
     9  H   -0.341935
    10  C    0.363938
    11  H   -0.244509
    12  H    0.001407
    13  C    0.749604
    14  H   -0.187071
    15  H   -0.175098
    16  C    0.305778
    17  H   -0.141447
    18  C    0.901856
    19  H    0.018135
    20  H   -0.322933
    21  H   -0.130311
    22  H   -0.202037
    23  C    0.247377
    24  H   -0.286618
    25  Si  -0.755902
    26  C    1.246947
    27  H   -0.327990
    28  H   -0.471581
    29  H   -0.287541
    30  C    1.141186
    31  H   -0.490665
    32  H   -0.151935
    33  H   -0.512125
    34  C    1.135683
    35  H   -0.361911
    36  H   -0.529308
    37  H   -0.291113
    38  B   -0.078756
    39  C    0.589743
    40  C    0.736591
    41  H   -0.651260
    42  C    1.037854
    43  H   -0.397383
    44  H   -0.415691
    45  C    0.174831
    46  O   -0.490718
    47  O   -0.655278
    48  C    0.972406
    49  H   -0.248320
    50  H   -0.090443
    51  H   -0.132428
    52  H   -0.454873
 Sum of Mulliken charges =  -0.00000

 Dipole moment (field-independent basis, Debye):
    X=             -1.3591    Y=              0.1762    Z=             -1.8323  Tot=              2.2882

 Test job not archived.
 1\1\GINC-SE322\SP\RHF\Aug-CC-pVDZ\C17H31B1O2Si1\OHZDE\09-Apr-2025\0\\#
 t hf aug-cc-pvdz iop(5/13=1,5/36=2,99/5=2) pseudo=read geom=check gues
 s=(read,tcheck) scf=(maxcycle=1)\\title\\0,1\C,0,1.284905,2.330918,0.6
 40552\C,0,0.569877,1.166877,1.389354\C,0,-1.411875,1.47822,-0.972103\H
 ,0,2.359744,2.219673,0.797572\C,0,-0.687863,1.628147,2.157157\H,0,-1.2
 37754,0.752065,2.518454\H,0,-0.353309,2.158203,3.055639\H,0,-2.084989,
 1.373913,-1.827536\H,0,1.271925,0.821235,2.151046\C,0,-1.642071,2.5514
 13,1.407974\H,0,-2.426222,2.86956,2.102234\H,0,-1.114282,3.467603,1.13

 Normal termination of Gaussian 16 at Wed Apr  9 02:19:54 2025.
