 Gaussian 16, Revision C.01,

 ----------------------------------------------------------------------
 #t hf aug-cc-pvdz symm=none int=(grid=ultrafine) guess=(read,tcheck) s
 table=opt
 ----------------------------------------------------------------------
 -----
 title
 -----
 Symbolic Z-matrix:
 Charge =  0 Multiplicity = 2

 SCF Done:  E(UHF) =  -745.054192789     A.U. after   18 cycles
 Normal termination of Gaussian 16 at Wed Apr  9 00:56:12 2025.
 Gaussian 16:  ES64L-G16RevC.01  3-Jul-2019

 ----------------------------------------------------------------------
 #t hf aug-cc-pvdz iop(5/13=1,5/36=2,99/5=2) pseudo=read geom=check gue
 ss=(read,tcheck) scf=(maxcycle=1)
 ----------------------------------------------------------------------
 -----
 title
 -----
 Structure from the checkpoint file:  "BH10-RE_124_mol1.chk"
 Charge =  0 Multiplicity = 2

                         Standard orientation:
 ---------------------------------------------------------------------
 Center     Atomic      Atomic             Coordinates (Angstroms)
 Number     Number       Type             X           Y           Z
 ---------------------------------------------------------------------
      1          6           0        2.188118   -0.182736    0.066647
      2          6           0        1.341612   -0.111499   -1.167785
      3          6           0       -0.045625    0.393162   -0.795901
      4          8           0       -0.298728    1.552653   -0.599821
      5          6           0       -2.661401    0.068691    0.017407
      6          6           0       -2.575982    0.393302    1.499688
      7          6           0        2.715243    1.089271    0.633087
      8          6           0        2.118691   -1.396269    0.928144
      9          1           0        1.753704    0.606846   -1.881228
     10          1           0       -3.542388   -0.531179   -0.213038
     11          1           0       -2.698511    0.977067   -0.582770
     12          1           0       -2.525146   -0.515229    2.102001
     13          1           0       -3.457448    0.960082    1.809866
     14          1           0       -1.695290    1.000462    1.709611
     15          1           0        3.088916    1.754921   -0.149204
     16          1           0        3.520766    0.902228    1.346823
     17          1           0        1.930967    1.650048    1.163594
     18          1           0        1.962504   -2.304008    0.340724
     19          1           0        1.288199   -1.340777    1.648463
     20          1           0        3.034580   -1.515444    1.512966
     21          1           0        1.263865   -1.090243   -1.646783
     22         16           0       -1.251177   -0.906220   -0.590637
 ---------------------------------------------------------------------

 SCF Done:  E(UHF) =  -745.183297347     A.U. after    2 cycles

 The electronic state is 2-A.
 Alpha  occ. eigenvalues --  -93.54357 -20.56975 -11.37113 -11.27127 -11.25275
 Alpha  occ. eigenvalues --  -11.25110 -11.23259 -11.22959 -11.22532  -8.84283
 Alpha  occ. eigenvalues --   -6.18452  -6.18208  -6.17925  -1.37072  -1.10844
 Alpha  occ. eigenvalues --   -1.07049  -0.99850  -0.94593  -0.93911  -0.84252
 Alpha  occ. eigenvalues --   -0.77452  -0.72809  -0.67261  -0.66087  -0.63326
 Alpha  occ. eigenvalues --   -0.62684  -0.59856  -0.58808  -0.58009  -0.55992
 Alpha  occ. eigenvalues --   -0.54462  -0.53940  -0.52772  -0.50907  -0.50011
 Alpha  occ. eigenvalues --   -0.49575  -0.45793  -0.42114  -0.36830  -0.32243
 Alpha virt. eigenvalues --    0.03437   0.04000   0.04569   0.04859   0.05645
 Alpha virt. eigenvalues --    0.05982   0.06549   0.06710   0.07226   0.08319
 Alpha virt. eigenvalues --    0.09379   0.09472   0.09805   0.10419   0.11847

  Beta  occ. eigenvalues --  -93.54350 -20.56932 -11.36883 -11.27127 -11.25591
  Beta  occ. eigenvalues --  -11.23284 -11.23259 -11.22854 -11.22563  -8.84275
  Beta  occ. eigenvalues --   -6.18432  -6.18195  -6.17922  -1.36924  -1.08075
  Beta  occ. eigenvalues --   -1.06359  -0.99149  -0.94552  -0.93874  -0.83989
  Beta  occ. eigenvalues --   -0.74387  -0.71212  -0.67003  -0.64717  -0.62353
  Beta  occ. eigenvalues --   -0.62052  -0.59521  -0.57752  -0.56217  -0.55628
  Beta  occ. eigenvalues --   -0.53970  -0.53333  -0.52604  -0.50818  -0.49358
  Beta  occ. eigenvalues --   -0.49015  -0.45505  -0.41272  -0.36744
  Beta virt. eigenvalues --    0.03460   0.04010   0.04532   0.04870   0.05631
  Beta virt. eigenvalues --    0.05984   0.06552   0.06710   0.07221   0.08318
  Beta virt. eigenvalues --    0.08970   0.09456   0.09602   0.10286   0.10686

 Mulliken charges and spin densities:
               1          2
     1  C   -0.875003   1.556001
     2  C    0.639197  -0.271234
     3  C   -0.035348   0.035323
     4  O   -0.566914   0.013253
     5  C   -0.044210  -0.002539
     6  C    0.297137  -0.000300
     7  C    0.465063  -0.246790
     8  C    0.435956  -0.256013
     9  H   -0.038474   0.014628
    10  H   -0.124790   0.000139
    11  H   -0.000210  -0.000040
    12  H   -0.059027  -0.000394
    13  H   -0.081474   0.000322
    14  H   -0.090872   0.000973
    15  H   -0.036099   0.012070
    16  H   -0.078515   0.005948
    17  H    0.023473   0.051395
    18  H   -0.072532   0.005278
    19  H    0.049038   0.052885
    20  H   -0.068697   0.010769
    21  H   -0.110702   0.006127
    22  S    0.373004   0.012200
 Sum of Mulliken charges =  -0.00000   1.00000

 Dipole moment (field-independent basis, Debye):
    X=              0.0251    Y=             -1.4932    Z=              0.4318  Tot=              1.5546
                          Isotropic Fermi Contact Couplings
        Atom                 a.u.       MegaHertz       Gauss      10(-4) cm-1
     1  C(13)              0.26033     292.66490     104.43011      97.62250
     2  C(13)             -0.06008     -67.54012     -24.09999     -22.52896
     3  C(13)              0.06659      74.86466      26.71357      24.97216
     4  O(17)              0.00310      -1.87657      -0.66961      -0.62596
     5  C(13)              0.00004       0.04768       0.01701       0.01591
     6  C(13)              0.00015       0.16616       0.05929       0.05543
     7  C(13)             -0.06001     -67.46388     -24.07279     -22.50353
     8  C(13)             -0.06107     -68.64925     -24.49576     -22.89892

 Normal termination of Gaussian 16 at Wed Apr  9 00:56:27 2025.
