 Gaussian 16, Revision C.01,

 ----------------------------------------------------------------------
 #t hf aug-cc-pvdz symm=none int=(grid=ultrafine) guess=(read,tcheck) s
 table=(opt,rrhf)
 ----------------------------------------------------------------------
 -----
 title
 -----
 Symbolic Z-matrix:
 Charge =  0 Multiplicity = 1

 SCF Done:  E(RHF) =  -1155.56705675     A.U. after   16 cycles
 Normal termination of Gaussian 16 at Wed Apr  9 02:40:07 2025.
 Gaussian 16:  ES64L-G16RevC.01  3-Jul-2019

 ----------------------------------------------------------------------
 #t hf aug-cc-pvdz iop(5/13=1,5/36=2,99/5=2) pseudo=read geom=check gue
 ss=(read,tcheck) scf=(maxcycle=1)
 ----------------------------------------------------------------------
 -----
 title
 -----
 Structure from the checkpoint file:  "BH10_402_forward_mol2.chk"
 Charge =  0 Multiplicity = 1

                         Standard orientation:
 ---------------------------------------------------------------------
 Center     Atomic      Atomic             Coordinates (Angstroms)
 Number     Number       Type             X           Y           Z
 ---------------------------------------------------------------------
      1          6           0        0.431736   -2.604557    0.450379
      2          1           0        0.612882   -3.664990    0.269476
      3          1           0        0.211628   -2.483275    1.529527
      4          6           0       -0.768611   -2.149803   -0.340692
      5          6           0        0.306397    0.056249   -0.599609
      6          1           0        0.612701   -0.123263   -1.635216
      7          1           0        0.177542    1.125272   -0.482417
      8          6           0        1.446120   -0.430946    0.304499
      9          1           0        1.137551   -0.256740    1.355426
     10          7           0        1.627884   -1.861149    0.086747
     11          6           0       -2.163861   -0.088172   -0.064933
     12          6           0       -1.524407   -3.010043   -1.013731
     13          6           0       -3.345318   -0.925010    0.244314
     14          6           0       -4.580723   -0.748396   -0.214793
     15          6           0       -0.980739   -0.682029   -0.325095
     16          6           0       -5.742012   -1.630397    0.118455
     17          1           0       -6.162978   -2.088067   -0.782079
     18          1           0       -5.449041   -2.430568    0.800718
     19          1           0       -6.549592   -1.060948    0.588870
     20          6           0        2.732410    0.345580    0.078323
     21          6           0        2.814305   -2.372231    0.746387
     22          1           0        2.809733   -3.461462    0.672697
     23          1           0        2.819499   -2.116685    1.822000
     24          6           0        4.043619   -1.805191    0.063845
     25          1           0        4.118836   -2.236630   -0.938852
     26          6           0        3.961618   -0.304935   -0.036094
     27          1           0        4.946913   -2.090269    0.609493
     28          6           0        5.119482    0.446304   -0.227889
     29          1           0        6.069905   -0.069588   -0.316121
     30          6           0        2.703266    1.739612    0.028370
     31          1           0        1.763971    2.265543    0.144133
     32          6           0        5.077325    1.827474   -0.296802
     33          1           0        5.988525    2.394258   -0.445209
     34          6           0        3.858634    2.478572   -0.159695
     35          1           0        3.807810    3.560025   -0.196615
     36         14           0       -2.315873    1.805070    0.093332
     37          6           0       -1.245249    2.384894    1.532221
     38          1           0       -0.197532    2.094347    1.454332
     39          1           0       -1.285332    3.474117    1.621978
     40          1           0       -1.628730    1.964114    2.465518
     41          6           0       -1.844955    2.685815   -1.502042
     42          1           0       -0.806707    2.535026   -1.799975
     43          1           0       -2.474843    2.336351   -2.324248
     44          1           0       -2.008403    3.762050   -1.396203
     45          6           0       -4.063883    2.346409    0.519841
     46          1           0       -4.474748    1.782398    1.358675
     47          1           0       -4.037843    3.402396    0.804716
     48          1           0       -4.756436    2.251893   -0.317914
     49          1           0       -2.384794   -2.683169   -1.582276
     50          1           0       -1.295349   -4.069970   -1.019206
     51          1           0       -4.784176    0.071943   -0.897011
     52          1           0       -3.164876   -1.782234    0.890359
 ---------------------------------------------------------------------

 SCF Done:  E(RHF) =  -1155.84648643     A.U. after    2 cycles

 The electronic state is 1-A.
 Alpha  occ. eigenvalues --  -69.04451 -15.61373 -11.27335 -11.26414 -11.26046
 Alpha  occ. eigenvalues --  -11.24865 -11.24515 -11.24438 -11.24384 -11.23938
 Alpha  occ. eigenvalues --  -11.23885 -11.23763 -11.23665 -11.23423 -11.23285
 Alpha  occ. eigenvalues --  -11.22944 -11.22795 -11.22787 -11.22728 -11.22116
 Alpha  occ. eigenvalues --  -11.20379 -11.20373 -11.20081  -6.79705  -3.90433
 Alpha  occ. eigenvalues --   -3.90422  -3.90400  -1.22733  -1.14759  -1.11402
 Alpha  occ. eigenvalues --   -1.06686  -1.05777  -1.04423  -1.00843  -0.99263
 Alpha  occ. eigenvalues --   -0.96060  -0.95312  -0.92766  -0.91639  -0.91254
 Alpha  occ. eigenvalues --   -0.89673  -0.85889  -0.83410  -0.81447  -0.80199
 Alpha  occ. eigenvalues --   -0.75730  -0.74799  -0.70210  -0.69448  -0.66659
 Alpha  occ. eigenvalues --   -0.65643  -0.64682  -0.64060  -0.62242  -0.61922
 Alpha  occ. eigenvalues --   -0.60460  -0.59974  -0.59410  -0.58552  -0.57993
 Alpha  occ. eigenvalues --   -0.57092  -0.56579  -0.56358  -0.56198  -0.55225
 Alpha  occ. eigenvalues --   -0.54911  -0.54162  -0.53715  -0.53371  -0.53135
 Alpha  occ. eigenvalues --   -0.52861  -0.52418  -0.51352  -0.50999  -0.50327
 Alpha  occ. eigenvalues --   -0.49097  -0.48137  -0.46126  -0.45973  -0.43695
 Alpha  occ. eigenvalues --   -0.42566  -0.42078  -0.38688  -0.36910  -0.35816
 Alpha  occ. eigenvalues --   -0.33199  -0.32526  -0.30103
 Alpha virt. eigenvalues --    0.02781   0.03272   0.03361   0.03861   0.04350
 Alpha virt. eigenvalues --    0.04473   0.05166   0.05388   0.05634   0.05710
 Alpha virt. eigenvalues --    0.05957   0.06771   0.07026   0.07226   0.07399

 Mulliken charges:
               1
     1  C    0.765297
     2  H   -0.434768
     3  H    0.048238
     4  C   -0.637802
     5  C    0.436682
     6  H   -0.072111
     7  H   -0.612641
     8  C   -0.723742
     9  H   -0.125081
    10  N   -0.957536
    11  C   -1.545914
    12  C    1.854874
    13  C    1.762125
    14  C   -0.122868
    15  C   -0.059413
    16  C    0.574766
    17  H    0.061533
    18  H   -0.179592
    19  H    0.011531
    20  C   -0.065309
    21  C    1.123878
    22  H   -0.268179
    23  H   -0.097399
    24  C    0.711484
    25  H    0.122645
    26  C   -0.743888
    27  H    0.010303
    28  C    0.852527
    29  H   -0.625098
    30  C    1.170645
    31  H   -0.674783
    32  C    0.411850
    33  H   -0.454936
    34  C    0.332387
    35  H   -0.552365
    36  Si   0.769304
    37  C    1.123998
    38  H   -0.591882
    39  H   -0.245922
    40  H   -0.300938
    41  C    0.985508
    42  H   -0.324599
    43  H   -0.327090
    44  H   -0.235517
    45  C    0.858787
    46  H   -0.221962
    47  H   -0.418905
    48  H   -0.333526
    49  H   -0.439427
    50  H   -0.532395
    51  H   -0.515983
    52  H   -0.546793
 Sum of Mulliken charges =  -0.00000

 Dipole moment (field-independent basis, Debye):
    X=              0.1792    Y=             -0.6603    Z=              0.6225  Tot=              0.9250

 Test job not archived.
 1\1\GINC-SE338\SP\RHF\Aug-CC-pVDZ\C21H29N1Si1\OHZDE\09-Apr-2025\0\\#t
 hf aug-cc-pvdz iop(5/13=1,5/36=2,99/5=2) pseudo=read geom=check guess=
 (read,tcheck) scf=(maxcycle=1)\\title\\0,1\C,0,0.431736,-2.604557,0.45
 0379\H,0,0.612882,-3.66499,0.269476\H,0,0.211628,-2.483275,1.529527\C,
 0,-0.768611,-2.149803,-0.340692\C,0,0.306397,0.056249,-0.599609\H,0,0.
 612701,-0.123263,-1.635216\H,0,0.177542,1.125272,-0.482417\C,0,1.44612
 ,-0.430946,0.304499\H,0,1.137551,-0.25674,1.355426\N,0,1.627884,-1.861
 149,0.086747\C,0,-2.163861,-0.088172,-0.064933\C,0,-1.524407,-3.010043

 Normal termination of Gaussian 16 at Wed Apr  9 02:42:56 2025.
