 Gaussian 16, Revision C.01,

 ----------------------------------------------------------------------
 #t hf aug-cc-pvdz symm=none int=(grid=ultrafine) guess=(read,tcheck) s
 table=(opt,rrhf)
 ----------------------------------------------------------------------
 -----
 title
 -----
 Symbolic Z-matrix:
 Charge =  0 Multiplicity = 1

 SCF Done:  E(RHF) =  -974.734116041     A.U. after   13 cycles
 Normal termination of Gaussian 16 at Wed Apr  9 00:53:47 2025.
 Gaussian 16:  ES64L-G16RevC.01  3-Jul-2019

 ----------------------------------------------------------------------
 #t hf aug-cc-pvdz iop(5/13=1,5/36=2,99/5=2) pseudo=read geom=check gue
 ss=(read,tcheck) scf=(maxcycle=1)
 ----------------------------------------------------------------------
 -----
 title
 -----
 Structure from the checkpoint file:  "BH10_102_reverse_mol3.chk"
 Charge =  0 Multiplicity = 1

                         Standard orientation:
 ---------------------------------------------------------------------
 Center     Atomic      Atomic             Coordinates (Angstroms)
 Number     Number       Type             X           Y           Z
 ---------------------------------------------------------------------
      1          6           0       -0.002065    0.338508    0.017708
      2          6           0        0.042281    1.237885   -1.206828
      3          6           0        0.087302    1.127566    1.312503
      4          1           0        0.005614    0.653224   -2.125464
      5          1           0        0.964011    1.819980   -1.202156
      6          1           0       -0.806871    1.924197   -1.189474
      7          1           0        1.012211    1.706388    1.333325
      8          1           0        0.076128    0.467646    2.179713
      9          1           0       -0.762077    1.808948    1.381623
     10         16           0       -1.538480   -0.639882   -0.084503
     11          1           0       -1.376838   -1.293766    1.078219
     12         17           0        1.455200   -0.768956   -0.049650
 ---------------------------------------------------------------------

 SCF Done:  E(RHF) =  -974.808849463     A.U. after    2 cycles

 The electronic state is 1-A.
 Alpha  occ. eigenvalues -- -103.64898 -93.54807 -11.35333 -11.25238 -11.25162
 Alpha  occ. eigenvalues --  -10.68211  -8.84606  -8.33916  -8.33636  -8.33631
 Alpha  occ. eigenvalues --   -6.18788  -6.18561  -6.18201  -1.18136  -1.05834
 Alpha  occ. eigenvalues --   -0.96449  -0.95587  -0.76750  -0.64861  -0.63363
 Alpha  occ. eigenvalues --   -0.61733  -0.57456  -0.53265  -0.52751  -0.51913
 Alpha  occ. eigenvalues --   -0.48320  -0.44963  -0.43683  -0.36976
 Alpha virt. eigenvalues --    0.03430   0.04691   0.05265   0.05791   0.07008
 Alpha virt. eigenvalues --    0.07350   0.07619   0.09634   0.10124   0.11606
 Alpha virt. eigenvalues --    0.13333   0.14253   0.15201   0.15799   0.16350

 Mulliken charges:
               1
     1  C   -1.683087
     2  C    0.854929
     3  C    0.795466
     4  H   -0.058424
     5  H   -0.012985
     6  H    0.002507
     7  H   -0.010750
     8  H   -0.088057
     9  H    0.023006
    10  S    0.346587
    11  H    0.044855
    12  Cl  -0.214048
 Sum of Mulliken charges =  -0.00000

 Dipole moment (field-independent basis, Debye):
    X=             -0.6757    Y=              1.8963    Z=              0.7706  Tot=              2.1556

 Test job not archived.
 1\1\GINC-SE222\SP\RHF\Aug-CC-pVDZ\C3H7Cl1S1\OHZDE\09-Apr-2025\0\\#t hf
  aug-cc-pvdz iop(5/13=1,5/36=2,99/5=2) pseudo=read geom=check guess=(r
 ead,tcheck) scf=(maxcycle=1)\\title\\0,1\C,0,-0.002065,0.338508,0.0177
 08\C,0,0.04228,1.237885,-1.206828\C,0,0.087301,1.127566,1.312503\H,0,0
 .005614,0.653224,-2.125464\H,0,0.96401,1.81998,-1.202156\H,0,-0.806872
 ,1.924197,-1.189474\H,0,1.01221,1.706388,1.333325\H,0,0.076128,0.46764
 6,2.179713\H,0,-0.762078,1.808948,1.381623\S,0,-1.53848,-0.639883,-0.0
 84503\H,0,-1.376838,-1.293767,1.078219\Cl,0,1.4552,-0.768956,-0.04965\

 Normal termination of Gaussian 16 at Wed Apr  9 00:53:51 2025.
