 Gaussian 16, Revision C.01,

 ----------------------------------------------------------------------
 #t hf aug-cc-pvdz symm=none int=(grid=ultrafine) guess=(read,tcheck) s
 table=(opt,rrhf)
 ----------------------------------------------------------------------
 -----
 title
 -----
 Symbolic Z-matrix:
 Charge =  0 Multiplicity = 1

 SCF Done:  E(RHF) =  -997.660335357     A.U. after   17 cycles
 Normal termination of Gaussian 16 at Wed Apr  9 01:57:10 2025.
 Gaussian 16:  ES64L-G16RevC.01  3-Jul-2019

 ----------------------------------------------------------------------
 #t hf aug-cc-pvdz iop(5/13=1,5/36=2,99/5=2) pseudo=read geom=check gue
 ss=(read,tcheck) scf=(maxcycle=1)
 ----------------------------------------------------------------------
 -----
 title
 -----
 Structure from the checkpoint file:  "BH10_82_forward_mol1.chk"
 Charge =  0 Multiplicity = 1

                         Standard orientation:
 ---------------------------------------------------------------------
 Center     Atomic      Atomic             Coordinates (Angstroms)
 Number     Number       Type             X           Y           Z
 ---------------------------------------------------------------------
      1          6           0       -0.034324   -1.010743   -0.775456
      2          6           0       -2.263689   -0.731982    0.097381
      3          6           0        0.427816    0.075260   -0.018041
      4          1           0        0.124582    0.068704    1.022531
      5          6           0       -2.232378    0.688608    0.032345
      6          6           0       -3.678467    1.138138    0.033077
      7          6           0       -1.293806   -1.518049   -0.520080
      8          1           0       -1.609789   -2.470198   -0.936478
      9          1           0        0.544440   -1.383594   -1.610931
     10          6           0       -3.652207   -1.150873    0.261253
     11          6           0        1.705790    0.782420   -0.279915
     12          6           0        1.877737    2.039324    0.582492
     13          1           0        1.890977    1.786860    1.646341
     14          1           0        1.064859    2.747228    0.431556
     15          1           0        1.770271    1.041596   -1.342940
     16          1           0        2.811780    2.552906    0.353458
     17          7           0       -1.188348    1.430587   -0.094211
     18          6           0       -1.299390    2.794302   -0.571164
     19          1           0       -1.180923    3.500132    0.256574
     20          1           0       -0.492433    2.985370   -1.281312
     21          1           0       -2.244249    3.008171   -1.080576
     22          8           0       -4.124657   -2.248088    0.337180
     23          8           0       -4.445645   -0.024339    0.311194
     24          1           0       -3.976994    1.541823   -0.938388
     25          1           0       -3.875351    1.886072    0.803556
     26         14           0        3.180534   -0.417506    0.048196
     27          6           0        3.286188   -1.755996   -1.261545
     28          6           0        4.760728    0.595842   -0.013255
     29          6           0        2.971640   -1.189560    1.743261
     30          1           0        4.235826   -2.288636   -1.161435
     31          1           0        2.486307   -2.490970   -1.166421
     32          1           0        3.250165   -1.340974   -2.272041
     33          1           0        4.849226    1.147233   -0.953086
     34          1           0        4.824026    1.315008    0.805396
     35          1           0        5.628635   -0.064562    0.061697
     36          1           0        2.911644   -0.434317    2.530473
     37          1           0        2.066629   -1.799420    1.791251
     38          1           0        3.819913   -1.838192    1.976392
 ---------------------------------------------------------------------

 SCF Done:  E(RHF) =  -997.902607477     A.U. after    2 cycles

 The electronic state is 1-A.
 Alpha  occ. eigenvalues --  -69.06186 -20.60205 -20.53257 -15.63241 -11.37242
 Alpha  occ. eigenvalues --  -11.31614 -11.31443 -11.31185 -11.27703 -11.27659
 Alpha  occ. eigenvalues --  -11.24512 -11.24338 -11.22725 -11.22412 -11.22023
 Alpha  occ. eigenvalues --  -11.21777 -11.21762  -6.81443  -3.92200  -3.92172
 Alpha  occ. eigenvalues --   -3.92166  -1.40419  -1.31664  -1.22209  -1.11892
 Alpha  occ. eigenvalues --   -1.08111  -1.02086  -0.98344  -0.96940  -0.95201
 Alpha  occ. eigenvalues --   -0.93186  -0.93041  -0.91592  -0.84074  -0.80591
 Alpha  occ. eigenvalues --   -0.76613  -0.73313  -0.69892  -0.69104  -0.66824
 Alpha  occ. eigenvalues --   -0.65635  -0.64416  -0.63034  -0.61464  -0.61053
 Alpha  occ. eigenvalues --   -0.60698  -0.59695  -0.58189  -0.57743  -0.57528
 Alpha  occ. eigenvalues --   -0.56619  -0.55955  -0.55580  -0.54961  -0.54652
 Alpha  occ. eigenvalues --   -0.54492  -0.53795  -0.51911  -0.51274  -0.49764
 Alpha  occ. eigenvalues --   -0.47306  -0.45012  -0.44428  -0.44262  -0.44171
 Alpha  occ. eigenvalues --   -0.40978  -0.36609  -0.29459
 Alpha virt. eigenvalues --    0.02094   0.02943   0.03320   0.03837   0.04718
 Alpha virt. eigenvalues --    0.04909   0.05283   0.05583   0.05991   0.06581
 Alpha virt. eigenvalues --    0.06802   0.06916   0.07298   0.07537   0.07968

 Mulliken charges:
               1
     1  C    1.041089
     2  C    0.293210
     3  C   -0.222243
     4  H   -0.543520
     5  C   -1.156175
     6  C    1.247580
     7  C    0.193129
     8  H   -0.520296
     9  H   -0.683222
    10  C    0.467972
    11  C    0.628447
    12  C    1.007370
    13  H   -0.000031
    14  H   -0.365559
    15  H   -0.355668
    16  H   -0.091705
    17  N   -0.047716
    18  C    0.934463
    19  H   -0.089617
    20  H   -0.178744
    21  H   -0.327988
    22  O   -0.503710
    23  O   -0.684172
    24  H   -0.023520
    25  H    0.002070
    26  Si   0.051246
    27  C    0.900643
    28  C    0.748137
    29  C    0.867900
    30  H   -0.380129
    31  H   -0.290077
    32  H   -0.202712
    33  H   -0.225274
    34  H   -0.294879
    35  H   -0.389178
    36  H   -0.250043
    37  H   -0.180116
    38  H   -0.376961
 Sum of Mulliken charges =   0.00000

 Dipole moment (field-independent basis, Debye):
    X=              6.4141    Y=              5.2465    Z=             -1.4522  Tot=              8.4128

 Test job not archived.
 1\1\GINC-SE333\SP\RHF\Aug-CC-pVDZ\C13H21N1O2Si1\OHZDE\09-Apr-2025\0\\#
 t hf aug-cc-pvdz iop(5/13=1,5/36=2,99/5=2) pseudo=read geom=check gues
 s=(read,tcheck) scf=(maxcycle=1)\\title\\0,1\C,0,-0.034324,-1.010743,-
 0.775456\C,0,-2.263689,-0.731982,0.097381\C,0,0.427816,0.07526,-0.0180
 41\H,0,0.124582,0.068704,1.022531\C,0,-2.232378,0.688608,0.032345\C,0,
 -3.678467,1.138138,0.033077\C,0,-1.293806,-1.518049,-0.52008\H,0,-1.60
 9789,-2.470198,-0.936478\H,0,0.54444,-1.383594,-1.610931\C,0,-3.652207
 ,-1.150873,0.261253\C,0,1.70579,0.78242,-0.279915\C,0,1.877737,2.03932

 Normal termination of Gaussian 16 at Wed Apr  9 01:58:15 2025.
