 Gaussian 16, Revision C.01,

 ----------------------------------------------------------------------
 #t hf aug-cc-pvdz symm=none int=(grid=ultrafine) guess=(read,tcheck) s
 table=(opt,rrhf)
 ----------------------------------------------------------------------
 -----
 title
 -----
 Symbolic Z-matrix:
 Charge =  0 Multiplicity = 1

 SCF Done:  E(RHF) =  -727.020915621     A.U. after   15 cycles
 Normal termination of Gaussian 16 at Wed Apr  9 01:08:41 2025.
 Gaussian 16:  ES64L-G16RevC.01  3-Jul-2019

 ----------------------------------------------------------------------
 #t hf aug-cc-pvdz iop(5/13=1,5/36=2,99/5=2) pseudo=read geom=check gue
 ss=(read,tcheck) scf=(maxcycle=1)
 ----------------------------------------------------------------------
 -----
 title
 -----
 Structure from the checkpoint file:  "BH10_312_reverse_mol2.chk"
 Charge =  0 Multiplicity = 1

                         Standard orientation:
 ---------------------------------------------------------------------
 Center     Atomic      Atomic             Coordinates (Angstroms)
 Number     Number       Type             X           Y           Z
 ---------------------------------------------------------------------
      1          6           0       -2.353986   -1.255084   -0.000088
      2          6           0       -3.701673   -0.925444   -0.000035
      3          6           0       -4.089333    0.405805    0.000079
      4          6           0       -3.119335    1.402386    0.000139
      5          6           0       -1.775814    1.070685    0.000087
      6          6           0       -1.369494   -0.266343   -0.000027
      7          1           0       -2.054622   -2.297295   -0.000178
      8          1           0       -4.448693   -1.710027   -0.000083
      9          1           0       -5.140136    0.668739    0.000120
     10          1           0       -3.414914    2.444763    0.000226
     11          1           0       -1.035030    1.860310    0.000131
     12          6           0        0.043302   -0.676000   -0.000085
     13          6           0        1.116289    0.114501    0.000008
     14          1           0        1.001463    1.197822    0.000147
     15         15           0        2.811427   -0.555931   -0.000085
     16          6           0        3.517015    0.420719    1.404966
     17          1           0        3.313816    1.490610    1.310150
     18          1           0        3.094741    0.063661    2.345012
     19          1           0        4.597887    0.271477    1.443221
     20          6           0        3.516995    0.421063   -1.404907
     21          1           0        3.094706    0.064237   -2.345035
     22          1           0        3.313801    1.490931   -1.309825
     23          1           0        4.597866    0.271828   -1.443217
     24          1           0        0.203910   -1.751814   -0.000217
 ---------------------------------------------------------------------

 SCF Done:  E(RHF) =  -727.162488393     A.U. after    2 cycles

 The electronic state is 1-A.
 Alpha  occ. eigenvalues --  -81.24610 -11.25522 -11.25442 -11.24825 -11.24769
 Alpha  occ. eigenvalues --  -11.24700 -11.24636 -11.24614 -11.23646 -11.22867
 Alpha  occ. eigenvalues --  -11.22866  -7.74879  -4.88959  -4.88841  -4.88565
 Alpha  occ. eigenvalues --   -1.15583  -1.07145  -1.01694  -1.00194  -0.96950
 Alpha  occ. eigenvalues --   -0.92910  -0.85570  -0.83309  -0.77495  -0.71055
 Alpha  occ. eigenvalues --   -0.69812  -0.64895  -0.63801  -0.60955  -0.59640
 Alpha  occ. eigenvalues --   -0.58884  -0.58196  -0.55734  -0.55182  -0.54452
 Alpha  occ. eigenvalues --   -0.52222  -0.51731  -0.49622  -0.46658  -0.45470
 Alpha  occ. eigenvalues --   -0.41082  -0.34621  -0.32347  -0.31216
 Alpha virt. eigenvalues --    0.03186   0.03647   0.04092   0.04871   0.04950
 Alpha virt. eigenvalues --    0.05360   0.06325   0.07046   0.07149   0.07653
 Alpha virt. eigenvalues --    0.08120   0.08135   0.08852   0.09929   0.10292

 Mulliken charges:
               1
     1  C    0.467081
     2  C    0.436598
     3  C    0.583762
     4  C    0.294791
     5  C    0.598085
     6  C    0.527706
     7  H   -0.577749
     8  H   -0.440458
     9  H   -0.435694
    10  H   -0.500340
    11  H   -0.477046
    12  C    0.087440
    13  C    0.901574
    14  H   -0.774579
    15  P    0.073619
    16  C    0.386017
    17  H   -0.160692
    18  H   -0.150883
    19  H   -0.163244
    20  C    0.386013
    21  H   -0.150878
    22  H   -0.160688
    23  H   -0.163248
    24  H   -0.587186
 Sum of Mulliken charges =  -0.00000

 Dipole moment (field-independent basis, Debye):
    X=             -0.5425    Y=              1.1958    Z=              0.0002  Tot=              1.3131

 Test job not archived.
 1\1\GINC-SE074\SP\RHF\Aug-CC-pVDZ\C10H13P1\OHZDE\09-Apr-2025\0\\#t hf
 aug-cc-pvdz iop(5/13=1,5/36=2,99/5=2) pseudo=read geom=check guess=(re
 ad,tcheck) scf=(maxcycle=1)\\title\\0,1\C,0,-2.353986,-1.255084,-0.000
 088\C,0,-3.701673,-0.925444,-0.000035\C,0,-4.089333,0.405805,0.000079\
 C,0,-3.119335,1.402386,0.000139\C,0,-1.775814,1.070685,0.000087\C,0,-1
 .369494,-0.266343,-0.000027\H,0,-2.054622,-2.297295,-0.000178\H,0,-4.4
 48693,-1.710027,-0.000083\H,0,-5.140136,0.668739,0.00012\H,0,-3.414914
 ,2.444763,0.000226\H,0,-1.03503,1.86031,0.000131\C,0,0.043302,-0.676,-

 Normal termination of Gaussian 16 at Wed Apr  9 01:08:58 2025.
