 Gaussian 16, Revision C.01,

 ----------------------------------------------------------------------
 #t hf aug-cc-pvdz symm=none int=(grid=ultrafine) guess=(read,tcheck) s
 table=(opt,rrhf)
 ----------------------------------------------------------------------
 -----
 title
 -----
 Symbolic Z-matrix:
 Charge =  0 Multiplicity = 1

 SCF Done:  E(RHF) =  -1015.52300461     A.U. after   18 cycles
 Normal termination of Gaussian 16 at Wed Apr  9 00:58:27 2025.
 Gaussian 16:  ES64L-G16RevC.01  3-Jul-2019

 ----------------------------------------------------------------------
 #t hf aug-cc-pvdz iop(5/13=1,5/36=2,99/5=2) pseudo=read geom=check gue
 ss=(read,tcheck) scf=(maxcycle=1)
 ----------------------------------------------------------------------
 -----
 title
 -----
 Structure from the checkpoint file:  "BH10-RE_376_mol2.chk"
 Charge =  0 Multiplicity = 1

                         Standard orientation:
 ---------------------------------------------------------------------
 Center     Atomic      Atomic             Coordinates (Angstroms)
 Number     Number       Type             X           Y           Z
 ---------------------------------------------------------------------
      1          7           0       -3.050770    0.811848   -0.079788
      2          7           0       -3.950974   -0.037483   -0.094663
      3          7           0       -4.884842   -0.653374   -0.114255
      4          6           0       -1.716727    0.420364   -0.018226
      5          6           0       -0.769933    1.439739    0.071104
      6          6           0       -1.239466   -0.887092   -0.045967
      7          6           0        0.579500    1.157434    0.125300
      8          6           0        0.111055   -1.163870    0.023379
      9          6           0        1.053248   -0.148679    0.104886
     10          9           0       -1.173252    2.706247    0.113049
     11          9           0        1.422969    2.180579    0.237759
     12          9           0        0.488692   -2.436566   -0.028829
     13          9           0       -2.109407   -1.899517   -0.151542
     14          6           0        2.507458   -0.477654    0.210445
     15          8           0        2.951016   -1.319220    0.939768
     16          8           0        3.234565    0.275728   -0.611171
     17          6           0        4.652971    0.069563   -0.553905
     18          1           0        4.894698   -0.958043   -0.822656
     19          1           0        5.075430    0.766782   -1.271266
     20          1           0        5.021683    0.276736    0.450068
 ---------------------------------------------------------------------

 SCF Done:  E(RHF) =  -1015.85459340     A.U. after    2 cycles

 The electronic state is 1-A.
 Alpha  occ. eigenvalues --  -26.18203 -26.17491 -26.17453 -26.16955 -20.63687
 Alpha  occ. eigenvalues --  -20.58228 -15.89119 -15.78297 -15.71947 -11.42425
 Alpha  occ. eigenvalues --  -11.39360 -11.39235 -11.38167 -11.37827 -11.36418
 Alpha  occ. eigenvalues --  -11.30998 -11.30605  -1.72722  -1.72177  -1.71522
 Alpha  occ. eigenvalues --   -1.70936  -1.50140  -1.44880  -1.35139  -1.32038
 Alpha  occ. eigenvalues --   -1.22122  -1.11153  -1.08869  -1.01646  -0.97067
 Alpha  occ. eigenvalues --   -0.94911  -0.88830  -0.87305  -0.86721  -0.82108
 Alpha  occ. eigenvalues --   -0.81640  -0.80917  -0.80292  -0.79841  -0.79264
 Alpha  occ. eigenvalues --   -0.78329  -0.77671  -0.76668  -0.76096  -0.73884
 Alpha  occ. eigenvalues --   -0.72567  -0.71226  -0.70384  -0.69770  -0.68529
 Alpha  occ. eigenvalues --   -0.66662  -0.64195  -0.61326  -0.58351  -0.56724
 Alpha  occ. eigenvalues --   -0.55620  -0.50127  -0.49647  -0.48664  -0.47624
 Alpha  occ. eigenvalues --   -0.38947  -0.35646
 Alpha virt. eigenvalues --    0.03396   0.04784   0.05322   0.05675   0.05747
 Alpha virt. eigenvalues --    0.06533   0.06945   0.08464   0.08617   0.09305
 Alpha virt. eigenvalues --    0.10004   0.10156   0.11036   0.11554   0.12053

 Mulliken charges:
               1
     1  N   -0.835424
     2  N    0.500152
     3  N   -0.262866
     4  C    0.761141
     5  C   -0.117707
     6  C    0.304231
     7  C    0.456618
     8  C    0.231058
     9  C    0.722440
    10  F   -0.221604
    11  F   -0.252200
    12  F   -0.232445
    13  F   -0.230004
    14  C   -0.296869
    15  O   -0.403088
    16  O   -0.516123
    17  C    0.759620
    18  H   -0.081073
    19  H   -0.234420
    20  H   -0.051438
 Sum of Mulliken charges =  -0.00000

 Dipole moment (field-independent basis, Debye):
    X=              0.1394    Y=              0.6284    Z=             -1.3424  Tot=              1.4887

 Test job not archived.
 1\1\GINC-SE457\SP\RHF\Aug-CC-pVDZ\C8H3F4N3O2\OHZDE\09-Apr-2025\0\\#t h
 f aug-cc-pvdz iop(5/13=1,5/36=2,99/5=2) pseudo=read geom=check guess=(
 read,tcheck) scf=(maxcycle=1)\\title\\0,1\N,0,-3.05077,0.811848,-0.079
 788\N,0,-3.950974,-0.037483,-0.094663\N,0,-4.884842,-0.653374,-0.11425
 5\C,0,-1.716727,0.420364,-0.018226\C,0,-0.769933,1.439739,0.071104\C,0
 ,-1.239466,-0.887092,-0.045967\C,0,0.5795,1.157434,0.1253\C,0,0.111055
 ,-1.16387,0.023379\C,0,1.053248,-0.148679,0.104886\F,0,-1.173252,2.706
 247,0.113049\F,0,1.422969,2.180579,0.237759\F,0,0.488692,-2.436566,-0.

 Normal termination of Gaussian 16 at Wed Apr  9 00:58:46 2025.
