 Gaussian 16, Revision C.01,

 ----------------------------------------------------------------------
 #t hf aug-cc-pvdz symm=none int=(grid=ultrafine) guess=(read,tcheck) s
 table=(opt,rrhf)
 ----------------------------------------------------------------------
 -----
 title
 -----
 Symbolic Z-matrix:
 Charge =  0 Multiplicity = 1

 SCF Done:  E(RHF) =  -1332.30593317     A.U. after   14 cycles
 Normal termination of Gaussian 16 at Wed Apr  9 00:56:20 2025.
 Gaussian 16:  ES64L-G16RevC.01  3-Jul-2019

 ----------------------------------------------------------------------
 #t hf aug-cc-pvdz iop(5/13=1,5/36=2,99/5=2) pseudo=read geom=check gue
 ss=(read,tcheck) scf=(maxcycle=1)
 ----------------------------------------------------------------------
 -----
 title
 -----
 Structure from the checkpoint file:  "BH10-RE_123_mol3.chk"
 Charge =  0 Multiplicity = 1

                         Standard orientation:
 ---------------------------------------------------------------------
 Center     Atomic      Atomic             Coordinates (Angstroms)
 Number     Number       Type             X           Y           Z
 ---------------------------------------------------------------------
      1          7           0       -0.275339    0.300524   -0.295080
      2         16           0        1.048835   -0.425341    0.514729
      3          8           0        2.241216    0.345947   -0.206469
      4          6           0        2.460231    0.096947   -1.608843
      5          6           0       -1.642729   -0.358722   -0.204475
      6         17           0       -0.293724    2.001405    0.125286
      7          8           0        1.130730   -0.055583    1.897535
      8          8           0        1.054364   -1.808576    0.108751
      9          1           0        3.364640    0.647649   -1.850466
     10          1           0        1.615266    0.473940   -2.184553
     11          1           0        2.601490   -0.969154   -1.780991
     12          6           0       -1.592421   -1.673894   -0.988430
     13          6           0       -2.633813    0.563650   -0.916352
     14          6           0       -2.063932   -0.585355    1.244746
     15          1           0       -1.210198   -1.502440   -1.995805
     16          1           0       -2.611542   -2.055687   -1.068718
     17          1           0       -0.976802   -2.426766   -0.507870
     18          1           0       -2.269505    0.836726   -1.907781
     19          1           0       -2.834722    1.472598   -0.353514
     20          1           0       -3.574908    0.025357   -1.033019
     21          1           0       -1.420656   -1.312682    1.741518
     22          1           0       -3.086085   -0.967281    1.270170
     23          1           0       -2.032140    0.345576    1.812656
 ---------------------------------------------------------------------

 SCF Done:  E(RHF) =  -1332.56102913     A.U. after    2 cycles

 The electronic state is 1-A.
 Alpha  occ. eigenvalues -- -103.70355 -93.85462 -20.64340 -20.58443 -20.57962
 Alpha  occ. eigenvalues --  -15.72807 -11.31825 -11.31459 -11.24185 -11.23626
 Alpha  occ. eigenvalues --  -11.23363 -10.73357  -9.11214  -8.39110  -8.38751
 Alpha  occ. eigenvalues --   -8.38703  -6.45889  -6.45814  -6.45711  -1.48955
 Alpha  occ. eigenvalues --   -1.36714  -1.33666  -1.27250  -1.12539  -1.04925
 Alpha  occ. eigenvalues --   -0.99170  -0.95426  -0.94689  -0.86135  -0.78823
 Alpha  occ. eigenvalues --   -0.74969  -0.71533  -0.71420  -0.67570  -0.66397
 Alpha  occ. eigenvalues --   -0.65106  -0.63503  -0.61614  -0.59300  -0.58129
 Alpha  occ. eigenvalues --   -0.57068  -0.55336  -0.54800  -0.54135  -0.53643
 Alpha  occ. eigenvalues --   -0.53426  -0.52418  -0.51730  -0.51124  -0.49645
 Alpha  occ. eigenvalues --   -0.48920  -0.46911  -0.41587
 Alpha virt. eigenvalues --    0.03079   0.03668   0.04336   0.04661   0.05941
 Alpha virt. eigenvalues --    0.06353   0.06626   0.07382   0.07578   0.08412
 Alpha virt. eigenvalues --    0.08811   0.09086   0.09258   0.10178   0.12621

 Mulliken charges:
               1
     1  N   -0.661466
     2  S    2.886325
     3  O   -0.948945
     4  C    0.763921
     5  C   -3.366069
     6  Cl   0.003197
     7  O   -0.986932
     8  O   -0.997607
     9  H   -0.232225
    10  H   -0.084089
    11  H   -0.029827
    12  C    1.195160
    13  C    1.276175
    14  C    1.191957
    15  H    0.001016
    16  H    0.020389
    17  H   -0.028350
    18  H    0.017733
    19  H   -0.029723
    20  H   -0.008472
    21  H   -0.072101
    22  H    0.062521
    23  H    0.027412
 Sum of Mulliken charges =  -0.00000

 Dipole moment (field-independent basis, Debye):
    X=             -2.1101    Y=              0.5764    Z=             -3.9506  Tot=              4.5157

 Test job not archived.
 1\1\GINC-SE096\SP\RHF\Aug-CC-pVDZ\C5H12Cl1N1O3S1\OHZDE\09-Apr-2025\0\\
 #t hf aug-cc-pvdz iop(5/13=1,5/36=2,99/5=2) pseudo=read geom=check gue
 ss=(read,tcheck) scf=(maxcycle=1)\\title\\0,1\N,0,-0.275339,0.300524,-
 0.29508\S,0,1.048835,-0.425341,0.514729\O,0,2.241216,0.345947,-0.20646
 9\C,0,2.460231,0.096947,-1.608843\C,0,-1.642729,-0.358722,-0.204475\Cl
 ,0,-0.293724,2.001405,0.125286\O,0,1.13073,-0.055583,1.897535\O,0,1.05
 4364,-1.808576,0.108751\H,0,3.36464,0.647649,-1.850466\H,0,1.615266,0.
 47394,-2.184553\H,0,2.60149,-0.969154,-1.780991\C,0,-1.592421,-1.67389

 Normal termination of Gaussian 16 at Wed Apr  9 00:56:39 2025.
