 Gaussian 16, Revision C.01,

 ----------------------------------------------------------------------
 #t hf aug-cc-pvdz symm=none int=(grid=ultrafine) guess=(read,tcheck) s
 table=(opt,rrhf)
 ----------------------------------------------------------------------
 -----
 title
 -----
 Symbolic Z-matrix:
 Charge =  0 Multiplicity = 1

 SCF Done:  E(RHF) =  -1125.15972735     A.U. after   15 cycles
 Normal termination of Gaussian 16 at Wed Apr  9 02:12:23 2025.
 Gaussian 16:  ES64L-G16RevC.01  3-Jul-2019

 ----------------------------------------------------------------------
 #t hf aug-cc-pvdz iop(5/13=1,5/36=2,99/5=2) pseudo=read geom=check gue
 ss=(read,tcheck) scf=(maxcycle=1)
 ----------------------------------------------------------------------
 -----
 title
 -----
 Structure from the checkpoint file:  "BH10_298_forward_mol1.chk"
 Charge =  0 Multiplicity = 1

                         Standard orientation:
 ---------------------------------------------------------------------
 Center     Atomic      Atomic             Coordinates (Angstroms)
 Number     Number       Type             X           Y           Z
 ---------------------------------------------------------------------
      1          6           0        1.871802   -2.468434    0.087719
      2          6           0        1.607128   -1.395582    1.160803
      3          6           0        1.424471    0.424994   -1.330839
      4          1           0        0.946328   -2.998360   -0.158761
      5          6           0        2.872854   -0.544919    1.435013
      6          1           0        2.979699   -0.419053    2.516614
      7          1           0        3.762734   -1.095522    1.112626
      8          1           0        1.201108    1.077799   -2.179638
      9          1           0        1.406641   -1.945647    2.088199
     10          1           0        0.174873    0.217825    1.936958
     11          6           0        2.879334    0.862242    0.833512
     12          1           0        2.105957    1.439803    1.341853
     13          1           0        3.824188    1.346369    1.102505
     14          6           0        2.688721    1.028877   -0.678555
     15          1           0        2.686631    2.107992   -0.866494
     16          1           0        3.569471    0.648960   -1.206249
     17          6           0        1.682670   -0.947154   -1.988777
     18          1           0        0.719186   -1.388321   -2.266206
     19          6           0        2.496625   -1.973427   -1.210296
     20          1           0        2.661618   -2.838139   -1.860801
     21          1           0        3.492357   -1.568263   -1.007962
     22          1           0        2.212128   -0.760494   -2.929977
     23          1           0        2.546823   -3.219401    0.515862
     24          6           0        0.153703    0.449098   -0.432104
     25          1           0       -0.622057    0.003488   -1.065875
     26         14           0       -0.533855    2.206066   -0.196039
     27          6           0        0.182626    3.168363    1.259153
     28          1           0        1.224120    3.450889    1.094897
     29          1           0       -0.389033    4.091098    1.393591
     30          1           0        0.134244    2.611910    2.197967
     31          6           0       -0.226880    3.236289   -1.745208
     32          1           0       -0.721088    4.207478   -1.653320
     33          1           0       -0.626835    2.747985   -2.638042
     34          1           0        0.835227    3.423611   -1.917920
     35          6           0       -2.402665    2.157942    0.040483
     36          1           0       -2.896921    1.796373   -0.864001
     37          1           0       -2.713450    1.511912    0.861302
     38          1           0       -2.775136    3.167022    0.238194
     39          5           0        0.339182   -0.427305    0.913928
     40          6           0       -1.347213   -0.873457    2.005305
     41          6           0       -1.118346   -1.800612    1.062060
     42          1           0       -0.565322   -2.694831    1.311306
     43          6           0       -1.891041   -0.205585    2.978528
     44          1           0       -2.796761   -0.601934    3.425390
     45          1           0       -1.492464    0.726397    3.350415
     46          6           0       -1.886447   -1.910850   -0.200957
     47          8           0       -1.674330   -2.760599   -1.025358
     48          8           0       -2.842436   -0.985750   -0.311848
     49          6           0       -3.592183   -1.009309   -1.530286
     50          1           0       -4.091184   -1.970179   -1.650127
     51          1           0       -4.318081   -0.206136   -1.440844
     52          1           0       -2.933767   -0.839087   -2.382243
 ---------------------------------------------------------------------

 SCF Done:  E(RHF) =  -1125.43757930     A.U. after    2 cycles

 The electronic state is 1-A.
 Alpha  occ. eigenvalues --  -69.02853 -20.62604 -20.56787 -11.40835 -11.34363
 Alpha  occ. eigenvalues --  -11.30329 -11.29128 -11.28032 -11.21885 -11.21182
 Alpha  occ. eigenvalues --  -11.21071 -11.21015 -11.20519 -11.20477 -11.20440
 Alpha  occ. eigenvalues --  -11.19773 -11.19515 -11.19501 -11.19497 -11.18160
 Alpha  occ. eigenvalues --   -7.58467  -6.78198  -3.88883  -3.88881  -3.88855
 Alpha  occ. eigenvalues --   -1.43601  -1.33712  -1.13785  -1.08997  -1.03596
 Alpha  occ. eigenvalues --   -1.02544  -1.02198  -0.97592  -0.95732  -0.93312
 Alpha  occ. eigenvalues --   -0.90937  -0.90728  -0.90016  -0.85804  -0.83291
 Alpha  occ. eigenvalues --   -0.78672  -0.78379  -0.77262  -0.71839  -0.70919
 Alpha  occ. eigenvalues --   -0.70350  -0.69481  -0.68131  -0.66125  -0.65094
 Alpha  occ. eigenvalues --   -0.63158  -0.61084  -0.60783  -0.60468  -0.58734
 Alpha  occ. eigenvalues --   -0.57281  -0.57023  -0.56572  -0.56181  -0.55829
 Alpha  occ. eigenvalues --   -0.55361  -0.55018  -0.54740  -0.54090  -0.52991
 Alpha  occ. eigenvalues --   -0.52823  -0.52197  -0.50090  -0.49192  -0.49012
 Alpha  occ. eigenvalues --   -0.47871  -0.47559  -0.47050  -0.45725  -0.45095
 Alpha  occ. eigenvalues --   -0.43452  -0.43143  -0.42241  -0.41913  -0.40850
 Alpha  occ. eigenvalues --   -0.40225  -0.39308  -0.38562  -0.36197
 Alpha virt. eigenvalues --    0.02328   0.03344   0.03562   0.03770   0.04688
 Alpha virt. eigenvalues --    0.04909   0.05085   0.05154   0.05508   0.06495
 Alpha virt. eigenvalues --    0.06574   0.06768   0.06816   0.06942   0.07280

 Mulliken charges:
               1
     1  C    0.826198
     2  C   -0.517223
     3  C   -0.039269
     4  H   -0.139834
     5  C    0.659561
     6  H   -0.199708
     7  H   -0.168770
     8  H   -0.317444
     9  H   -0.000812
    10  H    0.607257
    11  C    0.696815
    12  H   -0.058213
    13  H   -0.309577
    14  C    0.420693
    15  H   -0.209900
    16  H   -0.221720
    17  C    0.895825
    18  H   -0.005042
    19  C    0.216388
    20  H   -0.237620
    21  H    0.008991
    22  H   -0.242200
    23  H   -0.185741
    24  C    0.517093
    25  H   -0.702203
    26  Si  -1.117966
    27  C    1.210462
    28  H   -0.265640
    29  H   -0.506494
    30  H   -0.285116
    31  C    1.198968
    32  H   -0.582763
    33  H   -0.246043
    34  H   -0.254920
    35  C    1.353471
    36  H   -0.387807
    37  H   -0.384473
    38  H   -0.433864
    39  B   -0.801867
    40  C   -0.965794
    41  C    0.891643
    42  H   -0.361094
    43  C    1.797646
    44  H   -0.290210
    45  H   -0.296978
    46  C    0.162411
    47  O   -0.527750
    48  O   -0.728718
    49  C    0.958381
    50  H   -0.169683
    51  H   -0.237147
    52  H   -0.022200
 Sum of Mulliken charges =  -0.00000

 Dipole moment (field-independent basis, Debye):
    X=             -2.8784    Y=              0.9403    Z=              2.4446  Tot=              3.8917

 Test job not archived.
 1\1\GINC-SE115\SP\RHF\Aug-CC-pVDZ\C17H31B1O2Si1\OHZDE\09-Apr-2025\0\\#
 t hf aug-cc-pvdz iop(5/13=1,5/36=2,99/5=2) pseudo=read geom=check gues
 s=(read,tcheck) scf=(maxcycle=1)\\title\\0,1\C,0,1.871802,-2.468434,0.
 087719\C,0,1.607128,-1.395582,1.160803\C,0,1.424471,0.424994,-1.330839
 \H,0,0.946328,-2.99836,-0.158761\C,0,2.872854,-0.544919,1.435013\H,0,2
 .979699,-0.419053,2.516614\H,0,3.762734,-1.095522,1.112626\H,0,1.20110
 8,1.077799,-2.179638\H,0,1.406641,-1.945647,2.088199\H,0,0.174873,0.21
 7825,1.936958\C,0,2.879334,0.862242,0.833512\H,0,2.105957,1.439803,1.3

 Normal termination of Gaussian 16 at Wed Apr  9 02:15:40 2025.
