 Gaussian 16, Revision C.01,

 ----------------------------------------------------------------------
 #t hf aug-cc-pvdz symm=none int=(grid=ultrafine) guess=(read,tcheck) s
 table=(opt,rrhf)
 ----------------------------------------------------------------------
 -----
 title
 -----
 Symbolic Z-matrix:
 Charge =  0 Multiplicity = 1

 SCF Done:  E(RHF) =  -899.995208510     A.U. after   15 cycles
 Normal termination of Gaussian 16 at Wed Apr  9 01:00:02 2025.
 Gaussian 16:  ES64L-G16RevC.01  3-Jul-2019

 ----------------------------------------------------------------------
 #t hf aug-cc-pvdz iop(5/13=1,5/36=2,99/5=2) pseudo=read geom=check gue
 ss=(read,tcheck) scf=(maxcycle=1)
 ----------------------------------------------------------------------
 -----
 title
 -----
 Structure from the checkpoint file:  "BH10_133_forward_mol2.chk"
 Charge =  0 Multiplicity = 1

                         Standard orientation:
 ---------------------------------------------------------------------
 Center     Atomic      Atomic             Coordinates (Angstroms)
 Number     Number       Type             X           Y           Z
 ---------------------------------------------------------------------
      1          6           0       -1.540973    0.000279    0.155954
      2          6           0       -0.739592    1.242859   -0.229513
      3          6           0       -0.674752   -1.247681   -0.012071
      4          6           0       -2.150325    0.104490    1.546039
      5          1           0       -2.795688    0.980398    1.615538
      6          1           0       -1.371396    0.196314    2.305276
      7          1           0       -2.744820   -0.781035    1.772599
      8          6           0        0.580774    1.317628    0.536571
      9          1           0       -1.333047    2.140444   -0.043330
     10          1           0       -0.521183    1.207521   -1.298661
     11          6           0        0.648276   -1.117418    0.745789
     12          1           0       -0.458814   -1.386100   -1.073566
     13          1           0       -1.219785   -2.128863    0.333628
     14          7           0        1.347001    0.094070    0.354796
     15          1           0        0.404852    1.475249    1.606436
     16          1           0        1.187051    2.143179    0.173534
     17          6           0        2.592129    0.151912   -0.207528
     18          1           0        1.266211   -1.987676    0.546237
     19          1           0        0.470202   -1.095844    1.827254
     20          8           0        3.097378    1.209916   -0.539141
     21          6           0        3.332724   -1.153614   -0.404903
     22          1           0        3.489623   -1.675997    0.540673
     23          1           0        4.297909   -0.913615   -0.842453
     24          1           0        2.794726   -1.823495   -1.078669
     25         17           0       -2.939026   -0.145825   -1.019821
 ---------------------------------------------------------------------

 SCF Done:  E(RHF) =  -900.146788310     A.U. after    2 cycles

 The electronic state is 1-A.
 Alpha  occ. eigenvalues -- -103.64269 -20.53051 -15.65162 -11.36382 -11.32069
 Alpha  occ. eigenvalues --  -11.29278 -11.27485 -11.25531 -11.24914 -11.24798
 Alpha  occ. eigenvalues --  -11.24658 -10.67583  -8.33288  -8.33025  -8.33024
 Alpha  occ. eigenvalues --   -1.34837  -1.23331  -1.17393  -1.06686  -1.04625
 Alpha  occ. eigenvalues --   -1.00598  -0.97132  -0.89676  -0.88035  -0.78716
 Alpha  occ. eigenvalues --   -0.73276  -0.69983  -0.66832  -0.65246  -0.64378
 Alpha  occ. eigenvalues --   -0.63906  -0.62611  -0.59841  -0.59115  -0.57538
 Alpha  occ. eigenvalues --   -0.56221  -0.55064  -0.54587  -0.52661  -0.51876
 Alpha  occ. eigenvalues --   -0.49805  -0.49122  -0.49035  -0.44400  -0.44259
 Alpha  occ. eigenvalues --   -0.43264  -0.37592
 Alpha virt. eigenvalues --    0.02641   0.03533   0.04165   0.04215   0.05529
 Alpha virt. eigenvalues --    0.06071   0.06305   0.06665   0.07303   0.07962
 Alpha virt. eigenvalues --    0.08506   0.08817   0.09288   0.10000   0.10683

 Mulliken charges:
               1
     1  C   -1.831912
     2  C    0.888142
     3  C    0.789298
     4  C    0.849075
     5  H   -0.007402
     6  H   -0.144797
     7  H   -0.006511
     8  C    0.687941
     9  H   -0.099497
    10  H   -0.081430
    11  C    0.768367
    12  H   -0.097514
    13  H   -0.097915
    14  N   -0.406132
    15  H   -0.156449
    16  H   -0.214763
    17  C    0.027165
    18  H   -0.268092
    19  H   -0.177238
    20  O   -0.575762
    21  C    0.304210
    22  H    0.105817
    23  H   -0.162315
    24  H    0.105536
    25  Cl  -0.197821
 Sum of Mulliken charges =  -0.00000

 Dipole moment (field-independent basis, Debye):
    X=             -0.4442    Y=             -3.0322    Z=              2.8444  Tot=              4.1812

 Test job not archived.
 1\1\GINC-SE342\SP\RHF\Aug-CC-pVDZ\C8H14Cl1N1O1\OHZDE\09-Apr-2025\0\\#t
  hf aug-cc-pvdz iop(5/13=1,5/36=2,99/5=2) pseudo=read geom=check guess
 =(read,tcheck) scf=(maxcycle=1)\\title\\0,1\C,0,-1.540973,0.000279,0.1
 55954\C,0,-0.739592,1.242859,-0.229513\C,0,-0.674752,-1.247681,-0.0120
 71\C,0,-2.150325,0.10449,1.546039\H,0,-2.795688,0.980398,1.615538\H,0,
 -1.371396,0.196314,2.305276\H,0,-2.74482,-0.781035,1.772599\C,0,0.5807
 74,1.317628,0.536571\H,0,-1.333047,2.140444,-0.04333\H,0,-0.521183,1.2
 07521,-1.298661\C,0,0.648276,-1.117418,0.745789\H,0,-0.458814,-1.3861,

 Normal termination of Gaussian 16 at Wed Apr  9 01:00:22 2025.
