 Gaussian 16, Revision C.01,

 ----------------------------------------------------------------------
 #t hf aug-cc-pvdz symm=none int=(grid=ultrafine) guess=(read,tcheck) s
 table=opt
 ----------------------------------------------------------------------
 -----
 title
 -----
 Symbolic Z-matrix:
 Charge =  0 Multiplicity = 2

 SCF Done:  E(UHF) =  -1179.57302239     A.U. after   23 cycles
 Normal termination of Gaussian 16 at Wed Apr  9 01:00:27 2025.
 Gaussian 16:  ES64L-G16RevC.01  3-Jul-2019

 ----------------------------------------------------------------------
 #t hf aug-cc-pvdz iop(5/13=1,5/36=2,99/5=2) pseudo=read geom=check gue
 ss=(read,tcheck) scf=(maxcycle=1)
 ----------------------------------------------------------------------
 -----
 title
 -----
 Structure from the checkpoint file:  "BH10_163_forward_mol1.chk"
 Charge =  0 Multiplicity = 2

                         Standard orientation:
 ---------------------------------------------------------------------
 Center     Atomic      Atomic             Coordinates (Angstroms)
 Number     Number       Type             X           Y           Z
 ---------------------------------------------------------------------
      1          6           0       -3.004320    0.142878   -0.901164
      2         16           0       -2.451784   -1.204219    0.179547
      3          6           0       -0.637181   -1.092869   -0.007046
      4          6           0       -0.023472    0.139194    0.599017
      5          6           0       -0.223678    0.379372    2.069364
      6          6           0        0.046968    1.310895   -0.306924
      7          8           0        0.186615    2.479789    0.344314
      8          8           0        0.032753    1.246748   -1.513604
      9         16           0        2.817922   -0.587394    0.448067
     10          6           0        2.743281   -0.951640   -1.330480
     11          1           0       -2.805901    1.122272   -0.467422
     12          1           0       -2.532724    0.073699   -1.879983
     13          1           0       -4.081468    0.023595   -1.011736
     14          1           0       -0.068187   -0.547131    2.624409
     15          1           0       -1.245183    0.714457    2.266534
     16          1           0        0.460162    1.139817    2.442747
     17          1           0       -0.260199   -1.979800    0.504067
     18          1           0       -0.385717   -1.166937   -1.063602
     19          1           0        2.269007   -0.135349   -1.873181
     20          1           0        3.772519   -1.047497   -1.676791
     21          1           0        2.219414   -1.885621   -1.526330
     22          1           0        1.340963   -0.193517    0.563358
     23          1           0        0.294566    3.168535   -0.326168
 ---------------------------------------------------------------------

 SCF Done:  E(UHF) =  -1179.73434820     A.U. after    2 cycles

 The electronic state is 2-A.
 Alpha  occ. eigenvalues --  -93.53486 -93.53396 -20.63793 -20.58027 -11.41124
 Alpha  occ. eigenvalues --  -11.30077 -11.28033 -11.26496 -11.26411 -11.24568
 Alpha  occ. eigenvalues --   -8.83218  -8.83130  -6.18143  -6.17349  -6.17100
 Alpha  occ. eigenvalues --   -6.17046  -6.16745  -6.16640  -1.44359  -1.34538
 Alpha  occ. eigenvalues --   -1.13289  -1.04107  -1.02639  -0.95937  -0.92736
 Alpha  occ. eigenvalues --   -0.86210  -0.83852  -0.77944  -0.73649  -0.71031
 Alpha  occ. eigenvalues --   -0.69459  -0.63608  -0.62984  -0.60363  -0.59678
 Alpha  occ. eigenvalues --   -0.59473  -0.59109  -0.58588  -0.57153  -0.54082
 Alpha  occ. eigenvalues --   -0.53477  -0.52755  -0.50273  -0.48999  -0.47223
 Alpha  occ. eigenvalues --   -0.44182  -0.35825  -0.35486  -0.34093
 Alpha virt. eigenvalues --    0.03154   0.04106   0.04314   0.04548   0.05649
 Alpha virt. eigenvalues --    0.06231   0.06418   0.07005   0.07194   0.08537
 Alpha virt. eigenvalues --    0.08808   0.09458   0.10079   0.10994   0.11794

  Beta  occ. eigenvalues --  -93.53335 -93.52944 -20.63825 -20.57439 -11.41439
  Beta  occ. eigenvalues --  -11.28295 -11.28235 -11.26503 -11.26466 -11.24744
  Beta  occ. eigenvalues --   -8.83060  -8.82613  -6.17193  -6.16967  -6.16762
  Beta  occ. eigenvalues --   -6.16699  -6.16293  -6.15771  -1.44115  -1.33662
  Beta  occ. eigenvalues --   -1.10588  -1.03219  -1.00861  -0.95978  -0.92164
  Beta  occ. eigenvalues --   -0.84202  -0.82059  -0.77232  -0.73234  -0.69350
  Beta  occ. eigenvalues --   -0.67233  -0.63372  -0.61259  -0.59596  -0.59318
  Beta  occ. eigenvalues --   -0.59160  -0.59006  -0.57726  -0.56917  -0.53126
  Beta  occ. eigenvalues --   -0.52104  -0.50063  -0.49452  -0.48248  -0.45327
  Beta  occ. eigenvalues --   -0.42647  -0.34731  -0.34453
  Beta virt. eigenvalues --    0.01495   0.03164   0.04117   0.04330   0.04564
  Beta virt. eigenvalues --    0.05709   0.06237   0.06439   0.07049   0.07237
  Beta virt. eigenvalues --    0.08557   0.08829   0.09517   0.10119   0.11040

 Mulliken charges and spin densities:
               1          2
     1  C    0.226270  -0.002623
     2  S    0.525748   0.049116
     3  C    0.332834  -0.176154
     4  C   -1.348010   1.126116
     5  C    1.198056  -0.137116
     6  C    0.616089  -0.209278
     7  O   -0.592374  -0.002902
     8  O   -0.591418   0.130797
     9  S    0.013649   0.557217
    10  C    0.280087  -0.049778
    11  H   -0.115267   0.002015
    12  H   -0.101711   0.000730
    13  H   -0.174577  -0.001277
    14  H    0.032461   0.005316
    15  H   -0.023319   0.028918
    16  H    0.004020   0.010368
    17  H   -0.152850   0.012510
    18  H   -0.221044   0.004473
    19  H   -0.158466   0.010456
    20  H   -0.170370   0.007191
    21  H   -0.132712   0.000505
    22  H    0.363501  -0.365638
    23  H    0.189403  -0.000964
 Sum of Mulliken charges =  -0.00000   1.00000

 Dipole moment (field-independent basis, Debye):
    X=             -0.5449    Y=              1.2337    Z=             -0.3953  Tot=              1.4054
                          Isotropic Fermi Contact Couplings
        Atom                 a.u.       MegaHertz       Gauss      10(-4) cm-1
     1  C(13)             -0.00123      -1.38720      -0.49499      -0.46272
     2  S(33)              0.01858       6.38055       2.27674       2.12832
     3  C(13)             -0.04280     -48.11189     -17.16752     -16.04840
     4  C(13)              0.20499     230.45086      82.23060      76.87013
     5  C(13)             -0.03495     -39.29248     -14.02053     -13.10656
     6  C(13)             -0.05246     -58.96989     -21.04192     -19.67024
     7  O(17)             -0.00663       4.01613       1.43306       1.33964
     8  O(17)              0.05073     -30.75260     -10.97329     -10.25796

 Normal termination of Gaussian 16 at Wed Apr  9 01:00:46 2025.
