 Gaussian 16, Revision C.01,

 ----------------------------------------------------------------------
 #t hf aug-cc-pvdz symm=none int=(grid=ultrafine) guess=(read,tcheck) s
 table=(opt,rrhf)
 ----------------------------------------------------------------------
 -----
 title
 -----
 Symbolic Z-matrix:
 Charge = -1 Multiplicity = 1

 SCF Done:  E(RHF) =  -726.397196822     A.U. after   14 cycles
 Normal termination of Gaussian 16 at Wed Apr  9 01:06:47 2025.
 Gaussian 16:  ES64L-G16RevC.01  3-Jul-2019

 ----------------------------------------------------------------------
 #t hf aug-cc-pvdz iop(5/13=1,5/36=2,99/5=2) pseudo=read geom=check gue
 ss=(read,tcheck) scf=(maxcycle=1)
 ----------------------------------------------------------------------
 -----
 title
 -----
 Structure from the checkpoint file:  "BH10_319_forward_mol1.chk"
 Charge = -1 Multiplicity = 1

                         Standard orientation:
 ---------------------------------------------------------------------
 Center     Atomic      Atomic             Coordinates (Angstroms)
 Number     Number       Type             X           Y           Z
 ---------------------------------------------------------------------
      1          6           0        1.845914    0.134152   -0.000001
      2          8           0        1.588377    1.340761    0.000009
      3          6           0        3.307278   -0.321214    0.000007
      4          1           0        3.976435    0.538868   -0.000051
      5          1           0        3.496815   -0.939952   -0.879942
      6          1           0        3.496833   -0.939835    0.880035
      7          8           0        1.006662   -0.827270   -0.000011
      8         17           0       -3.188081    0.077128   -0.000001
      9          6           0       -0.950875   -0.325162   -0.000006
     10          1           0       -1.026085   -0.861433   -0.924866
     11          1           0       -1.026084   -0.861445    0.924848
     12          1           0       -0.694753    0.718027    0.000001
 ---------------------------------------------------------------------

 SCF Done:  E(RHF) =  -726.498621932     A.U. after    2 cycles

 The electronic state is 1-A.
 Alpha  occ. eigenvalues -- -103.41753 -20.37714 -20.36857 -11.20894 -11.18150
 Alpha  occ. eigenvalues --  -11.10306 -10.44946  -8.10582  -8.10460  -8.10460
 Alpha  occ. eigenvalues --   -1.20218  -1.10186  -0.89248  -0.84650  -0.78522
 Alpha  occ. eigenvalues --   -0.58332  -0.51436  -0.49308  -0.49135  -0.46701
 Alpha  occ. eigenvalues --   -0.46162  -0.42284  -0.38930  -0.31962  -0.28549
 Alpha  occ. eigenvalues --   -0.28277  -0.24495  -0.24469  -0.23464
 Alpha virt. eigenvalues --    0.12463   0.14388   0.14407   0.15848   0.17064
 Alpha virt. eigenvalues --    0.18591   0.19420   0.22239   0.24666   0.24983
 Alpha virt. eigenvalues --    0.25983   0.26340   0.27046   0.27947   0.29812

 Mulliken charges:
               1
     1  C    0.238902
     2  O   -0.622603
     3  C    0.333224
     4  H   -0.065649
     5  H   -0.010562
     6  H   -0.010550
     7  O   -0.698975
     8  Cl  -0.701106
     9  C    0.494981
    10  H    0.024663
    11  H    0.024665
    12  H   -0.006988
 Sum of Mulliken charges =  -1.00000

 Dipole moment (field-independent basis, Debye):
    X=              5.3666    Y=             -2.2856    Z=             -0.0000  Tot=              5.8330

 Test job not archived.
 1\1\GINC-SE403\SP\RHF\Aug-CC-pVDZ\C3H6Cl1O2(1-)\OHZDE\09-Apr-2025\0\\#
 t hf aug-cc-pvdz iop(5/13=1,5/36=2,99/5=2) pseudo=read geom=check gues
 s=(read,tcheck) scf=(maxcycle=1)\\title\\-1,1\C,0,1.845914,0.134152,-0
 .000001\O,0,1.588377,1.340761,0.000009\C,0,3.307278,-0.321214,0.000007
 \H,0,3.976435,0.538868,-0.000051\H,0,3.496815,-0.939952,-0.879942\H,0,
 3.496833,-0.939835,0.880035\O,0,1.006662,-0.82727,-0.000011\Cl,0,-3.18
 8081,0.077128,-0.000001\C,0,-0.950875,-0.325162,-0.000006\H,0,-1.02608
 5,-0.861433,-0.924866\H,0,-1.026084,-0.861445,0.924848\H,0,-0.694753,0

 Normal termination of Gaussian 16 at Wed Apr  9 01:06:51 2025.
