 Gaussian 16, Revision C.01,

 ----------------------------------------------------------------------
 #t hf aug-cc-pvdz symm=none int=(grid=ultrafine) guess=(read,tcheck) s
 table=(opt,rrhf)
 ----------------------------------------------------------------------
 -----
 title
 -----
 Symbolic Z-matrix:
 Charge =  0 Multiplicity = 1

 SCF Done:  E(RHF) =  -844.552437444     A.U. after   15 cycles
 Normal termination of Gaussian 16 at Wed Apr  9 00:55:28 2025.
 Gaussian 16:  ES64L-G16RevC.01  3-Jul-2019

 ----------------------------------------------------------------------
 #t hf aug-cc-pvdz iop(5/13=1,5/36=2,99/5=2) pseudo=read geom=check gue
 ss=(read,tcheck) scf=(maxcycle=1)
 ----------------------------------------------------------------------
 -----
 title
 -----
 Structure from the checkpoint file:  "BH10-RE_124_mol3.chk"
 Charge =  0 Multiplicity = 1

                         Standard orientation:
 ---------------------------------------------------------------------
 Center     Atomic      Atomic             Coordinates (Angstroms)
 Number     Number       Type             X           Y           Z
 ---------------------------------------------------------------------
      1          6           0       -2.042212    0.045657    0.158994
      2          6           0       -1.023984   -0.798111   -0.617298
      3          6           0        0.344562   -0.159519   -0.697458
      4          8           0        0.558867    0.901098   -1.226112
      5          6           0        3.050104   -0.027330   -0.192447
      6          6           0        3.136682    1.103596    0.819286
      7          6           0       -1.588318    0.341115    1.574398
      8          6           0       -2.483719    1.284910   -0.588597
      9          1           0       -0.960034   -1.777717   -0.141763
     10          1           0        2.968477    0.357583   -1.208323
     11          1           0        3.922177   -0.679920   -0.141620
     12          1           0        2.264661    1.753496    0.745723
     13          1           0        4.025039    1.709748    0.625785
     14          1           0        3.201409    0.719684    1.838606
     15          1           0       -1.311566   -0.578671    2.091522
     16          1           0       -2.396219    0.823205    2.125657
     17          1           0       -0.725798    1.010093    1.569767
     18          1           0       -2.908345    1.007900   -1.554537
     19          1           0       -1.635542    1.946128   -0.763952
     20          1           0       -3.243475    1.814064   -0.011565
     21          1           0       -1.384670   -0.938202   -1.639035
     22         16           0        1.623329   -1.124232    0.070980
     23          9           0       -3.179890   -0.792263    0.266188
 ---------------------------------------------------------------------

 SCF Done:  E(RHF) =  -844.715826876     A.U. after    2 cycles

 The electronic state is 1-A.
 Alpha  occ. eigenvalues --  -93.55265 -26.09643 -20.57942 -11.38123 -11.33801
 Alpha  occ. eigenvalues --  -11.27785 -11.26083 -11.23837 -11.23683 -11.22892
 Alpha  occ. eigenvalues --   -8.85189  -6.19354  -6.19109  -6.18830  -1.62688
 Alpha  occ. eigenvalues --   -1.38029  -1.10918  -1.07832  -1.01084  -0.95744
 Alpha  occ. eigenvalues --   -0.95080  -0.85728  -0.82233  -0.75253  -0.72143
 Alpha  occ. eigenvalues --   -0.71415  -0.69629  -0.67232  -0.64914  -0.62424
 Alpha  occ. eigenvalues --   -0.61663  -0.59937  -0.58062  -0.57037  -0.55839
 Alpha  occ. eigenvalues --   -0.54688  -0.54457  -0.53327  -0.51517  -0.49632
 Alpha  occ. eigenvalues --   -0.49003  -0.46118  -0.42262  -0.37635
 Alpha virt. eigenvalues --    0.03344   0.04164   0.04460   0.04751   0.05479
 Alpha virt. eigenvalues --    0.05870   0.06553   0.06748   0.07026   0.08002
 Alpha virt. eigenvalues --    0.08989   0.09501   0.09768   0.10434   0.11118

 Mulliken charges:
               1
     1  C   -1.422426
     2  C    0.544777
     3  C    0.082490
     4  O   -0.592083
     5  C   -0.049526
     6  C    0.327893
     7  C    0.706373
     8  C    0.716163
     9  H   -0.061077
    10  H   -0.000519
    11  H   -0.124449
    12  H   -0.105367
    13  H   -0.071319
    14  H   -0.059158
    15  H    0.000929
    16  H   -0.007724
    17  H    0.037004
    18  H    0.018926
    19  H    0.049461
    20  H    0.001774
    21  H    0.086046
    22  S    0.371116
    23  F   -0.449304
 Sum of Mulliken charges =  -0.00000

 Dipole moment (field-independent basis, Debye):
    X=              2.1881    Y=              0.2923    Z=              0.7907  Tot=              2.3448

 Test job not archived.
 1\1\GINC-SE108\SP\RHF\Aug-CC-pVDZ\C7H13F1O1S1\OHZDE\09-Apr-2025\0\\#t
 hf aug-cc-pvdz iop(5/13=1,5/36=2,99/5=2) pseudo=read geom=check guess=
 (read,tcheck) scf=(maxcycle=1)\\title\\0,1\C,0,-2.042212,0.045657,0.15
 8994\C,0,-1.023984,-0.798111,-0.617298\C,0,0.344562,-0.159519,-0.69745
 8\O,0,0.558867,0.901098,-1.226112\C,0,3.050104,-0.02733,-0.192447\C,0,
 3.136682,1.103596,0.819286\C,0,-1.588318,0.341115,1.574398\C,0,-2.4837
 19,1.28491,-0.588597\H,0,-0.960034,-1.777717,-0.141763\H,0,2.968477,0.
 357583,-1.208323\H,0,3.922177,-0.67992,-0.14162\H,0,2.264661,1.753496,

 Normal termination of Gaussian 16 at Wed Apr  9 00:55:43 2025.
