 Gaussian 16, Revision C.01,

 ----------------------------------------------------------------------
 #t hf aug-cc-pvdz symm=none int=(grid=ultrafine) guess=(read,tcheck) s
 table=(opt,rrhf)
 ----------------------------------------------------------------------
 -----
 title
 -----
 Symbolic Z-matrix:
 Charge =  0 Multiplicity = 1

 SCF Done:  E(RHF) =  -914.745085876     A.U. after   17 cycles
 Normal termination of Gaussian 16 at Wed Apr  9 00:53:25 2025.
 Gaussian 16:  ES64L-G16RevC.01  3-Jul-2019

 ----------------------------------------------------------------------
 #t hf aug-cc-pvdz iop(5/13=1,5/36=2,99/5=2) pseudo=read geom=check gue
 ss=(read,tcheck) scf=(maxcycle=1)
 ----------------------------------------------------------------------
 -----
 title
 -----
 Structure from the checkpoint file:  "BH10-RE_113_mol3.chk"
 Charge =  0 Multiplicity = 1

                         Standard orientation:
 ---------------------------------------------------------------------
 Center     Atomic      Atomic             Coordinates (Angstroms)
 Number     Number       Type             X           Y           Z
 ---------------------------------------------------------------------
      1         16           0        3.061134    0.482276   -0.000014
      2          6           0        1.316105    0.257393   -0.000003
      3          6           0        0.534038    1.413644    0.000011
      4          6           0       -0.841057    1.302080    0.000009
      5          6           0       -1.445806    0.046491   -0.000002
      6          6           0       -0.656112   -1.098225   -0.000012
      7          6           0        0.725865   -1.000627   -0.000015
      8          1           0        0.995687    2.394684    0.000025
      9          1           0       -1.467838    2.184334    0.000020
     10          1           0       -1.126393   -2.072094   -0.000020
     11          1           0        1.340495   -1.889374   -0.000024
     12          6           0       -2.924529   -0.015584   -0.000000
     13          8           0       -3.653060    0.942615    0.000010
     14          8           0       -3.400628   -1.276861   -0.000010
     15          1           0       -4.365500   -1.215056   -0.000008
     16          9           0        3.535988   -1.097331    0.000034
 ---------------------------------------------------------------------

 SCF Done:  E(RHF) =  -914.930762424     A.U. after    2 cycles

 The electronic state is 1-A.
 Alpha  occ. eigenvalues --  -93.64365 -26.15084 -20.63322 -20.56922 -11.40973
 Alpha  occ. eigenvalues --  -11.31634 -11.27893 -11.27747 -11.27371 -11.27112
 Alpha  occ. eigenvalues --  -11.26859  -8.93275  -6.27521  -6.27158  -6.26655
 Alpha  occ. eigenvalues --   -1.66663  -1.43736  -1.33610  -1.18884  -1.09079
 Alpha  occ. eigenvalues --   -1.04627  -0.99121  -0.89912  -0.86949  -0.82290
 Alpha  occ. eigenvalues --   -0.77122  -0.75721  -0.74908  -0.72823  -0.72026
 Alpha  occ. eigenvalues --   -0.66371  -0.66016  -0.65695  -0.63538  -0.62249
 Alpha  occ. eigenvalues --   -0.59157  -0.55367  -0.52993  -0.51453  -0.51290
 Alpha  occ. eigenvalues --   -0.48240  -0.44362  -0.37264  -0.33851
 Alpha virt. eigenvalues --    0.03219   0.03652   0.04348   0.05361   0.05656
 Alpha virt. eigenvalues --    0.05986   0.07690   0.08657   0.08814   0.09186
 Alpha virt. eigenvalues --    0.09905   0.10512   0.10884   0.12760   0.13448

 Mulliken charges:
               1
     1  S    0.690907
     2  C    0.471548
     3  C    0.194047
     4  C    0.250947
     5  C    1.094200
     6  C    0.558085
     7  C    0.299397
     8  H   -0.487044
     9  H   -0.638696
    10  H   -0.574786
    11  H   -0.523954
    12  C    0.097169
    13  O   -0.464942
    14  O   -0.603535
    15  H    0.266840
    16  F   -0.630186
 Sum of Mulliken charges =  -0.00000

 Dipole moment (field-independent basis, Debye):
    X=              0.0311    Y=             -0.1520    Z=             -0.0001  Tot=              0.1551

 Test job not archived.
 1\1\GINC-SE462\SP\RHF\Aug-CC-pVDZ\C7H5F1O2S1\OHZDE\09-Apr-2025\0\\#t h
 f aug-cc-pvdz iop(5/13=1,5/36=2,99/5=2) pseudo=read geom=check guess=(
 read,tcheck) scf=(maxcycle=1)\\title\\0,1\S,0,-3.061134,0.482276,0.000
 014\C,0,-1.316105,0.257393,0.000003\C,0,-0.534038,1.413644,-0.000011\C
 ,0,0.841057,1.30208,-0.000009\C,0,1.445806,0.046491,0.000002\C,0,0.656
 112,-1.098225,0.000012\C,0,-0.725865,-1.000627,0.000015\H,0,-0.995687,
 2.394684,-0.000025\H,0,1.467838,2.184334,-0.00002\H,0,1.126393,-2.0720
 94,0.00002\H,0,-1.340495,-1.889374,0.000024\C,0,2.924529,-0.015584,0.\

 Normal termination of Gaussian 16 at Wed Apr  9 00:53:35 2025.
