 Gaussian 16, Revision C.01,

 ----------------------------------------------------------------------
 #t hf aug-cc-pvdz symm=none int=(grid=ultrafine) guess=(read,tcheck) s
 table=opt
 ----------------------------------------------------------------------
 -----
 title
 -----
 Symbolic Z-matrix:
 Charge =  0 Multiplicity = 2

 SCF Done:  E(UHF) =  -915.262626088     A.U. after   16 cycles
 Normal termination of Gaussian 16 at Wed Apr  9 01:47:24 2025.
 Gaussian 16:  ES64L-G16RevC.01  3-Jul-2019

 ----------------------------------------------------------------------
 #t hf aug-cc-pvdz iop(5/13=1,5/36=2,99/5=2) pseudo=read geom=check gue
 ss=(read,tcheck) scf=(maxcycle=1)
 ----------------------------------------------------------------------
 -----
 title
 -----
 Structure from the checkpoint file:  "BH10_295_reverse_mol2.chk"
 Charge =  0 Multiplicity = 2

                         Standard orientation:
 ---------------------------------------------------------------------
 Center     Atomic      Atomic             Coordinates (Angstroms)
 Number     Number       Type             X           Y           Z
 ---------------------------------------------------------------------
      1         14           0        3.281658    0.111974    0.099859
      2          6           0        2.082325    1.550439    0.324742
      3          6           0        2.078071    2.573480   -0.815639
      4          6           0        3.261552   -0.943366    1.660705
      5          6           0        4.179501   -2.169111    1.616519
      6          6           0        5.021161    0.771455   -0.221366
      7          6           0        5.574873    1.664622    0.894079
      8          6           0        2.753971   -0.956729   -1.387059
      9          6           0        1.423291   -1.575369   -1.183518
     10          6           0        0.154609   -0.906034   -1.586162
     11          6           0       -0.978570   -1.069054   -0.571770
     12          6           0       -3.402009   -0.546691    0.012434
     13          6           0       -2.273704   -0.390186   -1.000550
     14          6           0       -4.697480    0.135821   -0.411912
     15          6           0       -5.825789   -0.022117    0.600855
     16          6           0       -7.122198    0.661100    0.178729
     17          6           0       -8.242967    0.495837    1.198737
     18          1           0        1.076983    1.140152    0.464719
     19          1           0        2.326694    2.051272    1.267996
     20          1           0        1.821758    2.111030   -1.772256
     21          1           0        1.355247    3.373666   -0.639171
     22          1           0        3.058152    3.041675   -0.936598
     23          1           0        2.228427   -1.258376    1.840755
     24          1           0        3.529916   -0.307650    2.511481
     25          1           0        4.131795   -2.744741    2.543983
     26          1           0        3.905996   -2.844373    0.801706
     27          1           0        5.223830   -1.883858    1.464957
     28          1           0        5.014006    1.320577   -1.169123
     29          1           0        5.690714   -0.080131   -0.383253
     30          1           0        4.943991    2.542742    1.055002
     31          1           0        5.631826    1.128710    1.845013
     32          1           0        6.580413    2.025174    0.664061
     33          1           0        0.337894    0.160775   -1.757121
     34          1           0       -0.192102   -1.298665   -2.556267
     35          1           0       -1.161802   -2.137013   -0.407450
     36          1           0       -0.656519   -0.664988    0.394490
     37          1           0       -3.079277   -0.141431    0.978758
     38          1           0       -3.592703   -1.613361    0.179633
     39          1           0       -2.594171   -0.797278   -1.966809
     40          1           0       -2.083900    0.676669   -1.168862
     41          1           0       -4.506736    1.202735   -0.577906
     42          1           0       -5.019721   -0.268542   -1.378789
     43          1           0       -6.017511   -1.089035    0.766572
     44          1           0       -5.503701    0.381346    1.568345
     45          1           0       -6.929879    1.726892    0.014056
     46          1           0       -7.443110    0.257652   -0.787841
     47          1           0       -9.159123    0.993468    0.873572
     48          1           0       -8.476707   -0.560290    1.358016
     49          1           0       -7.959642    0.919570    2.165997
     50          1           0        1.360675   -2.543662   -0.697277
     51          1           0        2.764013   -0.318255   -2.278814
     52          1           0        3.531257   -1.714671   -1.532539
 ---------------------------------------------------------------------

 SCF Done:  E(UHF) =  -915.483748038     A.U. after    2 cycles

 The electronic state is 2-A.
 Alpha  occ. eigenvalues --  -69.02965 -11.22566 -11.22469 -11.22431 -11.22372
 Alpha  occ. eigenvalues --  -11.22296 -11.22290 -11.22234 -11.22096 -11.22067
 Alpha  occ. eigenvalues --  -11.22037 -11.21996 -11.21880 -11.20685 -11.20658
 Alpha  occ. eigenvalues --  -11.20640 -11.20546  -6.78416  -3.89201  -3.89097
 Alpha  occ. eigenvalues --   -3.89095  -1.08823  -1.06979  -1.03847  -1.02017
 Alpha  occ. eigenvalues --   -1.00072  -0.99788  -0.99079  -0.93959  -0.88258
 Alpha  occ. eigenvalues --   -0.84941  -0.83308  -0.82096  -0.81976  -0.78698
 Alpha  occ. eigenvalues --   -0.78497  -0.77338  -0.66185  -0.64229  -0.63632
 Alpha  occ. eigenvalues --   -0.61800  -0.61515  -0.61264  -0.59577  -0.59229
 Alpha  occ. eigenvalues --   -0.58533  -0.57736  -0.57044  -0.56754  -0.56252
 Alpha  occ. eigenvalues --   -0.54888  -0.54018  -0.53714  -0.52296  -0.51676
 Alpha  occ. eigenvalues --   -0.50718  -0.50419  -0.49967  -0.49630  -0.49090
 Alpha  occ. eigenvalues --   -0.48880  -0.48687  -0.47890  -0.47385  -0.46930
 Alpha  occ. eigenvalues --   -0.46128  -0.45929  -0.45844  -0.44524  -0.42584
 Alpha  occ. eigenvalues --   -0.39817  -0.39785  -0.29315
 Alpha virt. eigenvalues --    0.02861   0.03393   0.03677   0.03876   0.04178
 Alpha virt. eigenvalues --    0.04678   0.04805   0.05501   0.05602   0.05789
 Alpha virt. eigenvalues --    0.05876   0.06105   0.06881   0.07070   0.07330

  Beta  occ. eigenvalues --  -69.02896 -11.22615 -11.22467 -11.22426 -11.22371
  Beta  occ. eigenvalues --  -11.22296 -11.22146 -11.22092 -11.22064 -11.22035
  Beta  occ. eigenvalues --  -11.21995 -11.21880 -11.20971 -11.20664 -11.20610
  Beta  occ. eigenvalues --  -11.20549 -11.20082  -6.78304  -3.89059  -3.89041
  Beta  occ. eigenvalues --   -3.88964  -1.08451  -1.06009  -1.02792  -1.01689
  Beta  occ. eigenvalues --   -1.00063  -0.99750  -0.97894  -0.93819  -0.87988
  Beta  occ. eigenvalues --   -0.84833  -0.83150  -0.82082  -0.81566  -0.78630
  Beta  occ. eigenvalues --   -0.78378  -0.73524  -0.66028  -0.63807  -0.63062
  Beta  occ. eigenvalues --   -0.61487  -0.61383  -0.60942  -0.59414  -0.59076
  Beta  occ. eigenvalues --   -0.58212  -0.57466  -0.56930  -0.56706  -0.55579
  Beta  occ. eigenvalues --   -0.54009  -0.53818  -0.53530  -0.51964  -0.51310
  Beta  occ. eigenvalues --   -0.50635  -0.49968  -0.49909  -0.49530  -0.49032
  Beta  occ. eigenvalues --   -0.48628  -0.48415  -0.47813  -0.47065  -0.46739
  Beta  occ. eigenvalues --   -0.45968  -0.45907  -0.45834  -0.43333  -0.41036
  Beta  occ. eigenvalues --   -0.39801  -0.39610
  Beta virt. eigenvalues --    0.02864   0.03394   0.03683   0.03891   0.04181
  Beta virt. eigenvalues --    0.04678   0.04808   0.05502   0.05607   0.05798
  Beta virt. eigenvalues --    0.05875   0.06092   0.06882   0.07071   0.07334

 Mulliken charges and spin densities:
               1          2
     1  Si   0.113897   0.018048
     2  C    0.896699  -0.006662
     3  C    0.405990   0.002176
     4  C    0.619704  -0.001521
     5  C    0.385809   0.002246
     6  C    0.478117   0.003679
     7  C    0.453409  -0.000322
     8  C    0.920586  -0.256120
     9  C    0.660473   1.603542
    10  C    0.480550  -0.349169
    11  C   -0.164745   0.053242
    12  C    0.402137   0.008725
    13  C    0.055609   0.007305
    14  C    0.437953   0.001080
    15  C    0.541637  -0.000010
    16  C    0.692159  -0.000072
    17  C    0.750174   0.000008
    18  H   -0.521964  -0.002093
    19  H   -0.296095  -0.004416
    20  H   -0.201465  -0.000189
    21  H   -0.102861   0.000321
    22  H   -0.174739  -0.000421
    23  H   -0.274437  -0.001324
    24  H   -0.334668  -0.004517
    25  H   -0.109461   0.000692
    26  H   -0.146748   0.000390
    27  H   -0.138649  -0.000014
    28  H   -0.341643  -0.000632
    29  H   -0.337418  -0.000534
    30  H   -0.151582  -0.000376
    31  H   -0.129995  -0.000726
    32  H   -0.109770   0.001018
    33  H   -0.459664   0.001062
    34  H   -0.093550   0.044747
    35  H   -0.254364  -0.004155
    36  H   -0.265279   0.002193
    37  H   -0.207939  -0.000115
    38  H   -0.201552   0.000569
    39  H   -0.228048  -0.002111
    40  H   -0.244047   0.000153
    41  H   -0.220616   0.000147
    42  H   -0.217292   0.000090
    43  H   -0.200407  -0.000011
    44  H   -0.204658   0.000000
    45  H   -0.179172   0.000004
    46  H   -0.183207   0.000005
    47  H   -0.067007   0.000002
    48  H   -0.096705  -0.000002
    49  H   -0.097171  -0.000000
    50  H   -0.701912  -0.135148
    51  H   -0.363816   0.012519
    52  H   -0.272258   0.006701
 Sum of Mulliken charges =  -0.00000   1.00000

 Dipole moment (field-independent basis, Debye):
    X=              0.0258    Y=              0.1465    Z=              0.0537  Tot=              0.1581
                          Isotropic Fermi Contact Couplings
        Atom                 a.u.       MegaHertz       Gauss      10(-4) cm-1
     1  Si(29)             0.08928     -79.34557     -28.31247     -26.46683
     2  C(13)             -0.00179      -2.01293      -0.71826      -0.67144
     3  C(13)              0.00038       0.42210       0.15062       0.14080
     4  C(13)             -0.00174      -1.95669      -0.69820      -0.65268
     5  C(13)              0.00014       0.15878       0.05666       0.05296
     6  C(13)              0.00531       5.97359       2.13152       1.99257
     7  C(13)              0.00130       1.45726       0.51999       0.48609
     8  C(13)             -0.05996     -67.40131     -24.05046     -22.48266

 Normal termination of Gaussian 16 at Wed Apr  9 01:49:31 2025.
