 Gaussian 16, Revision C.01,

 ----------------------------------------------------------------------
 #t hf aug-cc-pvdz symm=none int=(grid=ultrafine) guess=(read,tcheck) s
 table=(opt,rrhf)
 ----------------------------------------------------------------------
 -----
 title
 -----
 Symbolic Z-matrix:
 Charge =  0 Multiplicity = 1

 SCF Done:  E(RHF) =  -842.589272331     A.U. after   16 cycles
 Normal termination of Gaussian 16 at Wed Apr  9 00:54:09 2025.
 Gaussian 16:  ES64L-G16RevC.01  3-Jul-2019

 ----------------------------------------------------------------------
 #t hf aug-cc-pvdz iop(5/13=1,5/36=2,99/5=2) pseudo=read geom=check gue
 ss=(read,tcheck) scf=(maxcycle=1)
 ----------------------------------------------------------------------
 -----
 title
 -----
 Structure from the checkpoint file:  "BH10-RE_117_mol3.chk"
 Charge =  0 Multiplicity = 1

                         Standard orientation:
 ---------------------------------------------------------------------
 Center     Atomic      Atomic             Coordinates (Angstroms)
 Number     Number       Type             X           Y           Z
 ---------------------------------------------------------------------
      1          6           0       -2.414060   -0.066162    0.803693
      2          6           0       -0.954872    0.052425    0.523914
      3          6           0       -0.145172   -1.072174    0.480287
      4          6           0       -0.371240    1.299392    0.292479
      5          1           0       -0.579262   -2.050844    0.652400
      6          6           0        1.215739   -0.975597    0.214845
      7          6           0        0.976768    1.414784    0.027967
      8          6           0        1.779867    0.274597   -0.013579
      9          1           0       -0.987872    2.190968    0.316417
     10          1           0        1.816472   -1.873371    0.190562
     11          1           0        1.437454    2.377787   -0.150528
     12          8           0        3.092792    0.485170   -0.279737
     13          6           0        3.953599   -0.633752   -0.345960
     14          1           0        4.941057   -0.239906   -0.574642
     15          1           0        3.647197   -1.324643   -1.137062
     16          1           0        3.988654   -1.165854    0.609488
     17          1           0       -2.802056    0.807264    1.321088
     18          1           0       -2.645999   -0.958768    1.378308
     19         17           0       -3.400103   -0.200298   -0.721766
 ---------------------------------------------------------------------

 SCF Done:  E(RHF) =  -842.725271686     A.U. after    2 cycles

 The electronic state is 1-A.
 Alpha  occ. eigenvalues -- -103.64164 -20.60580 -11.31837 -11.30742 -11.30148
 Alpha  occ. eigenvalues --  -11.25731 -11.25555 -11.25065 -11.24665 -11.24288
 Alpha  occ. eigenvalues --  -10.67445  -8.33159  -8.32874  -8.32868  -1.38071
 Alpha  occ. eigenvalues --   -1.17083  -1.13873  -1.04129  -1.02553  -0.96652
 Alpha  occ. eigenvalues --   -0.90440  -0.84955  -0.80532  -0.73730  -0.69605
 Alpha  occ. eigenvalues --   -0.67468  -0.66716  -0.63083  -0.62451  -0.60363
 Alpha  occ. eigenvalues --   -0.57964  -0.57430  -0.54219  -0.53494  -0.53110
 Alpha  occ. eigenvalues --   -0.49552  -0.47844  -0.44237  -0.44078  -0.35401
 Alpha  occ. eigenvalues --   -0.32251
 Alpha virt. eigenvalues --    0.03099   0.03888   0.04030   0.05124   0.05612
 Alpha virt. eigenvalues --    0.05656   0.07045   0.07820   0.08645   0.09083
 Alpha virt. eigenvalues --    0.09829   0.10038   0.10503   0.11973   0.12879

 Mulliken charges:
               1
     1  C    0.351096
     2  C    0.772236
     3  C    0.124438
     4  C    0.507095
     5  H   -0.566065
     6  C    0.428382
     7  C    0.546513
     8  C    0.478545
     9  H   -0.574001
    10  H   -0.731444
    11  H   -0.574389
    12  O   -0.682421
    13  C    0.850969
    14  H   -0.309024
    15  H   -0.081241
    16  H   -0.083322
    17  H   -0.132855
    18  H   -0.162175
    19  Cl  -0.162336
 Sum of Mulliken charges =  -0.00000

 Dipole moment (field-independent basis, Debye):
    X=              2.3639    Y=             -1.1150    Z=              1.7576  Tot=              3.1497

 Test job not archived.
 1\1\GINC-SE036\SP\RHF\Aug-CC-pVDZ\C8H9Cl1O1\OHZDE\09-Apr-2025\0\\#t hf
  aug-cc-pvdz iop(5/13=1,5/36=2,99/5=2) pseudo=read geom=check guess=(r
 ead,tcheck) scf=(maxcycle=1)\\title\\0,1\C,0,-2.41406,-0.066162,0.8036
 93\C,0,-0.954872,0.052425,0.523914\C,0,-0.145172,-1.072174,0.480287\C,
 0,-0.37124,1.299392,0.292479\H,0,-0.579262,-2.050844,0.6524\C,0,1.2157
 39,-0.975597,0.214845\C,0,0.976768,1.414784,0.027967\C,0,1.779867,0.27
 4597,-0.013579\H,0,-0.987872,2.190968,0.316417\H,0,1.816472,-1.873371,
 0.190562\H,0,1.437454,2.377787,-0.150528\O,0,3.092792,0.48517,-0.27973

 Normal termination of Gaussian 16 at Wed Apr  9 00:54:29 2025.
