 Gaussian 16, Revision C.01,

 ----------------------------------------------------------------------
 #t hf aug-cc-pvdz symm=none int=(grid=ultrafine) guess=(read,tcheck) s
 table=(opt,rrhf)
 ----------------------------------------------------------------------
 -----
 title
 -----
 Symbolic Z-matrix:
 Charge =  0 Multiplicity = 1

 SCF Done:  E(RHF) =  -920.665962571     A.U. after   16 cycles
 Normal termination of Gaussian 16 at Wed Apr  9 00:57:35 2025.
 Gaussian 16:  ES64L-G16RevC.01  3-Jul-2019

 ----------------------------------------------------------------------
 #t hf aug-cc-pvdz iop(5/13=1,5/36=2,99/5=2) pseudo=read geom=check gue
 ss=(read,tcheck) scf=(maxcycle=1)
 ----------------------------------------------------------------------
 -----
 title
 -----
 Structure from the checkpoint file:  "BH10-RE_131_mol3.chk"
 Charge =  0 Multiplicity = 1

                         Standard orientation:
 ---------------------------------------------------------------------
 Center     Atomic      Atomic             Coordinates (Angstroms)
 Number     Number       Type             X           Y           Z
 ---------------------------------------------------------------------
      1         17           0        2.814985   -0.816210   -0.995123
      2          6           0        2.007584    0.312431    0.230458
      3          6           0        0.507511    0.114292    0.128286
      4          6           0        2.475865    1.715332   -0.121152
      5          6           0        2.525266   -0.091920    1.606060
      6          6           0       -0.362669    1.165414   -0.108491
      7          6           0       -0.047444   -1.156472    0.320222
      8          1           0        2.156449    2.005229   -1.121608
      9          1           0        3.563767    1.758797   -0.082856
     10          1           0        2.080994    2.433763    0.600953
     11          1           0        2.265249   -1.122153    1.843974
     12          1           0        2.072802    0.557059    2.359990
     13          1           0        3.609656    0.013233    1.654244
     14          6           0       -1.743590    0.978887   -0.150316
     15          6           0       -2.270709   -0.288210    0.045267
     16          6           0       -1.407735   -1.360323    0.279654
     17          1           0        0.604824   -2.005906    0.480069
     18          1           0       -2.383040    1.829482   -0.338256
     19          8           0       -3.594817   -0.584798    0.024084
     20          1           0       -1.833140   -2.345752    0.420014
     21          1           0        0.016068    2.165689   -0.266953
     22          6           0       -4.510668    0.461716   -0.224097
     23          1           0       -5.499127    0.008824   -0.201349
     24          1           0       -4.341785    0.913267   -1.206430
     25          1           0       -4.449388    1.235529    0.547288
 ---------------------------------------------------------------------

 SCF Done:  E(RHF) =  -920.824511162     A.U. after    2 cycles

 The electronic state is 1-A.
 Alpha  occ. eigenvalues -- -103.63322 -20.60266 -11.32033 -11.31317 -11.29904
 Alpha  occ. eigenvalues --  -11.25247 -11.24909 -11.24769 -11.24203 -11.23978
 Alpha  occ. eigenvalues --  -11.23904 -11.23858 -10.66628  -8.32328  -8.32072
 Alpha  occ. eigenvalues --   -8.32065  -1.37724  -1.17777  -1.13727  -1.05061
 Alpha  occ. eigenvalues --   -1.02174  -1.00840  -0.95229  -0.94620  -0.84990
 Alpha  occ. eigenvalues --   -0.83255  -0.76949  -0.73458  -0.68548  -0.67184
 Alpha  occ. eigenvalues --   -0.66596  -0.63529  -0.62378  -0.60806  -0.60107
 Alpha  occ. eigenvalues --   -0.58195  -0.57356  -0.55451  -0.53699  -0.53450
 Alpha  occ. eigenvalues --   -0.51722  -0.51372  -0.49481  -0.48627  -0.47207
 Alpha  occ. eigenvalues --   -0.43768  -0.43367  -0.34915  -0.31873
 Alpha virt. eigenvalues --    0.02986   0.03753   0.04187   0.04993   0.05009
 Alpha virt. eigenvalues --    0.05607   0.06262   0.06941   0.07065   0.07453
 Alpha virt. eigenvalues --    0.08381   0.09074   0.09342   0.10283   0.10698

 Mulliken charges:
               1
     1  Cl  -0.187111
     2  C   -2.418918
     3  C    1.359559
     4  C    1.055628
     5  C    0.788586
     6  C    0.259900
     7  C    0.461361
     8  H    0.033806
     9  H   -0.093929
    10  H    0.106557
    11  H   -0.079881
    12  H    0.000391
    13  H   -0.087911
    14  C    0.542540
    15  C    0.639422
    16  C    0.689590
    17  H   -0.710389
    18  H   -0.705597
    19  O   -0.694624
    20  H   -0.585622
    21  H   -0.787766
    22  C    0.902874
    23  H   -0.312741
    24  H   -0.085301
    25  H   -0.090422
 Sum of Mulliken charges =  -0.00000

 Dipole moment (field-independent basis, Debye):
    X=             -1.7378    Y=              2.7200    Z=              1.4322  Tot=              3.5312

 Test job not archived.
 1\1\GINC-SE341\SP\RHF\Aug-CC-pVDZ\C10H13Cl1O1\OHZDE\09-Apr-2025\0\\#t
 hf aug-cc-pvdz iop(5/13=1,5/36=2,99/5=2) pseudo=read geom=check guess=
 (read,tcheck) scf=(maxcycle=1)\\title\\0,1\Cl,0,2.814985,-0.81621,-0.9
 95123\C,0,2.007584,0.312431,0.230458\C,0,0.507511,0.114292,0.128286\C,
 0,2.475865,1.715332,-0.121152\C,0,2.525266,-0.09192,1.60606\C,0,-0.362
 669,1.165414,-0.108491\C,0,-0.047444,-1.156472,0.320222\H,0,2.156449,2
 .005229,-1.121608\H,0,3.563767,1.758797,-0.082856\H,0,2.080994,2.43376
 3,0.600953\H,0,2.265249,-1.122153,1.843974\H,0,2.072802,0.557059,2.359

 Normal termination of Gaussian 16 at Wed Apr  9 00:57:56 2025.
