 Gaussian 16, Revision C.01,

 ----------------------------------------------------------------------
 #t hf aug-cc-pvdz symm=none int=(grid=ultrafine) guess=(read,tcheck) s
 table=(opt,rrhf)
 ----------------------------------------------------------------------
 -----
 title
 -----
 Symbolic Z-matrix:
 Charge = -1 Multiplicity = 1

 SCF Done:  E(RHF) =  -1782.80676287     A.U. after   14 cycles
 Normal termination of Gaussian 16 at Wed Apr  9 01:41:30 2025.
 Gaussian 16:  ES64L-G16RevC.01  3-Jul-2019

 ----------------------------------------------------------------------
 #t hf aug-cc-pvdz iop(5/13=1,5/36=2,99/5=2) pseudo=read geom=check gue
 ss=(read,tcheck) scf=(maxcycle=1)
 ----------------------------------------------------------------------
 -----
 title
 -----
 Structure from the checkpoint file:  "BH10_328_forward_mol1.chk"
 Charge = -1 Multiplicity = 1

                         Standard orientation:
 ---------------------------------------------------------------------
 Center     Atomic      Atomic             Coordinates (Angstroms)
 Number     Number       Type             X           Y           Z
 ---------------------------------------------------------------------
      1          8           0       -0.449628   -1.501434   -1.351727
      2          6           0       -2.245193   -1.329613   -1.281172
      3          1           0       -2.297164   -0.278925   -1.489639
      4          1           0       -2.450135   -2.013999   -2.083825
      5          1           0       -2.384092   -1.689119   -0.278821
      6         15           0        0.311731   -0.642631   -0.346310
      7          8           0        0.031924    0.847407   -0.362180
      8          8           0        0.115780   -1.182519    1.146909
      9          8           0        1.861784   -0.934361   -0.627455
     10          6           0        2.848307   -0.289981    0.173890
     11          6           0        3.643723    0.763154   -0.604131
     12          8           0        4.944338    0.753955   -0.003451
     13          6           0        5.092729   -0.347809    0.902278
     14          6           0        3.922220   -1.271202    0.602370
     15          1           0        4.150363   -1.927269   -0.242239
     16          1           0        3.620437   -1.884263    1.451574
     17          1           0        2.374521    0.165089    1.048428
     18         16           0       -4.818304   -0.973992   -1.056276
     19          6           0       -4.951467   -0.648410    0.739142
     20          6           0       -4.420036    0.730481    1.188127
     21          1           0       -4.425258   -1.412701    1.313286
     22          1           0       -6.006022   -0.689980    1.019434
     23          7           0       -5.084232    1.789892    0.457870
     24          6           0       -2.901813    0.715481    1.107041
     25          1           0       -4.637487    0.824908    2.259900
     26          8           0       -2.243096   -0.088368    1.756616
     27          8           0       -2.364339    1.604758    0.305827
     28          1           0       -1.390661    1.406617    0.144014
     29          1           0       -0.695890   -0.781954    1.544716
     30          1           0       -5.181274    1.470854   -0.506345
     31          1           0       -4.515298    2.627090    0.440044
     32          6           0        3.106731    2.188907   -0.561216
     33          1           0        3.713395    0.443337   -1.649902
     34          8           0        2.020155    2.402064   -1.422325
     35          1           0        3.912231    2.851855   -0.884095
     36          1           0        2.863128    2.447915    0.479405
     37          1           0        1.238320    1.921943   -1.085330
     38          6           0        6.463710   -0.960958    0.721009
     39          1           0        5.003498    0.042701    1.925295
     40          1           0        6.611465   -1.784561    1.424654
     41          1           0        7.240856   -0.214326    0.893841
     42          1           0        6.572792   -1.343418   -0.296157
 ---------------------------------------------------------------------

 SCF Done:  E(RHF) =  -1783.21968470     A.U. after    2 cycles

 The electronic state is 1-A.
 Alpha  occ. eigenvalues --  -93.31270 -81.32830 -20.50598 -20.50167 -20.49172
 Alpha  occ. eigenvalues --  -20.48296 -20.45743 -20.45382 -20.45044 -20.43179
 Alpha  occ. eigenvalues --  -15.48677 -11.29116 -11.22266 -11.22143 -11.21430
 Alpha  occ. eigenvalues --  -11.20229 -11.18991 -11.16519 -11.16383 -11.16047
 Alpha  occ. eigenvalues --  -11.12822  -8.61028  -7.80696  -5.95199  -5.94867
 Alpha  occ. eigenvalues --   -5.94779  -4.95417  -4.95369  -4.95314  -1.31772
 Alpha  occ. eigenvalues --   -1.28276  -1.26164  -1.23067  -1.21563  -1.21144
 Alpha  occ. eigenvalues --   -1.18241  -1.15483  -1.04950  -0.98795  -0.96457
 Alpha  occ. eigenvalues --   -0.88723  -0.87977  -0.84897  -0.80328  -0.80077
 Alpha  occ. eigenvalues --   -0.74321  -0.72671  -0.71545  -0.70371  -0.65285
 Alpha  occ. eigenvalues --   -0.63571  -0.63151  -0.61439  -0.60321  -0.59163
 Alpha  occ. eigenvalues --   -0.59027  -0.58266  -0.56631  -0.55936  -0.54720
 Alpha  occ. eigenvalues --   -0.53691  -0.52629  -0.51965  -0.51380  -0.50798
 Alpha  occ. eigenvalues --   -0.49833  -0.49300  -0.48925  -0.48029  -0.47801
 Alpha  occ. eigenvalues --   -0.47401  -0.45922  -0.45605  -0.45126  -0.44827
 Alpha  occ. eigenvalues --   -0.43731  -0.42233  -0.41215  -0.40885  -0.40589
 Alpha  occ. eigenvalues --   -0.40099  -0.39631  -0.38213  -0.37741  -0.37414
 Alpha  occ. eigenvalues --   -0.36870  -0.35610  -0.33433  -0.29779  -0.27650
 Alpha  occ. eigenvalues --   -0.16196  -0.16078
 Alpha virt. eigenvalues --    0.08857   0.10366   0.10430   0.11490   0.12099
 Alpha virt. eigenvalues --    0.12278   0.12900   0.13030   0.13451   0.13502
 Alpha virt. eigenvalues --    0.13907   0.14054   0.15035   0.15363   0.16236

 Mulliken charges:
               1
     1  O   -1.062776
     2  C    0.881730
     3  H   -0.042428
     4  H   -0.299908
     5  H   -0.121447
     6  P    2.738961
     7  O   -1.315036
     8  O   -0.755114
     9  O   -0.915692
    10  C   -0.030466
    11  C    0.587517
    12  O   -0.762230
    13  C    0.407773
    14  C    0.462870
    15  H   -0.171248
    16  H   -0.017092
    17  H   -0.412396
    18  S   -0.392032
    19  C    0.394553
    20  C    0.117957
    21  H   -0.193391
    22  H   -0.130634
    23  N   -0.374677
    24  C    0.615239
    25  H    0.005440
    26  O   -0.722083
    27  O   -0.599174
    28  H    0.276874
    29  H    0.286903
    30  H    0.135639
    31  H    0.014512
    32  C    0.990528
    33  H   -0.294823
    34  O   -0.519701
    35  H   -0.128149
    36  H   -0.080421
    37  H    0.227392
    38  C    0.532079
    39  H   -0.285575
    40  H   -0.002055
    41  H   -0.020823
    42  H   -0.026595
 Sum of Mulliken charges =  -1.00000

 Dipole moment (field-independent basis, Debye):
    X=             11.7976    Y=             -0.3635    Z=              4.7591  Tot=             12.7265

 Test job not archived.
 1\1\GINC-SE457\SP\RHF\Aug-CC-pVDZ\C10H21N1O8P1S1(1-)\OHZDE\09-Apr-2025
 \0\\#t hf aug-cc-pvdz iop(5/13=1,5/36=2,99/5=2) pseudo=read geom=check
  guess=(read,tcheck) scf=(maxcycle=1)\\title\\-1,1\O,0,-0.449628,-1.50
 1434,-1.351727\C,0,-2.245193,-1.329613,-1.281172\H,0,-2.297164,-0.2789
 25,-1.489639\H,0,-2.450135,-2.013999,-2.083825\H,0,-2.384092,-1.689119
 ,-0.278821\P,0,0.311731,-0.642631,-0.34631\O,0,0.031924,0.847407,-0.36
 218\O,0,0.11578,-1.182519,1.146909\O,0,1.861784,-0.934361,-0.627455\C,
 0,2.848307,-0.289981,0.17389\C,0,3.643723,0.763154,-0.604131\O,0,4.944

 Normal termination of Gaussian 16 at Wed Apr  9 01:42:58 2025.
