 Gaussian 16, Revision C.01,

 ----------------------------------------------------------------------
 #t hf aug-cc-pvdz symm=none int=(grid=ultrafine) guess=(read,tcheck) s
 table=(opt,rrhf)
 ----------------------------------------------------------------------
 -----
 title
 -----
 Symbolic Z-matrix:
 Charge =  0 Multiplicity = 1

 SCF Done:  E(RHF) =  -294.033713705     A.U. after   13 cycles
 Normal termination of Gaussian 16 at Wed Apr  9 01:03:21 2025.
 Gaussian 16:  ES64L-G16RevC.01  3-Jul-2019

 ----------------------------------------------------------------------
 #t hf aug-cc-pvdz iop(5/13=1,5/36=2,99/5=2) pseudo=read geom=check gue
 ss=(read,tcheck) scf=(maxcycle=1)
 ----------------------------------------------------------------------
 -----
 title
 -----
 Structure from the checkpoint file:  "BH10_304_forward_mol2.chk"
 Charge =  0 Multiplicity = 1

                         Standard orientation:
 ---------------------------------------------------------------------
 Center     Atomic      Atomic             Coordinates (Angstroms)
 Number     Number       Type             X           Y           Z
 ---------------------------------------------------------------------
      1          6           0       -1.344470    0.411064   -0.155146
      2          6           0       -0.055992    0.463506    0.132807
      3          9           0        0.578275    1.665550   -0.017181
      4          6           0       -2.223819   -0.796627   -0.072053
      5          1           0       -2.670475   -1.016565   -1.045412
      6          1           0       -1.685603   -1.686045    0.254147
      7          1           0       -3.048157   -0.629147    0.626441
      8          6           0        0.892977   -0.583639    0.601008
      9          6           0        1.985812   -0.889827   -0.425913
     10          1           0        0.337294   -1.489261    0.844505
     11          1           0        1.350370   -0.231902    1.531240
     12          1           0        2.684907   -1.630944   -0.034554
     13          1           0        1.553098   -1.282048   -1.348416
     14          1           0        2.549316    0.010532   -0.673310
     15          1           0       -1.802282    1.338564   -0.484225
 ---------------------------------------------------------------------

 SCF Done:  E(RHF) =  -294.132790993     A.U. after    2 cycles

 The electronic state is 1-A.
 Alpha  occ. eigenvalues --  -26.11367 -11.32201 -11.24738 -11.24005 -11.23682
 Alpha  occ. eigenvalues --  -11.23109  -1.65045  -1.09506  -1.02759  -0.94350
 Alpha  occ. eigenvalues --   -0.87073  -0.80167  -0.73246  -0.72526  -0.69065
 Alpha  occ. eigenvalues --   -0.60964  -0.60501  -0.57615  -0.55870  -0.54474
 Alpha  occ. eigenvalues --   -0.52966  -0.50197  -0.49745  -0.35702
 Alpha virt. eigenvalues --    0.03419   0.04138   0.04837   0.05043   0.06520
 Alpha virt. eigenvalues --    0.06590   0.07061   0.07729   0.09069   0.11772
 Alpha virt. eigenvalues --    0.12252   0.13083   0.13451   0.14120   0.15184

 Mulliken charges:
               1
     1  C    0.218384
     2  C    0.124668
     3  F   -0.429766
     4  C    0.254891
     5  H    0.092766
     6  H   -0.160828
     7  H    0.076863
     8  C    0.053636
     9  C    0.329351
    10  H   -0.029257
    11  H    0.070387
    12  H   -0.078311
    13  H   -0.079254
    14  H   -0.026733
    15  H   -0.416797
 Sum of Mulliken charges =   0.00000

 Dipole moment (field-independent basis, Debye):
    X=             -0.7697    Y=             -2.1061    Z=              0.2693  Tot=              2.2585

 Test job not archived.
 1\1\GINC-SE423\SP\RHF\Aug-CC-pVDZ\C5H9F1\OHZDE\09-Apr-2025\0\\#t hf au
 g-cc-pvdz iop(5/13=1,5/36=2,99/5=2) pseudo=read geom=check guess=(read
 ,tcheck) scf=(maxcycle=1)\\title\\0,1\C,0,-1.34447,0.411064,-0.155146\
 C,0,-0.055992,0.463506,0.132807\F,0,0.578275,1.66555,-0.017181\C,0,-2.
 223819,-0.796627,-0.072053\H,0,-2.670475,-1.016565,-1.045412\H,0,-1.68
 5603,-1.686045,0.254147\H,0,-3.048157,-0.629147,0.626441\C,0,0.892977,
 -0.583639,0.601008\C,0,1.985812,-0.889827,-0.425913\H,0,0.337294,-1.48
 9261,0.844505\H,0,1.35037,-0.231902,1.53124\H,0,2.684907,-1.630944,-0.

 Normal termination of Gaussian 16 at Wed Apr  9 01:03:26 2025.
