 Gaussian 16, Revision C.01,

 ----------------------------------------------------------------------
 #t hf aug-cc-pvdz symm=none int=(grid=ultrafine) guess=(read,tcheck) s
 table=(opt,rrhf)
 ----------------------------------------------------------------------
 -----
 title
 -----
 Symbolic Z-matrix:
 Charge =  1 Multiplicity = 1

 SCF Done:  E(RHF) =  -1418.02824414     A.U. after   20 cycles
 Normal termination of Gaussian 16 at Wed Apr  9 02:37:34 2025.
 Gaussian 16:  ES64L-G16RevC.01  3-Jul-2019

 ----------------------------------------------------------------------
 #t hf aug-cc-pvdz iop(5/13=1,5/36=2,99/5=2) pseudo=read geom=check gue
 ss=(read,tcheck) scf=(maxcycle=1)
 ----------------------------------------------------------------------
 -----
 title
 -----
 Structure from the checkpoint file:  "BH10_267_reverse_mol1.chk"
 Charge =  1 Multiplicity = 1

                         Standard orientation:
 ---------------------------------------------------------------------
 Center     Atomic      Atomic             Coordinates (Angstroms)
 Number     Number       Type             X           Y           Z
 ---------------------------------------------------------------------
      1          6           0       -1.496114    2.726775   -0.014690
      2          6           0       -1.585617    4.108166   -0.038923
      3          6           0       -2.831524    4.716361   -0.119314
      4          6           0       -3.990114    3.948381   -0.176223
      5          6           0       -3.909896    2.568343   -0.153390
      6          6           0       -2.655930    1.957252   -0.071988
      7          1           0       -0.528760    2.244618    0.046166
      8          1           0       -0.688326    4.711979    0.003636
      9          1           0       -2.902207    5.796772   -0.138400
     10          1           0       -4.957415    4.430323   -0.239114
     11          1           0       -4.801289    1.956074   -0.197595
     12          6           0       -2.574884    0.500399   -0.049336
     13          1           0       -1.338955    0.112252    0.043802
     14          7           0       -3.333449   -0.431443   -0.092892
     15         14           0       -3.757805   -2.174933   -0.112590
     16          6           0       -2.912695   -2.874918   -1.614889
     17          1           0       -1.827988   -2.800643   -1.520766
     18          1           0       -3.170624   -3.930099   -1.736339
     19          1           0       -3.218103   -2.355323   -2.525377
     20          6           0       -3.109570   -2.865782    1.488990
     21          1           0       -3.522660   -2.336800    2.350278
     22          1           0       -3.386714   -3.918632    1.585889
     23          1           0       -2.021166   -2.797041    1.528944
     24          6           0       -5.609699   -2.228646   -0.228695
     25          1           0       -5.966793   -1.742654   -1.138835
     26          1           0       -5.958579   -3.264349   -0.247390
     27          1           0       -6.077937   -1.737021    0.626377
     28          6           0        1.483092   -0.516070   -1.129136
     29          6           0        1.340603   -0.463457    1.545994
     30          6           0        2.671407    0.294904    1.504771
     31          6           0        3.535936   -0.083668    0.316472
     32          6           0        2.787962    0.261625   -0.965996
     33          1           0        2.470822    1.371664    1.469884
     34          1           0        3.194979    0.093407    2.441662
     35          1           0        3.751500   -1.153647    0.326973
     36          1           0        2.580645    1.336851   -0.969619
     37          1           0        3.421659    0.043486   -1.825502
     38          7           0        0.741786   -0.517816    0.173835
     39          8           0       -0.483516   -0.816443    0.118704
     40          6           0        0.604863    0.159785   -2.179888
     41          1           0        1.170544    0.222216   -3.109694
     42          1           0       -0.304466   -0.406950   -2.376755
     43          1           0        0.336787    1.176534   -1.887699
     44          6           0        1.740026   -1.975383   -1.529076
     45          1           0        0.802577   -2.532261   -1.558186
     46          1           0        2.186752   -1.997293   -2.523767
     47          1           0        2.426454   -2.478086   -0.849934
     48          6           0        0.364892    0.263684    2.469465
     49          1           0       -0.567229   -0.286803    2.588903
     50          1           0        0.826198    0.360750    3.452660
     51          1           0        0.141702    1.268721    2.107513
     52          6           0        1.531554   -1.907784    2.029038
     53          1           0        1.864961   -1.897957    3.067829
     54          1           0        0.587584   -2.451317    1.978113
     55          1           0        2.273470   -2.445563    1.440765
     56          7           0        4.818327    0.586332    0.381995
     57          6           0        5.875493    0.111911   -0.343239
     58          8           0        5.752377   -0.866901   -1.054457
     59          1           0        4.927636    1.412938    0.946443
     60          6           0        7.174694    0.859536   -0.203660
     61          1           0        7.497204    1.188085   -1.191831
     62          1           0        7.111326    1.722081    0.460157
     63          1           0        7.931252    0.171523    0.174806
 ---------------------------------------------------------------------

 SCF Done:  E(RHF) =  -1418.39753897     A.U. after    2 cycles

 The electronic state is 1-A.
 Alpha  occ. eigenvalues --  -69.18606 -20.83175 -20.61620 -15.88054 -15.76417
 Alpha  occ. eigenvalues --  -15.74118 -11.46976 -11.44739 -11.42445 -11.41712
 Alpha  occ. eigenvalues --  -11.38916 -11.38544 -11.37894 -11.37321 -11.36757
 Alpha  occ. eigenvalues --  -11.36171 -11.36001 -11.35912 -11.35137 -11.34710
 Alpha  occ. eigenvalues --  -11.34597 -11.34447 -11.33970 -11.32279 -11.31377
 Alpha  occ. eigenvalues --  -11.31320 -11.30684  -6.93560  -4.04488  -4.04256
 Alpha  occ. eigenvalues --   -4.04237  -1.60456  -1.43534  -1.34616  -1.31187
 Alpha  occ. eigenvalues --   -1.27960  -1.27174  -1.22835  -1.15544  -1.15309
 Alpha  occ. eigenvalues --   -1.13861  -1.10828  -1.07172  -1.07058  -1.06715
 Alpha  occ. eigenvalues --   -1.05448  -1.05086  -1.02721  -1.02281  -0.99749
 Alpha  occ. eigenvalues --   -0.96639  -0.95677  -0.95583  -0.92027  -0.89318
 Alpha  occ. eigenvalues --   -0.88529  -0.84482  -0.83225  -0.82105  -0.81123
 Alpha  occ. eigenvalues --   -0.79235  -0.78052  -0.76781  -0.76512  -0.74148
 Alpha  occ. eigenvalues --   -0.73417  -0.73142  -0.72414  -0.71892  -0.71622
 Alpha  occ. eigenvalues --   -0.70836  -0.69605  -0.69397  -0.68869  -0.68300
 Alpha  occ. eigenvalues --   -0.68068  -0.68043  -0.67530  -0.66492  -0.66420
 Alpha  occ. eigenvalues --   -0.66105  -0.65419  -0.64838  -0.64542  -0.64467
 Alpha  occ. eigenvalues --   -0.64207  -0.64095  -0.63768  -0.63419  -0.63192
 Alpha  occ. eigenvalues --   -0.62679  -0.61889  -0.61451  -0.60861  -0.60586
 Alpha  occ. eigenvalues --   -0.60270  -0.59729  -0.58270  -0.57832  -0.54358
 Alpha  occ. eigenvalues --   -0.54198  -0.52267  -0.48672  -0.46423  -0.46025
 Alpha  occ. eigenvalues --   -0.42726
 Alpha virt. eigenvalues --   -0.14252  -0.05526  -0.05347  -0.04637  -0.04288
 Alpha virt. eigenvalues --   -0.03840  -0.03075  -0.02889  -0.02618  -0.02377
 Alpha virt. eigenvalues --   -0.01829  -0.01578  -0.01190  -0.01064  -0.00818

 Mulliken charges:
               1
     1  C    0.819521
     2  C    0.327063
     3  C    0.933758
     4  C    0.031414
     5  C    1.373472
     6  C    0.857470
     7  H   -0.673524
     8  H   -0.574792
     9  H   -0.466362
    10  H   -0.465037
    11  H   -0.681198
    12  C   -1.087819
    13  H   -0.419118
    14  N   -0.243738
    15  Si   1.568304
    16  C    0.966443
    17  H   -0.784268
    18  H   -0.260431
    19  H   -0.208741
    20  C    0.960384
    21  H   -0.216147
    22  H   -0.264979
    23  H   -0.761106
    24  C    0.566489
    25  H   -0.235835
    26  H   -0.325538
    27  H   -0.232117
    28  C   -2.620577
    29  C   -3.324916
    30  C    1.043630
    31  C   -0.200716
    32  C    0.981255
    33  H    0.053407
    34  H   -0.068782
    35  H   -0.265297
    36  H    0.053782
    37  H   -0.091535
    38  N   -0.271102
    39  O   -0.523631
    40  C    1.621524
    41  H   -0.086532
    42  H   -0.068479
    43  H   -0.088134
    44  C    1.462425
    45  H   -0.133818
    46  H    0.003252
    47  H    0.007472
    48  C    1.977899
    49  H   -0.032185
    50  H   -0.094079
    51  H   -0.061539
    52  C    1.514916
    53  H   -0.023324
    54  H   -0.103988
    55  H    0.046043
    56  N   -0.080585
    57  C    0.058369
    58  O   -0.564127
    59  H   -0.081778
    60  C    0.541793
    61  H    0.045276
    62  H   -0.174464
    63  H    0.044980
 Sum of Mulliken charges =   1.00000

 Dipole moment (field-independent basis, Debye):
    X=             -2.7702    Y=              3.7629    Z=              2.6123  Tot=              5.3533

 Test job not archived.
 1\1\GINC-SE341\SP\RHF\Aug-CC-pVDZ\C21H36N3O2Si1(1+)\OHZDE\09-Apr-2025\
 0\\#t hf aug-cc-pvdz iop(5/13=1,5/36=2,99/5=2) pseudo=read geom=check
 guess=(read,tcheck) scf=(maxcycle=1)\\title\\1,1\C,0,-1.496114,2.72677
 5,-0.01469\C,0,-1.585617,4.108166,-0.038923\C,0,-2.831524,4.716361,-0.
 119314\C,0,-3.990114,3.948381,-0.176223\C,0,-3.909896,2.568343,-0.1533
 9\C,0,-2.65593,1.957252,-0.071988\H,0,-0.52876,2.244618,0.046166\H,0,-
 0.688326,4.711979,0.003636\H,0,-2.902207,5.796772,-0.1384\H,0,-4.95741
 5,4.430323,-0.239114\H,0,-4.801289,1.956074,-0.197595\C,0,-2.574884,0.

 Normal termination of Gaussian 16 at Wed Apr  9 02:41:59 2025.
