 Gaussian 16, Revision C.01,

 ----------------------------------------------------------------------
 #t hf aug-cc-pvdz symm=none int=(grid=ultrafine) guess=(read,tcheck) s
 table=opt
 ----------------------------------------------------------------------
 -----
 title
 -----
 Symbolic Z-matrix:
 Charge =  0 Multiplicity = 2

 SCF Done:  E(UHF) =  -780.843111651     A.U. after   18 cycles
 Normal termination of Gaussian 16 at Wed Apr  9 00:57:11 2025.
 Gaussian 16:  ES64L-G16RevC.01  3-Jul-2019

 ----------------------------------------------------------------------
 #t hf aug-cc-pvdz iop(5/13=1,5/36=2,99/5=2) pseudo=read geom=check gue
 ss=(read,tcheck) scf=(maxcycle=1)
 ----------------------------------------------------------------------
 -----
 title
 -----
 Structure from the checkpoint file:  "BH10_158_reverse_mol1.chk"
 Charge =  0 Multiplicity = 2

                         Standard orientation:
 ---------------------------------------------------------------------
 Center     Atomic      Atomic             Coordinates (Angstroms)
 Number     Number       Type             X           Y           Z
 ---------------------------------------------------------------------
      1          1           0       -0.375978   -0.772277   -0.254384
      2          6           0       -0.400126    1.532719   -0.276297
      3          1           0        0.091092    2.443270    0.086252
      4          6           0       -2.543251    0.160244   -0.121762
      5          1           0       -3.464516    0.037385    0.448106
      6          1           0       -0.603354    1.668409   -1.341216
      7          1           0       -2.818522    0.415967   -1.147145
      8          6           0       -1.701564    1.279492    0.486195
      9          1           0       -2.293666    2.198992    0.480371
     10          1           0       -1.474601    1.048342    1.529960
     11          6           0        0.565887    0.398000   -0.146204
     12          6           0        2.691172   -0.299168   -0.553859
     13          6           0        2.254722   -0.625967    0.875023
     14          1           0        2.969448   -1.181287   -1.129823
     15          1           0        3.498289    0.434369   -0.589646
     16          1           0        1.896882   -1.655002    0.969561
     17          1           0        3.013037   -0.426189    1.628297
     18         16           0       -1.697657   -1.464619   -0.115814
     19          8           0        1.521684    0.294615   -1.129857
     20          8           0        1.168738    0.274136    1.079122
 ---------------------------------------------------------------------

 SCF Done:  E(UHF) =  -780.981445965     A.U. after    2 cycles

 The electronic state is 2-A.
 Alpha  occ. eigenvalues --  -93.50624 -20.60954 -20.60813 -11.36510 -11.31186
 Alpha  occ. eigenvalues --  -11.31101 -11.25926 -11.24749 -11.24244  -8.80400
 Alpha  occ. eigenvalues --   -6.15091  -6.14309  -6.13885  -1.44193  -1.33064
 Alpha  occ. eigenvalues --   -1.10657  -1.04695  -0.97974  -0.91576  -0.88774
 Alpha  occ. eigenvalues --   -0.82776  -0.80238  -0.74347  -0.71788  -0.68320
 Alpha  occ. eigenvalues --   -0.65582  -0.62831  -0.62132  -0.59323  -0.56870
 Alpha  occ. eigenvalues --   -0.56334  -0.55046  -0.53018  -0.52147  -0.49743
 Alpha  occ. eigenvalues --   -0.48232  -0.47451  -0.44124  -0.33516  -0.31001
 Alpha virt. eigenvalues --    0.03154   0.03860   0.04694   0.04745   0.05586
 Alpha virt. eigenvalues --    0.05832   0.06570   0.07184   0.07659   0.08341
 Alpha virt. eigenvalues --    0.09107   0.10390   0.11754   0.12689   0.13559

  Beta  occ. eigenvalues --  -93.50188 -20.60623 -20.60342 -11.34473 -11.31196
  Beta  occ. eigenvalues --  -11.31119 -11.25986 -11.24786 -11.24195  -8.79906
  Beta  occ. eigenvalues --   -6.14076  -6.13599  -6.13243  -1.42745  -1.31951
  Beta  occ. eigenvalues --   -1.09611  -1.04031  -0.97057  -0.89345  -0.88370
  Beta  occ. eigenvalues --   -0.80428  -0.78676  -0.72200  -0.71193  -0.66627
  Beta  occ. eigenvalues --   -0.63940  -0.61879  -0.61303  -0.56775  -0.56263
  Beta  occ. eigenvalues --   -0.56054  -0.53903  -0.52693  -0.50696  -0.49619
  Beta  occ. eigenvalues --   -0.46581  -0.45099  -0.42405  -0.32584
  Beta virt. eigenvalues --    0.03116   0.03828   0.04700   0.04748   0.05592
  Beta virt. eigenvalues --    0.05834   0.06291   0.07184   0.07411   0.08245
  Beta virt. eigenvalues --    0.09047   0.09185   0.10635   0.11970   0.12720

 Mulliken charges and spin densities:
               1          2
     1  H    0.266119  -0.382612
     2  C    0.291738  -0.107475
     3  H    0.014544   0.041574
     4  C   -0.065765  -0.045373
     5  H   -0.065675   0.003108
     6  H   -0.036357  -0.001937
     7  H   -0.078527   0.003344
     8  C    0.309833   0.023289
     9  H   -0.064956  -0.004685
    10  H   -0.099349   0.002483
    11  C    0.247156   0.953334
    12  C    0.837867   0.003918
    13  C    0.620069  -0.012717
    14  H   -0.180431  -0.000003
    15  H   -0.224990   0.003500
    16  H   -0.175446   0.004772
    17  H   -0.216042  -0.002106
    18  S    0.093770   0.428601
    19  O   -0.744061   0.046848
    20  O   -0.729496   0.042137
 Sum of Mulliken charges =  -0.00000   1.00000

 Dipole moment (field-independent basis, Debye):
    X=              2.5372    Y=              1.5352    Z=              0.4317  Tot=              2.9968
                          Isotropic Fermi Contact Couplings
        Atom                 a.u.       MegaHertz       Gauss      10(-4) cm-1
     1  H(1)              -0.05868    -262.31116     -93.59915     -87.49759
     2  C(13)             -0.00174      -1.95809      -0.69870      -0.65315
     3  H(1)               0.01273      56.89472      20.30145      18.97803
     4  C(13)             -0.01134     -12.75103      -4.54989      -4.25329
     5  H(1)               0.00355      15.86620       5.66145       5.29239
     6  H(1)               0.00039       1.76089       0.62833       0.58737
     7  H(1)               0.00023       1.02534       0.36587       0.34202
     8  C(13)              0.00555       6.24196       2.22729       2.08209

 Normal termination of Gaussian 16 at Wed Apr  9 00:57:22 2025.
