 Gaussian 16, Revision C.01,

 ----------------------------------------------------------------------
 #t hf aug-cc-pvdz symm=none int=(grid=ultrafine) guess=(read,tcheck) s
 table=(opt,rrhf)
 ----------------------------------------------------------------------
 -----
 title
 -----
 Symbolic Z-matrix:
 Charge = -1 Multiplicity = 1

 SCF Done:  E(RHF) =  -718.908052795     A.U. after   14 cycles
 Normal termination of Gaussian 16 at Wed Apr  9 01:08:06 2025.
 Gaussian 16:  ES64L-G16RevC.01  3-Jul-2019

 ----------------------------------------------------------------------
 #t hf aug-cc-pvdz iop(5/13=1,5/36=2,99/5=2) pseudo=read geom=check gue
 ss=(read,tcheck) scf=(maxcycle=1)
 ----------------------------------------------------------------------
 -----
 title
 -----
 Structure from the checkpoint file:  "BH10_321_forward_mol3.chk"
 Charge = -1 Multiplicity = 1

                         Standard orientation:
 ---------------------------------------------------------------------
 Center     Atomic      Atomic             Coordinates (Angstroms)
 Number     Number       Type             X           Y           Z
 ---------------------------------------------------------------------
      1         16           0       -2.010852   -0.473170   -0.146556
      2          6           0       -0.922909    0.497514    0.971586
      3          6           0        0.439312    0.846559    0.363098
      4          1           0       -0.756138   -0.051547    1.902972
      5          1           0       -1.409985    1.441627    1.227812
      6          6           0        1.330941   -0.373359    0.085229
      7          8           0        2.527501   -0.332622    0.290153
      8          8           0        0.756490   -1.441350   -0.437968
      9          1           0       -0.259181   -1.305108   -0.477117
     10          7           0        0.238360    1.646879   -0.847276
     11          1           0        1.006563    1.445970    1.081022
     12          1           0        1.078856    1.668916   -1.412561
     13          1           0       -0.510992    1.210203   -1.383251
 ---------------------------------------------------------------------

 SCF Done:  E(RHF) =  -719.023099488     A.U. after    2 cycles

 The electronic state is 1-A.
 Alpha  occ. eigenvalues --  -93.29263 -20.44748 -20.40512 -15.47619 -11.23754
 Alpha  occ. eigenvalues --  -11.13844 -11.10801  -8.59046  -5.93203  -5.92854
 Alpha  occ. eigenvalues --   -5.92762  -1.25722  -1.16372  -1.02651  -0.86343
 Alpha  occ. eigenvalues --   -0.75878  -0.66494  -0.64161  -0.55513  -0.54343
 Alpha  occ. eigenvalues --   -0.51561  -0.49104  -0.44427  -0.42093  -0.41350
 Alpha  occ. eigenvalues --   -0.38604  -0.33696  -0.32531  -0.27370  -0.25329
 Alpha  occ. eigenvalues --   -0.15168  -0.14072
 Alpha virt. eigenvalues --    0.13501   0.14054   0.15561   0.15737   0.17322
 Alpha virt. eigenvalues --    0.18135   0.20416   0.21421   0.22552   0.24764
 Alpha virt. eigenvalues --    0.25349   0.25826   0.26772   0.27319   0.28116

 Mulliken charges:
               1
     1  S   -0.514883
     2  C    0.207094
     3  C    0.285908
     4  H   -0.122246
     5  H   -0.065237
     6  C    0.583038
     7  O   -0.550782
     8  O   -0.583078
     9  H    0.298699
    10  N   -0.421629
    11  H   -0.209779
    12  H   -0.036463
    13  H    0.129359
 Sum of Mulliken charges =  -1.00000

 Dipole moment (field-independent basis, Debye):
    X=              1.8078    Y=              2.3774    Z=              0.4333  Tot=              3.0179

 Test job not archived.
 1\1\GINC-SE177\SP\RHF\Aug-CC-pVDZ\C3H6N1O2S1(1-)\OHZDE\09-Apr-2025\0\\
 #t hf aug-cc-pvdz iop(5/13=1,5/36=2,99/5=2) pseudo=read geom=check gue
 ss=(read,tcheck) scf=(maxcycle=1)\\title\\-1,1\S,0,-2.010852,-0.473171
 ,-0.146556\C,0,-0.922909,0.497514,0.971586\C,0,0.439312,0.846559,0.363
 098\H,0,-0.756138,-0.051547,1.902972\H,0,-1.409985,1.441627,1.227812\C
 ,0,1.330941,-0.373359,0.085229\O,0,2.527501,-0.332621,0.290153\O,0,0.7
 56491,-1.44135,-0.437968\H,0,-0.259181,-1.305108,-0.477117\N,0,0.23836
 ,1.646879,-0.847276\H,0,1.006563,1.44597,1.081022\H,0,1.078856,1.66891

 Normal termination of Gaussian 16 at Wed Apr  9 01:08:11 2025.
