 Gaussian 16, Revision C.01,

 ----------------------------------------------------------------------
 #t hf aug-cc-pvdz symm=none int=(grid=ultrafine) guess=(read,tcheck) s
 table=(opt,rrhf)
 ----------------------------------------------------------------------
 -----
 title
 -----
 Symbolic Z-matrix:
 Charge =  0 Multiplicity = 1

 SCF Done:  E(RHF) =  -932.198171120     A.U. after   15 cycles
 Normal termination of Gaussian 16 at Wed Apr  9 00:53:25 2025.
 Gaussian 16:  ES64L-G16RevC.01  3-Jul-2019

 ----------------------------------------------------------------------
 #t hf aug-cc-pvdz iop(5/13=1,5/36=2,99/5=2) pseudo=read geom=check gue
 ss=(read,tcheck) scf=(maxcycle=1)
 ----------------------------------------------------------------------
 -----
 title
 -----
 Structure from the checkpoint file:  "BH10-RE_114_mol3.chk"
 Charge =  0 Multiplicity = 1

                         Standard orientation:
 ---------------------------------------------------------------------
 Center     Atomic      Atomic             Coordinates (Angstroms)
 Number     Number       Type             X           Y           Z
 ---------------------------------------------------------------------
      1          6           0       -2.677808    0.000122    0.790560
      2          6           0       -1.204243    0.000081    0.534264
      3          6           0       -0.513579    1.202702    0.410968
      4          6           0       -0.513625   -1.202580    0.411088
      5          1           0       -1.047825    2.140849    0.501120
      6          6           0        0.848905    1.212315    0.168863
      7          6           0        0.848857   -1.212270    0.168982
      8          6           0        1.505919    0.000004    0.052512
      9          1           0       -1.047909   -2.140697    0.501333
     10          1           0        1.404487    2.133894    0.071743
     11          1           0        1.404403   -2.133880    0.071951
     12          7           0        2.958581   -0.000036   -0.200374
     13          8           0        3.513066    1.076900   -0.296743
     14          8           0        3.513016   -1.077004   -0.296681
     15          1           0       -2.991655    0.887434    1.333661
     16          1           0       -2.991661   -0.887033    1.333917
     17         17           0       -3.612653   -0.000101   -0.758068
 ---------------------------------------------------------------------

 SCF Done:  E(RHF) =  -932.356864694     A.U. after    2 cycles

 The electronic state is 1-A.
 Alpha  occ. eigenvalues -- -103.66674 -20.62184 -20.62174 -15.92518 -11.33151
 Alpha  occ. eigenvalues --  -11.32528 -11.29731 -11.29013 -11.29012 -11.28095
 Alpha  occ. eigenvalues --  -11.28091 -10.69941  -8.35661  -8.35364  -8.35356
 Alpha  occ. eigenvalues --   -1.56353  -1.37705  -1.21022  -1.17730  -1.09980
 Alpha  occ. eigenvalues --   -1.05806  -0.99617  -0.91076  -0.88227  -0.82861
 Alpha  occ. eigenvalues --   -0.79748  -0.74881  -0.73766  -0.70117  -0.69761
 Alpha  occ. eigenvalues --   -0.66157  -0.63992  -0.61932  -0.60506  -0.57100
 Alpha  occ. eigenvalues --   -0.54123  -0.53882  -0.52026  -0.51703  -0.48113
 Alpha  occ. eigenvalues --   -0.46701  -0.46394  -0.38351  -0.38121
 Alpha virt. eigenvalues --    0.02287   0.02752   0.03382   0.04096   0.05530
 Alpha virt. eigenvalues --    0.05958   0.07356   0.07689   0.08481   0.09259
 Alpha virt. eigenvalues --    0.10637   0.11759   0.11882   0.12134   0.13065

 Mulliken charges:
               1
     1  C    0.309273
     2  C    0.875508
     3  C    0.291682
     4  C    0.291466
     5  H   -0.559277
     6  C    0.234734
     7  C    0.234722
     8  C    1.236443
     9  H   -0.559265
    10  H   -0.464125
    11  H   -0.464126
    12  N    0.083001
    13  O   -0.550742
    14  O   -0.550744
    15  H   -0.138189
    16  H   -0.138150
    17  Cl  -0.132212
 Sum of Mulliken charges =   0.00000

 Dipole moment (field-independent basis, Debye):
    X=             -3.8990    Y=              0.0004    Z=              2.5612  Tot=              4.6649

 Test job not archived.
 1\1\GINC-SE069\SP\RHF\Aug-CC-pVDZ\C7H6Cl1N1O2\OHZDE\09-Apr-2025\0\\#t
 hf aug-cc-pvdz iop(5/13=1,5/36=2,99/5=2) pseudo=read geom=check guess=
 (read,tcheck) scf=(maxcycle=1)\\title\\0,1\C,0,-2.677808,0.000122,0.79
 056\C,0,-1.204243,0.000081,0.534264\C,0,-0.513579,1.202702,0.410968\C,
 0,-0.513625,-1.20258,0.411088\H,0,-1.047825,2.140849,0.50112\C,0,0.848
 905,1.212315,0.168863\C,0,0.848857,-1.21227,0.168982\C,0,1.505919,0.00
 0004,0.052512\H,0,-1.047909,-2.140697,0.501333\H,0,1.404487,2.133894,0
 .071743\H,0,1.404403,-2.13388,0.071951\N,0,2.958581,-0.000036,-0.20037

 Normal termination of Gaussian 16 at Wed Apr  9 00:53:36 2025.
