 Gaussian 16, Revision C.01,

 ----------------------------------------------------------------------
 #t hf aug-cc-pvdz symm=none int=(grid=ultrafine) guess=(read,tcheck) s
 table=(opt,rrhf)
 ----------------------------------------------------------------------
 -----
 title
 -----
 Symbolic Z-matrix:
 Charge =  0 Multiplicity = 1

 SCF Done:  E(RHF) =  -1375.35010810     A.U. after   18 cycles
 Normal termination of Gaussian 16 at Wed Apr  9 02:47:08 2025.
 Gaussian 16:  ES64L-G16RevC.01  3-Jul-2019

 ----------------------------------------------------------------------
 #t hf aug-cc-pvdz iop(5/13=1,5/36=2,99/5=2) pseudo=read geom=check gue
 ss=(read,tcheck) scf=(maxcycle=1)
 ----------------------------------------------------------------------
 -----
 title
 -----
 Structure from the checkpoint file:  "BH10_396_forward_mol1.chk"
 Charge =  0 Multiplicity = 1

                         Standard orientation:
 ---------------------------------------------------------------------
 Center     Atomic      Atomic             Coordinates (Angstroms)
 Number     Number       Type             X           Y           Z
 ---------------------------------------------------------------------
      1          6           0       -0.586434   -2.193783    1.322254
      2          1           0       -0.713328   -3.207169    1.703485
      3          1           0       -0.819618   -1.509122    2.148833
      4          6           0       -1.585645   -1.923786    0.190440
      5          6           0        0.136173   -0.499745   -0.893441
      6          1           0        0.491848   -1.162863   -1.688549
      7          1           0        0.271926    0.509542   -1.266942
      8          6           0        1.018939   -0.706077    0.354507
      9          1           0        0.729328    0.043276    1.095739
     10          7           0        0.803960   -2.011217    0.971077
     11          6           0       -2.342004    0.117391   -0.905984
     12          6           0       -2.779563   -2.634226    0.168165
     13          1           0       -3.092776   -3.057436   -0.767832
     14          1           0       -3.012042   -3.266574    1.023764
     15          6           0       -3.670704   -0.017467   -0.494095
     16          1           0       -4.138479    0.879755   -0.094218
     17          6           0       -4.367452   -1.216191   -0.407085
     18          6           0       -1.318742   -0.814544   -0.629934
     19          6           0       -5.634142   -1.310435    0.399129
     20          1           0       -5.822995   -2.337623    0.715852
     21          1           0       -5.586275   -0.686130    1.292481
     22          1           0       -6.497041   -0.992689   -0.195395
     23          1           0       -4.360809   -1.827493   -1.293554
     24          6           0        2.472389   -0.490650    0.012170
     25          6           0        1.378998   -3.096623    0.191673
     26          1           0        1.009381   -3.113831   -0.846239
     27          1           0        1.080377   -4.042128    0.648432
     28          6           0        2.894121   -2.968847    0.206224
     29          1           0        3.337319   -3.670623   -0.505526
     30          6           0        3.352386   -1.564798   -0.101840
     31          1           0        3.258786   -3.245488    1.200415
     32          6           0        4.674966   -1.318725   -0.467169
     33          1           0        5.360610   -2.154793   -0.559234
     34          6           0        2.928702    0.803906   -0.226625
     35          1           0        2.240580    1.635628   -0.122796
     36          6           0        5.123690   -0.031591   -0.709720
     37          1           0        6.155482    0.139006   -0.992985
     38          6           0        4.245128    1.038235   -0.584218
     39          1           0        4.586992    2.050661   -0.762998
     40         16           0       -1.952214    1.763244   -1.509188
     41          6           0       -0.935175    2.473189   -0.226712
     42          6           0       -1.058587    2.114057    1.111496
     43          6           0       -0.261686    2.723362    2.069611
     44          6           0        0.649142    3.706866    1.707200
     45          6           0        0.759506    4.076851    0.373842
     46          6           0       -0.021949    3.458919   -0.592009
     47          1           0       -1.770576    1.351279    1.400490
     48          1           0       -0.356904    2.428626    3.108009
     49          1           0        1.270026    4.179110    2.458154
     50          1           0        1.469049    4.840502    0.078266
     51          1           0        0.084509    3.731455   -1.635441
 ---------------------------------------------------------------------

 SCF Done:  E(RHF) =  -1375.64908835     A.U. after    2 cycles

 The electronic state is 1-A.
 Alpha  occ. eigenvalues --  -93.53603 -15.60809 -11.27750 -11.27440 -11.26442
 Alpha  occ. eigenvalues --  -11.26426 -11.26233 -11.25621 -11.25214 -11.25072
 Alpha  occ. eigenvalues --  -11.25059 -11.24850 -11.24812 -11.24731 -11.24588
 Alpha  occ. eigenvalues --  -11.24361 -11.23811 -11.23780 -11.23759 -11.23468
 Alpha  occ. eigenvalues --  -11.23328 -11.23158 -11.23088 -11.23078 -11.22927
 Alpha  occ. eigenvalues --  -11.22520  -8.83327  -6.17574  -6.17339  -6.17038
 Alpha  occ. eigenvalues --   -1.22255  -1.15888  -1.14252  -1.12891  -1.06970
 Alpha  occ. eigenvalues --   -1.05904  -1.04456  -1.03906  -1.01896  -1.01130
 Alpha  occ. eigenvalues --   -0.99001  -0.97228  -0.93354  -0.92224  -0.88563
 Alpha  occ. eigenvalues --   -0.86027  -0.83927  -0.83210  -0.82637  -0.81101
 Alpha  occ. eigenvalues --   -0.78960  -0.78327  -0.73320  -0.70804  -0.69530
 Alpha  occ. eigenvalues --   -0.68049  -0.66455  -0.66104  -0.64655  -0.63857
 Alpha  occ. eigenvalues --   -0.63773  -0.62473  -0.62263  -0.60311  -0.59981
 Alpha  occ. eigenvalues --   -0.59870  -0.59514  -0.58536  -0.58230  -0.57440
 Alpha  occ. eigenvalues --   -0.56803  -0.56156  -0.55527  -0.54487  -0.53968
 Alpha  occ. eigenvalues --   -0.52722  -0.52167  -0.51758  -0.50878  -0.50648
 Alpha  occ. eigenvalues --   -0.50086  -0.49818  -0.48554  -0.47613  -0.46247
 Alpha  occ. eigenvalues --   -0.45507  -0.45148  -0.43441  -0.39430  -0.35901
 Alpha  occ. eigenvalues --   -0.34938  -0.32722  -0.32010  -0.31905  -0.30022
 Alpha  occ. eigenvalues --   -0.28691
 Alpha virt. eigenvalues --    0.02780   0.03225   0.03423   0.03809   0.04362
 Alpha virt. eigenvalues --    0.04778   0.04984   0.05213   0.05594   0.05862
 Alpha virt. eigenvalues --    0.06196   0.06416   0.06871   0.07030   0.07539

 Mulliken charges:
               1
     1  C    0.681856
     2  H   -0.233631
     3  H   -0.144746
     4  C   -0.622680
     5  C   -0.016998
     6  H   -0.027433
     7  H   -0.363466
     8  C    0.385582
     9  H   -0.337565
    10  N   -0.757384
    11  C   -1.022828
    12  C    1.399667
    13  H   -0.144841
    14  H   -0.514466
    15  C    0.885431
    16  H   -0.580905
    17  C   -0.063939
    18  C    0.110490
    19  C    0.696004
    20  H   -0.069026
    21  H   -0.098155
    22  H    0.066024
    23  H   -0.232696
    24  C    0.664188
    25  C    1.209090
    26  H   -0.054514
    27  H   -0.304051
    28  C    0.541415
    29  H    0.008188
    30  C   -0.863338
    31  H    0.128650
    32  C    0.973288
    33  H   -0.657032
    34  C   -0.119594
    35  H   -0.527914
    36  C    0.014591
    37  H   -0.479268
    38  C    0.845957
    39  H   -0.558822
    40  S    0.431074
    41  C   -0.882854
    42  C    0.699742
    43  C    0.402887
    44  C    0.840362
    45  C    0.583263
    46  C    1.073268
    47  H   -0.644556
    48  H   -0.611504
    49  H   -0.549267
    50  H   -0.558739
    51  H   -0.598804
 Sum of Mulliken charges =  -0.00000

 Dipole moment (field-independent basis, Debye):
    X=             -0.9924    Y=             -1.7056    Z=              1.2658  Tot=              2.3444

 Test job not archived.
 1\1\GINC-SE220\SP\RHF\Aug-CC-pVDZ\C24H25N1S1\OHZDE\09-Apr-2025\0\\#t h
 f aug-cc-pvdz iop(5/13=1,5/36=2,99/5=2) pseudo=read geom=check guess=(
 read,tcheck) scf=(maxcycle=1)\\title\\0,1\C,0,-0.586434,-2.193783,1.32
 2254\H,0,-0.713328,-3.207169,1.703485\H,0,-0.819618,-1.509122,2.148833
 \C,0,-1.585645,-1.923786,0.19044\C,0,0.136173,-0.499745,-0.893441\H,0,
 0.491848,-1.162863,-1.688549\H,0,0.271926,0.509542,-1.266942\C,0,1.018
 939,-0.706077,0.354507\H,0,0.729328,0.043276,1.095739\N,0,0.80396,-2.0
 11217,0.971077\C,0,-2.342004,0.117391,-0.905984\C,0,-2.779563,-2.63422

 Normal termination of Gaussian 16 at Wed Apr  9 02:50:47 2025.
