 Gaussian 16, Revision C.01,

 ----------------------------------------------------------------------
 #t hf aug-cc-pvdz symm=none int=(grid=ultrafine) guess=(read,tcheck) s
 table=(opt,rrhf)
 ----------------------------------------------------------------------
 -----
 title
 -----
 Symbolic Z-matrix:
 Charge =  0 Multiplicity = 1

 SCF Done:  E(RHF) =  -679.006770612     A.U. after   14 cycles
 Normal termination of Gaussian 16 at Wed Apr  9 01:14:19 2025.
 Gaussian 16:  ES64L-G16RevC.01  3-Jul-2019

 ----------------------------------------------------------------------
 #t hf aug-cc-pvdz iop(5/13=1,5/36=2,99/5=2) pseudo=read geom=check gue
 ss=(read,tcheck) scf=(maxcycle=1)
 ----------------------------------------------------------------------
 -----
 title
 -----
 Structure from the checkpoint file:  "BH10_286_forward_mol2.chk"
 Charge =  0 Multiplicity = 1

                         Standard orientation:
 ---------------------------------------------------------------------
 Center     Atomic      Atomic             Coordinates (Angstroms)
 Number     Number       Type             X           Y           Z
 ---------------------------------------------------------------------
      1          6           0        0.755081   -0.482080    0.964817
      2          1           0       -0.180782   -0.604220    1.516197
      3          5           0        0.562057    0.151105   -0.449731
      4          6           0        1.367236   -1.887745    0.751810
      5          1           0        0.588943   -2.525137    0.316154
      6          1           0        1.611484   -2.334717    1.721695
      7          6           0        1.652280    0.495338    1.764258
      8          1           0        1.059261    1.393340    1.973959
      9          6           0       -4.608805   -1.909847    0.192944
     10          1           0       -4.277445   -2.801491   -0.328607
     11          1           0       -5.572431   -1.956189    0.683523
     12          6           0       -3.864263   -0.805839    0.229827
     13          6           0       -2.567182   -0.674050   -0.406890
     14          1           0       -4.224723    0.066409    0.765025
     15          1           0        1.890905    0.060180    2.740844
     16          6           0       -1.818405    0.425801   -0.338863
     17          8           0       -0.629396    0.552413   -0.998201
     18          8           0       -2.164491    1.500947    0.395819
     19          6           0       -1.970286    2.779710   -0.207449
     20          1           0       -0.914696    2.971387   -0.401424
     21          1           0       -2.531462    2.849278   -1.142724
     22          1           0       -2.352348    3.504901    0.506695
     23          6           0        2.953978    0.915715    1.064300
     24          1           0        3.374708    1.775113    1.594768
     25          1           0        3.696020    0.124572    1.163823
     26          6           0        1.895539    0.323109   -1.239772
     27          1           0        1.737225    0.765169   -2.227786
     28          6           0        2.786646    1.285658   -0.417883
     29          1           0        2.341794    2.286056   -0.480440
     30          1           0        3.774436    1.368157   -0.884633
     31          6           0        2.490776   -1.092172   -1.435235
     32          1           0        3.474985   -1.019286   -1.911039
     33          1           0        1.851528   -1.625451   -2.148598
     34          6           0        2.607124   -1.934637   -0.155220
     35          1           0        2.795103   -2.974941   -0.436752
     36          1           0        3.486431   -1.625859    0.408824
     37          1           0       -2.166436   -1.513443   -0.961667
 ---------------------------------------------------------------------

 SCF Done:  E(RHF) =  -679.216839847     A.U. after    2 cycles

 The electronic state is 1-A.
 Alpha  occ. eigenvalues --  -20.60522 -20.60032 -11.36509 -11.29951 -11.24020
 Alpha  occ. eigenvalues --  -11.22963 -11.22883 -11.22838 -11.22819 -11.22570
 Alpha  occ. eigenvalues --  -11.22407 -11.22335 -11.22267 -11.20216 -11.20187
 Alpha  occ. eigenvalues --   -7.61829  -1.41221  -1.33532  -1.10674  -1.07877
 Alpha  occ. eigenvalues --   -1.03516  -1.02054  -1.00417  -0.93996  -0.92977
 Alpha  occ. eigenvalues --   -0.91287  -0.84674  -0.79442  -0.78806  -0.76843
 Alpha  occ. eigenvalues --   -0.75554  -0.73098  -0.70325  -0.68703  -0.67002
 Alpha  occ. eigenvalues --   -0.64304  -0.63078  -0.62483  -0.60313  -0.59440
 Alpha  occ. eigenvalues --   -0.58506  -0.58133  -0.57356  -0.56596  -0.55532
 Alpha  occ. eigenvalues --   -0.54664  -0.53129  -0.50902  -0.50529  -0.49956
 Alpha  occ. eigenvalues --   -0.49448  -0.48263  -0.47705  -0.47072  -0.46263
 Alpha  occ. eigenvalues --   -0.42941  -0.42416  -0.42151  -0.38767  -0.30329
 Alpha virt. eigenvalues --    0.02817   0.03679   0.03914   0.04221   0.04803
 Alpha virt. eigenvalues --    0.05094   0.05517   0.05588   0.05951   0.06670
 Alpha virt. eigenvalues --    0.06881   0.07417   0.07573   0.08170   0.08467

 Mulliken charges:
               1
     1  C   -0.414909
     2  H   -0.378514
     3  B    0.441972
     4  C    0.398541
     5  H   -0.100424
     6  H   -0.146896
     7  C    0.588524
     8  H   -0.103840
     9  C    0.832471
    10  H   -0.380186
    11  H   -0.343089
    12  C    0.652634
    13  C    1.219174
    14  H   -0.598425
    15  H   -0.131566
    16  C   -0.046935
    17  O   -0.667233
    18  O   -0.644263
    19  C    0.898549
    20  H   -0.231652
    21  H   -0.074325
    22  H   -0.242844
    23  C    0.185361
    24  H   -0.151377
    25  H   -0.116223
    26  C   -0.031758
    27  H   -0.480321
    28  C    0.642735
    29  H   -0.102091
    30  H   -0.153334
    31  C    0.599361
    32  H   -0.138649
    33  H   -0.119345
    34  C    0.214203
    35  H   -0.135062
    36  H   -0.113994
    37  H   -0.626266
 Sum of Mulliken charges =  -0.00000

 Dipole moment (field-independent basis, Debye):
    X=              1.2910    Y=              1.1763    Z=             -0.0903  Tot=              1.7488

 Test job not archived.
 1\1\GINC-SE396\SP\RHF\Aug-CC-pVDZ\C13H21B1O2\OHZDE\09-Apr-2025\0\\#t h
 f aug-cc-pvdz iop(5/13=1,5/36=2,99/5=2) pseudo=read geom=check guess=(
 read,tcheck) scf=(maxcycle=1)\\title\\0,1\C,0,0.755081,-0.48208,0.9648
 17\H,0,-0.180782,-0.60422,1.516197\B,0,0.562057,0.151105,-0.449731\C,0
 ,1.367236,-1.887745,0.75181\H,0,0.588943,-2.525137,0.316154\H,0,1.6114
 84,-2.334717,1.721695\C,0,1.65228,0.495338,1.764258\H,0,1.059261,1.393
 34,1.973959\C,0,-4.608805,-1.909847,0.192944\H,0,-4.277445,-2.801491,-
 0.328607\H,0,-5.572431,-1.956189,0.683523\C,0,-3.864263,-0.805839,0.22

 Normal termination of Gaussian 16 at Wed Apr  9 01:15:20 2025.
