 Gaussian 16, Revision C.01,

 ----------------------------------------------------------------------
 #t hf aug-cc-pvdz symm=none int=(grid=ultrafine) guess=(read,tcheck) s
 table=opt
 ----------------------------------------------------------------------
 -----
 title
 -----
 Symbolic Z-matrix:
 Charge =  0 Multiplicity = 2

 SCF Done:  E(UHF) =  -811.770485989     A.U. after   24 cycles
 Normal termination of Gaussian 16 at Wed Apr  9 00:57:03 2025.
 Gaussian 16:  ES64L-G16RevC.01  3-Jul-2019

 ----------------------------------------------------------------------
 #t hf aug-cc-pvdz iop(5/13=1,5/36=2,99/5=2) pseudo=read geom=check gue
 ss=(read,tcheck) scf=(maxcycle=1)
 ----------------------------------------------------------------------
 -----
 title
 -----
 Structure from the checkpoint file:  "BH10_150_reverse_mol2.chk"
 Charge =  0 Multiplicity = 2

                         Standard orientation:
 ---------------------------------------------------------------------
 Center     Atomic      Atomic             Coordinates (Angstroms)
 Number     Number       Type             X           Y           Z
 ---------------------------------------------------------------------
      1          7           0        0.190667   -1.520153   -0.012804
      2          1           0       -0.508797   -2.208812   -0.282500
      3          6           0       -0.363185   -0.299105    0.289299
      4          6           0        0.416262    0.812983    0.874401
      5          6           0       -1.791498   -0.247568   -0.015690
      6          1           0       -0.228360    1.419925    1.509336
      7          1           0        1.242659    0.445937    1.474460
      8         16           0        1.102379    1.986437   -0.375030
      9          8           0       -2.394560   -1.267321   -0.335745
     10          1           0        2.014050    1.124671   -0.857593
     11          7           0       -2.414516    0.963153    0.109541
     12          1           0       -3.368441    0.984153   -0.217127
     13          1           0       -1.882934    1.810142   -0.015756
     14          6           0        1.511156   -1.860590   -0.103458
     15          1           0        1.644098   -2.923633   -0.353577
     16          8           0        2.442084   -1.104016    0.060591
 ---------------------------------------------------------------------

 SCF Done:  E(UHF) =  -811.917796821     A.U. after    2 cycles

 The electronic state is 2-A.
 Alpha  occ. eigenvalues --  -93.54342 -20.57166 -20.56200 -15.68982 -15.66087
 Alpha  occ. eigenvalues --  -11.38862 -11.38218 -11.32066 -11.29386  -8.84101
 Alpha  occ. eigenvalues --   -6.18364  -6.18094  -6.17710  -1.38567  -1.37570
 Alpha  occ. eigenvalues --   -1.25270  -1.19784  -1.08615  -0.99296  -0.88971
 Alpha  occ. eigenvalues --   -0.86038  -0.79153  -0.77234  -0.73276  -0.68517
 Alpha  occ. eigenvalues --   -0.67375  -0.66031  -0.65017  -0.61779  -0.60844
 Alpha  occ. eigenvalues --   -0.60072  -0.55907  -0.50584  -0.48496  -0.47753
 Alpha  occ. eigenvalues --   -0.46782  -0.45438  -0.37222  -0.32322
 Alpha virt. eigenvalues --    0.03123   0.03498   0.04447   0.05435   0.06502
 Alpha virt. eigenvalues --    0.06731   0.07912   0.08931   0.09837   0.11148
 Alpha virt. eigenvalues --    0.11328   0.11937   0.13493   0.13600   0.14865

  Beta  occ. eigenvalues --  -93.54232 -20.56610 -20.55400 -15.68981 -15.66032
  Beta  occ. eigenvalues --  -11.38949 -11.38597 -11.29955 -11.29738  -8.83972
  Beta  occ. eigenvalues --   -6.18120  -6.17857  -6.17609  -1.37466  -1.36202
  Beta  occ. eigenvalues --   -1.23680  -1.19225  -1.06924  -0.96648  -0.88418
  Beta  occ. eigenvalues --   -0.85545  -0.78878  -0.76366  -0.72921  -0.67787
  Beta  occ. eigenvalues --   -0.66567  -0.64541  -0.61879  -0.60982  -0.59439
  Beta  occ. eigenvalues --   -0.57850  -0.54106  -0.47678  -0.47258  -0.46476
  Beta  occ. eigenvalues --   -0.45063  -0.42008  -0.36650
  Beta virt. eigenvalues --    0.03087   0.03503   0.04207   0.04607   0.05693
  Beta virt. eigenvalues --    0.06518   0.06757   0.07952   0.09300   0.09938
  Beta virt. eigenvalues --    0.11220   0.11388   0.12175   0.13567   0.13643

 Mulliken charges and spin densities:
               1          2
     1  N   -0.435938   0.014273
     2  H   -0.001079   0.006750
     3  C    0.586470   1.138035
     4  C    0.148218  -0.232514
     5  C    0.450811  -0.285693
     6  H   -0.103750   0.012472
     7  H   -0.155045   0.001740
     8  S    0.208352   0.092302
     9  O   -0.588406   0.173779
    10  H    0.094286  -0.011745
    11  N   -0.193750   0.015204
    12  H    0.008999  -0.005039
    13  H    0.029665  -0.000264
    14  C    0.679253  -0.042214
    15  H   -0.268115  -0.000329
    16  O   -0.459971   0.123243
 Sum of Mulliken charges =  -0.00000   1.00000

 Dipole moment (field-independent basis, Debye):
    X=             -1.3495    Y=              0.2547    Z=              0.4116  Tot=              1.4337
                          Isotropic Fermi Contact Couplings
        Atom                 a.u.       MegaHertz       Gauss      10(-4) cm-1
     1  N(14)             -0.02444      -7.89617      -2.81755      -2.63388
     2  H(1)              -0.00065      -2.91996      -1.04191      -0.97399
     3  C(13)              0.18207     204.67862      73.03442      68.27344
     4  C(13)             -0.06315     -70.99466     -25.33266     -23.68127
     5  C(13)             -0.06644     -74.68678     -26.65010     -24.91283
     6  H(1)               0.00652      29.13050      10.39449       9.71689
     7  H(1)               0.00522      23.31046       8.31775       7.77553
     8  S(33)              0.05438      18.67889       6.66509       6.23061

 Normal termination of Gaussian 16 at Wed Apr  9 00:57:12 2025.
