 Gaussian 16, Revision C.01,

 ----------------------------------------------------------------------
 #t hf aug-cc-pvdz symm=none int=(grid=ultrafine) guess=(read,tcheck) s
 table=opt
 ----------------------------------------------------------------------
 -----
 title
 -----
 Symbolic Z-matrix:
 Charge =  0 Multiplicity = 2

 SCF Done:  E(UHF) =  -780.862646636     A.U. after   17 cycles
 Normal termination of Gaussian 16 at Wed Apr  9 00:57:38 2025.
 Gaussian 16:  ES64L-G16RevC.01  3-Jul-2019

 ----------------------------------------------------------------------
 #t hf aug-cc-pvdz iop(5/13=1,5/36=2,99/5=2) pseudo=read geom=check gue
 ss=(read,tcheck) scf=(maxcycle=1)
 ----------------------------------------------------------------------
 -----
 title
 -----
 Structure from the checkpoint file:  "BH10_158_reverse_mol2.chk"
 Charge =  0 Multiplicity = 2

                         Standard orientation:
 ---------------------------------------------------------------------
 Center     Atomic      Atomic             Coordinates (Angstroms)
 Number     Number       Type             X           Y           Z
 ---------------------------------------------------------------------
      1          6           0       -0.185423    1.540666   -0.169841
      2          1           0        0.355422    2.369660    0.310915
      3          6           0       -2.512563    0.440119   -0.183571
      4          1           0       -3.502096    0.552602    0.260850
      5          1           0       -0.372058    1.842073   -1.203551
      6          1           0       -2.590591    0.754040   -1.226241
      7          6           0       -1.509532    1.314481    0.562856
      8          1           0       -1.972907    2.294662    0.712171
      9          1           0       -1.319429    0.899100    1.555009
     10          6           0        0.722365    0.359802   -0.200432
     11          6           0        2.713505   -0.550583   -0.625847
     12          6           0        2.476573   -0.607460    0.880962
     13          1           0        2.463217   -1.497305   -1.113362
     14          1           0        3.718497   -0.243185   -0.906091
     15          1           0        2.538987   -1.615086    1.291027
     16          1           0        3.146295    0.055655    1.432968
     17         16           0       -2.204407   -1.360619   -0.122152
     18          8           0        1.798693    0.457233   -1.045097
     19          8           0        1.139017   -0.123101    1.020142
     20          1           0       -0.926052   -1.297517   -0.544381
 ---------------------------------------------------------------------

 SCF Done:  E(UHF) =  -781.002900059     A.U. after    2 cycles

 The electronic state is 2-A.
 Alpha  occ. eigenvalues --  -93.51852 -20.60207 -20.59717 -11.34017 -11.30665
 Alpha  occ. eigenvalues --  -11.30504 -11.26467 -11.24195 -11.23967  -8.81630
 Alpha  occ. eigenvalues --   -6.15828  -6.15623  -6.15247  -1.43106  -1.32165
 Alpha  occ. eigenvalues --   -1.09591  -1.04628  -0.98290  -0.90648  -0.88174
 Alpha  occ. eigenvalues --   -0.82925  -0.79110  -0.73958  -0.71362  -0.66309
 Alpha  occ. eigenvalues --   -0.64375  -0.62883  -0.61530  -0.59254  -0.56143
 Alpha  occ. eigenvalues --   -0.55574  -0.54918  -0.52738  -0.52286  -0.49479
 Alpha  occ. eigenvalues --   -0.48036  -0.47454  -0.44032  -0.34410  -0.32376
 Alpha virt. eigenvalues --    0.03289   0.03856   0.04602   0.04875   0.05555
 Alpha virt. eigenvalues --    0.05842   0.06398   0.07201   0.07681   0.08459
 Alpha virt. eigenvalues --    0.08554   0.10363   0.11880   0.12410   0.13231

  Beta  occ. eigenvalues --  -93.51816 -20.59775 -20.59218 -11.31478 -11.30680
  Beta  occ. eigenvalues --  -11.30521 -11.26471 -11.24251 -11.23940  -8.81590
  Beta  occ. eigenvalues --   -6.15741  -6.15535  -6.15225  -1.41432  -1.30895
  Beta  occ. eigenvalues --   -1.08720  -1.03863  -0.98019  -0.89666  -0.87812
  Beta  occ. eigenvalues --   -0.81253  -0.78045  -0.71550  -0.70533  -0.64746
  Beta  occ. eigenvalues --   -0.63519  -0.61540  -0.60438  -0.57541  -0.55306
  Beta  occ. eigenvalues --   -0.54196  -0.53409  -0.52276  -0.51519  -0.49370
  Beta  occ. eigenvalues --   -0.47398  -0.45354  -0.43545  -0.34225
  Beta virt. eigenvalues --    0.03231   0.03832   0.04613   0.04880   0.05501
  Beta virt. eigenvalues --    0.05842   0.06318   0.07191   0.07643   0.08454
  Beta virt. eigenvalues --    0.08568   0.10386   0.11799   0.12415   0.12675

 Mulliken charges and spin densities:
               1          2
     1  C    0.091834  -0.106248
     2  H    0.063008   0.060598
     3  C   -0.079078  -0.001079
     4  H   -0.044292  -0.000368
     5  H   -0.039587  -0.008571
     6  H   -0.084126   0.002825
     7  C    0.352624   0.018298
     8  H   -0.070493  -0.004166
     9  H   -0.103314  -0.000449
    10  C    0.294822   0.962573
    11  C    0.762321  -0.042667
    12  C    0.720560   0.014443
    13  H   -0.171253  -0.002514
    14  H   -0.199140  -0.000637
    15  H   -0.196292   0.001540
    16  H   -0.222931   0.002739
    17  S    0.242482   0.031705
    18  O   -0.717368   0.052075
    19  O   -0.708999   0.054665
    20  H    0.109223  -0.034763
 Sum of Mulliken charges =  -0.00000   1.00000

 Dipole moment (field-independent basis, Debye):
    X=              2.4097    Y=              0.9814    Z=              0.1418  Tot=              2.6057
                          Isotropic Fermi Contact Couplings
        Atom                 a.u.       MegaHertz       Gauss      10(-4) cm-1
     1  C(13)              0.00090       1.01643       0.36269       0.33905
     2  H(1)               0.01726      77.14993      27.52901      25.73445
     3  C(13)             -0.00134      -1.50584      -0.53732      -0.50229
     4  H(1)               0.00009       0.41539       0.14822       0.13856
     5  H(1)               0.00144       6.42190       2.29149       2.14212
     6  H(1)               0.00004       0.17619       0.06287       0.05877
     7  C(13)              0.00601       6.75753       2.41125       2.25407
     8  H(1)              -0.00094      -4.20274      -1.49964      -1.40188

 Normal termination of Gaussian 16 at Wed Apr  9 00:57:50 2025.
