 Gaussian 16, Revision C.01,

 ----------------------------------------------------------------------
 #t hf aug-cc-pvdz symm=none int=(grid=ultrafine) guess=(read,tcheck) s
 table=(opt,rrhf)
 ----------------------------------------------------------------------
 -----
 title
 -----
 Symbolic Z-matrix:
 Charge =  0 Multiplicity = 1

 SCF Done:  E(RHF) =  -1125.28392216     A.U. after   15 cycles
 Normal termination of Gaussian 16 at Wed Apr  9 01:53:38 2025.
 Gaussian 16:  ES64L-G16RevC.01  3-Jul-2019

 ----------------------------------------------------------------------
 #t hf aug-cc-pvdz iop(5/13=1,5/36=2,99/5=2) pseudo=read geom=check gue
 ss=(read,tcheck) scf=(maxcycle=1)
 ----------------------------------------------------------------------
 -----
 title
 -----
 Structure from the checkpoint file:  "BH10_296_reverse_mol2.chk"
 Charge =  0 Multiplicity = 1

                         Standard orientation:
 ---------------------------------------------------------------------
 Center     Atomic      Atomic             Coordinates (Angstroms)
 Number     Number       Type             X           Y           Z
 ---------------------------------------------------------------------
      1          6           0        0.648503    2.595494    0.372259
      2          6           0        0.454733    1.219434    1.068882
      3          6           0       -2.159439    1.240975   -0.618622
      4          1           0        1.718701    2.748165    0.211483
      5          6           0       -0.587409    1.260166    2.206605
      6          1           0       -0.789021    0.241115    2.553838
      7          1           0       -0.132702    1.779793    3.057222
      8          1           0       -3.019171    1.061360   -1.270914
      9          1           0        1.406093    0.968573    1.545340
     10          6           0       -1.905059    1.960333    1.892452
     11          1           0       -2.501449    1.990172    2.809796
     12          1           0       -1.706463    3.006318    1.643693
     13          6           0       -2.762627    1.337710    0.795255
     14          1           0       -3.086020    0.343839    1.117836
     15          1           0       -3.678092    1.934329    0.719343
     16          6           0       -1.551373    2.587076   -1.090924
     17          1           0       -1.809469    2.725046   -2.145416
     18          6           0       -0.029933    2.759765   -0.994549
     19          1           0        0.442034    2.064304   -1.698277
     20          1           0        0.214930    3.755587   -1.376642
     21          1           0       -2.046966    3.406626   -0.559943
     22          1           0        0.328952    3.397086    1.045540
     23          6           0       -1.195458    0.052635   -0.817483
     24          1           0       -0.918235    0.003996   -1.881313
     25         14           0       -1.954151   -1.683260   -0.572623
     26          6           0       -1.750477   -2.306053    1.191797
     27          1           0       -2.286367   -1.692933    1.919081
     28          1           0       -2.132988   -3.326995    1.276746
     29          1           0       -0.695357   -2.326139    1.477893
     30          6           0       -1.069646   -2.875920   -1.719973
     31          1           0       -1.458064   -3.891326   -1.604095
     32          1           0       -1.198578   -2.587678   -2.766603
     33          1           0        0.000584   -2.892467   -1.507731
     34          6           0       -3.779705   -1.656215   -1.026194
     35          1           0       -3.924955   -1.310631   -2.053090
     36          1           0       -4.197178   -2.664499   -0.957059
     37          1           0       -4.367167   -1.009628   -0.371503
     38          5           0        0.144835    0.147452   -0.038852
     39          6           0        3.509659    0.442686   -1.452258
     40          6           0        3.442753   -0.385547   -0.262025
     41          6           0        4.615921    1.032366   -1.903808
     42          6           0        2.298321   -0.910673    0.191837
     43          8           0        1.116196   -0.760062   -0.439259
     44          8           0        2.130331   -1.678153    1.283489
     45          6           0        3.274624   -1.979682    2.063038
     46          1           0        3.728165   -1.066364    2.457193
     47          1           0        2.923190   -2.599521    2.883905
     48          1           0        4.011743   -2.530668    1.473435
     49          1           0        2.582180    0.573212   -2.000302
     50          1           0        5.566339    0.927961   -1.391300
     51          1           0        4.604629    1.636458   -2.801607
     52          1           0        4.362124   -0.578293    0.272859
 ---------------------------------------------------------------------

 SCF Done:  E(RHF) =  -1125.56693158     A.U. after    2 cycles

 The electronic state is 1-A.
 Alpha  occ. eigenvalues --  -69.03663 -20.61552 -20.59385 -11.37280 -11.30403
 Alpha  occ. eigenvalues --  -11.24316 -11.22933 -11.22448 -11.22421 -11.22368
 Alpha  occ. eigenvalues --  -11.22293 -11.22206 -11.22030 -11.21961 -11.21900
 Alpha  occ. eigenvalues --  -11.20094 -11.19995 -11.19822 -11.19315 -11.18404
 Alpha  occ. eigenvalues --   -7.62255  -6.78967  -3.89665  -3.89645  -3.89639
 Alpha  occ. eigenvalues --   -1.41931  -1.34060  -1.10389  -1.07574  -1.03758
 Alpha  occ. eigenvalues --   -1.03431  -1.00350  -0.96610  -0.96370  -0.94015
 Alpha  occ. eigenvalues --   -0.91382  -0.91101  -0.90750  -0.87777  -0.83059
 Alpha  occ. eigenvalues --   -0.79887  -0.79419  -0.76984  -0.73630  -0.71977
 Alpha  occ. eigenvalues --   -0.70607  -0.69227  -0.66356  -0.64915  -0.63876
 Alpha  occ. eigenvalues --   -0.62707  -0.61219  -0.59958  -0.59463  -0.59057
 Alpha  occ. eigenvalues --   -0.58115  -0.57787  -0.57348  -0.56518  -0.56333
 Alpha  occ. eigenvalues --   -0.55874  -0.55138  -0.54732  -0.54091  -0.53305
 Alpha  occ. eigenvalues --   -0.52525  -0.52261  -0.51981  -0.51298  -0.49959
 Alpha  occ. eigenvalues --   -0.49318  -0.48786  -0.47855  -0.46976  -0.46075
 Alpha  occ. eigenvalues --   -0.44497  -0.43167  -0.43089  -0.42981  -0.41783
 Alpha  occ. eigenvalues --   -0.41332  -0.40801  -0.38035  -0.30103
 Alpha virt. eigenvalues --    0.02659   0.03367   0.03624   0.03808   0.04600
 Alpha virt. eigenvalues --    0.04691   0.05021   0.05212   0.05390   0.06303
 Alpha virt. eigenvalues --    0.06524   0.06765   0.06835   0.07107   0.07332

 Mulliken charges:
               1
     1  C    0.386504
     2  C    0.513763
     3  C   -0.166643
     4  H   -0.247089
     5  C    0.521124
     6  H   -0.085754
     7  H   -0.195780
     8  H   -0.347867
     9  H   -0.345654
    10  C    0.329772
    11  H   -0.241743
    12  H   -0.013013
    13  C    0.697806
    14  H   -0.154480
    15  H   -0.195961
    16  C    0.459605
    17  H   -0.151854
    18  C    0.818138
    19  H    0.144824
    20  H   -0.312777
    21  H   -0.134731
    22  H   -0.208478
    23  C    0.606492
    24  H   -0.348965
    25  Si  -0.462773
    26  C    1.209907
    27  H   -0.280717
    28  H   -0.429795
    29  H   -0.508501
    30  C    0.945611
    31  H   -0.413068
    32  H   -0.252713
    33  H   -0.259287
    34  C    1.010702
    35  H   -0.314954
    36  H   -0.513958
    37  H   -0.268015
    38  B    0.038720
    39  C    0.358995
    40  C    1.471450
    41  C    1.071545
    42  C   -0.245960
    43  O   -0.940059
    44  O   -0.580954
    45  C    1.060087
    46  H   -0.156361
    47  H   -0.373806
    48  H   -0.093044
    49  H   -0.847698
    50  H   -0.397389
    51  H   -0.415269
    52  H   -0.739934
 Sum of Mulliken charges =  -0.00000

 Dipole moment (field-independent basis, Debye):
    X=              0.6817    Y=              0.2283    Z=              1.7157  Tot=              1.8603

 Test job not archived.
 1\1\GINC-SE249\SP\RHF\Aug-CC-pVDZ\C17H31B1O2Si1\OHZDE\09-Apr-2025\0\\#
 t hf aug-cc-pvdz iop(5/13=1,5/36=2,99/5=2) pseudo=read geom=check gues
 s=(read,tcheck) scf=(maxcycle=1)\\title\\0,1\C,0,0.648503,2.595494,0.3
 72259\C,0,0.454733,1.219434,1.068882\C,0,-2.159439,1.240975,-0.618622\
 H,0,1.718701,2.748165,0.211483\C,0,-0.587409,1.260166,2.206605\H,0,-0.
 789021,0.241115,2.553838\H,0,-0.132702,1.779793,3.057222\H,0,-3.019171
 ,1.06136,-1.270914\H,0,1.406093,0.968573,1.54534\C,0,-1.905059,1.96033
 3,1.892452\H,0,-2.501449,1.990172,2.809796\H,0,-1.706463,3.006318,1.64

 Normal termination of Gaussian 16 at Wed Apr  9 01:56:36 2025.
