 Gaussian 16, Revision C.01,

 ----------------------------------------------------------------------
 #t hf aug-cc-pvdz symm=none int=(grid=ultrafine) guess=(read,tcheck) s
 table=opt
 ----------------------------------------------------------------------
 -----
 title
 -----
 Symbolic Z-matrix:
 Charge =  0 Multiplicity = 2

 SCF Done:  E(UHF) =  -952.905571443     A.U. after   21 cycles

 1\1\GINC-SE092\Stability\UHF\Aug-CC-pVDZ\C4H11S2\OHZDE\09-Apr-2025\0\\
 #t hf aug-cc-pvdz symm=none int=(grid=ultrafine) guess=(read,tcheck) s
 table=opt\\title\\0,2\C,0,2.316335,-1.0086,0.918821\S,0,1.99838,-0.392
 977,-0.754658\H,0,1.047008,0.785462,-0.31735\S,0,-0.087162,1.691052,0.
 27863\C,0,-1.476974,0.698971,-0.342192\C,0,-1.706753,-0.614725,0.39068
 6\C,0,-2.927841,-1.356484,-0.142916\H,0,-1.335716,0.533526,-1.411781\H
 ,0,-2.346278,1.35542,-0.237609\H,0,-1.821033,-0.413091,1.458853\H,0,-0
 .81828,-1.241312,0.27859\H,0,-2.815888,-1.589016,-1.204935\H,0,-3.8366

 Normal termination of Gaussian 16 at Wed Apr  9 00:56:06 2025.
 Gaussian 16:  ES64L-G16RevC.01  3-Jul-2019

 ----------------------------------------------------------------------
 #t hf aug-cc-pvdz iop(5/13=1,5/36=2,99/5=2) pseudo=read geom=check gue
 ss=(read,tcheck) scf=(maxcycle=1)
 ----------------------------------------------------------------------
 -----
 title
 -----
 Structure from the checkpoint file:  "BH10_143_forward_mol1.chk"
 Charge =  0 Multiplicity = 2

                         Standard orientation:
 ---------------------------------------------------------------------
 Center     Atomic      Atomic             Coordinates (Angstroms)
 Number     Number       Type             X           Y           Z
 ---------------------------------------------------------------------
      1          6           0        2.316335   -1.008600    0.918821
      2         16           0        1.998380   -0.392977   -0.754658
      3          1           0        1.047008    0.785462   -0.317350
      4         16           0       -0.087162    1.691052    0.278630
      5          6           0       -1.476974    0.698971   -0.342192
      6          6           0       -1.706753   -0.614725    0.390686
      7          6           0       -2.927841   -1.356484   -0.142916
      8          1           0       -1.335716    0.533526   -1.411781
      9          1           0       -2.346278    1.355420   -0.237609
     10          1           0       -1.821033   -0.413091    1.458853
     11          1           0       -0.818280   -1.241312    0.278590
     12          1           0       -2.815888   -1.589016   -1.204935
     13          1           0       -3.836692   -0.760252   -0.026394
     14          1           0       -3.078201   -2.298086    0.388420
     15          1           0        2.763149   -0.238507    1.544286
     16          1           0        3.026366   -1.830601    0.815602
     17          1           0        1.407481   -1.387719    1.382378
 ---------------------------------------------------------------------

 SCF Done:  E(UHF) =  -952.995462585     A.U. after    2 cycles

 The electronic state is 2-A.
 Alpha  occ. eigenvalues --  -93.54770 -93.54404 -11.27221 -11.27154 -11.23912
 Alpha  occ. eigenvalues --  -11.23109  -8.84495  -8.84141  -6.19533  -6.19171
 Alpha  occ. eigenvalues --   -6.18253  -6.17926  -6.17864  -6.17519  -1.08368
 Alpha  occ. eigenvalues --   -1.03999  -0.99210  -0.88471  -0.85327  -0.80438
 Alpha  occ. eigenvalues --   -0.66149  -0.62322  -0.59998  -0.59312  -0.57596
 Alpha  occ. eigenvalues --   -0.56203  -0.53662  -0.50209  -0.48941  -0.48423
 Alpha  occ. eigenvalues --   -0.45892  -0.37017  -0.36948  -0.36201
 Alpha virt. eigenvalues --    0.03359   0.04142   0.04922   0.04988   0.06169
 Alpha virt. eigenvalues --    0.06415   0.07184   0.07407   0.08121   0.08903
 Alpha virt. eigenvalues --    0.09686   0.11307   0.12860   0.13203   0.13895

  Beta  occ. eigenvalues --  -93.54154 -93.53800 -11.27283 -11.27218 -11.23905
  Beta  occ. eigenvalues --  -11.23113  -8.83815  -8.83476  -6.17934  -6.17614
  Beta  occ. eigenvalues --   -6.17480  -6.17144  -6.16784  -6.16464  -1.07675
  Beta  occ. eigenvalues --   -1.01771  -0.97447  -0.86267  -0.82454  -0.78420
  Beta  occ. eigenvalues --   -0.65319  -0.60357  -0.59671  -0.58986  -0.56721
  Beta  occ. eigenvalues --   -0.55771  -0.51610  -0.50093  -0.48684  -0.46938
  Beta  occ. eigenvalues --   -0.43532  -0.35678  -0.34939
  Beta virt. eigenvalues --   -0.00181   0.03367   0.04193   0.04940   0.05061
  Beta virt. eigenvalues --    0.06206   0.06438   0.07228   0.07473   0.08128
  Beta virt. eigenvalues --    0.08967   0.09832   0.11550   0.12906   0.13409

 Mulliken charges and spin densities:
               1          2
     1  C    0.153122  -0.063797
     2  S    0.083589   0.670882
     3  H    0.149750  -0.242384
     4  S    0.236866   0.663770
     5  C   -0.073587  -0.064067
     6  C    0.053262  -0.009901
     7  C    0.408619   0.001292
     8  H   -0.168359   0.013091
     9  H   -0.069954   0.010761
    10  H   -0.120240  -0.002539
    11  H   -0.101885   0.002238
    12  H   -0.044509  -0.000926
    13  H   -0.076279   0.000276
    14  H   -0.083711  -0.000483
    15  H   -0.107772   0.006867
    16  H   -0.086394   0.007253
    17  H   -0.152517   0.007667
 Sum of Mulliken charges =  -0.00000   1.00000

 Dipole moment (field-independent basis, Debye):
    X=             -1.0336    Y=             -1.5881    Z=              0.9439  Tot=              2.1170
                          Isotropic Fermi Contact Couplings
        Atom                 a.u.       MegaHertz       Gauss      10(-4) cm-1
     1  C(13)             -0.01253     -14.08627      -5.02633      -4.69868
     2  S(33)              0.09231      31.70759      11.31406      10.57651
     3  H(1)              -0.07710    -344.63698    -122.97504    -114.95852
     4  S(33)              0.08017      27.53587       9.82548       9.18498
     5  C(13)             -0.01246     -14.00520      -4.99740      -4.67163
     6  C(13)              0.00074       0.83486       0.29790       0.27848
     7  C(13)             -0.00083      -0.93107      -0.33223      -0.31057
     8  H(1)               0.00293      13.08396       4.66868       4.36434

 Normal termination of Gaussian 16 at Wed Apr  9 00:56:13 2025.
