 Gaussian 16, Revision C.01,

 ----------------------------------------------------------------------
 #t hf aug-cc-pvdz symm=none int=(grid=ultrafine) guess=(read,tcheck) s
 table=(opt,rrhf)
 ----------------------------------------------------------------------
 -----
 title
 -----
 Symbolic Z-matrix:
 Charge = -1 Multiplicity = 1

 SCF Done:  E(RHF) =  -1024.35313574     A.U. after   13 cycles
 Normal termination of Gaussian 16 at Wed Apr  9 01:19:31 2025.
 Gaussian 16:  ES64L-G16RevC.01  3-Jul-2019

 ----------------------------------------------------------------------
 #t hf aug-cc-pvdz iop(5/13=1,5/36=2,99/5=2) pseudo=read geom=check gue
 ss=(read,tcheck) scf=(maxcycle=1)
 ----------------------------------------------------------------------
 -----
 title
 -----
 Structure from the checkpoint file:  "BH10_328_reverse_mol3.chk"
 Charge = -1 Multiplicity = 1

                         Standard orientation:
 ---------------------------------------------------------------------
 Center     Atomic      Atomic             Coordinates (Angstroms)
 Number     Number       Type             X           Y           Z
 ---------------------------------------------------------------------
      1          8           0        2.141791    0.612321   -0.939810
      2         15           0        1.964502   -0.577876   -0.017879
      3          8           0        2.831974   -1.773916   -0.018348
      4          8           0        1.883446    0.032779    1.508659
      5          8           0        0.399689   -1.097711   -0.254679
      6          6           0       -0.540532   -0.199192   -0.809021
      7          6           0       -1.047543    0.844494    0.217070
      8          8           0       -2.474284    0.759685    0.200882
      9          6           0       -2.821131   -0.583598   -0.133091
     10          6           0       -1.809483   -0.955648   -1.216062
     11          1           0       -2.161651   -0.603396   -2.187725
     12          1           0       -1.605309   -2.023939   -1.280649
     13          1           0       -0.082421    0.301408   -1.663913
     14          1           0        1.638276    0.967629    1.468782
     15          6           0       -0.642013    2.281241   -0.072337
     16          1           0       -0.669663    0.562203    1.204885
     17          8           0        0.718863    2.523614    0.201231
     18          1           0       -1.228830    2.943614    0.568537
     19          1           0       -0.890859    2.521103   -1.115936
     20          1           0        1.285690    1.939905   -0.372492
     21          6           0       -2.755434   -1.497042    1.083752
     22          1           0       -3.845338   -0.544162   -0.512618
     23          1           0       -3.122444   -2.494142    0.825537
     24          1           0       -3.371927   -1.096057    1.891313
     25          1           0       -1.728062   -1.601731    1.437113
 ---------------------------------------------------------------------

 SCF Done:  E(RHF) =  -1024.63743583     A.U. after    2 cycles

 The electronic state is 1-A.
 Alpha  occ. eigenvalues --  -81.24391 -20.46313 -20.43193 -20.43072 -20.42816
 Alpha  occ. eigenvalues --  -20.35572 -20.34082 -11.18810 -11.17053 -11.16656
 Alpha  occ. eigenvalues --  -11.16556 -11.12668 -11.12414  -7.72215  -4.86897
 Alpha  occ. eigenvalues --   -4.86809  -4.86776  -1.23917  -1.20076  -1.18406
 Alpha  occ. eigenvalues --   -1.16295  -1.08724  -1.06438  -0.94668  -0.91371
 Alpha  occ. eigenvalues --   -0.84960  -0.77103  -0.69311  -0.68461  -0.62909
 Alpha  occ. eigenvalues --   -0.60666  -0.57805  -0.57007  -0.53505  -0.52317
 Alpha  occ. eigenvalues --   -0.50495  -0.49012  -0.48538  -0.47939  -0.46003
 Alpha  occ. eigenvalues --   -0.44921  -0.43932  -0.43408  -0.41225  -0.40564
 Alpha  occ. eigenvalues --   -0.39773  -0.38818  -0.37048  -0.34639  -0.34309
 Alpha  occ. eigenvalues --   -0.33395  -0.32091  -0.31705  -0.31383  -0.29759
 Alpha  occ. eigenvalues --   -0.29158
 Alpha virt. eigenvalues --    0.10356   0.11808   0.12214   0.13020   0.13693
 Alpha virt. eigenvalues --    0.14294   0.15883   0.15960   0.16589   0.17455
 Alpha virt. eigenvalues --    0.18047   0.18756   0.19913   0.21059   0.21181

 Mulliken charges:
               1
     1  O   -1.125904
     2  P    2.397066
     3  O   -0.960465
     4  O   -0.722177
     5  O   -1.084655
     6  C    0.230718
     7  C    0.404318
     8  O   -0.852634
     9  C    0.315982
    10  C    0.567845
    11  H   -0.040516
    12  H   -0.132875
    13  H   -0.333709
    14  H    0.149948
    15  C    1.011932
    16  H   -0.314554
    17  O   -0.620993
    18  H   -0.150930
    19  H   -0.043111
    20  H    0.244903
    21  C    0.583012
    22  H   -0.367254
    23  H   -0.051039
    24  H   -0.058745
    25  H   -0.046162
 Sum of Mulliken charges =  -1.00000

 Dipole moment (field-independent basis, Debye):
    X=             -9.8345    Y=              1.3408    Z=             -0.5324  Tot=              9.9398

 Test job not archived.
 1\1\GINC-SE403\SP\RHF\Aug-CC-pVDZ\C6H12O6P1(1-)\OHZDE\09-Apr-2025\0\\#
 t hf aug-cc-pvdz iop(5/13=1,5/36=2,99/5=2) pseudo=read geom=check gues
 s=(read,tcheck) scf=(maxcycle=1)\\title\\-1,1\O,0,2.141791,0.612321,-0
 .93981\P,0,1.964502,-0.577876,-0.017879\O,0,2.831974,-1.773916,-0.0183
 48\O,0,1.883446,0.032779,1.508659\O,0,0.399689,-1.097711,-0.254679\C,0
 ,-0.540532,-0.199192,-0.809021\C,0,-1.047543,0.844494,0.21707\O,0,-2.4
 74284,0.759685,0.200882\C,0,-2.821131,-0.583598,-0.133091\C,0,-1.80948
 3,-0.955648,-1.216062\H,0,-2.161651,-0.603396,-2.187725\H,0,-1.605309,

 Normal termination of Gaussian 16 at Wed Apr  9 01:19:55 2025.
