 Gaussian 16, Revision C.01,

 ----------------------------------------------------------------------
 #t hf aug-cc-pvdz symm=none int=(grid=ultrafine) guess=(read,tcheck) s
 table=(opt,rrhf)
 ----------------------------------------------------------------------
 -----
 title
 -----
 Symbolic Z-matrix:
 Charge =  0 Multiplicity = 1

 SCF Done:  E(RHF) =  -678.898197236     A.U. after   15 cycles
 Normal termination of Gaussian 16 at Wed Apr  9 01:18:09 2025.
 Gaussian 16:  ES64L-G16RevC.01  3-Jul-2019

 ----------------------------------------------------------------------
 #t hf aug-cc-pvdz iop(5/13=1,5/36=2,99/5=2) pseudo=read geom=check gue
 ss=(read,tcheck) scf=(maxcycle=1)
 ----------------------------------------------------------------------
 -----
 title
 -----
 Structure from the checkpoint file:  "BH10_283_forward_mol1.chk"
 Charge =  0 Multiplicity = 1

                         Standard orientation:
 ---------------------------------------------------------------------
 Center     Atomic      Atomic             Coordinates (Angstroms)
 Number     Number       Type             X           Y           Z
 ---------------------------------------------------------------------
      1          6           0       -1.707965    1.004765   -0.597139
      2          6           0       -0.474269   -0.848354    0.778063
      3          6           0       -2.823491    1.043222    0.473101
      4          1           0       -2.627934    1.905613    1.120309
      5          1           0       -3.794528    1.231379    0.000182
      6          1           0        0.433158   -1.168462    1.298744
      7          1           0       -1.679116    2.000081   -1.055235
      8          1           0       -0.125825    1.408220    1.147304
      9          6           0       -1.596682   -0.793210    1.839018
     10          1           0       -1.774097   -1.797451    2.241610
     11          1           0       -1.232128   -0.185799    2.673962
     12          5           0       -0.381883    0.659239    0.223244
     13          6           0        1.057145    1.882515   -0.290856
     14          6           0        1.179758    0.699896   -0.916300
     15          1           0        0.751028    0.548693   -1.897593
     16          6           0        1.195420    3.125213    0.060183
     17          1           0        1.945050    3.722229   -0.447400
     18          1           0        0.592334    3.583596    0.829523
     19          6           0        2.227134   -0.281668   -0.532439
     20          8           0        2.547537   -1.211041   -1.224565
     21          8           0        2.775807   -0.006791    0.653603
     22          6           0        3.764154   -0.935167    1.110624
     23          1           0        4.597957   -0.977905    0.410561
     24          1           0        4.091007   -0.560616    2.076573
     25          1           0        3.328970   -1.929312    1.211008
     26          6           0       -0.752332   -1.851457   -0.357223
     27          1           0        0.156228   -1.961773   -0.954693
     28          1           0       -0.945877   -2.842348    0.070458
     29          6           0       -1.964719   -0.013633   -1.721388
     30          1           0       -1.222865    0.147896   -2.513141
     31          1           0       -2.933771    0.185211   -2.193940
     32          6           0       -2.936519   -0.214772    1.351705
     33          1           0       -3.488214   -0.984594    0.812803
     34          1           0       -3.552756    0.022274    2.224554
     35          6           0       -1.915383   -1.488688   -1.294775
     36          1           0       -1.847483   -2.112353   -2.191350
     37          1           0       -2.861986   -1.760090   -0.828205
 ---------------------------------------------------------------------

 SCF Done:  E(RHF) =  -679.104023937     A.U. after    2 cycles

 The electronic state is 1-A.
 Alpha  occ. eigenvalues --  -20.62537 -20.56770 -11.40791 -11.34459 -11.30271
 Alpha  occ. eigenvalues --  -11.28963 -11.28585 -11.21085 -11.21032 -11.20913
 Alpha  occ. eigenvalues --  -11.20786 -11.20607 -11.20307 -11.19338 -11.18849
 Alpha  occ. eigenvalues --   -7.56610  -1.43533  -1.33701  -1.14256  -1.08563
 Alpha  occ. eigenvalues --   -1.03611  -1.01633  -1.00238  -0.97454  -0.91017
 Alpha  occ. eigenvalues --   -0.89556  -0.83195  -0.78421  -0.77462  -0.76469
 Alpha  occ. eigenvalues --   -0.73999  -0.71734  -0.70566  -0.69929  -0.67948
 Alpha  occ. eigenvalues --   -0.66416  -0.64782  -0.62747  -0.60748  -0.58513
 Alpha  occ. eigenvalues --   -0.57975  -0.56914  -0.56286  -0.55772  -0.54762
 Alpha  occ. eigenvalues --   -0.54631  -0.52606  -0.50105  -0.49088  -0.48825
 Alpha  occ. eigenvalues --   -0.47558  -0.46085  -0.45794  -0.45492  -0.44410
 Alpha  occ. eigenvalues --   -0.43189  -0.41235  -0.38931  -0.38719  -0.36611
 Alpha virt. eigenvalues --    0.02433   0.03663   0.03860   0.04010   0.05080
 Alpha virt. eigenvalues --    0.05385   0.05623   0.05713   0.05978   0.07090
 Alpha virt. eigenvalues --    0.07181   0.07480   0.07648   0.07885   0.08203

 Mulliken charges:
               1
     1  C   -0.471527
     2  C   -0.608044
     3  C    0.540198
     4  H    0.029995
     5  H   -0.138811
     6  H   -0.202846
     7  H   -0.279228
     8  H   -0.500595
     9  C    0.707835
    10  H   -0.153749
    11  H   -0.062119
    12  B   -0.039371
    13  C   -1.096061
    14  C    0.680616
    15  H   -0.278511
    16  C    1.626871
    17  H   -0.296190
    18  H   -0.384129
    19  C    0.493287
    20  O   -0.515680
    21  O   -0.608832
    22  C    0.873568
    23  H   -0.094711
    24  H   -0.250664
    25  H   -0.082207
    26  C    0.831841
    27  H   -0.159117
    28  H   -0.164807
    29  C    0.931756
    30  H   -0.150967
    31  H   -0.161243
    32  C    0.350791
    33  H   -0.080157
    34  H   -0.153299
    35  C    0.162569
    36  H   -0.164799
    37  H   -0.131660
 Sum of Mulliken charges =  -0.00000

 Dipole moment (field-independent basis, Debye):
    X=              2.0970    Y=              3.3015    Z=              1.2091  Tot=              4.0938

 Test job not archived.
 1\1\GINC-SE343\SP\RHF\Aug-CC-pVDZ\C13H21B1O2\OHZDE\09-Apr-2025\0\\#t h
 f aug-cc-pvdz iop(5/13=1,5/36=2,99/5=2) pseudo=read geom=check guess=(
 read,tcheck) scf=(maxcycle=1)\\title\\0,1\C,0,-1.707965,1.004765,-0.59
 7139\C,0,-0.474269,-0.848354,0.778063\C,0,-2.823491,1.043222,0.473101\
 H,0,-2.627934,1.905613,1.120309\H,0,-3.794528,1.231379,0.000182\H,0,0.
 433158,-1.168462,1.298744\H,0,-1.679116,2.000081,-1.055235\H,0,-0.1258
 25,1.40822,1.147304\C,0,-1.596682,-0.79321,1.839018\H,0,-1.774097,-1.7
 97451,2.24161\H,0,-1.232128,-0.185799,2.673962\B,0,-0.381883,0.659239,

 Normal termination of Gaussian 16 at Wed Apr  9 01:19:14 2025.
