 Gaussian 16, Revision C.01,

 ----------------------------------------------------------------------
 #t hf aug-cc-pvdz symm=none int=(grid=ultrafine) guess=(read,tcheck) s
 table=(opt,rrhf)
 ----------------------------------------------------------------------
 -----
 title
 -----
 Symbolic Z-matrix:
 Charge =  0 Multiplicity = 1

 SCF Done:  E(RHF) =  -1444.42580368     A.U. after   17 cycles
 Normal termination of Gaussian 16 at Wed Apr  9 02:40:12 2025.
 Gaussian 16:  ES64L-G16RevC.01  3-Jul-2019

 ----------------------------------------------------------------------
 #t hf aug-cc-pvdz iop(5/13=1,5/36=2,99/5=2) pseudo=read geom=check gue
 ss=(read,tcheck) scf=(maxcycle=1)
 ----------------------------------------------------------------------
 -----
 title
 -----
 Structure from the checkpoint file:  "BH10_377_reverse_mol2.chk"
 Charge =  0 Multiplicity = 1

                         Standard orientation:
 ---------------------------------------------------------------------
 Center     Atomic      Atomic             Coordinates (Angstroms)
 Number     Number       Type             X           Y           Z
 ---------------------------------------------------------------------
      1          6           0       -4.400293   -2.615428   -0.047319
      2          6           0       -3.350074   -1.870261    0.466791
      3          6           0       -3.399088   -0.479336    0.445129
      4          6           0       -4.516132    0.150996   -0.091417
      5          6           0       -5.567582   -0.593944   -0.607373
      6          6           0       -5.510778   -1.979886   -0.587422
      7          1           0       -4.353449   -3.697356   -0.022093
      8          1           0       -2.492793   -2.374123    0.896919
      9          1           0       -4.565580    1.234406   -0.103893
     10          1           0       -6.433566   -0.090451   -1.019784
     11          1           0       -6.331133   -2.563954   -0.986283
     12          6           0       -2.236956    0.345591    0.935569
     13          6           0       -1.038469    0.347964   -0.047809
     14          6           0       -1.025559    2.338496   -1.431270
     15          6           0       -0.056972    2.438301    0.791214
     16          6           0       -0.104474    3.445859   -1.926374
     17          1           0       -1.983490    2.780908   -1.102693
     18          1           0       -1.253599    1.642968   -2.242001
     19          6           0        0.906606    3.538459    0.367066
     20          1           0       -0.961391    2.900465    1.223294
     21          1           0        0.393077    1.824233    1.571074
     22          6           0        0.318193    4.358543   -0.777801
     23          1           0       -0.610606    4.017255   -2.708563
     24          1           0        0.780490    2.986381   -2.376710
     25          1           0        1.129383    4.175670    1.226173
     26          1           0        1.846911    3.078057    0.048747
     27          1           0        1.036706    5.103994   -1.126261
     28          1           0       -0.556369    4.910253   -0.413136
     29          7           0       -0.390123    1.594487   -0.351624
     30          7           0       -0.149614   -0.542403    0.704740
     31          7           0       -0.561372   -0.687193    2.007479
     32          7           0       -1.685763   -0.213173    2.193479
     33          6           0        1.183622   -0.773412    0.368152
     34          6           0        1.486349   -1.331659   -0.869619
     35          6           0        2.252501   -0.439688    1.194905
     36          6           0        2.787874   -1.552792   -1.273557
     37          6           0        3.560151   -0.685165    0.815342
     38          6           0        3.832070   -1.237412   -0.422590
     39          9           0        0.494844   -1.661929   -1.699747
     40          9           0        3.039291   -2.084540   -2.466425
     41          9           0        5.087764   -1.460055   -0.794688
     42          9           0        4.561168   -0.359256    1.628025
     43          9           0        2.043142    0.158702    2.365359
     44          1           0       -2.579138    1.358970    1.145516
     45          1           0       -1.319175   -0.117357   -0.991246
 ---------------------------------------------------------------------

 SCF Done:  E(RHF) =  -1444.87570996     A.U. after    2 cycles

 The electronic state is 1-A.
 Alpha  occ. eigenvalues --  -26.17716 -26.17566 -26.17554 -26.17408 -26.17164
 Alpha  occ. eigenvalues --  -15.74834 -15.69674 -15.68445 -15.62968 -11.38573
 Alpha  occ. eigenvalues --  -11.38299 -11.38264 -11.38148 -11.38147 -11.34058
 Alpha  occ. eigenvalues --  -11.32857 -11.29278 -11.27387 -11.26880 -11.26315
 Alpha  occ. eigenvalues --  -11.25434 -11.25321 -11.25259 -11.25086 -11.25022
 Alpha  occ. eigenvalues --  -11.23839 -11.23743 -11.23665  -1.72659  -1.72118
 Alpha  occ. eigenvalues --   -1.71715  -1.71135  -1.70873  -1.40662  -1.25180
 Alpha  occ. eigenvalues --   -1.22985  -1.18612  -1.16245  -1.10043  -1.08823
 Alpha  occ. eigenvalues --   -1.07310  -1.05680  -1.02808  -1.02204  -0.99989
 Alpha  occ. eigenvalues --   -0.95996  -0.95585  -0.91453  -0.88136  -0.87593
 Alpha  occ. eigenvalues --   -0.86843  -0.86582  -0.85318  -0.84145  -0.82415
 Alpha  occ. eigenvalues --   -0.81797  -0.81350  -0.81225  -0.80838  -0.79710
 Alpha  occ. eigenvalues --   -0.79498  -0.78808  -0.77773  -0.77400  -0.76778
 Alpha  occ. eigenvalues --   -0.75867  -0.75494  -0.75036  -0.72534  -0.69875
 Alpha  occ. eigenvalues --   -0.68196  -0.67735  -0.66654  -0.65361  -0.64343
 Alpha  occ. eigenvalues --   -0.63567  -0.63271  -0.62504  -0.61541  -0.60743
 Alpha  occ. eigenvalues --   -0.60092  -0.58726  -0.57476  -0.57091  -0.55791
 Alpha  occ. eigenvalues --   -0.55229  -0.54499  -0.52246  -0.51530  -0.51121
 Alpha  occ. eigenvalues --   -0.50651  -0.50358  -0.48269  -0.46991  -0.46321
 Alpha  occ. eigenvalues --   -0.43545  -0.42123  -0.38733  -0.37491  -0.35408
 Alpha  occ. eigenvalues --   -0.34877  -0.33587
 Alpha virt. eigenvalues --    0.02456   0.02937   0.03404   0.04018   0.04529
 Alpha virt. eigenvalues --    0.04767   0.05583   0.06058   0.06315   0.06443
 Alpha virt. eigenvalues --    0.06708   0.07413   0.08190   0.08470   0.08659

 Mulliken charges:
               1
     1  C    0.020477
     2  C    0.600302
     3  C    0.652539
     4  C    0.897548
     5  C    0.139524
     6  C    0.917268
     7  H   -0.502519
     8  H   -0.603271
     9  H   -0.686059
    10  H   -0.476067
    11  H   -0.454480
    12  C    0.845121
    13  C    1.079733
    14  C    0.699267
    15  C    0.686085
    16  C    0.360307
    17  H   -0.054841
    18  H   -0.361655
    19  C    0.276310
    20  H   -0.093765
    21  H   -0.438913
    22  C    0.343704
    23  H   -0.098106
    24  H   -0.012094
    25  H   -0.106800
    26  H   -0.049456
    27  H   -0.123431
    28  H   -0.068056
    29  N   -0.955708
    30  N   -0.374444
    31  N   -0.547349
    32  N   -0.643085
    33  C   -0.570155
    34  C    0.201498
    35  C    0.316392
    36  C    0.273223
    37  C    0.429876
    38  C    0.819963
    39  F   -0.290433
    40  F   -0.242016
    41  F   -0.253443
    42  F   -0.262164
    43  F   -0.261187
    44  H   -0.401844
    45  H   -0.627794
 Sum of Mulliken charges =   0.00000

 Dipole moment (field-independent basis, Debye):
    X=             -2.8939    Y=              2.4144    Z=             -2.3989  Tot=              4.4675

 Test job not archived.
 1\1\GINC-SE044\SP\RHF\Aug-CC-pVDZ\C19H17F5N4\OHZDE\09-Apr-2025\0\\#t h
 f aug-cc-pvdz iop(5/13=1,5/36=2,99/5=2) pseudo=read geom=check guess=(
 read,tcheck) scf=(maxcycle=1)\\title\\0,1\C,0,-4.400293,-2.615428,-0.0
 47319\C,0,-3.350074,-1.870261,0.466791\C,0,-3.399088,-0.479336,0.44512
 9\C,0,-4.516132,0.150996,-0.091417\C,0,-5.567582,-0.593944,-0.607373\C
 ,0,-5.510778,-1.979886,-0.587422\H,0,-4.353449,-3.697356,-0.022093\H,0
 ,-2.492793,-2.374123,0.896919\H,0,-4.56558,1.234406,-0.103893\H,0,-6.4
 33566,-0.090451,-1.019784\H,0,-6.331133,-2.563954,-0.986283\C,0,-2.236

 Normal termination of Gaussian 16 at Wed Apr  9 02:43:01 2025.
