 Gaussian 16, Revision C.01,

 ----------------------------------------------------------------------
 #t hf aug-cc-pvdz symm=none int=(grid=ultrafine) guess=(read,tcheck) s
 table=(opt,rrhf)
 ----------------------------------------------------------------------
 -----
 title
 -----
 Symbolic Z-matrix:
 Charge =  0 Multiplicity = 1

 SCF Done:  E(RHF) =  -1437.74828837     A.U. after   14 cycles
 Normal termination of Gaussian 16 at Wed Apr  9 01:16:56 2025.
 Gaussian 16:  ES64L-G16RevC.01  3-Jul-2019

 ----------------------------------------------------------------------
 #t hf aug-cc-pvdz iop(5/13=1,5/36=2,99/5=2) pseudo=read geom=check gue
 ss=(read,tcheck) scf=(maxcycle=1)
 ----------------------------------------------------------------------
 -----
 title
 -----
 Structure from the checkpoint file:  "BH10_327_forward_mol2.chk"
 Charge =  0 Multiplicity = 1

                         Standard orientation:
 ---------------------------------------------------------------------
 Center     Atomic      Atomic             Coordinates (Angstroms)
 Number     Number       Type             X           Y           Z
 ---------------------------------------------------------------------
      1         16           0        1.154888    1.738283    0.711320
      2          6           0        2.382526    0.793642   -0.279008
      3          6           0        2.685554   -0.596752    0.312875
      4          1           0        3.305006    1.373942   -0.321064
      5          1           0        1.992381    0.689390   -1.290498
      6          7           0        3.640843   -1.354823   -0.476373
      7          6           0        1.400401   -1.393491    0.447147
      8          1           0        3.078602   -0.489096    1.324147
      9          8           0        0.862634   -1.647871    1.491786
     10          8           0        0.901671   -1.716965   -0.746775
     11         16           0       -0.265786    2.325069   -0.678486
     12          6           0       -1.216577    0.796066   -0.979577
     13          6           0       -1.780842    0.124177    0.269646
     14          1           0       -0.594051    0.091105   -1.524069
     15          1           0       -2.025567    1.115105   -1.643789
     16          7           0       -2.786294    0.948820    0.936128
     17          6           0       -2.413360   -1.202626   -0.165297
     18          1           0       -0.955473   -0.132473    0.937399
     19          8           0       -1.767477   -2.120344   -0.615182
     20          8           0       -3.723065   -1.250986   -0.034063
     21          1           0       -0.011006   -2.085744   -0.647085
     22          1           0       -3.971955   -0.380069    0.357409
     23          1           0        4.538022   -0.890215   -0.534646
     24          1           0        3.292845   -1.533014   -1.411078
     25          1           0       -2.687303    0.910381    1.943569
     26          1           0       -2.705268    1.922310    0.665238
 ---------------------------------------------------------------------

 SCF Done:  E(RHF) =  -1437.98560762     A.U. after    2 cycles

 The electronic state is 1-A.
 Alpha  occ. eigenvalues --  -93.57842 -93.57176 -20.62991 -20.61045 -20.57484
 Alpha  occ. eigenvalues --  -20.56064 -15.65488 -15.62822 -11.41144 -11.39461
 Alpha  occ. eigenvalues --  -11.31267 -11.30102 -11.30062 -11.29184  -8.87388
 Alpha  occ. eigenvalues --   -8.86765  -6.21533  -6.21286  -6.20974  -6.20932
 Alpha  occ. eigenvalues --   -6.20636  -6.20388  -1.44081  -1.42210  -1.34765
 Alpha  occ. eigenvalues --   -1.32341  -1.20795  -1.18701  -1.09374  -1.04935
 Alpha  occ. eigenvalues --   -0.99035  -0.94135  -0.89819  -0.84701  -0.82575
 Alpha  occ. eigenvalues --   -0.79561  -0.75438  -0.72813  -0.72405  -0.71108
 Alpha  occ. eigenvalues --   -0.69731  -0.67209  -0.66701  -0.65665  -0.64444
 Alpha  occ. eigenvalues --   -0.62777  -0.61344  -0.59925  -0.59171  -0.58803
 Alpha  occ. eigenvalues --   -0.56692  -0.54862  -0.54053  -0.51423  -0.51011
 Alpha  occ. eigenvalues --   -0.49841  -0.48557  -0.46704  -0.45285  -0.43721
 Alpha  occ. eigenvalues --   -0.42012  -0.37810  -0.36265
 Alpha virt. eigenvalues --    0.02759   0.03100   0.03771   0.04715   0.05173
 Alpha virt. eigenvalues --    0.05604   0.05881   0.07118   0.07757   0.08024
 Alpha virt. eigenvalues --    0.08729   0.09201   0.09452   0.10709   0.11239

 Mulliken charges:
               1
     1  S    0.083115
     2  C    0.265116
     3  C    0.539675
     4  H   -0.063534
     5  H   -0.096552
     6  N   -0.285644
     7  C    0.497401
     8  H   -0.172479
     9  O   -0.508194
    10  O   -0.605807
    11  S    0.177696
    12  C    0.413515
    13  C    0.572021
    14  H   -0.288312
    15  H   -0.012087
    16  N   -0.622076
    17  C    0.508456
    18  H   -0.199130
    19  O   -0.534460
    20  O   -0.469710
    21  H    0.282577
    22  H    0.287508
    23  H   -0.020040
    24  H    0.038606
    25  H    0.068701
    26  H    0.143636
 Sum of Mulliken charges =  -0.00000

 Dipole moment (field-independent basis, Debye):
    X=              0.7265    Y=              4.9170    Z=             -0.9934  Tot=              5.0686

 Test job not archived.
 1\1\GINC-SE396\SP\RHF\Aug-CC-pVDZ\C6H12N2O4S2\OHZDE\09-Apr-2025\0\\#t
 hf aug-cc-pvdz iop(5/13=1,5/36=2,99/5=2) pseudo=read geom=check guess=
 (read,tcheck) scf=(maxcycle=1)\\title\\0,1\S,0,1.154888,1.738283,0.711
 32\C,0,2.382526,0.793642,-0.279008\C,0,2.685554,-0.596752,0.312875\H,0
 ,3.305006,1.373942,-0.321064\H,0,1.992381,0.68939,-1.290498\N,0,3.6408
 43,-1.354823,-0.476373\C,0,1.400401,-1.393491,0.447147\H,0,3.078602,-0
 .489096,1.324147\O,0,0.862634,-1.647871,1.491786\O,0,0.901671,-1.71696
 5,-0.746775\S,0,-0.265786,2.325069,-0.678486\C,0,-1.216577,0.796066,-0

 Normal termination of Gaussian 16 at Wed Apr  9 01:17:23 2025.
