 Gaussian 16, Revision C.01,

 ----------------------------------------------------------------------
 #t hf aug-cc-pvdz symm=none int=(grid=ultrafine) guess=(read,tcheck) s
 table=(opt,rrhf)
 ----------------------------------------------------------------------
 -----
 title
 -----
 Symbolic Z-matrix:
 Charge =  0 Multiplicity = 1

 SCF Done:  E(RHF) =  -684.406718881     A.U. after   15 cycles
 Normal termination of Gaussian 16 at Wed Apr  9 01:21:06 2025.
 Gaussian 16:  ES64L-G16RevC.01  3-Jul-2019

 ----------------------------------------------------------------------
 #t hf aug-cc-pvdz iop(5/13=1,5/36=2,99/5=2) pseudo=read geom=check gue
 ss=(read,tcheck) scf=(maxcycle=1)
 ----------------------------------------------------------------------
 -----
 title
 -----
 Structure from the checkpoint file:  "BH10_350_forward_mol3.chk"
 Charge =  0 Multiplicity = 1

                         Standard orientation:
 ---------------------------------------------------------------------
 Center     Atomic      Atomic             Coordinates (Angstroms)
 Number     Number       Type             X           Y           Z
 ---------------------------------------------------------------------
      1          7           0       -1.123517   -0.412023    0.000022
      2          6           0       -0.262895    0.707033    0.000122
      3          6           0        1.031617    0.336368   -0.000023
      4         16           0        1.104293   -1.413856   -0.000275
      5          6           0       -0.595731   -1.641146   -0.000188
      6          6           0       -0.831158    2.087027    0.000351
      7          1           0       -1.450762    2.267264   -0.881516
      8          1           0       -0.032950    2.826747    0.000415
      9          1           0       -1.450669    2.267011    0.882333
     10          6           0        2.260868    1.182935    0.000009
     11          1           0        2.011685    2.244252    0.000200
     12          1           0        2.875462    0.985527   -0.881158
     13          1           0        2.875609    0.985245    0.881011
     14          6           0       -2.573308   -0.243641    0.000138
     15          1           0       -2.899617    0.297858    0.889502
     16          1           0       -3.009447   -1.237549    0.000062
     17          1           0       -2.899737    0.298045   -0.889069
 ---------------------------------------------------------------------

 SCF Done:  E(RHF) =  -684.516929933     A.U. after    2 cycles

 The electronic state is 1-A.
 Alpha  occ. eigenvalues --  -93.54495 -15.68497 -11.28858 -11.27817 -11.26821
 Alpha  occ. eigenvalues --  -11.26739 -11.25718 -11.25044  -8.84460  -6.18586
 Alpha  occ. eigenvalues --   -6.18413  -6.18096  -1.27720  -1.09862  -1.04514
 Alpha  occ. eigenvalues --   -0.99124  -0.92616  -0.90856  -0.78636  -0.71471
 Alpha  occ. eigenvalues --   -0.65883  -0.65031  -0.60688  -0.59424  -0.59217
 Alpha  occ. eigenvalues --   -0.58004  -0.55882  -0.54776  -0.52634  -0.51384
 Alpha  occ. eigenvalues --   -0.45603  -0.37889  -0.35661  -0.32512
 Alpha virt. eigenvalues --    0.02827   0.03644   0.04737   0.04879   0.06408
 Alpha virt. eigenvalues --    0.06424   0.07298   0.07592   0.08780   0.09390
 Alpha virt. eigenvalues --    0.10251   0.11379   0.12256   0.12688   0.13461

 Mulliken charges:
               1
     1  N   -0.522008
     2  C    0.156094
     3  C   -0.905539
     4  S    0.430640
     5  C   -0.653294
     6  C    0.403154
     7  H    0.145329
     8  H   -0.130672
     9  H    0.145320
    10  C    0.419927
    11  H   -0.072395
    12  H    0.089535
    13  H    0.089527
    14  C    0.846636
    15  H   -0.079733
    16  H   -0.282794
    17  H   -0.079726
 Sum of Mulliken charges =  -0.00000

 Dipole moment (field-independent basis, Debye):
    X=             -0.7481    Y=              4.5565    Z=              0.0007  Tot=              4.6175

 Test job not archived.
 1\1\GINC-SE365\SP\RHF\Aug-CC-pVDZ\C6H9N1S1\OHZDE\09-Apr-2025\0\\#t hf
 aug-cc-pvdz iop(5/13=1,5/36=2,99/5=2) pseudo=read geom=check guess=(re
 ad,tcheck) scf=(maxcycle=1)\\title\\0,1\N,0,1.123517,-0.412023,-0.0000
 22\C,0,0.262895,0.707033,-0.000122\C,0,-1.031617,0.336368,0.000023\S,0
 ,-1.104293,-1.413856,0.000275\C,0,0.595731,-1.641146,0.000188\C,0,0.83
 1159,2.087027,-0.000351\H,0,1.450763,2.267264,0.881516\H,0,0.032951,2.
 826747,-0.000415\H,0,1.45067,2.267011,-0.882333\C,0,-2.260867,1.182936
 ,-0.000009\H,0,-2.011684,2.244253,-0.0002\H,0,-2.875461,0.985528,0.881

 Normal termination of Gaussian 16 at Wed Apr  9 01:21:13 2025.
