 Gaussian 16, Revision C.01,

 ----------------------------------------------------------------------
 #t hf aug-cc-pvdz symm=none int=(grid=ultrafine) guess=(read,tcheck) s
 table=opt
 ----------------------------------------------------------------------
 -----
 title
 -----
 Symbolic Z-matrix:
 Charge =  0 Multiplicity = 2

 SCF Done:  E(UHF) =  -709.194759039     A.U. after   19 cycles

 1\1\GINC-SE419\Stability\UHF\Aug-CC-pVDZ\C8H15S1\OHZDE\09-Apr-2025\0\\
 #t hf aug-cc-pvdz symm=none int=(grid=ultrafine) guess=(read,tcheck) s
 table=opt\\title\\0,2\C,0,0.041261,-0.194698,0.578741\C,0,-0.133108,1.
 272496,0.978692\C,0,-1.059886,1.884148,-0.080339\H,0,0.811322,1.806531
 ,1.089211\H,0,-0.618008,1.288399,1.96079\C,0,-1.896109,0.704195,-0.625
 885\H,0,-0.473406,2.331289,-0.88364\H,0,-1.681344,2.674406,0.343293\C,
 0,-1.407952,-0.553383,0.118568\H,0,-1.735045,0.584453,-1.69835\H,0,-2.
 967509,0.846401,-0.476927\C,0,-1.564762,-1.822846,-0.629641\S,0,1.1202

 Normal termination of Gaussian 16 at Wed Apr  9 00:56:50 2025.
 Gaussian 16:  ES64L-G16RevC.01  3-Jul-2019

 ----------------------------------------------------------------------
 #t hf aug-cc-pvdz iop(5/13=1,5/36=2,99/5=2) pseudo=read geom=check gue
 ss=(read,tcheck) scf=(maxcycle=1)
 ----------------------------------------------------------------------
 -----
 title
 -----
 Structure from the checkpoint file:  "BH10-RE_27_mol1.chk"
 Charge =  0 Multiplicity = 2

                         Standard orientation:
 ---------------------------------------------------------------------
 Center     Atomic      Atomic             Coordinates (Angstroms)
 Number     Number       Type             X           Y           Z
 ---------------------------------------------------------------------
      1          6           0        0.041261   -0.194698    0.578741
      2          6           0       -0.133108    1.272496    0.978692
      3          6           0       -1.059886    1.884148   -0.080339
      4          1           0        0.811322    1.806531    1.089211
      5          1           0       -0.618008    1.288399    1.960790
      6          6           0       -1.896109    0.704195   -0.625885
      7          1           0       -0.473405    2.331289   -0.883640
      8          1           0       -1.681343    2.674406    0.343293
      9          6           0       -1.407952   -0.553383    0.118568
     10          1           0       -1.735045    0.584453   -1.698350
     11          1           0       -2.967509    0.846402   -0.476927
     12          6           0       -1.564762   -1.822846   -0.629641
     13         16           0        1.120252   -0.381627   -0.912289
     14          6           0        0.534313   -1.081715    1.710406
     15          1           0        1.533227   -0.791628    2.041902
     16          1           0        0.573600   -2.126102    1.398825
     17          1           0       -0.135387   -0.998631    2.571822
     18          6           0        2.644614    0.445526   -0.391838
     19          1           0        2.511795    1.521218   -0.282377
     20          1           0        3.370162    0.267608   -1.185001
     21          1           0        3.038919    0.023928    0.532336
     22          1           0       -1.553914   -2.776240   -0.117458
     23          1           0       -1.584217   -1.829007   -1.711858
     24          1           0       -1.964458   -0.638937    1.061827
 ---------------------------------------------------------------------

 SCF Done:  E(UHF) =  -709.308493899     A.U. after    2 cycles

 The electronic state is 2-A.
 Alpha  occ. eigenvalues --  -93.51342 -11.27105 -11.25632 -11.23805 -11.23514
 Alpha  occ. eigenvalues --  -11.22933 -11.22672 -11.22317 -11.22247  -8.81108
 Alpha  occ. eigenvalues --   -6.15298  -6.15073  -6.14777  -1.14116  -1.03174
 Alpha  occ. eigenvalues --   -1.01233  -0.98851  -0.91126  -0.87903  -0.84293
 Alpha  occ. eigenvalues --   -0.77496  -0.71084  -0.65181  -0.63803  -0.60944
 Alpha  occ. eigenvalues --   -0.60476  -0.59027  -0.58349  -0.56066  -0.54741
 Alpha  occ. eigenvalues --   -0.52747  -0.50196  -0.48340  -0.47618  -0.47424
 Alpha  occ. eigenvalues --   -0.45814  -0.45347  -0.40613  -0.34861  -0.32693
 Alpha virt. eigenvalues --    0.03476   0.04132   0.04412   0.04626   0.05990
 Alpha virt. eigenvalues --    0.06187   0.06317   0.06516   0.06713   0.08358
 Alpha virt. eigenvalues --    0.08563   0.08721   0.09026   0.09327   0.10217

  Beta  occ. eigenvalues --  -93.51341 -11.26820 -11.25630 -11.24159 -11.22944
  Beta  occ. eigenvalues --  -11.22688 -11.22316 -11.22198 -11.21079  -8.81104
  Beta  occ. eigenvalues --   -6.15305  -6.15075  -6.14767  -1.13597  -1.02950
  Beta  occ. eigenvalues --   -0.99194  -0.98393  -0.90201  -0.85653  -0.82354
  Beta  occ. eigenvalues --   -0.76718  -0.70377  -0.64848  -0.63514  -0.60385
  Beta  occ. eigenvalues --   -0.60127  -0.58531  -0.58012  -0.55957  -0.54223
  Beta  occ. eigenvalues --   -0.52400  -0.49274  -0.48204  -0.47382  -0.47069
  Beta  occ. eigenvalues --   -0.45384  -0.44146  -0.40351  -0.32971
  Beta virt. eigenvalues --    0.03478   0.04140   0.04446   0.04624   0.06006
  Beta virt. eigenvalues --    0.06110   0.06268   0.06504   0.06663   0.08363
  Beta virt. eigenvalues --    0.08463   0.08680   0.09032   0.09214   0.10092

 Mulliken charges and spin densities:
               1          2
     1  C   -2.073320   0.050105
     2  C    0.860564   0.005192
     3  C    0.356117  -0.006493
     4  H   -0.225225   0.000835
     5  H   -0.097818   0.000330
     6  C    0.547138   0.030169
     7  H   -0.115861  -0.000415
     8  H   -0.106753  -0.000297
     9  C    0.230486  -0.269827
    10  H   -0.174859  -0.005083
    11  H   -0.124593   0.000235
    12  C    1.010648   1.412827
    13  S    0.223316   0.001455
    14  C    0.996386  -0.013067
    15  H   -0.131402   0.000673
    16  H   -0.015219   0.002453
    17  H   -0.010557   0.001398
    18  C    0.146041  -0.000177
    19  H   -0.123753   0.000549
    20  H   -0.146648   0.000198
    21  H   -0.137174  -0.000383
    22  H   -0.362287  -0.112890
    23  H   -0.355360  -0.115796
    24  H   -0.169868   0.018007
 Sum of Mulliken charges =   0.00000   1.00000

 Dipole moment (field-independent basis, Debye):
    X=              0.2288    Y=              0.8610    Z=              1.5013  Tot=              1.7458
                          Isotropic Fermi Contact Couplings
        Atom                 a.u.       MegaHertz       Gauss      10(-4) cm-1
     1  C(13)              0.05843      65.68633      23.43852      21.91060
     2  C(13)             -0.00337      -3.79200      -1.35308      -1.26488
     3  C(13)             -0.00168      -1.88306      -0.67192      -0.62812
     4  H(1)               0.00074       3.30886       1.18069       1.10372
     5  H(1)               0.00001       0.03384       0.01208       0.01129
     6  C(13)              0.00968      10.88285       3.88327       3.63013
     7  H(1)               0.00004       0.16548       0.05905       0.05520
     8  H(1)              -0.00001      -0.04282      -0.01528      -0.01428

 Normal termination of Gaussian 16 at Wed Apr  9 00:57:08 2025.
