 Gaussian 16, Revision C.01,

 ----------------------------------------------------------------------
 #t hf aug-cc-pvdz symm=none int=(grid=ultrafine) guess=(read,tcheck) s
 table=opt
 ----------------------------------------------------------------------
 -----
 title
 -----
 Symbolic Z-matrix:
 Charge =  0 Multiplicity = 2

 SCF Done:  E(UHF) =  -950.846243230     A.U. after   20 cycles
 Normal termination of Gaussian 16 at Wed Apr  9 01:05:36 2025.
 Gaussian 16:  ES64L-G16RevC.01  3-Jul-2019

 ----------------------------------------------------------------------
 #t hf aug-cc-pvdz iop(5/13=1,5/36=2,99/5=2) pseudo=read geom=check gue
 ss=(read,tcheck) scf=(maxcycle=1)
 ----------------------------------------------------------------------
 -----
 title
 -----
 Structure from the checkpoint file:  "BH10_181_forward_mol1.chk"
 Charge =  0 Multiplicity = 2

                         Standard orientation:
 ---------------------------------------------------------------------
 Center     Atomic      Atomic             Coordinates (Angstroms)
 Number     Number       Type             X           Y           Z
 ---------------------------------------------------------------------
      1          7           0        0.567390    0.009357   -0.737660
      2         16           0       -0.479765   -1.163387   -0.226520
      3          8           0       -1.309237   -0.507705    1.011069
      4          6           0       -2.427565    0.354059    0.718037
      5          6           0       -1.987132    1.761949    0.345566
      6          1           0       -2.999688    0.361120    1.643842
      7          1           0       -3.027116   -0.102199   -0.071218
      8          6           0       -1.244142    1.851003   -0.961906
      9          1           0       -1.388072    2.178426    1.159207
     10          1           0       -2.894998    2.375590    0.283698
     11          1           0       -0.248847    1.027614   -0.940594
     12          1           0       -1.786350    1.466346   -1.825049
     13          6           0        1.755950    0.406256    0.063306
     14          6           0        2.841057   -0.647430   -0.199557
     15          6           0        1.505955    0.553117    1.565073
     16          6           0        2.208932    1.743603   -0.524783
     17          1           0        2.327497    1.667954   -1.606643
     18          1           0        3.167863    2.027792   -0.089217
     19          1           0        1.492671    2.537383   -0.305321
     20          1           0        2.553265   -1.616002    0.204074
     21          1           0        3.771158   -0.327921    0.275800
     22          1           0        3.013030   -0.752618   -1.271462
     23          1           0        1.197654   -0.389222    2.016031
     24          1           0        0.737336    1.299394    1.769507
     25          1           0        2.429498    0.877106    2.048965
     26          8           0        0.258500   -2.247388    0.365249
     27          8           0       -1.422500   -1.373492   -1.298523
     28          1           0       -0.772825    2.811264   -1.160440
 ---------------------------------------------------------------------

 SCF Done:  E(UHF) =  -951.102946963     A.U. after    2 cycles

 The electronic state is 2-A.
 Alpha  occ. eigenvalues --  -93.83699 -20.62593 -20.56925 -20.56568 -15.68288
 Alpha  occ. eigenvalues --  -11.31762 -11.29956 -11.27560 -11.26444 -11.23978
 Alpha  occ. eigenvalues --  -11.23114 -11.22585  -9.09458  -6.44143  -6.44060
 Alpha  occ. eigenvalues --   -6.43940  -1.47032  -1.34904  -1.32193  -1.22420
 Alpha  occ. eigenvalues --   -1.09199  -1.06994  -0.97447  -0.95005  -0.94157
 Alpha  occ. eigenvalues --   -0.88365  -0.83031  -0.78214  -0.74826  -0.71084
 Alpha  occ. eigenvalues --   -0.70341  -0.67717  -0.66275  -0.64824  -0.63395
 Alpha  occ. eigenvalues --   -0.62112  -0.60672  -0.58251  -0.57585  -0.57222
 Alpha  occ. eigenvalues --   -0.56708  -0.54773  -0.53737  -0.53525  -0.52748
 Alpha  occ. eigenvalues --   -0.52133  -0.50736  -0.50329  -0.49848  -0.49289
 Alpha  occ. eigenvalues --   -0.48186  -0.43997  -0.39878
 Alpha virt. eigenvalues --    0.02521   0.03490   0.03921   0.04582   0.05495
 Alpha virt. eigenvalues --    0.05707   0.05916   0.06828   0.07036   0.07880
 Alpha virt. eigenvalues --    0.08176   0.08406   0.08967   0.09475   0.09959

  Beta  occ. eigenvalues --  -93.83739 -20.62616 -20.56757 -20.56598 -15.65880
  Beta  occ. eigenvalues --  -11.31730 -11.30084 -11.26582 -11.25887 -11.23946
  Beta  occ. eigenvalues --  -11.23108 -11.22470  -9.09512  -6.44180  -6.44087
  Beta  occ. eigenvalues --   -6.44055  -1.46803  -1.34831  -1.32035  -1.17990
  Beta  occ. eigenvalues --   -1.07688  -1.05398  -0.95195  -0.94890  -0.93552
  Beta  occ. eigenvalues --   -0.86459  -0.82121  -0.77963  -0.72908  -0.70153
  Beta  occ. eigenvalues --   -0.68907  -0.65861  -0.64996  -0.64190  -0.62760
  Beta  occ. eigenvalues --   -0.61691  -0.59806  -0.57409  -0.57097  -0.56526
  Beta  occ. eigenvalues --   -0.55655  -0.53908  -0.53330  -0.52245  -0.51756
  Beta  occ. eigenvalues --   -0.51137  -0.50544  -0.49901  -0.49345  -0.48832
  Beta  occ. eigenvalues --   -0.46649  -0.41030
  Beta virt. eigenvalues --    0.02443   0.03164   0.03498   0.04243   0.04881
  Beta virt. eigenvalues --    0.05528   0.05855   0.05936   0.06854   0.07041
  Beta virt. eigenvalues --    0.07932   0.08182   0.08417   0.09016   0.09490

 Mulliken charges and spin densities:
               1          2
     1  N   -0.941552   0.834888
     2  S    2.864507  -0.049940
     3  O   -0.954256  -0.006578
     4  C    0.875612   0.008894
     5  C    0.078261  -0.095446
     6  H   -0.278893  -0.000519
     7  H   -0.080960  -0.002225
     8  C    0.446783   0.835444
     9  H   -0.133324   0.002425
    10  H   -0.051780   0.021927
    11  H   -0.131564  -0.401602
    12  H    0.029529  -0.046004
    13  C   -3.308004  -0.131673
    14  C    1.179552   0.047838
    15  C    1.173387   0.012782
    16  C    1.367001   0.012799
    17  H    0.038590   0.000142
    18  H   -0.027402  -0.001751
    19  H   -0.070869  -0.004591
    20  H    0.012941   0.001063
    21  H    0.040802   0.004746
    22  H   -0.020713  -0.000352
    23  H   -0.033933  -0.000644
    24  H   -0.074999  -0.001968
    25  H    0.051287  -0.001185
    26  O   -0.996779   0.020517
    27  O   -1.009536  -0.006511
    28  H   -0.043687  -0.052475
 Sum of Mulliken charges =  -0.00000   1.00000

 Dipole moment (field-independent basis, Debye):
    X=             -0.1572    Y=              6.0898    Z=              1.1154  Tot=              6.1931
                          Isotropic Fermi Contact Couplings
        Atom                 a.u.       MegaHertz       Gauss      10(-4) cm-1
     1  N(14)              0.33165     107.15736      38.23641      35.74385
     2  S(33)             -0.06514     -22.37466      -7.98384      -7.46338
     3  O(17)             -0.00558       3.38146       1.20659       1.12794
     4  C(13)              0.00741       8.32895       2.97198       2.77824
     5  C(13)             -0.02710     -30.46225     -10.86969     -10.16111
     6  H(1)              -0.00060      -2.67807      -0.95560      -0.89331
     7  H(1)              -0.00032      -1.42695      -0.50917      -0.47598
     8  C(13)              0.20906     235.02471      83.86266      78.39581

 1\1\GINC-SE129\SP\UHF\Aug-CC-pVDZ\C7H16N1O3S1(2)\OHZDE\09-Apr-2025\0\\
 #t hf aug-cc-pvdz iop(5/13=1,5/36=2,99/5=2) pseudo=read geom=check gue
 ss=(read,tcheck) scf=(maxcycle=1)\\title\\0,2\N,0,0.56739,0.009357,-0.
 73766\S,0,-0.479765,-1.163387,-0.22652\O,0,-1.309237,-0.507705,1.01106
 9\C,0,-2.427565,0.354059,0.718037\C,0,-1.987132,1.761949,0.345566\H,0,
 -2.999688,0.36112,1.643842\H,0,-3.027116,-0.102199,-0.071218\C,0,-1.24
 4142,1.851003,-0.961906\H,0,-1.388072,2.178426,1.159207\H,0,-2.894998,
 2.37559,0.283698\H,0,-0.248847,1.027614,-0.940594\H,0,-1.78635,1.46634

 Normal termination of Gaussian 16 at Wed Apr  9 01:06:08 2025.
