 Gaussian 16, Revision C.01,

 ----------------------------------------------------------------------
 #t hf aug-cc-pvdz symm=none int=(grid=ultrafine) guess=(read,tcheck) s
 table=(opt,rrhf)
 ----------------------------------------------------------------------
 -----
 title
 -----
 Symbolic Z-matrix:
 Charge =  0 Multiplicity = 1

 SCF Done:  E(RHF) =  -912.169988378     A.U. after   13 cycles
 Normal termination of Gaussian 16 at Wed Apr  9 01:07:45 2025.
 Gaussian 16:  ES64L-G16RevC.01  3-Jul-2019

 ----------------------------------------------------------------------
 #t hf aug-cc-pvdz iop(5/13=1,5/36=2,99/5=2) pseudo=read geom=check gue
 ss=(read,tcheck) scf=(maxcycle=1)
 ----------------------------------------------------------------------
 -----
 title
 -----
 Structure from the checkpoint file:  "BH10_321_forward_mol2.chk"
 Charge =  0 Multiplicity = 1

                         Standard orientation:
 ---------------------------------------------------------------------
 Center     Atomic      Atomic             Coordinates (Angstroms)
 Number     Number       Type             X           Y           Z
 ---------------------------------------------------------------------
      1          6           0        0.017002   -1.340961    0.113846
      2         16           0        1.489084   -0.305596   -0.150637
      3         16           0       -1.504008   -0.318403    0.028260
      4          6           0        0.688534    1.238736    0.372295
      5          6           0       -0.679396    1.279110   -0.280191
      6          1           0        1.320195    2.060715    0.033047
      7          1           0        0.608918    1.276970    1.459111
      8          1           0       -0.591310    1.453121   -1.351840
      9          1           0       -1.309075    2.054062    0.158923
     10          1           0        0.050857   -1.822555    1.088718
     11          1           0        0.002359   -2.099646   -0.665627
 ---------------------------------------------------------------------

 SCF Done:  E(RHF) =  -912.247104841     A.U. after    2 cycles

 The electronic state is 1-A.
 Alpha  occ. eigenvalues --  -93.53755 -93.53414 -11.29724 -11.28163 -11.27961
 Alpha  occ. eigenvalues --   -8.83532  -8.83188  -6.17658  -6.17487  -6.17317
 Alpha  occ. eigenvalues --   -6.17132  -6.17114  -6.16765  -1.12151  -0.99989
 Alpha  occ. eigenvalues --   -0.96916  -0.80077  -0.79326  -0.65844  -0.62576
 Alpha  occ. eigenvalues --   -0.61305  -0.55570  -0.51403  -0.50096  -0.47319
 Alpha  occ. eigenvalues --   -0.41953  -0.35282  -0.34171
 Alpha virt. eigenvalues --    0.03564   0.04671   0.04965   0.05546   0.06815
 Alpha virt. eigenvalues --    0.07116   0.08637   0.08709   0.12251   0.13253
 Alpha virt. eigenvalues --    0.13698   0.14887   0.14926   0.15124   0.15608

 Mulliken charges:
               1
     1  C   -0.405144
     2  S    0.448897
     3  S    0.451746
     4  C   -0.114756
     5  C   -0.129527
     6  H   -0.038550
     7  H   -0.080797
     8  H   -0.057915
     9  H   -0.018069
    10  H   -0.041040
    11  H   -0.014845
 Sum of Mulliken charges =   0.00000

 Dipole moment (field-independent basis, Debye):
    X=              0.1566    Y=              1.1717    Z=              0.3572  Tot=              1.2349

 Test job not archived.
 1\1\GINC-SE149\SP\RHF\Aug-CC-pVDZ\C3H6S2\OHZDE\09-Apr-2025\0\\#t hf au
 g-cc-pvdz iop(5/13=1,5/36=2,99/5=2) pseudo=read geom=check guess=(read
 ,tcheck) scf=(maxcycle=1)\\title\\0,1\C,0,0.017002,-1.340961,0.113846\
 S,0,1.489084,-0.305596,-0.150637\S,0,-1.504008,-0.318402,0.02826\C,0,0
 .688534,1.238736,0.372295\C,0,-0.679396,1.27911,-0.280191\H,0,1.320196
 ,2.060715,0.033047\H,0,0.608918,1.27697,1.459111\H,0,-0.59131,1.453121
 ,-1.35184\H,0,-1.309074,2.054063,0.158923\H,0,0.050857,-1.822555,1.088
 718\H,0,0.002358,-2.099646,-0.665627\\Version=ES64L-G16RevC.01\State=1

 Normal termination of Gaussian 16 at Wed Apr  9 01:07:49 2025.
