 Gaussian 16, Revision C.01,

 ----------------------------------------------------------------------
 #t hf aug-cc-pvdz symm=none int=(grid=ultrafine) guess=(read,tcheck) s
 table=(opt,rrhf)
 ----------------------------------------------------------------------
 -----
 title
 -----
 Symbolic Z-matrix:
 Charge = -1 Multiplicity = 1

 SCF Done:  E(RHF) =  -1619.45428218     A.U. after   15 cycles
 Normal termination of Gaussian 16 at Wed Apr  9 01:48:40 2025.
 Gaussian 16:  ES64L-G16RevC.01  3-Jul-2019

 ----------------------------------------------------------------------
 #t hf aug-cc-pvdz iop(5/13=1,5/36=2,99/5=2) pseudo=read geom=check gue
 ss=(read,tcheck) scf=(maxcycle=1)
 ----------------------------------------------------------------------
 -----
 title
 -----
 Structure from the checkpoint file:  "BH10_326_forward_mol1.chk"
 Charge = -1 Multiplicity = 1

                         Standard orientation:
 ---------------------------------------------------------------------
 Center     Atomic      Atomic             Coordinates (Angstroms)
 Number     Number       Type             X           Y           Z
 ---------------------------------------------------------------------
      1          7           0       -3.362127   -1.690786    1.455408
      2          6           0       -2.219146   -1.173149    1.886744
      3          7           0       -1.649336   -0.201174    1.122562
      4          6           0       -2.515961   -0.088520    0.086329
      5          6           0       -3.564054   -0.999668    0.290448
      6          6           0       -4.565027   -1.049066   -0.668263
      7          7           0       -2.466252    0.717948   -0.995735
      8          6           0       -3.481847    0.572368   -1.832222
      9          7           0       -4.522851   -0.263572   -1.729576
     10          6           0        0.763493   -0.334856    0.591134
     11          6           0        1.224458    0.535101    1.735791
     12          8           0        0.747555    0.254781   -0.526972
     13          1           0        0.462831   -1.365051    0.637997
     14          6           0        1.248611    1.948932    1.081424
     15          6           0        1.314399    1.627731   -0.413814
     16          6           0        0.558933    2.509836   -1.380040
     17          1           0        2.351468    1.493478   -0.736958
     18          8           0        2.769334   -1.426034    0.428693
     19         15           0        3.884546   -1.076932   -0.512864
     20          8           0        3.966966    0.291910   -1.126765
     21          8           0        5.266897   -1.430261    0.277144
     22          8           0        3.936865   -2.164259   -1.744958
     23          8           0       -0.767263    2.786945   -0.993686
     24          1           0        0.598365    2.044199   -2.370824
     25          1           0        1.090762    3.462936   -1.441904
     26          1           0       -1.354212    1.978383   -1.081018
     27          8           0        0.144128    2.712326    1.491977
     28          1           0        2.159508    2.473132    1.377623
     29          1           0       -0.445837    2.848272    0.726100
     30          8           0        0.463673    0.434299    2.888936
     31          1           0        2.235126    0.198430    1.961187
     32          1           0       -0.427511    0.723706    2.635538
     33          1           0       -1.744592   -1.502029    2.802473
     34          1           0       -3.475618    1.210488   -2.710231
     35          1           0        6.022331   -1.082885   -0.205330
     36          1           0        3.777257   -1.693939   -2.567595
     37          8           0       -5.606443   -1.894429   -0.549331
     38          1           0       -5.470953   -2.386554    0.271809
 ---------------------------------------------------------------------

 SCF Done:  E(RHF) =  -1619.91216268     A.U. after    2 cycles

 The electronic state is 1-A.
 Alpha  occ. eigenvalues --  -81.29157 -20.56640 -20.52187 -20.48257 -20.47932
 Alpha  occ. eigenvalues --  -20.47566 -20.47081 -20.46860 -20.39602 -20.39289
 Alpha  occ. eigenvalues --  -15.52977 -15.52059 -15.50355 -15.50201 -11.30893
 Alpha  occ. eigenvalues --  -11.26114 -11.22523 -11.21894 -11.21699 -11.21457
 Alpha  occ. eigenvalues --  -11.21139 -11.19927 -11.19528 -11.14664  -7.77003
 Alpha  occ. eigenvalues --   -4.91676  -4.91622  -4.91562  -1.36501  -1.29773
 Alpha  occ. eigenvalues --   -1.25483  -1.24042  -1.23684  -1.21354  -1.20518
 Alpha  occ. eigenvalues --   -1.19960  -1.15025  -1.13540  -1.10943  -1.05863
 Alpha  occ. eigenvalues --   -0.99283  -0.97774  -0.94411  -0.91690  -0.83494
 Alpha  occ. eigenvalues --   -0.79174  -0.76446  -0.75910  -0.73272  -0.70809
 Alpha  occ. eigenvalues --   -0.69404  -0.67676  -0.66205  -0.64166  -0.62949
 Alpha  occ. eigenvalues --   -0.62450  -0.61941  -0.61183  -0.57766  -0.56568
 Alpha  occ. eigenvalues --   -0.56121  -0.55446  -0.54365  -0.53837  -0.53006
 Alpha  occ. eigenvalues --   -0.52781  -0.52200  -0.52129  -0.50893  -0.50657
 Alpha  occ. eigenvalues --   -0.50175  -0.48011  -0.47529  -0.46923  -0.45399
 Alpha  occ. eigenvalues --   -0.45222  -0.44804  -0.42909  -0.42300  -0.41513
 Alpha  occ. eigenvalues --   -0.41013  -0.40784  -0.39426  -0.38503  -0.36644
 Alpha  occ. eigenvalues --   -0.36490  -0.35175  -0.34551  -0.34529  -0.33187
 Alpha  occ. eigenvalues --   -0.32512  -0.32194  -0.30611  -0.24208  -0.20448
 Alpha virt. eigenvalues --    0.10504   0.11266   0.11408   0.11779   0.12371
 Alpha virt. eigenvalues --    0.12866   0.13085   0.13867   0.14559   0.15047
 Alpha virt. eigenvalues --    0.15427   0.16226   0.16591   0.17429   0.17655

 Mulliken charges:
               1
     1  N   -0.977893
     2  C    0.621094
     3  N   -0.230201
     4  C    0.131050
     5  C    0.681505
     6  C    0.590013
     7  N   -0.382628
     8  C    0.471473
     9  N   -0.544385
    10  C    1.445621
    11  C    0.656885
    12  O   -0.625215
    13  H   -0.540911
    14  C    0.649244
    15  C   -0.086907
    16  C    1.169927
    17  H   -0.333764
    18  O   -1.196678
    19  P    2.614227
    20  O   -1.130284
    21  O   -0.683388
    22  O   -0.747257
    23  O   -0.673351
    24  H   -0.044837
    25  H   -0.127319
    26  H    0.370533
    27  O   -0.632619
    28  H   -0.148138
    29  H    0.318692
    30  O   -0.599697
    31  H   -0.146122
    32  H    0.216073
    33  H   -0.462965
    34  H   -0.480723
    35  H    0.100057
    36  H    0.143131
    37  O   -0.532692
    38  H    0.148448
 Sum of Mulliken charges =  -1.00000

 Dipole moment (field-independent basis, Debye):
    X=              1.9346    Y=              2.7772    Z=             -1.9061  Tot=              3.8845

 Test job not archived.
 1\1\GINC-SE363\SP\RHF\Aug-CC-pVDZ\C10H14N4O9P1(1-)\OHZDE\09-Apr-2025\0
 \\#t hf aug-cc-pvdz iop(5/13=1,5/36=2,99/5=2) pseudo=read geom=check g
 uess=(read,tcheck) scf=(maxcycle=1)\\title\\-1,1\N,0,-3.362127,-1.6907
 86,1.455408\C,0,-2.219146,-1.173149,1.886744\N,0,-1.649336,-0.201174,1
 .122562\C,0,-2.515961,-0.08852,0.086329\C,0,-3.564054,-0.999668,0.2904
 48\C,0,-4.565027,-1.049066,-0.668263\N,0,-2.466252,0.717948,-0.995735\
 C,0,-3.481847,0.572368,-1.832222\N,0,-4.522851,-0.263572,-1.729576\C,0
 ,0.763493,-0.334856,0.591134\C,0,1.224458,0.535101,1.735791\O,0,0.7475

 Normal termination of Gaussian 16 at Wed Apr  9 01:50:17 2025.
