 Gaussian 16, Revision C.01,

 ----------------------------------------------------------------------
 #t hf aug-cc-pvdz symm=none int=(grid=ultrafine) guess=(read,tcheck) s
 table=(opt,rrhf)
 ----------------------------------------------------------------------
 -----
 title
 -----
 Symbolic Z-matrix:
 Charge =  0 Multiplicity = 1

 SCF Done:  E(RHF) =  -551.640091385     A.U. after   12 cycles
 Normal termination of Gaussian 16 at Wed Apr  9 01:01:06 2025.
 Gaussian 16:  ES64L-G16RevC.01  3-Jul-2019

 ----------------------------------------------------------------------
 #t hf aug-cc-pvdz iop(5/13=1,5/36=2,99/5=2) pseudo=read geom=check gue
 ss=(read,tcheck) scf=(maxcycle=1)
 ----------------------------------------------------------------------
 -----
 title
 -----
 Structure from the checkpoint file:  "BH10_293_reverse_mol3.chk"
 Charge =  0 Multiplicity = 1

                         Standard orientation:
 ---------------------------------------------------------------------
 Center     Atomic      Atomic             Coordinates (Angstroms)
 Number     Number       Type             X           Y           Z
 ---------------------------------------------------------------------
      1         16           0        1.428718   -0.292410   -0.011148
      2          6           0        0.068299    0.895561   -0.294572
      3          6           0       -1.244511    0.449304    0.327062
      4          8           0       -1.690971   -0.786883   -0.181089
      5          1           0        0.360290    1.880633    0.069950
      6          1           0       -0.034242    0.949442   -1.378962
      7          1           0       -1.144087    0.411910    1.420087
      8          1           0       -2.022377    1.178202    0.090211
      9          1           0       -0.971524   -1.421670   -0.083820
     10          1           0        1.537489   -0.094084    1.314671
 ---------------------------------------------------------------------

 SCF Done:  E(RHF) =  -551.710146585     A.U. after    2 cycles

 The electronic state is 1-A.
 Alpha  occ. eigenvalues --  -93.54514 -20.57257 -11.29801 -11.28050  -8.84277
 Alpha  occ. eigenvalues --   -6.18439  -6.18222  -6.17910  -1.32828  -1.06092
 Alpha  occ. eigenvalues --   -0.93817  -0.83145  -0.71046  -0.65632  -0.62232
 Alpha  occ. eigenvalues --   -0.59071  -0.54324  -0.51462  -0.46621  -0.45601
 Alpha  occ. eigenvalues --   -0.37090
 Alpha virt. eigenvalues --    0.03367   0.04549   0.05300   0.05450   0.07125
 Alpha virt. eigenvalues --    0.07508   0.10073   0.11485   0.12189   0.13800
 Alpha virt. eigenvalues --    0.14980   0.15579   0.16077   0.16486   0.17068

 Mulliken charges:
               1
     1  S    0.195282
     2  C   -0.303341
     3  C    0.726100
     4  O   -0.545396
     5  H   -0.037392
     6  H   -0.000278
     7  H   -0.124921
     8  H   -0.144213
     9  H    0.177693
    10  H    0.056467
 Sum of Mulliken charges =  -0.00000

 Dipole moment (field-independent basis, Debye):
    X=              0.6799    Y=              1.6261    Z=              1.1351  Tot=              2.0965

 Test job not archived.
 1\1\GINC-SE461\SP\RHF\Aug-CC-pVDZ\C2H6O1S1\OHZDE\09-Apr-2025\0\\#t hf
 aug-cc-pvdz iop(5/13=1,5/36=2,99/5=2) pseudo=read geom=check guess=(re
 ad,tcheck) scf=(maxcycle=1)\\title\\0,1\S,0,1.428718,-0.29241,-0.01114
 8\C,0,0.068299,0.895561,-0.294572\C,0,-1.244511,0.449304,0.327062\O,0,
 -1.690971,-0.786883,-0.181089\H,0,0.36029,1.880633,0.06995\H,0,-0.0342
 42,0.949442,-1.378962\H,0,-1.144087,0.41191,1.420087\H,0,-2.022377,1.1
 78202,0.090211\H,0,-0.971524,-1.42167,-0.08382\H,0,1.537489,-0.094084,
 1.314671\\Version=ES64L-G16RevC.01\State=1-A\HF=-551.7101466\RMSD=5.07

 Normal termination of Gaussian 16 at Wed Apr  9 01:01:09 2025.
