 Gaussian 16, Revision C.01,

 ----------------------------------------------------------------------
 #t hf aug-cc-pvdz symm=none int=(grid=ultrafine) guess=(read,tcheck) s
 table=(opt,rrhf)
 ----------------------------------------------------------------------
 -----
 title
 -----
 Symbolic Z-matrix:
 Charge =  0 Multiplicity = 1

 SCF Done:  E(RHF) =  -883.990408113     A.U. after   13 cycles
 Normal termination of Gaussian 16 at Wed Apr  9 00:58:30 2025.
 Gaussian 16:  ES64L-G16RevC.01  3-Jul-2019

 ----------------------------------------------------------------------
 #t hf aug-cc-pvdz iop(5/13=1,5/36=2,99/5=2) pseudo=read geom=check gue
 ss=(read,tcheck) scf=(maxcycle=1)
 ----------------------------------------------------------------------
 -----
 title
 -----
 Structure from the checkpoint file:  "BH10_139_forward_mol2.chk"
 Charge =  0 Multiplicity = 1

                         Standard orientation:
 ---------------------------------------------------------------------
 Center     Atomic      Atomic             Coordinates (Angstroms)
 Number     Number       Type             X           Y           Z
 ---------------------------------------------------------------------
      1          8           0        2.978635    1.447167    0.592667
      2          6           0        2.730010    0.389124    0.138882
      3          6           0        1.385776   -0.191653   -0.183786
      4          6           0        0.241023    0.764244    0.123716
      5          1           0        1.306888   -1.129742    0.370676
      6          1           0        1.401687   -0.474722   -1.240778
      7          1           0        0.235043    0.992768    1.194005
      8          6           0       -1.129168    0.228435   -0.291783
      9          1           0        0.427266    1.712784   -0.386683
     10          6           0       -1.532767   -1.030759    0.482378
     11          1           0       -1.084578   -0.032758   -1.358954
     12          6           0       -2.196510    1.314033   -0.125470
     13          1           0       -2.209746    1.635760    0.923661
     14          6           0       -3.588232    0.824464   -0.519933
     15          1           0       -1.922623    2.193136   -0.716245
     16          6           0       -3.976474   -0.430606    0.258641
     17          1           0       -3.601386    0.601412   -1.593417
     18          1           0       -4.323944    1.616543   -0.357734
     19          6           0       -2.925101   -1.525188    0.091589
     20          1           0       -4.955756   -0.792302   -0.065769
     21          1           0       -4.071005   -0.180481    1.322047
     22          1           0       -2.909056   -1.852361   -0.954837
     23          1           0       -3.190079   -2.402585    0.687365
     24          1           0       -1.516544   -0.801314    1.555786
     25          1           0       -0.805555   -1.831583    0.323536
     26         17           0        4.078763   -0.757909   -0.252318
 ---------------------------------------------------------------------

 SCF Done:  E(RHF) =  -884.137564861     A.U. after    2 cycles

 The electronic state is 1-A.
 Alpha  occ. eigenvalues -- -103.66546 -20.60863 -11.41776 -11.27357 -11.24497
 Alpha  occ. eigenvalues --  -11.24241 -11.23377 -11.23147 -11.23114 -11.23003
 Alpha  occ. eigenvalues --  -11.22918 -10.69911  -8.35615  -8.35328  -8.35319
 Alpha  occ. eigenvalues --   -1.41974  -1.16326  -1.12842  -1.07588  -1.00942
 Alpha  occ. eigenvalues --   -1.00478  -0.90558  -0.84135  -0.81063  -0.77272
 Alpha  occ. eigenvalues --   -0.76409  -0.69676  -0.67466  -0.67074  -0.65120
 Alpha  occ. eigenvalues --   -0.61743  -0.61144  -0.60882  -0.58084  -0.56020
 Alpha  occ. eigenvalues --   -0.53663  -0.53080  -0.52461  -0.50253  -0.49210
 Alpha  occ. eigenvalues --   -0.48302  -0.47498  -0.47343  -0.46301  -0.46152
 Alpha  occ. eigenvalues --   -0.43740  -0.43320
 Alpha virt. eigenvalues --    0.03060   0.03745   0.03796   0.04194   0.05770
 Alpha virt. eigenvalues --    0.05933   0.06120   0.06312   0.06380   0.08233
 Alpha virt. eigenvalues --    0.08620   0.08864   0.08956   0.09361   0.09739

 Mulliken charges:
               1
     1  O   -0.360505
     2  C    0.001609
     3  C    0.555087
     4  C    0.597008
     5  H   -0.033707
     6  H   -0.009949
     7  H   -0.161270
     8  C   -0.932681
     9  H   -0.145594
    10  C    0.497316
    11  H   -0.349769
    12  C    0.638366
    13  H   -0.076098
    14  C    0.418451
    15  H   -0.199864
    16  C    0.278036
    17  H   -0.090285
    18  H   -0.098449
    19  C    0.399773
    20  H   -0.125804
    21  H   -0.093752
    22  H   -0.079633
    23  H   -0.116008
    24  H   -0.106793
    25  H   -0.201879
    26  Cl  -0.203603
 Sum of Mulliken charges =  -0.00000

 Dipole moment (field-independent basis, Debye):
    X=             -3.4448    Y=             -1.3752    Z=             -0.7768  Tot=              3.7896

 Test job not archived.
 1\1\GINC-SE150\SP\RHF\Aug-CC-pVDZ\C9H15Cl1O1\OHZDE\09-Apr-2025\0\\#t h
 f aug-cc-pvdz iop(5/13=1,5/36=2,99/5=2) pseudo=read geom=check guess=(
 read,tcheck) scf=(maxcycle=1)\\title\\0,1\O,0,2.978635,1.447167,0.5926
 67\C,0,2.73001,0.389124,0.138882\C,0,1.385776,-0.191653,-0.183786\C,0,
 0.241023,0.764244,0.123716\H,0,1.306888,-1.129742,0.370676\H,0,1.40168
 7,-0.474722,-1.240778\H,0,0.235043,0.992768,1.194005\C,0,-1.129168,0.2
 28435,-0.291783\H,0,0.427266,1.712784,-0.386683\C,0,-1.532767,-1.03075
 9,0.482378\H,0,-1.084578,-0.032758,-1.358954\C,0,-2.19651,1.314033,-0.

 Normal termination of Gaussian 16 at Wed Apr  9 00:58:51 2025.
