 Gaussian 16, Revision C.01,

 ----------------------------------------------------------------------
 #t hf aug-cc-pvdz symm=none int=(grid=ultrafine) guess=(read,tcheck) s
 table=(opt,rrhf)
 ----------------------------------------------------------------------
 -----
 title
 -----
 Symbolic Z-matrix:
 Charge =  0 Multiplicity = 1

 SCF Done:  E(RHF) =  -404.774339559     A.U. after   13 cycles
 Normal termination of Gaussian 16 at Wed Apr  9 00:54:43 2025.
 Gaussian 16:  ES64L-G16RevC.01  3-Jul-2019

 ----------------------------------------------------------------------
 #t hf aug-cc-pvdz iop(5/13=1,5/36=2,99/5=2) pseudo=read geom=check gue
 ss=(read,tcheck) scf=(maxcycle=1)
 ----------------------------------------------------------------------
 -----
 title
 -----
 Structure from the checkpoint file:  "BH10_134_reverse_mol3.chk"
 Charge =  0 Multiplicity = 1

                         Standard orientation:
 ---------------------------------------------------------------------
 Center     Atomic      Atomic             Coordinates (Angstroms)
 Number     Number       Type             X           Y           Z
 ---------------------------------------------------------------------
      1          6           0        1.162747   -0.032666   -0.370986
      2          6           0        2.004167    0.647188    0.688335
      3          6           0       -0.298586    0.357261   -0.238455
      4          8           0       -0.674749    1.477515   -0.464326
      5          8           0       -1.079498   -0.635969    0.162470
      6          6           0       -2.467200   -0.312531    0.317877
      7          1           0        3.053448    0.390423    0.543754
      8          1           0        1.695500    0.320259    1.682684
      9          1           0        1.887014    1.728486    0.615859
     10          1           0       -2.945084   -1.233035    0.640147
     11          1           0       -2.883179    0.027710   -0.629826
     12          1           0       -2.590798    0.470349    1.065512
     13          9           0        1.325688   -1.406393   -0.278969
     14          1           0        1.479121    0.265465   -1.373181
 ---------------------------------------------------------------------

 SCF Done:  E(RHF) =  -404.909473227     A.U. after    2 cycles

 The electronic state is 1-A.
 Alpha  occ. eigenvalues --  -26.11493 -20.62921 -20.56976 -11.40286 -11.34718
 Alpha  occ. eigenvalues --  -11.30463 -11.24963  -1.64995  -1.43840  -1.33983
 Alpha  occ. eigenvalues --   -1.07609  -0.99313  -0.90626  -0.80838  -0.77534
 Alpha  occ. eigenvalues --   -0.76259  -0.73100  -0.69464  -0.68903  -0.65572
 Alpha  occ. eigenvalues --   -0.61451  -0.58157  -0.56950  -0.55751  -0.54222
 Alpha  occ. eigenvalues --   -0.52525  -0.48763  -0.47378
 Alpha virt. eigenvalues --    0.03479   0.04098   0.04803   0.05687   0.06470
 Alpha virt. eigenvalues --    0.06587   0.06856   0.09960   0.11278   0.12262
 Alpha virt. eigenvalues --    0.13004   0.14102   0.14421   0.14743   0.15913

 Mulliken charges:
               1
     1  C    0.415659
     2  C    0.204266
     3  C    0.464039
     4  O   -0.496040
     5  O   -0.576037
     6  C    0.739198
     7  H   -0.023961
     8  H   -0.002418
     9  H    0.027855
    10  H   -0.238157
    11  H   -0.054598
    12  H   -0.053488
    13  F   -0.392326
    14  H   -0.013992
 Sum of Mulliken charges =  -0.00000

 Dipole moment (field-independent basis, Debye):
    X=             -0.2721    Y=              0.2366    Z=              0.6609  Tot=              0.7529

 Test job not archived.
 1\1\GINC-SE458\SP\RHF\Aug-CC-pVDZ\C4H7F1O2\OHZDE\09-Apr-2025\0\\#t hf
 aug-cc-pvdz iop(5/13=1,5/36=2,99/5=2) pseudo=read geom=check guess=(re
 ad,tcheck) scf=(maxcycle=1)\\title\\0,1\C,0,1.162747,-0.032666,-0.3709
 86\C,0,2.004167,0.647188,0.688335\C,0,-0.298586,0.357261,-0.238455\O,0
 ,-0.674749,1.477515,-0.464326\O,0,-1.079498,-0.635969,0.16247\C,0,-2.4
 672,-0.312531,0.317877\H,0,3.053448,0.390423,0.543754\H,0,1.6955,0.320
 259,1.682684\H,0,1.887014,1.728486,0.615859\H,0,-2.945084,-1.233035,0.
 640147\H,0,-2.883179,0.02771,-0.629826\H,0,-2.590798,0.470349,1.065512

 Normal termination of Gaussian 16 at Wed Apr  9 00:54:47 2025.
