 Gaussian 16, Revision C.01,

 ----------------------------------------------------------------------
 #t hf aug-cc-pvdz symm=none int=(grid=ultrafine) guess=(read,tcheck) s
 table=(opt,rrhf)
 ----------------------------------------------------------------------
 -----
 title
 -----
 Symbolic Z-matrix:
 Charge =  0 Multiplicity = 1

 SCF Done:  E(RHF) =  -652.084251353     A.U. after   13 cycles
 Normal termination of Gaussian 16 at Wed Apr  9 00:53:44 2025.
 Gaussian 16:  ES64L-G16RevC.01  3-Jul-2019

 ----------------------------------------------------------------------
 #t hf aug-cc-pvdz iop(5/13=1,5/36=2,99/5=2) pseudo=read geom=check gue
 ss=(read,tcheck) scf=(maxcycle=1)
 ----------------------------------------------------------------------
 -----
 title
 -----
 Structure from the checkpoint file:  "BH10_103_reverse_mol3.chk"
 Charge =  0 Multiplicity = 1

                         Standard orientation:
 ---------------------------------------------------------------------
 Center     Atomic      Atomic             Coordinates (Angstroms)
 Number     Number       Type             X           Y           Z
 ---------------------------------------------------------------------
      1          6           0       -0.380747    0.001459    0.045696
      2          6           0       -0.844677   -1.218970   -0.725290
      3          6           0       -0.887678    1.308391   -0.517167
      4          8           0       -0.750123   -0.047966    1.379864
      5          1           0       -1.935001   -1.266269   -0.683253
      6          1           0       -0.434203   -2.131542   -0.289600
      7          1           0       -0.528141   -1.165870   -1.766038
      8          1           0       -0.575186    1.428923   -1.553154
      9          1           0       -0.504853    2.139214    0.073184
     10          1           0       -1.978358    1.312671   -0.466339
     11          1           0       -0.467256   -0.885034    1.762377
     12         17           0        1.476623    0.023904   -0.055031
 ---------------------------------------------------------------------

 SCF Done:  E(RHF) =  -652.163852511     A.U. after    2 cycles

 The electronic state is 1-A.
 Alpha  occ. eigenvalues -- -103.63698 -20.60217 -11.37468 -11.24954 -11.24207
 Alpha  occ. eigenvalues --  -10.67056  -8.32751  -8.32491  -8.32484  -1.37198
 Alpha  occ. eigenvalues --   -1.14393  -1.03564  -0.96732  -0.82114  -0.71314
 Alpha  occ. eigenvalues --   -0.65930  -0.65375  -0.58495  -0.57236  -0.56203
 Alpha  occ. eigenvalues --   -0.54408  -0.51426  -0.47077  -0.44892  -0.44197
 Alpha virt. eigenvalues --    0.03260   0.04626   0.05071   0.05647   0.07015
 Alpha virt. eigenvalues --    0.07354   0.07734   0.09856   0.12181   0.12936
 Alpha virt. eigenvalues --    0.14699   0.14845   0.15642   0.16184   0.17019

 Mulliken charges:
               1
     1  C   -0.830793
     2  C    0.745828
     3  C    0.675828
     4  O   -0.553186
     5  H    0.059046
     6  H   -0.089079
     7  H    0.010316
     8  H    0.028788
     9  H   -0.020871
    10  H    0.051785
    11  H    0.151240
    12  Cl  -0.228902
 Sum of Mulliken charges =  -0.00000

 Dipole moment (field-independent basis, Debye):
    X=             -1.9971    Y=             -1.2661    Z=             -0.7713  Tot=              2.4872

 Test job not archived.
 1\1\GINC-SE131\SP\RHF\Aug-CC-pVDZ\C3H7Cl1O1\OHZDE\09-Apr-2025\0\\#t hf
  aug-cc-pvdz iop(5/13=1,5/36=2,99/5=2) pseudo=read geom=check guess=(r
 ead,tcheck) scf=(maxcycle=1)\\title\\0,1\C,0,-0.380747,0.001459,0.0456
 96\C,0,-0.844677,-1.21897,-0.72529\C,0,-0.887678,1.308391,-0.517167\O,
 0,-0.750123,-0.047966,1.379864\H,0,-1.935002,-1.266268,-0.683253\H,0,-
 0.434204,-2.131542,-0.2896\H,0,-0.528141,-1.16587,-1.766038\H,0,-0.575
 186,1.428923,-1.553154\H,0,-0.504852,2.139214,0.073184\H,0,-1.978358,1
 .312672,-0.466339\H,0,-0.467256,-0.885034,1.762377\Cl,0,1.476623,0.023

 Normal termination of Gaussian 16 at Wed Apr  9 00:53:48 2025.
