 Gaussian 16, Revision C.01,

 ----------------------------------------------------------------------
 #t hf aug-cc-pvdz symm=none int=(grid=ultrafine) guess=(read,tcheck) s
 table=(opt,rrhf)
 ----------------------------------------------------------------------
 -----
 title
 -----
 Symbolic Z-matrix:
 Charge =  0 Multiplicity = 1

 SCF Done:  E(RHF) =  -498.870905975     A.U. after   14 cycles
 Normal termination of Gaussian 16 at Wed Apr  9 00:55:38 2025.
 Gaussian 16:  ES64L-G16RevC.01  3-Jul-2019

 ----------------------------------------------------------------------
 #t hf aug-cc-pvdz iop(5/13=1,5/36=2,99/5=2) pseudo=read geom=check gue
 ss=(read,tcheck) scf=(maxcycle=1)
 ----------------------------------------------------------------------
 -----
 title
 -----
 Structure from the checkpoint file:  "BH10_107_forward_mol2.chk"
 Charge =  0 Multiplicity = 1

                         Standard orientation:
 ---------------------------------------------------------------------
 Center     Atomic      Atomic             Coordinates (Angstroms)
 Number     Number       Type             X           Y           Z
 ---------------------------------------------------------------------
      1          6           0        0.272587    0.436301   -0.493132
      2          6           0        1.458203   -0.458749   -0.090540
      3          8           0        2.579185    0.223737    0.121540
      4          8           0        1.398465   -1.653247   -0.005949
      5          6           0       -1.086187   -0.087798    0.013207
      6          1           0        0.244913    0.397666   -1.586353
      7          7           0        0.573657    1.816886   -0.123441
      8          1           0        2.337353    1.170273    0.020348
      9          6           0       -1.140502   -0.258333    1.517490
     10          6           0       -1.553208   -1.318942   -0.731103
     11          1           0        0.283117    2.018736    0.827506
     12          1           0        0.082568    2.466194   -0.723983
     13          1           0       -0.839595    0.651775    2.040813
     14          1           0       -2.161601   -0.491533    1.819482
     15          1           0       -2.559536   -1.583063   -0.403091
     16          1           0       -0.877130   -2.150818   -0.542423
     17          1           0       -1.580214   -1.122824   -1.804496
     18          1           0       -0.488060   -1.075229    1.826172
     19          9           0       -1.998219    0.951314   -0.314462
 ---------------------------------------------------------------------

 SCF Done:  E(RHF) =  -499.029441681     A.U. after    2 cycles

 The electronic state is 1-A.
 Alpha  occ. eigenvalues --  -26.10794 -20.61756 -20.56080 -15.65103 -11.39999
 Alpha  occ. eigenvalues --  -11.34513 -11.30950 -11.24519 -11.23436  -1.63826
 Alpha  occ. eigenvalues --   -1.42667  -1.33555  -1.20280  -1.08895  -0.97248
 Alpha  occ. eigenvalues --   -0.95687  -0.85529  -0.82877  -0.76653  -0.74347
 Alpha  occ. eigenvalues --   -0.72497  -0.70239  -0.69084  -0.66635  -0.64936
 Alpha  occ. eigenvalues --   -0.62656  -0.59637  -0.59344  -0.57026  -0.55544
 Alpha  occ. eigenvalues --   -0.54743  -0.52647  -0.50591  -0.49411  -0.47462
 Alpha  occ. eigenvalues --   -0.43179
 Alpha virt. eigenvalues --    0.02856   0.03816   0.04066   0.05330   0.05999
 Alpha virt. eigenvalues --    0.06209   0.07046   0.07959   0.08769   0.09195
 Alpha virt. eigenvalues --    0.09791   0.11680   0.13004   0.13456   0.14187

 Mulliken charges:
               1
     1  C    0.343156
     2  C    0.641432
     3  O   -0.497836
     4  O   -0.471481
     5  C   -0.951169
     6  H    0.033514
     7  N   -0.555063
     8  H    0.272335
     9  C    0.754181
    10  C    0.639261
    11  H    0.069132
    12  H    0.082587
    13  H   -0.091307
    14  H    0.021654
    15  H    0.023677
    16  H    0.057382
    17  H    0.034154
    18  H    0.067227
    19  F   -0.472838
 Sum of Mulliken charges =  -0.00000

 Dipole moment (field-independent basis, Debye):
    X=             -1.7817    Y=              2.8230    Z=              0.0225  Tot=              3.3383

 Test job not archived.
 1\1\GINC-SE123\SP\RHF\Aug-CC-pVDZ\C5H10F1N1O2\OHZDE\09-Apr-2025\0\\#t
 hf aug-cc-pvdz iop(5/13=1,5/36=2,99/5=2) pseudo=read geom=check guess=
 (read,tcheck) scf=(maxcycle=1)\\title\\0,1\C,0,0.272587,0.436301,-0.49
 3132\C,0,1.458203,-0.458749,-0.09054\O,0,2.579185,0.223737,0.12154\O,0
 ,1.398465,-1.653247,-0.005949\C,0,-1.086187,-0.087798,0.013207\H,0,0.2
 44913,0.397666,-1.586353\N,0,0.573657,1.816886,-0.123441\H,0,2.337353,
 1.170273,0.020348\C,0,-1.140502,-0.258333,1.51749\C,0,-1.553208,-1.318
 942,-0.731103\H,0,0.283117,2.018736,0.827506\H,0,0.082568,2.466194,-0.

 Normal termination of Gaussian 16 at Wed Apr  9 00:55:48 2025.
