 Gaussian 16, Revision C.01,

 ----------------------------------------------------------------------
 #t hf aug-cc-pvdz symm=none int=(grid=ultrafine) guess=(read,tcheck) s
 table=opt
 ----------------------------------------------------------------------
 -----
 title
 -----
 Symbolic Z-matrix:
 Charge =  0 Multiplicity = 2

 SCF Done:  E(UHF) =  -1728.32606648     A.U. after   18 cycles
 Normal termination of Gaussian 16 at Wed Apr  9 02:34:05 2025.
 Gaussian 16:  ES64L-G16RevC.01  3-Jul-2019

 ----------------------------------------------------------------------
 #t hf aug-cc-pvdz iop(5/13=1,5/36=2,99/5=2) pseudo=read geom=check gue
 ss=(read,tcheck) scf=(maxcycle=1)
 ----------------------------------------------------------------------
 -----
 title
 -----
 Structure from the checkpoint file:  "BH10_292_reverse_mol2.chk"
 Charge =  0 Multiplicity = 2

                         Standard orientation:
 ---------------------------------------------------------------------
 Center     Atomic      Atomic             Coordinates (Angstroms)
 Number     Number       Type             X           Y           Z
 ---------------------------------------------------------------------
      1          6           0        0.579734   -0.259093   -2.122271
      2          6           0        1.886670    0.377810   -2.345393
      3         14           0       -0.033037   -0.010184   -0.283218
      4          9           0        2.955712   -0.252921   -1.783635
      5         14           0       -0.497521    2.268984    0.073911
      6         14           0        1.562857   -0.733586    1.287586
      7         14           0       -2.035157   -1.213585    0.010550
      8          6           0       -2.090336    2.763453   -0.807775
      9          1           0       -2.282114    3.833015   -0.682717
     10          1           0       -2.035434    2.561379   -1.880441
     11          1           0       -2.954153    2.224266   -0.413127
     12          6           0       -0.705346    2.590240    1.919694
     13          1           0       -0.993149    3.631218    2.092378
     14          1           0       -1.475905    1.954759    2.360343
     15          1           0        0.224923    2.411320    2.463380
     16          6           0        0.885450    3.382606   -0.562058
     17          1           0        0.703605    4.416421   -0.253921
     18          1           0        1.861111    3.085106   -0.172294
     19          1           0        0.941219    3.373695   -1.652950
     20          6           0        0.697040   -0.931051    2.953113
     21          1           0       -0.065493   -1.712501    2.921902
     22          1           0        1.422057   -1.210057    3.723186
     23          1           0        0.213664   -0.005837    3.273670
     24          6           0        2.313286   -2.390526    0.804380
     25          1           0        2.891765   -2.300861   -0.116725
     26          1           0        2.986102   -2.745038    1.590727
     27          1           0        1.546204   -3.153479    0.653809
     28          6           0        2.941981    0.533666    1.482158
     29          1           0        3.469695    0.684670    0.538797
     30          1           0        2.558369    1.499936    1.817725
     31          1           0        3.670839    0.192487    2.223073
     32          6           0       -1.701164   -3.050330    0.275536
     33          1           0       -1.105781   -3.219785    1.175563
     34          1           0       -2.641926   -3.595735    0.394100
     35          1           0       -1.162896   -3.493752   -0.564434
     36          6           0       -2.963527   -0.566752    1.518967
     37          1           0       -3.869900   -1.156149    1.684891
     38          1           0       -2.356557   -0.629855    2.424474
     39          1           0       -3.266779    0.474632    1.392078
     40          6           0       -3.142321   -1.004053   -1.501834
     41          1           0       -4.081615   -1.548028   -1.366783
     42          1           0       -3.388309    0.046573   -1.670783
     43          1           0       -2.670104   -1.383506   -2.410680
     44          6           0        0.575940   -1.734567   -2.548901
     45          1           0       -0.424093   -2.162140   -2.475621
     46          1           0        0.912426   -1.838172   -3.583474
     47          1           0        1.239846   -2.330199   -1.922071
     48          1           0       -0.138076    0.294029   -2.737836
     49          1           0        2.044608    1.446676   -2.410818
 ---------------------------------------------------------------------

 SCF Done:  E(UHF) =  -1728.59913412     A.U. after    2 cycles

 The electronic state is 2-A.
 Alpha  occ. eigenvalues --  -69.04125 -69.04093 -69.03671 -69.01985 -26.12125
 Alpha  occ. eigenvalues --  -11.32042 -11.23729 -11.23093 -11.21057 -11.21024
 Alpha  occ. eigenvalues --  -11.20922 -11.20893 -11.20884 -11.20839 -11.20536
 Alpha  occ. eigenvalues --  -11.20163 -11.20114  -6.79456  -6.79420  -6.78991
 Alpha  occ. eigenvalues --   -6.77756  -3.90185  -3.90180  -3.90157  -3.90145
 Alpha  occ. eigenvalues --   -3.90137  -3.90135  -3.89719  -3.89709  -3.89702
 Alpha  occ. eigenvalues --   -3.88469  -3.88334  -3.88324  -1.66075  -1.06691
 Alpha  occ. eigenvalues --   -0.96614  -0.95831  -0.95332  -0.94755  -0.92134
 Alpha  occ. eigenvalues --   -0.92063  -0.91847  -0.91778  -0.91391  -0.91185
 Alpha  occ. eigenvalues --   -0.83386  -0.76611  -0.75739  -0.70608  -0.67167
 Alpha  occ. eigenvalues --   -0.61749  -0.61474  -0.60447  -0.60075  -0.58629
 Alpha  occ. eigenvalues --   -0.57841  -0.57808  -0.57011  -0.56723  -0.56307
 Alpha  occ. eigenvalues --   -0.55857  -0.55735  -0.55474  -0.54532  -0.54409
 Alpha  occ. eigenvalues --   -0.54098  -0.53930  -0.53703  -0.53461  -0.53276
 Alpha  occ. eigenvalues --   -0.53136  -0.53036  -0.52703  -0.51346  -0.50821
 Alpha  occ. eigenvalues --   -0.45180  -0.43623  -0.43310  -0.43125  -0.42957
 Alpha  occ. eigenvalues --   -0.42430  -0.42425  -0.34084  -0.33512  -0.32158
 Alpha virt. eigenvalues --    0.02623   0.03368   0.03485   0.03759   0.04974
 Alpha virt. eigenvalues --    0.05059   0.05199   0.05380   0.05689   0.06699
 Alpha virt. eigenvalues --    0.06825   0.06970   0.07034   0.07240   0.07350

  Beta  occ. eigenvalues --  -69.04128 -69.04081 -69.03674 -69.01913 -26.11727
  Beta  occ. eigenvalues --  -11.29407 -11.24002 -11.22980 -11.21057 -11.21023
  Beta  occ. eigenvalues --  -11.20926 -11.20884 -11.20879 -11.20840 -11.20534
  Beta  occ. eigenvalues --  -11.20165 -11.20113  -6.79460  -6.79403  -6.78995
  Beta  occ. eigenvalues --   -6.77642  -3.90187  -3.90182  -3.90168  -3.90135
  Beta  occ. eigenvalues --   -3.90127  -3.90094  -3.89721  -3.89712  -3.89710
  Beta  occ. eigenvalues --   -3.88292  -3.88269  -3.88209  -1.64872  -1.04710
  Beta  occ. eigenvalues --   -0.96567  -0.95750  -0.95303  -0.92143  -0.92104
  Beta  occ. eigenvalues --   -0.91932  -0.91830  -0.91547  -0.91336  -0.91134
  Beta  occ. eigenvalues --   -0.82578  -0.75572  -0.71108  -0.69321  -0.65903
  Beta  occ. eigenvalues --   -0.61706  -0.61429  -0.60191  -0.59755  -0.58495
  Beta  occ. eigenvalues --   -0.57835  -0.57756  -0.56979  -0.56615  -0.56247
  Beta  occ. eigenvalues --   -0.55827  -0.55717  -0.55421  -0.54515  -0.54389
  Beta  occ. eigenvalues --   -0.54071  -0.53898  -0.53687  -0.53438  -0.53267
  Beta  occ. eigenvalues --   -0.53113  -0.52708  -0.52313  -0.50658  -0.50526
  Beta  occ. eigenvalues --   -0.43981  -0.43612  -0.43276  -0.42952  -0.42554
  Beta  occ. eigenvalues --   -0.42425  -0.39486  -0.33579  -0.33436
  Beta virt. eigenvalues --    0.02622   0.03371   0.03459   0.03713   0.04975
  Beta virt. eigenvalues --    0.05064   0.05178   0.05360   0.05683   0.06697
  Beta virt. eigenvalues --    0.06826   0.06974   0.07021   0.07206   0.07316

 Mulliken charges and spin densities:
               1          2
     1  C    0.354336  -0.261089
     2  C    0.539221   1.314446
     3  Si   2.936874  -0.002453
     4  F   -0.543145   0.003921
     5  Si  -0.127037  -0.015550
     6  Si   0.311077  -0.014927
     7  Si   0.337171   0.053987
     8  C    0.950232   0.000293
     9  H   -0.477172  -0.000119
    10  H   -0.360444   0.000944
    11  H   -0.434861   0.000545
    12  C    1.161870  -0.000541
    13  H   -0.395159   0.000078
    14  H   -0.490855  -0.000601
    15  H   -0.450251   0.000224
    16  C    0.955930   0.003568
    17  H   -0.487341   0.000903
    18  H   -0.413686   0.003784
    19  H   -0.370664   0.004650
    20  C    1.081661   0.000461
    21  H   -0.483448   0.000279
    22  H   -0.437563   0.000896
    23  H   -0.472684  -0.000410
    24  C    0.851594  -0.000050
    25  H   -0.337785  -0.000870
    26  H   -0.488025  -0.000276
    27  H   -0.423080   0.000617
    28  C    0.976139   0.002041
    29  H   -0.422522  -0.000846
    30  H   -0.426101   0.000929
    31  H   -0.433545   0.000242
    32  C    0.983792  -0.003392
    33  H   -0.434580   0.000356
    34  H   -0.456820   0.000603
    35  H   -0.447060  -0.000384
    36  C    1.059438   0.006393
    37  H   -0.477278   0.002168
    38  H   -0.465778  -0.001725
    39  H   -0.470138  -0.001452
    40  C    0.902369  -0.007607
    41  H   -0.457705  -0.000089
    42  H   -0.444300   0.000533
    43  H   -0.405555  -0.000394
    44  C    0.777787   0.042287
    45  H   -0.258261   0.003427
    46  H   -0.165674   0.001479
    47  H   -0.216458  -0.004927
    48  H   -0.520227   0.005961
    49  H   -0.484290  -0.138315
 Sum of Mulliken charges =  -0.00000   1.00000

 Dipole moment (field-independent basis, Debye):
    X=             -1.7271    Y=              0.7022    Z=             -0.1403  Tot=              1.8697
                          Isotropic Fermi Contact Couplings
        Atom                 a.u.       MegaHertz       Gauss      10(-4) cm-1
     1  C(13)             -0.05418     -60.90838     -21.73362     -20.31685
     2  C(13)              0.30590     343.89436     122.71006     114.71081
     3  Si(29)             0.07876     -69.99434     -24.97572     -23.34760
     4  F(19)              0.05420     228.05942      81.37727      76.07243
     5  Si(29)            -0.00362       3.21798       1.14825       1.07340
     6  Si(29)            -0.00318       2.82719       1.00881       0.94305
     7  Si(29)             0.01284     -11.40738      -4.07044      -3.80509
     8  C(13)             -0.00005      -0.05847      -0.02086      -0.01950

 1\1\GINC-SE109\SP\UHF\Aug-CC-pVDZ\C12H32F1Si4(2)\OHZDE\09-Apr-2025\0\\
 #t hf aug-cc-pvdz iop(5/13=1,5/36=2,99/5=2) pseudo=read geom=check gue
 ss=(read,tcheck) scf=(maxcycle=1)\\title\\0,2\C,0,0.579734,-0.259093,-
 2.122271\C,0,1.88667,0.377812,-2.345393\Si,0,-0.033037,-0.010184,-0.28
 3218\F,0,2.955712,-0.252919,-1.783635\Si,0,-0.497523,2.268983,0.073911
 \Si,0,1.562858,-0.733585,1.287586\Si,0,-2.035156,-1.213587,0.01055\C,0
 ,-2.090338,2.763451,-0.807775\H,0,-2.282117,3.833013,-0.682717\H,0,-2.
 035436,2.561377,-1.880441\H,0,-2.954155,2.224263,-0.413127\C,0,-0.7053

 Normal termination of Gaussian 16 at Wed Apr  9 02:36:48 2025.
