 Gaussian 16, Revision C.01,

 ----------------------------------------------------------------------
 #t hf aug-cc-pvdz symm=none int=(grid=ultrafine) guess=(read,tcheck) s
 table=(opt,rrhf)
 ----------------------------------------------------------------------
 -----
 title
 -----
 Symbolic Z-matrix:
 Charge =  0 Multiplicity = 1

 SCF Done:  E(RHF) =  -817.519728220     A.U. after   13 cycles
 Normal termination of Gaussian 16 at Wed Apr  9 00:53:15 2025.
 Gaussian 16:  ES64L-G16RevC.01  3-Jul-2019

 ----------------------------------------------------------------------
 #t hf aug-cc-pvdz iop(5/13=1,5/36=2,99/5=2) pseudo=read geom=check gue
 ss=(read,tcheck) scf=(maxcycle=1)
 ----------------------------------------------------------------------
 -----
 title
 -----
 Structure from the checkpoint file:  "BH10_100_forward_mol2.chk"
 Charge =  0 Multiplicity = 1

                         Standard orientation:
 ---------------------------------------------------------------------
 Center     Atomic      Atomic             Coordinates (Angstroms)
 Number     Number       Type             X           Y           Z
 ---------------------------------------------------------------------
      1          6           0        1.878492    0.765805   -0.000012
      2          6           0        1.878492   -0.765805    0.000113
      3          6           0        0.422671    1.184171   -0.000014
      4          7           0       -0.324447    0.000000   -0.000014
      5          6           0        0.422671   -1.184171    0.000039
      6          8           0       -0.033861   -2.287920    0.000037
      7          8           0       -0.033861    2.287920   -0.000030
      8         17           0       -2.013484   -0.000000   -0.000057
      9          1           0        2.357014    1.199291   -0.878288
     10          1           0        2.357081    1.199455    0.878145
     11          1           0        2.356969   -1.199293    0.878413
     12          1           0        2.357125   -1.199454   -0.878020
 ---------------------------------------------------------------------

 SCF Done:  E(RHF) =  -817.650014099     A.U. after    2 cycles

 The electronic state is 1-A.
 Alpha  occ. eigenvalues -- -103.72200 -20.58379 -20.58379 -15.74058 -11.40762
 Alpha  occ. eigenvalues --  -11.40753 -11.29002 -11.28952 -10.75122  -8.40911
 Alpha  occ. eigenvalues --   -8.40470  -8.40443  -1.41413  -1.39362  -1.29877
 Alpha  occ. eigenvalues --   -1.17395  -1.05724  -0.97323  -0.86946  -0.78309
 Alpha  occ. eigenvalues --   -0.71669  -0.71610  -0.69534  -0.64821  -0.63328
 Alpha  occ. eigenvalues --   -0.62783  -0.61239  -0.59066  -0.53199  -0.52734
 Alpha  occ. eigenvalues --   -0.50604  -0.49427  -0.45761  -0.42652
 Alpha virt. eigenvalues --    0.02426   0.04042   0.04627   0.06142   0.06864
 Alpha virt. eigenvalues --    0.08457   0.09315   0.09557   0.10697   0.11659
 Alpha virt. eigenvalues --    0.12121   0.14072   0.14363   0.14369   0.15163

 Mulliken charges:
               1
     1  C    0.123662
     2  C    0.123661
     3  C    0.505167
     4  N   -0.860539
     5  C    0.505166
     6  O   -0.446918
     7  O   -0.446918
     8  Cl   0.383806
     9  H    0.028235
    10  H    0.028222
    11  H    0.028235
    12  H    0.028222
 Sum of Mulliken charges =  -0.00000

 Dipole moment (field-independent basis, Debye):
    X=              3.9964    Y=              0.0000    Z=              0.0001  Tot=              3.9964

 Test job not archived.
 1\1\GINC-SE123\SP\RHF\Aug-CC-pVDZ\C4H4Cl1N1O2\OHZDE\09-Apr-2025\0\\#t
 hf aug-cc-pvdz iop(5/13=1,5/36=2,99/5=2) pseudo=read geom=check guess=
 (read,tcheck) scf=(maxcycle=1)\\title\\0,1\C,0,1.878492,0.765805,-0.00
 0012\C,0,1.878492,-0.765805,0.000113\C,0,0.422671,1.184171,-0.000014\N
 ,0,-0.324447,0.,-0.000014\C,0,0.422671,-1.184171,0.000039\O,0,-0.03386
 1,-2.28792,0.000037\O,0,-0.033861,2.28792,-0.00003\Cl,0,-2.013484,0.,-
 0.000057\H,0,2.357014,1.199291,-0.878288\H,0,2.357081,1.199455,0.87814
 5\H,0,2.356969,-1.199293,0.878413\H,0,2.357125,-1.199454,-0.87802\\Ver

 Normal termination of Gaussian 16 at Wed Apr  9 00:53:21 2025.
