 Gaussian 16, Revision C.01,

 ----------------------------------------------------------------------
 #t hf aug-cc-pvdz symm=none int=(grid=ultrafine) guess=(read,tcheck) s
 table=(opt,rrhf)
 ----------------------------------------------------------------------
 -----
 title
 -----
 Symbolic Z-matrix:
 Charge =  0 Multiplicity = 1

 SCF Done:  E(RHF) =  -855.971973097     A.U. after   15 cycles
 Normal termination of Gaussian 16 at Wed Apr  9 01:52:18 2025.
 Gaussian 16:  ES64L-G16RevC.01  3-Jul-2019

 ----------------------------------------------------------------------
 #t hf aug-cc-pvdz iop(5/13=1,5/36=2,99/5=2) pseudo=read geom=check gue
 ss=(read,tcheck) scf=(maxcycle=1)
 ----------------------------------------------------------------------
 -----
 title
 -----
 Structure from the checkpoint file:  "BH10_92_reverse_mol2.chk"
 Charge =  0 Multiplicity = 1

                         Standard orientation:
 ---------------------------------------------------------------------
 Center     Atomic      Atomic             Coordinates (Angstroms)
 Number     Number       Type             X           Y           Z
 ---------------------------------------------------------------------
      1          6           0        0.522520   -1.180247   -0.115441
      2          6           0        0.342029   -0.875406    1.346777
      3          6           0        0.492735    1.169434    0.244409
      4          6           0        0.326211    0.437499    1.548550
      5         16           0        1.764240    0.119427   -0.646613
      6          6           0       -2.626651   -0.170793    0.359930
      7          6           0       -0.709891   -0.659029   -0.892810
      8          6           0       -0.710360    0.883716   -0.686846
      9          6           0       -2.104191    1.185152   -0.117970
     10          1           0       -2.434594   -0.321791    1.424266
     11          1           0       -2.744102    1.582158   -0.906873
     12          1           0       -2.076336    1.918747    0.688968
     13          1           0       -3.693045   -0.303705    0.174630
     14          8           0        3.026672   -0.003702    0.140232
     15          8           0       -1.937982   -1.159835   -0.402326
     16          1           0        0.205024   -1.640839    2.096983
     17          1           0        0.183964    0.935823    2.497286
     18          1           0       -0.639902   -0.942632   -1.943705
     19          1           0        0.837619   -2.186577   -0.375433
     20          1           0       -0.559850    1.400747   -1.634239
     21          1           0        0.789439    2.213582    0.301086
 ---------------------------------------------------------------------

 SCF Done:  E(RHF) =  -856.146459953     A.U. after    2 cycles

 The electronic state is 1-A.
 Alpha  occ. eigenvalues --  -93.65414 -20.58159 -20.52084 -11.31356 -11.29404
 Alpha  occ. eigenvalues --  -11.28815 -11.28281 -11.26867 -11.25875 -11.25641
 Alpha  occ. eigenvalues --  -11.25330  -8.93783  -6.28081  -6.27846  -6.27609
 Alpha  occ. eigenvalues --   -1.35626  -1.30344  -1.17502  -1.06885  -1.03036
 Alpha  occ. eigenvalues --   -0.98465  -0.94476  -0.82921  -0.81940  -0.80053
 Alpha  occ. eigenvalues --   -0.73634  -0.73156  -0.69597  -0.68322  -0.63000
 Alpha  occ. eigenvalues --   -0.61804  -0.60141  -0.59116  -0.58011  -0.56334
 Alpha  occ. eigenvalues --   -0.54935  -0.53840  -0.52496  -0.50299  -0.48530
 Alpha  occ. eigenvalues --   -0.48128  -0.44869  -0.40907  -0.40447  -0.35065
 Alpha virt. eigenvalues --    0.02699   0.03676   0.03837   0.04300   0.05283
 Alpha virt. eigenvalues --    0.05561   0.05818   0.06420   0.07623   0.08371
 Alpha virt. eigenvalues --    0.09076   0.09258   0.11570   0.12084   0.12594

 Mulliken charges:
               1
     1  C   -0.219286
     2  C    0.751475
     3  C   -0.005315
     4  C    0.594250
     5  S    1.457932
     6  C    0.905814
     7  C    0.880253
     8  C   -0.194572
     9  C    0.386330
    10  H   -0.153544
    11  H   -0.086008
    12  H   -0.093696
    13  H   -0.248124
    14  O   -1.074853
    15  O   -0.790744
    16  H   -0.428282
    17  H   -0.440703
    18  H   -0.296396
    19  H   -0.296950
    20  H   -0.239360
    21  H   -0.408218
 Sum of Mulliken charges =  -0.00000

 Dipole moment (field-independent basis, Debye):
    X=             -4.7357    Y=              1.7668    Z=             -0.1264  Tot=              5.0561

 Test job not archived.
 1\1\GINC-SE016\SP\RHF\Aug-CC-pVDZ\C8H10O2S1\OHZDE\09-Apr-2025\0\\#t hf
  aug-cc-pvdz iop(5/13=1,5/36=2,99/5=2) pseudo=read geom=check guess=(r
 ead,tcheck) scf=(maxcycle=1)\\title\\0,1\C,0,0.52252,-1.180247,-0.1154
 41\C,0,0.342029,-0.875406,1.346777\C,0,0.492735,1.169434,0.244409\C,0,
 0.326211,0.437499,1.54855\S,0,1.76424,0.119427,-0.646613\C,0,-2.626651
 ,-0.170793,0.35993\C,0,-0.709891,-0.659029,-0.89281\C,0,-0.71036,0.883
 716,-0.686846\C,0,-2.104191,1.185152,-0.11797\H,0,-2.434594,-0.321791,
 1.424266\H,0,-2.744102,1.582158,-0.906873\H,0,-2.076336,1.918747,0.688

 Normal termination of Gaussian 16 at Wed Apr  9 01:52:34 2025.
