 Gaussian 16, Revision C.01,

 ----------------------------------------------------------------------
 #t hf aug-cc-pvdz symm=none int=(grid=ultrafine) guess=(read,tcheck) s
 table=(opt,rrhf)
 ----------------------------------------------------------------------
 -----
 title
 -----
 Symbolic Z-matrix:
 Charge =  0 Multiplicity = 1

 SCF Done:  E(RHF) =  -1000.91635734     A.U. after   16 cycles
 Normal termination of Gaussian 16 at Wed Apr  9 02:10:51 2025.
 Gaussian 16:  ES64L-G16RevC.01  3-Jul-2019

 ----------------------------------------------------------------------
 #t hf aug-cc-pvdz iop(5/13=1,5/36=2,99/5=2) pseudo=read geom=check gue
 ss=(read,tcheck) scf=(maxcycle=1)
 ----------------------------------------------------------------------
 -----
 title
 -----
 Structure from the checkpoint file:  "BH10_84_reverse_mol2.chk"
 Charge =  0 Multiplicity = 1

                         Standard orientation:
 ---------------------------------------------------------------------
 Center     Atomic      Atomic             Coordinates (Angstroms)
 Number     Number       Type             X           Y           Z
 ---------------------------------------------------------------------
      1          6           0        0.285168   -0.804703   -1.321804
      2          6           0       -1.944056   -0.646573   -0.394941
      3          6           0        0.608100    0.572776   -0.816270
      4          6           0       -1.797509    0.709925   -0.231869
      5          6           0       -0.890623   -1.375183   -1.075875
      6          6           0       -2.902760    1.553105    0.344890
      7          6           0       -0.488910    2.771597   -0.495997
      8          6           0       -3.113143   -1.365313    0.084284
      9          6           0        1.515592    0.581818    0.435108
     10          1           0        1.753889    1.635203    0.640533
     11          6           0        0.819017    0.007000    1.672728
     12          1           0       -0.066392    0.587721    1.943162
     13          1           0        0.496697   -1.021578    1.502519
     14          1           0        1.482668    0.010725    2.540694
     15          7           0       -0.643240    1.329574   -0.585710
     16         14           0        3.224893   -0.214913    0.159608
     17          6           0        4.390264    0.513117    1.442592
     18          6           0        3.173222   -2.077552    0.378663
     19          6           0        3.864612    0.220668   -1.554823
     20          1           0        2.834176   -2.346906    1.381685
     21          1           0        4.170872   -2.504061    0.243531
     22          1           0        2.501992   -2.559338   -0.333769
     23          1           0        4.043686    0.315493    2.459912
     24          1           0        4.484634    1.596063    1.327897
     25          1           0        5.390611    0.082515    1.349096
     26          1           0        0.469357    3.040875   -0.936679
     27          1           0       -0.496038    3.134356    0.536666
     28          1           0       -1.265891    3.293889   -1.055002
     29          1           0        3.889113    1.302929   -1.709054
     30          1           0        3.254485   -0.215072   -2.349322
     31          1           0        4.884494   -0.149956   -1.686611
     32          6           0       -4.164826   -0.562227    0.822436
     33          6           0       -4.256950    0.857869    0.287704
     34          8           0       -3.243827   -2.570381   -0.064140
     35          1           0       -2.642588    1.789098    1.385459
     36          1           0       -2.959918    2.509061   -0.175373
     37          1           0       -4.598819    0.829496   -0.751228
     38          1           0       -4.991465    1.439136    0.849526
     39          1           0       -5.111055   -1.097644    0.743613
     40          1           0       -3.886785   -0.550437    1.883447
     41          1           0        1.059053   -1.323417   -1.873872
     42          1           0       -1.113842   -2.385866   -1.393542
     43          1           0        1.138686    1.114579   -1.605669
 ---------------------------------------------------------------------

 SCF Done:  E(RHF) =  -1001.15599384     A.U. after    2 cycles

 The electronic state is 1-A.
 Alpha  occ. eigenvalues --  -69.04305 -20.52027 -15.65768 -11.31578 -11.31396
 Alpha  occ. eigenvalues --  -11.28622 -11.28472 -11.25892 -11.24532 -11.23210
 Alpha  occ. eigenvalues --  -11.23044 -11.22446 -11.22343 -11.22001 -11.21117
 Alpha  occ. eigenvalues --  -11.21005 -11.20839 -11.20386  -6.79621  -3.90376
 Alpha  occ. eigenvalues --   -3.90365  -3.90359  -1.31515  -1.25647  -1.11614
 Alpha  occ. eigenvalues --   -1.08607  -1.04814  -1.00021  -0.97588  -0.96048
 Alpha  occ. eigenvalues --   -0.95425  -0.92209  -0.91786  -0.90214  -0.85586
 Alpha  occ. eigenvalues --   -0.81179  -0.79782  -0.74795  -0.69774  -0.68360
 Alpha  occ. eigenvalues --   -0.67449  -0.65862  -0.63119  -0.62145  -0.61671
 Alpha  occ. eigenvalues --   -0.60751  -0.59873  -0.59322  -0.58515  -0.58201
 Alpha  occ. eigenvalues --   -0.57024  -0.56769  -0.56075  -0.55882  -0.55040
 Alpha  occ. eigenvalues --   -0.54406  -0.53802  -0.53558  -0.53300  -0.52539
 Alpha  occ. eigenvalues --   -0.51055  -0.49250  -0.48924  -0.47969  -0.47270
 Alpha  occ. eigenvalues --   -0.44821  -0.43064  -0.42727  -0.40795  -0.39792
 Alpha  occ. eigenvalues --   -0.38707  -0.27421
 Alpha virt. eigenvalues --    0.02124   0.02863   0.03414   0.03868   0.04842
 Alpha virt. eigenvalues --    0.04945   0.05102   0.05860   0.05966   0.06379
 Alpha virt. eigenvalues --    0.06650   0.06784   0.07261   0.07454   0.08081

 Mulliken charges:
               1
     1  C    0.287078
     2  C    0.658022
     3  C    0.398108
     4  C   -0.825961
     5  C    0.408634
     6  C    0.303345
     7  C    1.107294
     8  C   -0.238179
     9  C    0.245979
    10  H   -0.231887
    11  C    0.917666
    12  H   -0.135243
    13  H   -0.055877
    14  H   -0.170787
    15  N   -0.708477
    16  Si  -0.277070
    17  C    0.805065
    18  C    0.886927
    19  C    0.994758
    20  H   -0.230131
    21  H   -0.345983
    22  H   -0.205000
    23  H   -0.203740
    24  H   -0.272387
    25  H   -0.381047
    26  H   -0.329947
    27  H    0.073922
    28  H   -0.222973
    29  H   -0.255349
    30  H   -0.307065
    31  H   -0.418701
    32  C    0.567239
    33  C    0.693160
    34  O   -0.622827
    35  H    0.029050
    36  H   -0.032820
    37  H   -0.089405
    38  H   -0.020311
    39  H   -0.034017
    40  H    0.049522
    41  H   -0.634244
    42  H   -0.760297
    43  H   -0.416042
 Sum of Mulliken charges =   0.00000

 Dipole moment (field-independent basis, Debye):
    X=              1.9288    Y=              6.5248    Z=              0.6766  Tot=              6.8375

 Test job not archived.
 1\1\GINC-SE229\SP\RHF\Aug-CC-pVDZ\C15H25N1O1Si1\OHZDE\09-Apr-2025\0\\#
 t hf aug-cc-pvdz iop(5/13=1,5/36=2,99/5=2) pseudo=read geom=check gues
 s=(read,tcheck) scf=(maxcycle=1)\\title\\0,1\C,0,0.285168,-0.804703,-1
 .321804\C,0,-1.944056,-0.646573,-0.394941\C,0,0.6081,0.572776,-0.81627
 \C,0,-1.797509,0.709925,-0.231869\C,0,-0.890623,-1.375183,-1.075875\C,
 0,-2.90276,1.553105,0.34489\C,0,-0.48891,2.771597,-0.495997\C,0,-3.113
 143,-1.365313,0.084284\C,0,1.515592,0.581818,0.435108\H,0,1.753889,1.6
 35203,0.640533\C,0,0.819017,0.007,1.672728\H,0,-0.066392,0.587721,1.94

 Normal termination of Gaussian 16 at Wed Apr  9 02:12:31 2025.
