 Gaussian 16, Revision C.01,

 ----------------------------------------------------------------------
 #t hf aug-cc-pvdz symm=none int=(grid=ultrafine) guess=(read,tcheck) s
 table=(opt,rrhf)
 ----------------------------------------------------------------------
 -----
 title
 -----
 Symbolic Z-matrix:
 Charge =  0 Multiplicity = 1

 SCF Done:  E(RHF) =  -1125.21537607     A.U. after   15 cycles
 Normal termination of Gaussian 16 at Wed Apr  9 02:02:33 2025.
 Gaussian 16:  ES64L-G16RevC.01  3-Jul-2019

 ----------------------------------------------------------------------
 #t hf aug-cc-pvdz iop(5/13=1,5/36=2,99/5=2) pseudo=read geom=check gue
 ss=(read,tcheck) scf=(maxcycle=1)
 ----------------------------------------------------------------------
 -----
 title
 -----
 Structure from the checkpoint file:  "BH10_301_forward_mol1.chk"
 Charge =  0 Multiplicity = 1

                         Standard orientation:
 ---------------------------------------------------------------------
 Center     Atomic      Atomic             Coordinates (Angstroms)
 Number     Number       Type             X           Y           Z
 ---------------------------------------------------------------------
      1          6           0        1.673718    1.826226    0.076522
      2          6           0        0.938761    0.854742    1.033278
      3          6           0       -1.379889    1.449921   -0.924901
      4          1           0        2.730940    1.549870    0.051134
      5          6           0       -0.038307    1.590318    1.980383
      6          1           0       -0.667972    0.859506    2.499493
      7          1           0        0.558677    2.075856    2.760302
      8          1           0       -2.215128    1.463933   -1.630129
      9          1           0        1.701608    0.438729    1.687642
     10          6           0       -0.919443    2.665765    1.354004
     11          1           0       -1.475798    3.162477    2.155396
     12          1           0       -0.284381    3.442895    0.920670
     13          6           0       -1.921968    2.199002    0.305800
     14          1           0       -2.683026    1.587496    0.795313
     15          1           0       -2.450251    3.086145   -0.060891
     16          6           0       -0.261320    2.242496   -1.641470
     17          1           0       -0.414928    2.143317   -2.720839
     18          6           0        1.193003    1.854923   -1.373540
     19          1           0        1.377900    0.873047   -1.815002
     20          1           0        1.830949    2.546524   -1.933652
     21          1           0       -0.402705    3.307141   -1.424478
     22          1           0        1.655670    2.838138    0.492797
     23          6           0       -1.066830   -0.055568   -0.678523
     24          1           0       -0.839730   -0.473660   -1.672031
     25         14           0       -2.680925   -0.985033   -0.248910
     26          6           0       -3.236176   -0.861105    1.553565
     27          1           0       -2.402580   -0.810420    2.255099
     28          1           0       -3.859100    0.018576    1.725257
     29          1           0       -3.836227   -1.737458    1.814907
     30          6           0       -2.542998   -2.829672   -0.645763
     31          1           0       -3.550181   -3.255785   -0.655736
     32          1           0       -2.108502   -3.014036   -1.632118
     33          1           0       -1.971503   -3.396593    0.092247
     34          6           0       -4.084692   -0.338337   -1.324876
     35          1           0       -3.835659   -0.392371   -2.388146
     36          1           0       -4.982314   -0.942197   -1.165474
     37          1           0       -4.341215    0.697721   -1.095398
     38          5           0        0.205918   -0.355897    0.264425
     39          6           0        1.643333   -1.397009   -0.571471
     40          1           0        1.629088   -1.462605   -1.650811
     41          6           0        0.636693   -2.078745    0.118838
     42          1           0       -0.092224   -2.582630   -0.500403
     43          6           0        0.254590   -1.765441    1.423968
     44          1           0        0.991039   -1.491769    2.163692
     45          1           0       -0.664011   -2.203803    1.788720
     46          6           0        2.962165   -1.099541    0.003351
     47          8           0        3.292147   -1.208529    1.159300
     48          8           0        3.812323   -0.697194   -0.960753
     49          6           0        5.131246   -0.368366   -0.523291
     50          1           0        5.674842   -0.080957   -1.419382
     51          1           0        5.100711    0.458565    0.187161
     52          1           0        5.602290   -1.227584   -0.046346
 ---------------------------------------------------------------------

 SCF Done:  E(RHF) =  -1125.49189235     A.U. after    2 cycles

 The electronic state is 1-A.
 Alpha  occ. eigenvalues --  -69.04137 -20.61362 -20.55166 -11.39203 -11.30288
 Alpha  occ. eigenvalues --  -11.29391 -11.25476 -11.24671 -11.22567 -11.21495
 Alpha  occ. eigenvalues --  -11.21472 -11.21462 -11.21341 -11.21290 -11.21182
 Alpha  occ. eigenvalues --  -11.21037 -11.20426 -11.20249 -11.19862 -11.19278
 Alpha  occ. eigenvalues --   -7.61316  -6.79443  -3.90127  -3.90110  -3.90097
 Alpha  occ. eigenvalues --   -1.41979  -1.32124  -1.14646  -1.09490  -1.03138
 Alpha  occ. eigenvalues --   -1.02843  -1.01164  -0.96680  -0.94271  -0.94013
 Alpha  occ. eigenvalues --   -0.92056  -0.91525  -0.90641  -0.87053  -0.83042
 Alpha  occ. eigenvalues --   -0.79183  -0.78117  -0.76839  -0.71529  -0.70508
 Alpha  occ. eigenvalues --   -0.68987  -0.68813  -0.67288  -0.66068  -0.63670
 Alpha  occ. eigenvalues --   -0.62169  -0.61315  -0.60230  -0.59695  -0.59373
 Alpha  occ. eigenvalues --   -0.57620  -0.57375  -0.57241  -0.56640  -0.56184
 Alpha  occ. eigenvalues --   -0.55598  -0.55466  -0.54334  -0.54212  -0.53872
 Alpha  occ. eigenvalues --   -0.53465  -0.53045  -0.52892  -0.51000  -0.48775
 Alpha  occ. eigenvalues --   -0.48263  -0.47692  -0.46828  -0.46394  -0.45924
 Alpha  occ. eigenvalues --   -0.44611  -0.44218  -0.42950  -0.42727  -0.41706
 Alpha  occ. eigenvalues --   -0.40937  -0.40115  -0.38255  -0.33870
 Alpha virt. eigenvalues --    0.02561   0.03455   0.03712   0.03892   0.04681
 Alpha virt. eigenvalues --    0.04978   0.05196   0.05323   0.05401   0.06251
 Alpha virt. eigenvalues --    0.06426   0.06562   0.07049   0.07187   0.07260

 Mulliken charges:
               1
     1  C    0.591547
     2  C   -0.222544
     3  C   -0.706120
     4  H   -0.451154
     5  C    0.786858
     6  H   -0.166669
     7  H   -0.208913
     8  H   -0.266937
     9  H   -0.082633
    10  C    0.459971
    11  H   -0.215858
    12  H   -0.039059
    13  C    0.807233
    14  H   -0.466399
    15  H   -0.131820
    16  C    0.572094
    17  H   -0.172083
    18  C    0.684947
    19  H    0.079955
    20  H   -0.306970
    21  H   -0.111855
    22  H   -0.154882
    23  C    1.096554
    24  H   -0.375281
    25  Si  -1.195823
    26  C    1.107267
    27  H   -0.233635
    28  H   -0.312482
    29  H   -0.419833
    30  C    1.111183
    31  H   -0.647817
    32  H   -0.292252
    33  H   -0.226587
    34  C    1.199512
    35  H   -0.312325
    36  H   -0.537480
    37  H   -0.244904
    38  B   -1.022360
    39  C    1.128781
    40  H   -0.573820
    41  C    0.328679
    42  H   -0.485911
    43  C    1.426210
    44  H   -0.097967
    45  H   -0.293049
    46  C    0.383629
    47  O   -0.551561
    48  O   -0.667885
    49  C    0.862001
    50  H   -0.252028
    51  H   -0.073517
    52  H   -0.106006
 Sum of Mulliken charges =  -0.00000

 Dipole moment (field-independent basis, Debye):
    X=             -0.4524    Y=             -0.5802    Z=             -1.4821  Tot=              1.6546

 Test job not archived.
 1\1\GINC-SE343\SP\RHF\Aug-CC-pVDZ\C17H31B1O2Si1\OHZDE\09-Apr-2025\0\\#
 t hf aug-cc-pvdz iop(5/13=1,5/36=2,99/5=2) pseudo=read geom=check gues
 s=(read,tcheck) scf=(maxcycle=1)\\title\\0,1\C,0,1.673718,1.826226,0.0
 76522\C,0,0.938761,0.854742,1.033278\C,0,-1.379889,1.449921,-0.924901\
 H,0,2.73094,1.54987,0.051134\C,0,-0.038307,1.590318,1.980383\H,0,-0.66
 7972,0.859506,2.499493\H,0,0.558677,2.075856,2.760302\H,0,-2.215128,1.
 463933,-1.630129\H,0,1.701608,0.438729,1.687642\C,0,-0.919443,2.665765
 ,1.354004\H,0,-1.475798,3.162477,2.155396\H,0,-0.284381,3.442895,0.920

 Normal termination of Gaussian 16 at Wed Apr  9 02:05:27 2025.
