 Gaussian 16, Revision C.01,

 ----------------------------------------------------------------------
 #t hf aug-cc-pvdz symm=none int=(grid=ultrafine) guess=(read,tcheck) s
 table=(opt,rrhf)
 ----------------------------------------------------------------------
 -----
 title
 -----
 Symbolic Z-matrix:
 Charge =  1 Multiplicity = 1

 SCF Done:  E(RHF) =  -459.771694170     A.U. after   15 cycles
 Normal termination of Gaussian 16 at Wed Apr  9 00:53:50 2025.
 Gaussian 16:  ES64L-G16RevC.01  3-Jul-2019

 ----------------------------------------------------------------------
 #t hf aug-cc-pvdz iop(5/13=1,5/36=2,99/5=2) pseudo=read geom=check gue
 ss=(read,tcheck) scf=(maxcycle=1)
 ----------------------------------------------------------------------
 -----
 title
 -----
 Structure from the checkpoint file:  "BH10-RE_126_mol2.chk"
 Charge =  1 Multiplicity = 1

                         Standard orientation:
 ---------------------------------------------------------------------
 Center     Atomic      Atomic             Coordinates (Angstroms)
 Number     Number       Type             X           Y           Z
 ---------------------------------------------------------------------
      1          6           0       -0.929434    0.282921   -0.000001
      2          6           0       -0.040676    1.379010   -0.000035
      3          6           0        1.302991    1.161922   -0.000038
      4          7           0        1.736506   -0.111756   -0.000007
      5          6           0        0.955057   -1.196085    0.000027
      6          6           0       -0.402758   -1.022902    0.000031
      7          9           0        3.070203   -0.309615   -0.000010
      8          8           0       -2.202490    0.573467   -0.000001
      9          1           0       -0.432456    2.386647   -0.000060
     10          1           0        2.064341    1.930138   -0.000063
     11          1           0        1.459434   -2.153228    0.000050
     12          1           0       -1.034200   -1.898260    0.000059
     13          6           0       -3.196646   -0.468406    0.000026
     14          1           0       -4.149955    0.049372    0.000009
     15          1           0       -3.102912   -1.076149    0.900638
     16          1           0       -3.102908   -1.076200   -0.900551
 ---------------------------------------------------------------------

 SCF Done:  E(RHF) =  -459.920762426     A.U. after    2 cycles

 The electronic state is 1-A.
 Alpha  occ. eigenvalues --  -26.37727 -20.79589 -15.99683 -11.54748 -11.52806
 Alpha  occ. eigenvalues --  -11.52068 -11.45427 -11.45177 -11.44739  -1.91015
 Alpha  occ. eigenvalues --   -1.58146  -1.48999  -1.28505  -1.27916  -1.15719
 Alpha  occ. eigenvalues --   -1.11716  -1.05925  -1.00834  -0.99315  -0.96907
 Alpha  occ. eigenvalues --   -0.92520  -0.89505  -0.85725  -0.84961  -0.84145
 Alpha  occ. eigenvalues --   -0.80671  -0.78719  -0.78199  -0.73569  -0.69638
 Alpha  occ. eigenvalues --   -0.68673  -0.57817  -0.56319
 Alpha virt. eigenvalues --   -0.10863  -0.08337  -0.07917  -0.06792  -0.05870
 Alpha virt. eigenvalues --   -0.04826  -0.04018  -0.03881  -0.03236  -0.02040
 Alpha virt. eigenvalues --   -0.00880  -0.00263   0.00474   0.00774   0.02104

 Mulliken charges:
               1
     1  C   -0.606685
     2  C    1.226330
     3  C    0.513153
     4  N   -0.054528
     5  C    0.531904
     6  C    1.348448
     7  F   -0.335891
     8  O   -0.551956
     9  H   -0.479592
    10  H   -0.241916
    11  H   -0.255038
    12  H   -0.587769
    13  C    0.869657
    14  H   -0.256868
    15  H   -0.059624
    16  H   -0.059625
 Sum of Mulliken charges =   1.00000

 Dipole moment (field-independent basis, Debye):
    X=             -0.5613    Y=             -1.1517    Z=              0.0000  Tot=              1.2812

 Test job not archived.
 1\1\GINC-SE179\SP\RHF\Aug-CC-pVDZ\C6H7F1N1O1(1+)\OHZDE\09-Apr-2025\0\\
 #t hf aug-cc-pvdz iop(5/13=1,5/36=2,99/5=2) pseudo=read geom=check gue
 ss=(read,tcheck) scf=(maxcycle=1)\\title\\1,1\C,0,-0.929434,0.282921,-
 0.000001\C,0,-0.040676,1.37901,-0.000035\C,0,1.302991,1.161922,-0.0000
 38\N,0,1.736506,-0.111756,-0.000007\C,0,0.955057,-1.196085,0.000027\C,
 0,-0.402758,-1.022902,0.000031\F,0,3.070203,-0.309615,-0.00001\O,0,-2.
 20249,0.573467,-0.000001\H,0,-0.432456,2.386647,-0.00006\H,0,2.064341,
 1.930138,-0.000063\H,0,1.459434,-2.153228,0.00005\H,0,-1.0342,-1.89826

 Normal termination of Gaussian 16 at Wed Apr  9 00:53:58 2025.
