 Gaussian 16, Revision C.01,

 ----------------------------------------------------------------------
 #t hf aug-cc-pvdz symm=none int=(grid=ultrafine) guess=(read,tcheck) s
 table=(opt,rrhf)
 ----------------------------------------------------------------------
 -----
 title
 -----
 Symbolic Z-matrix:
 Charge =  0 Multiplicity = 1

 SCF Done:  E(RHF) =  -1375.46253576     A.U. after   17 cycles
 Normal termination of Gaussian 16 at Wed Apr  9 03:04:45 2025.
 Gaussian 16:  ES64L-G16RevC.01  3-Jul-2019

 ----------------------------------------------------------------------
 #t hf aug-cc-pvdz iop(5/13=1,5/36=2,99/5=2) pseudo=read geom=check gue
 ss=(read,tcheck) scf=(maxcycle=1)
 ----------------------------------------------------------------------
 -----
 title
 -----
 Structure from the checkpoint file:  "BH10_396_reverse_mol2.chk"
 Charge =  0 Multiplicity = 1

                         Standard orientation:
 ---------------------------------------------------------------------
 Center     Atomic      Atomic             Coordinates (Angstroms)
 Number     Number       Type             X           Y           Z
 ---------------------------------------------------------------------
      1          6           0       -0.199254   -2.655136    0.829955
      2          1           0       -0.354401   -3.717809    0.614765
      3          1           0       -0.195805   -2.564071    1.937088
      4          6           0       -1.362581   -1.867967    0.308157
      5          6           0        0.176767   -0.289283   -0.796537
      6          1           0        0.460703   -0.639668   -1.793358
      7          1           0        0.202414    0.795538   -0.827090
      8          6           0        1.194909   -0.803142    0.217112
      9          1           0        0.927761   -0.375375    1.203306
     10          7           0        1.070618   -2.255199    0.261586
     11          6           0       -2.411991   -0.024312   -0.855574
     12          6           0       -2.737533   -2.319831    0.723806
     13          6           0       -3.619224   -0.594312   -0.802043
     14          6           0       -3.775831   -2.023091   -0.354484
     15          6           0       -1.202503   -0.770253   -0.439036
     16          6           0       -5.193738   -2.327065    0.115648
     17          1           0       -5.457421   -1.709399    0.978430
     18          1           0       -5.922030   -2.128402   -0.673850
     19          1           0       -5.293428   -3.374710    0.408147
     20          6           0        2.601024   -0.341741   -0.102686
     21          6           0        2.191367   -2.917461    0.896837
     22          1           0        1.962826   -3.983165    0.972764
     23          1           0        2.353368   -2.544313    1.925146
     24          6           0        3.439592   -2.704253    0.060979
     25          1           0        3.320742   -3.233570   -0.889349
     26          6           0        3.665336   -1.237040   -0.192916
     27          1           0        4.310679   -3.130718    0.565060
     28          6           0        4.939315   -0.755578   -0.489720
     29          1           0        5.764019   -1.457483   -0.556791
     30          6           0        2.842092    1.021592   -0.276445
     31          1           0        2.026739    1.728223   -0.171421
     32          6           0        5.166841    0.595129   -0.686379
     33          1           0        6.164014    0.951423   -0.915432
     34          6           0        4.110524    1.490592   -0.569816
     35          1           0        4.276670    2.552879   -0.702809
     36         16           0       -2.280279    1.622726   -1.520698
     37          6           0       -1.454788    2.483977   -0.196504
     38          6           0       -1.603704    2.114911    1.136621
     39          6           0       -0.917190    2.804249    2.125874
     40          6           0       -0.097660    3.876025    1.799269
     41          6           0        0.034332    4.255665    0.470072
     42          6           0       -0.632204    3.558555   -0.526583
     43          1           0       -2.247798    1.285031    1.397169
     44          1           0       -1.029183    2.502717    3.160571
     45          1           0        0.435985    4.411074    2.574900
     46          1           0        0.672397    5.089721    0.203370
     47          1           0       -0.502653    3.835368   -1.566231
     48          1           0       -3.022284   -1.801388    1.651947
     49          1           0       -2.734914   -3.388406    0.955456
     50          1           0       -3.552485   -2.664475   -1.220435
     51          1           0       -4.499169   -0.037613   -1.104912
 ---------------------------------------------------------------------

 SCF Done:  E(RHF) =  -1375.76151802     A.U. after    2 cycles

 The electronic state is 1-A.
 Alpha  occ. eigenvalues --  -93.53887 -15.60875 -11.27793 -11.27009 -11.26540
 Alpha  occ. eigenvalues --  -11.26448 -11.25809 -11.25060 -11.25035 -11.24854
 Alpha  occ. eigenvalues --  -11.24699 -11.24677 -11.24586 -11.24421 -11.24095
 Alpha  occ. eigenvalues --  -11.23955 -11.23929 -11.23819 -11.23804 -11.23476
 Alpha  occ. eigenvalues --  -11.23334 -11.23248 -11.23174 -11.23138 -11.23096
 Alpha  occ. eigenvalues --  -11.22292  -8.83615  -6.17865  -6.17659  -6.17301
 Alpha  occ. eigenvalues --   -1.22448  -1.16054  -1.14850  -1.13778  -1.07474
 Alpha  occ. eigenvalues --   -1.06750  -1.04501  -1.03430  -1.01992  -1.01675
 Alpha  occ. eigenvalues --   -0.98919  -0.96974  -0.93355  -0.92472  -0.88274
 Alpha  occ. eigenvalues --   -0.85883  -0.84010  -0.83842  -0.82476  -0.80960
 Alpha  occ. eigenvalues --   -0.79019  -0.76793  -0.74408  -0.70827  -0.69670
 Alpha  occ. eigenvalues --   -0.67981  -0.66842  -0.65523  -0.64639  -0.64108
 Alpha  occ. eigenvalues --   -0.63961  -0.63401  -0.62091  -0.60378  -0.60016
 Alpha  occ. eigenvalues --   -0.59803  -0.59535  -0.58576  -0.57899  -0.57097
 Alpha  occ. eigenvalues --   -0.56484  -0.55392  -0.54592  -0.53452  -0.53392
 Alpha  occ. eigenvalues --   -0.52363  -0.52178  -0.52039  -0.51293  -0.50574
 Alpha  occ. eigenvalues --   -0.50459  -0.49476  -0.48418  -0.47719  -0.47485
 Alpha  occ. eigenvalues --   -0.46018  -0.44931  -0.43397  -0.42143  -0.38448
 Alpha  occ. eigenvalues --   -0.35432  -0.34847  -0.32644  -0.31993  -0.31749
 Alpha  occ. eigenvalues --   -0.29443
 Alpha virt. eigenvalues --    0.02811   0.03179   0.03451   0.03686   0.04403
 Alpha virt. eigenvalues --    0.04752   0.04972   0.05149   0.05511   0.05875
 Alpha virt. eigenvalues --    0.06234   0.06616   0.06759   0.07093   0.07476

 Mulliken charges:
               1
     1  C    0.238149
     2  H   -0.060997
     3  H    0.134720
     4  C   -1.104722
     5  C    0.113359
     6  H    0.047991
     7  H   -0.052218
     8  C   -0.104500
     9  H   -0.203138
    10  N   -0.747099
    11  C   -0.826844
    12  C    0.889987
    13  C    0.498965
    14  C   -0.353554
    15  C    0.315348
    16  C    1.084181
    17  H   -0.010346
    18  H   -0.043531
    19  H   -0.064233
    20  C   -0.067004
    21  C    1.115205
    22  H   -0.280638
    23  H   -0.134287
    24  C    0.767989
    25  H    0.097666
    26  C   -0.338568
    27  H   -0.015842
    28  C    0.701365
    29  H   -0.621473
    30  C    0.705213
    31  H   -0.504712
    32  C    0.291178
    33  H   -0.473951
    34  C    0.187551
    35  H   -0.559641
    36  S    0.437780
    37  C   -0.708826
    38  C    1.127488
    39  C    0.075042
    40  C    0.821062
    41  C    0.400206
    42  C    0.979746
    43  H   -0.614958
    44  H   -0.624811
    45  H   -0.536811
    46  H   -0.535127
    47  H   -0.610451
    48  H    0.014921
    49  H   -0.126136
    50  H   -0.114404
    51  H   -0.606292
 Sum of Mulliken charges =   0.00000

 Dipole moment (field-independent basis, Debye):
    X=             -0.1509    Y=             -1.4423    Z=              2.1221  Tot=              2.5703

 Test job not archived.
 1\1\GINC-SE125\SP\RHF\Aug-CC-pVDZ\C24H25N1S1\OHZDE\09-Apr-2025\0\\#t h
 f aug-cc-pvdz iop(5/13=1,5/36=2,99/5=2) pseudo=read geom=check guess=(
 read,tcheck) scf=(maxcycle=1)\\title\\0,1\C,0,-0.199254,-2.655136,0.82
 9955\H,0,-0.354401,-3.717809,0.614765\H,0,-0.195805,-2.564071,1.937088
 \C,0,-1.362581,-1.867967,0.308157\C,0,0.176767,-0.289283,-0.796537\H,0
 ,0.460703,-0.639668,-1.793358\H,0,0.202414,0.795538,-0.82709\C,0,1.194
 909,-0.803142,0.217112\H,0,0.927761,-0.375375,1.203306\N,0,1.070618,-2
 .255199,0.261586\C,0,-2.411991,-0.024312,-0.855574\C,0,-2.737533,-2.31

 Normal termination of Gaussian 16 at Wed Apr  9 03:08:37 2025.
