 Gaussian 16, Revision C.01,

 ----------------------------------------------------------------------
 #t hf aug-cc-pvdz symm=none int=(grid=ultrafine) guess=(read,tcheck) s
 table=(opt,rrhf)
 ----------------------------------------------------------------------
 -----
 title
 -----
 Symbolic Z-matrix:
 Charge =  0 Multiplicity = 1

 SCF Done:  E(RHF) =  -842.581321091     A.U. after   15 cycles
 Normal termination of Gaussian 16 at Wed Apr  9 00:59:04 2025.
 Gaussian 16:  ES64L-G16RevC.01  3-Jul-2019

 ----------------------------------------------------------------------
 #t hf aug-cc-pvdz iop(5/13=1,5/36=2,99/5=2) pseudo=read geom=check gue
 ss=(read,tcheck) scf=(maxcycle=1)
 ----------------------------------------------------------------------
 -----
 title
 -----
 Structure from the checkpoint file:  "BH10_246_forward_mol2.chk"
 Charge =  0 Multiplicity = 1

                         Standard orientation:
 ---------------------------------------------------------------------
 Center     Atomic      Atomic             Coordinates (Angstroms)
 Number     Number       Type             X           Y           Z
 ---------------------------------------------------------------------
      1          6           0        2.428229    0.545421   -0.717635
      2          6           0        0.953592    0.354489   -0.448549
      3          6           0        0.152064    1.415320   -0.048638
      4          6           0        0.371358   -0.898574   -0.620487
      5          6           0       -1.208758    1.243055    0.169051
      6          1           0        0.591825    2.395224    0.101241
      7          6           0       -0.982237   -1.090196   -0.399517
      8          1           0        0.993202   -1.734124   -0.918987
      9          6           0       -1.762437   -0.012085   -0.008445
     10          1           0       -1.830895    2.071281    0.481087
     11          1           0       -1.434079   -2.064517   -0.530499
     12          8           0        3.233911   -0.476400   -0.174093
     13          6           0        3.296111   -0.451087    1.235363
     14          1           0        2.311791   -0.612058    1.688373
     15          1           0        3.965424   -1.253922    1.539736
     16          1           0        3.697270    0.505928    1.592926
     17         17           0       -3.471768   -0.246191    0.270932
     18          1           0        2.748438    1.526531   -0.341133
     19          1           0        2.618262    0.524052   -1.792708
 ---------------------------------------------------------------------

 SCF Done:  E(RHF) =  -842.717439093     A.U. after    2 cycles

 The electronic state is 1-A.
 Alpha  occ. eigenvalues -- -103.66618 -20.57866 -11.31218 -11.29940 -11.28459
 Alpha  occ. eigenvalues --  -11.26119 -11.26056 -11.25909 -11.25771 -11.25505
 Alpha  occ. eigenvalues --  -10.69910  -8.35649  -8.35343  -8.35325  -1.34522
 Alpha  occ. eigenvalues --   -1.20246  -1.14175  -1.03636  -1.03102  -0.96289
 Alpha  occ. eigenvalues --   -0.88519  -0.85488  -0.80707  -0.71325  -0.68827
 Alpha  occ. eigenvalues --   -0.67546  -0.65538  -0.64367  -0.63271  -0.60889
 Alpha  occ. eigenvalues --   -0.57362  -0.55893  -0.54138  -0.53023  -0.51926
 Alpha  occ. eigenvalues --   -0.49271  -0.47361  -0.46800  -0.44710  -0.35886
 Alpha  occ. eigenvalues --   -0.34010
 Alpha virt. eigenvalues --    0.03180   0.04014   0.04435   0.04701   0.05644
 Alpha virt. eigenvalues --    0.06243   0.06841   0.07140   0.07840   0.09346
 Alpha virt. eigenvalues --    0.09736   0.09957   0.11059   0.11812   0.13407

 Mulliken charges:
               1
     1  C    0.857090
     2  C    0.163902
     3  C    0.933064
     4  C    0.585996
     5  C    0.521762
     6  H   -0.619812
     7  C    0.585045
     8  H   -0.634721
     9  C   -0.459530
    10  H   -0.450525
    11  H   -0.454346
    12  O   -0.652876
    13  C    0.742425
    14  H   -0.080908
    15  H   -0.259020
    16  H   -0.081217
    17  Cl  -0.374117
    18  H   -0.209916
    19  H   -0.112298
 Sum of Mulliken charges =  -0.00000

 Dipole moment (field-independent basis, Debye):
    X=              1.4744    Y=              1.1282    Z=              0.5399  Tot=              1.9334

 Test job not archived.
 1\1\GINC-SE343\SP\RHF\Aug-CC-pVDZ\C8H9Cl1O1\OHZDE\09-Apr-2025\0\\#t hf
  aug-cc-pvdz iop(5/13=1,5/36=2,99/5=2) pseudo=read geom=check guess=(r
 ead,tcheck) scf=(maxcycle=1)\\title\\0,1\C,0,2.428229,0.545421,-0.7176
 35\C,0,0.953592,0.354489,-0.448549\C,0,0.152064,1.41532,-0.048638\C,0,
 0.371358,-0.898574,-0.620487\C,0,-1.208758,1.243055,0.169051\H,0,0.591
 825,2.395224,0.101241\C,0,-0.982237,-1.090196,-0.399517\H,0,0.993202,-
 1.734124,-0.918987\C,0,-1.762437,-0.012085,-0.008445\H,0,-1.830895,2.0
 71281,0.481087\H,0,-1.434079,-2.064517,-0.530499\O,0,3.233911,-0.4764,

 Normal termination of Gaussian 16 at Wed Apr  9 00:59:15 2025.
