 Gaussian 16, Revision C.01,

 ----------------------------------------------------------------------
 #t hf aug-cc-pvdz symm=none int=(grid=ultrafine) guess=(read,tcheck) s
 table=(opt,rrhf)
 ----------------------------------------------------------------------
 -----
 title
 -----
 Symbolic Z-matrix:
 Charge =  0 Multiplicity = 1

 SCF Done:  E(RHF) =  -1000.89898136     A.U. after   16 cycles
 Normal termination of Gaussian 16 at Wed Apr  9 02:08:35 2025.
 Gaussian 16:  ES64L-G16RevC.01  3-Jul-2019

 ----------------------------------------------------------------------
 #t hf aug-cc-pvdz iop(5/13=1,5/36=2,99/5=2) pseudo=read geom=check gue
 ss=(read,tcheck) scf=(maxcycle=1)
 ----------------------------------------------------------------------
 -----
 title
 -----
 Structure from the checkpoint file:  "BH10_85_forward_mol2.chk"
 Charge =  0 Multiplicity = 1

                         Standard orientation:
 ---------------------------------------------------------------------
 Center     Atomic      Atomic             Coordinates (Angstroms)
 Number     Number       Type             X           Y           Z
 ---------------------------------------------------------------------
      1          6           0       -0.249352   -0.501251   -0.684632
      2          6           0        2.155206   -0.557749    0.051728
      3          6           0       -1.419736   -1.156441   -0.699558
      4          6           0        2.467182    0.880687   -0.124389
      5          6           0        3.906188    1.264177   -0.414381
      6          6           0        0.944006   -1.116319   -0.175389
      7          6           0        1.839237    3.144444   -0.166555
      8          6           0        3.228850   -1.477148    0.524214
      9          6           0       -2.726967   -0.577823   -1.103246
     10          6           0       -3.667807   -1.626886   -1.707026
     11          1           0       -3.904533   -2.411912   -0.983082
     12          1           0       -3.215311   -2.110340   -2.576698
     13          1           0       -2.549378    0.218668   -1.835488
     14          1           0       -4.610114   -1.180627   -2.028707
     15          7           0        1.533800    1.738985    0.001303
     16         14           0       -3.484777    0.316681    0.414760
     17          6           0       -2.449101    1.831261    0.794576
     18          6           0       -5.240031    0.837515   -0.008050
     19          6           0       -3.503507   -0.853933    1.881182
     20          1           0        0.931815    3.726754   -0.009230
     21          1           0        2.217580    3.371070   -1.170818
     22          1           0        2.591425    3.491458    0.552080
     23          1           0       -5.267948    1.449127   -0.913703
     24          1           0       -5.667553    1.432337    0.803469
     25          1           0       -5.894000   -0.023137   -0.164836
     26          1           0       -2.499902    2.554293   -0.024195
     27          1           0       -1.397409    1.581214    0.950910
     28          1           0       -2.815003    2.329863    1.696156
     29          1           0       -2.489724   -1.133669    2.176400
     30          1           0       -4.055041   -1.771257    1.660050
     31          1           0       -3.981543   -0.384216    2.744619
     32          6           0        4.636408   -0.924241    0.540016
     33          6           0        4.839090    0.073837   -0.592608
     34          1           0        5.324796   -1.767883    0.493871
     35          1           0        4.792031   -0.429670    1.507036
     36          1           0        4.638599   -0.418560   -1.549178
     37          1           0        5.875904    0.414123   -0.625517
     38          1           0        4.262444    1.888381    0.414107
     39          1           0        3.924527    1.907860   -1.298517
     40          8           0        3.004568   -2.619239    0.868757
     41          1           0       -0.194908    0.529125   -1.008558
     42          1           0       -1.443262   -2.177411   -0.319021
     43          1           0        0.882246   -2.178888    0.047735
 ---------------------------------------------------------------------

 SCF Done:  E(RHF) =  -1001.13923417     A.U. after    2 cycles

 The electronic state is 1-A.
 Alpha  occ. eigenvalues --  -69.04384 -20.54091 -15.60650 -11.33085 -11.29405
 Alpha  occ. eigenvalues --  -11.26684 -11.25993 -11.25440 -11.24862 -11.24648
 Alpha  occ. eigenvalues --  -11.24051 -11.23450 -11.23308 -11.22984 -11.22597
 Alpha  occ. eigenvalues --  -11.20824 -11.20612 -11.20025  -6.79669  -3.90431
 Alpha  occ. eigenvalues --   -3.90411  -3.90401  -1.33771  -1.20604  -1.10739
 Alpha  occ. eigenvalues --   -1.09474  -1.05529  -0.99762  -0.98044  -0.95509
 Alpha  occ. eigenvalues --   -0.93547  -0.91915  -0.91492  -0.89323  -0.85180
 Alpha  occ. eigenvalues --   -0.80510  -0.77384  -0.75301  -0.69440  -0.67880
 Alpha  occ. eigenvalues --   -0.66080  -0.65013  -0.63352  -0.62080  -0.61085
 Alpha  occ. eigenvalues --   -0.60747  -0.59188  -0.58443  -0.58022  -0.57623
 Alpha  occ. eigenvalues --   -0.56697  -0.56382  -0.56150  -0.55099  -0.54127
 Alpha  occ. eigenvalues --   -0.53823  -0.53489  -0.52996  -0.52826  -0.51623
 Alpha  occ. eigenvalues --   -0.51322  -0.49683  -0.49037  -0.48584  -0.45913
 Alpha  occ. eigenvalues --   -0.43214  -0.42842  -0.42715  -0.41438  -0.38601
 Alpha  occ. eigenvalues --   -0.37885  -0.30100
 Alpha virt. eigenvalues --    0.02677   0.03005   0.03796   0.03841   0.04658
 Alpha virt. eigenvalues --    0.04813   0.05070   0.05633   0.05921   0.06109
 Alpha virt. eigenvalues --    0.06222   0.06507   0.06744   0.07277   0.07317

 Mulliken charges:
               1
     1  C    1.075614
     2  C    1.361210
     3  C    0.480980
     4  C   -0.524602
     5  C    0.104787
     6  C   -0.914211
     7  C    1.016130
     8  C   -0.185025
     9  C    0.290323
    10  C    0.806975
    11  H   -0.062293
    12  H   -0.069336
    13  H   -0.351445
    14  H   -0.130791
    15  N   -0.546584
    16  Si   0.338884
    17  C    0.855956
    18  C    0.711159
    19  C    0.794938
    20  H   -0.393828
    21  H   -0.124242
    22  H   -0.145196
    23  H   -0.229754
    24  H   -0.359497
    25  H   -0.302166
    26  H   -0.345257
    27  H   -0.319990
    28  H   -0.339181
    29  H   -0.264506
    30  H   -0.255040
    31  H   -0.311894
    32  C    0.527216
    33  C    0.564391
    34  H   -0.059870
    35  H    0.050210
    36  H   -0.066782
    37  H   -0.044406
    38  H    0.083880
    39  H    0.024502
    40  O   -0.567058
    41  H   -0.740704
    42  H   -0.699702
    43  H   -0.733798
 Sum of Mulliken charges =  -0.00000

 Dipole moment (field-independent basis, Debye):
    X=             -0.2454    Y=              3.2974    Z=             -1.6794  Tot=              3.7086

 Test job not archived.
 1\1\GINC-SE036\SP\RHF\Aug-CC-pVDZ\C15H25N1O1Si1\OHZDE\09-Apr-2025\0\\#
 t hf aug-cc-pvdz iop(5/13=1,5/36=2,99/5=2) pseudo=read geom=check gues
 s=(read,tcheck) scf=(maxcycle=1)\\title\\0,1\C,0,0.249352,-0.501251,0.
 684632\C,0,-2.155206,-0.557749,-0.051728\C,0,1.419736,-1.156441,0.6995
 58\C,0,-2.467182,0.880687,0.124389\C,0,-3.906188,1.264177,0.414381\C,0
 ,-0.944006,-1.116319,0.175389\C,0,-1.839237,3.144444,0.166555\C,0,-3.2
 2885,-1.477148,-0.524214\C,0,2.726967,-0.577823,1.103246\C,0,3.667807,
 -1.626886,1.707026\H,0,3.904533,-2.411912,0.983082\H,0,3.215311,-2.110

 Normal termination of Gaussian 16 at Wed Apr  9 02:10:04 2025.
