 Gaussian 16, Revision C.01,

 ----------------------------------------------------------------------
 #t hf aug-cc-pvdz symm=none int=(grid=ultrafine) guess=(read,tcheck) s
 table=(opt,rrhf)
 ----------------------------------------------------------------------
 -----
 title
 -----
 Symbolic Z-matrix:
 Charge =  1 Multiplicity = 1

 SCF Done:  E(RHF) =  -1233.64341337     A.U. after   14 cycles
 Normal termination of Gaussian 16 at Wed Apr  9 01:35:46 2025.
 Gaussian 16:  ES64L-G16RevC.01  3-Jul-2019

 ----------------------------------------------------------------------
 #t hf aug-cc-pvdz iop(5/13=1,5/36=2,99/5=2) pseudo=read geom=check gue
 ss=(read,tcheck) scf=(maxcycle=1)
 ----------------------------------------------------------------------
 -----
 title
 -----
 Structure from the checkpoint file:  "BH10_325_forward_mol1.chk"
 Charge =  1 Multiplicity = 1

                         Standard orientation:
 ---------------------------------------------------------------------
 Center     Atomic      Atomic             Coordinates (Angstroms)
 Number     Number       Type             X           Y           Z
 ---------------------------------------------------------------------
      1          7           0       -2.226533   -0.667593   -1.574676
      2          6           0       -3.373811   -1.131618   -0.805416
      3          6           0       -3.041896   -1.195320    0.676761
      4          1           0       -3.710459   -2.126723   -1.121973
      5          1           0       -4.215356   -0.447020   -0.947861
      6          8           0       -1.972693   -0.895213    1.126261
      7          8           0       -4.024456   -1.614571    1.476205
      8          6           0       -1.308376    1.138508   -1.097637
      9         16           0        0.126429    2.826570   -0.401844
     10          1           0       -0.544748    0.852360   -1.794449
     11          1           0       -2.123797    1.772316   -1.412601
     12          1           0       -1.280163    0.755666   -0.094230
     13          1           0       -4.829792   -1.842497    0.995999
     14          6           0        1.098153    1.737722    0.690802
     15          6           0       -0.875267    3.661187    0.851085
     16          1           0       -1.569042    4.319330    0.330714
     17          1           0       -0.234610    4.260880    1.495302
     18          1           0       -1.428293    2.934417    1.446144
     19          6           0        2.095011    0.894796   -0.086896
     20          1           0        0.413951    1.099781    1.249422
     21          1           0        1.633518    2.373516    1.397671
     22          6           0        2.729703   -0.209701    0.759987
     23          8           0        1.448717    0.230869   -1.186716
     24          1           0        2.877014    1.533669   -0.506276
     25          6           0        1.662968   -1.169936   -1.168904
     26          6           0        2.903308   -1.333139   -0.268677
     27          8           0        2.930336   -2.603931    0.342782
     28          1           0        3.800950   -1.155821   -0.866254
     29          8           0        1.827951   -0.616489    1.766033
     30          1           0        3.678214    0.115881    1.197101
     31          7           0        0.459591   -1.851520   -0.727421
     32          1           0        1.872559   -1.490582   -2.190295
     33          1           0        2.104877   -1.487674    2.076758
     34          1           0        3.810659   -2.985439    0.299365
     35          1           0       -2.430171   -0.685895   -2.568877
     36          1           0       -1.384759   -1.238048   -1.395780
     37          1           0        0.600196   -2.854850   -0.806035
     38          1           0        0.287371   -1.654897    0.257178
 ---------------------------------------------------------------------

 SCF Done:  E(RHF) =  -1233.92299273     A.U. after    2 cycles

 The electronic state is 1-A.
 Alpha  occ. eigenvalues --  -93.68104 -20.74685 -20.70060 -20.69493 -20.68607
 Alpha  occ. eigenvalues --  -20.68446 -15.77365 -15.72347 -11.52694 -11.45270
 Alpha  occ. eigenvalues --  -11.43729 -11.42698 -11.42194 -11.41265 -11.41001
 Alpha  occ. eigenvalues --  -11.39014 -11.38750  -8.97807  -6.31969  -6.31793
 Alpha  occ. eigenvalues --   -6.31599  -1.55094  -1.48743  -1.46060  -1.45431
 Alpha  occ. eigenvalues --   -1.43276  -1.31505  -1.26552  -1.20812  -1.15558
 Alpha  occ. eigenvalues --   -1.11961  -1.11261  -1.07567  -1.03844  -0.97254
 Alpha  occ. eigenvalues --   -0.95297  -0.94185  -0.90396  -0.87745  -0.86061
 Alpha  occ. eigenvalues --   -0.84333  -0.82671  -0.81820  -0.80800  -0.80187
 Alpha  occ. eigenvalues --   -0.78917  -0.77910  -0.76228  -0.75308  -0.74402
 Alpha  occ. eigenvalues --   -0.73663  -0.73038  -0.72079  -0.71780  -0.70787
 Alpha  occ. eigenvalues --   -0.70259  -0.69609  -0.69532  -0.67741  -0.66265
 Alpha  occ. eigenvalues --   -0.65087  -0.63506  -0.62607  -0.62376  -0.60591
 Alpha  occ. eigenvalues --   -0.59401  -0.58331  -0.57280  -0.56536  -0.55147
 Alpha  occ. eigenvalues --   -0.50981  -0.47167
 Alpha virt. eigenvalues --   -0.06692  -0.05479  -0.05135  -0.04978  -0.03670
 Alpha virt. eigenvalues --   -0.03573  -0.03055  -0.02281  -0.02021  -0.01739
 Alpha virt. eigenvalues --   -0.01462  -0.01030  -0.00440  -0.00362   0.00329

 Mulliken charges:
               1
     1  N   -0.418095
     2  C    0.817867
     3  C    0.484784
     4  H   -0.076085
     5  H   -0.122823
     6  O   -0.393669
     7  O   -0.527519
     8  C    1.043990
     9  S    0.246976
    10  H    0.083569
    11  H   -0.188672
    12  H   -0.148392
    13  H    0.209769
    14  C    0.164090
    15  C    0.452534
    16  H   -0.067728
    17  H   -0.105186
    18  H   -0.144226
    19  C    0.478978
    20  H   -0.163267
    21  H   -0.153191
    22  C    0.669264
    23  O   -0.957768
    24  H   -0.295620
    25  C    1.102146
    26  C    0.810688
    27  O   -0.669889
    28  H   -0.132519
    29  O   -0.762034
    30  H   -0.159232
    31  N   -0.693123
    32  H   -0.303303
    33  H    0.226545
    34  H    0.204848
    35  H    0.107447
    36  H    0.067780
    37  H    0.072758
    38  H    0.238308
 Sum of Mulliken charges =   1.00000

 Dipole moment (field-independent basis, Debye):
    X=             -2.8836    Y=             -0.1022    Z=             -3.9017  Tot=              4.8527

 Test job not archived.
 1\1\GINC-SE219\SP\RHF\Aug-CC-pVDZ\C9H21N2O5S1(1+)\OHZDE\09-Apr-2025\0\
 \#t hf aug-cc-pvdz iop(5/13=1,5/36=2,99/5=2) pseudo=read geom=check gu
 ess=(read,tcheck) scf=(maxcycle=1)\\title\\1,1\N,0,-2.226533,-0.667593
 ,-1.574676\C,0,-3.373811,-1.131618,-0.805416\C,0,-3.041896,-1.19532,0.
 676761\H,0,-3.710459,-2.126723,-1.121973\H,0,-4.215356,-0.44702,-0.947
 861\O,0,-1.972693,-0.895213,1.126261\O,0,-4.024456,-1.614571,1.476205\
 C,0,-1.308376,1.138508,-1.097637\S,0,0.126429,2.82657,-0.401844\H,0,-0
 .544748,0.85236,-1.794449\H,0,-2.123797,1.772316,-1.412601\H,0,-1.2801

 Normal termination of Gaussian 16 at Wed Apr  9 01:36:56 2025.
