 Gaussian 16, Revision C.01,

 ----------------------------------------------------------------------
 #t hf aug-cc-pvdz symm=none int=(grid=ultrafine) guess=(read,tcheck) s
 table=(opt,rrhf)
 ----------------------------------------------------------------------
 -----
 title
 -----
 Symbolic Z-matrix:
 Charge =  0 Multiplicity = 1

 SCF Done:  E(RHF) =  -753.661183583     A.U. after   15 cycles
 Normal termination of Gaussian 16 at Wed Apr  9 02:12:02 2025.
 Gaussian 16:  ES64L-G16RevC.01  3-Jul-2019

 ----------------------------------------------------------------------
 #t hf aug-cc-pvdz iop(5/13=1,5/36=2,99/5=2) pseudo=read geom=check gue
 ss=(read,tcheck) scf=(maxcycle=1)
 ----------------------------------------------------------------------
 -----
 title
 -----
 Structure from the checkpoint file:  "BH10_94_reverse_mol2.chk"
 Charge =  0 Multiplicity = 1

                         Standard orientation:
 ---------------------------------------------------------------------
 Center     Atomic      Atomic             Coordinates (Angstroms)
 Number     Number       Type             X           Y           Z
 ---------------------------------------------------------------------
      1          6           0        1.262681    3.788556   -0.086695
      2          8           0        0.680117    2.490887   -0.065159
      3          1           0        0.466140    4.497817   -0.305394
      4          6           0       -0.146142   -0.830146   -0.525274
      5          6           0        1.049996   -0.123231    0.098783
      6          6           0       -1.499848   -0.201610   -0.288152
      7          6           0       -2.531029   -0.451062   -1.191476
      8          6           0       -1.775962    0.587389    0.823525
      9          6           0       -3.803736    0.061683   -0.988629
     10          6           0       -3.046817    1.104826    1.031728
     11          6           0        3.413869    0.175758    0.141059
     12          6           0       -4.067094    0.842249    0.128850
     13          6           0        2.345164   -0.730036   -0.458651
     14          6           0        2.397756   -2.208164   -0.242607
     15          6           0        1.275015   -2.905065   -0.095749
     16          6           0       -0.121702   -2.325884   -0.079045
     17          6           0       -0.756724   -2.569301    1.295297
     18          8           0        2.831304    1.491293    0.083963
     19          5           0        1.458283    1.396270    0.014424
     20          1           0       -2.330707   -1.054798   -2.070848
     21          1           0       -0.990717    0.814733    1.532343
     22          1           0       -4.589087   -0.143151   -1.706715
     23          1           0       -3.238866    1.720773    1.902410
     24          1           0        4.353255    0.190143   -0.411957
     25          1           0        3.620209   -0.077022    1.186319
     26          1           0       -5.058341    1.248379    0.290607
     27          1           0       -1.816101   -2.313217    1.295642
     28          1           0       -0.263787   -1.978060    2.070656
     29          1           0       -0.659494   -3.620647    1.575255
     30          1           0        2.037458    3.857086   -0.852248
     31          1           0        1.706261    4.026991    0.882085
     32          1           0        1.334964   -3.981142    0.045256
     33          1           0        3.357692   -2.716730   -0.254170
     34          1           0        0.014378   -0.831226   -1.609230
     35          1           0       -0.716056   -2.889832   -0.807474
     36          1           0        1.055482   -0.344362    1.179595
     37          1           0        2.361976   -0.540298   -1.542467
 ---------------------------------------------------------------------

 SCF Done:  E(RHF) =  -753.890416677     A.U. after    2 cycles

 The electronic state is 1-A.
 Alpha  occ. eigenvalues --  -20.56861 -20.56838 -11.29111 -11.28304 -11.24128
 Alpha  occ. eigenvalues --  -11.24106 -11.24058 -11.23836 -11.23692 -11.23627
 Alpha  occ. eigenvalues --  -11.23513 -11.23488 -11.23281 -11.23184 -11.22959
 Alpha  occ. eigenvalues --  -11.21859 -11.21075  -7.63978  -1.34438  -1.31321
 Alpha  occ. eigenvalues --   -1.14924  -1.12249  -1.05051  -1.02984  -1.00281
 Alpha  occ. eigenvalues --   -0.98100  -0.95346  -0.93505  -0.89318  -0.84235
 Alpha  occ. eigenvalues --   -0.82851  -0.80522  -0.78644  -0.72422  -0.72076
 Alpha  occ. eigenvalues --   -0.70151  -0.68119  -0.66873  -0.65035  -0.64028
 Alpha  occ. eigenvalues --   -0.63306  -0.62541  -0.61994  -0.60939  -0.59679
 Alpha  occ. eigenvalues --   -0.58536  -0.58134  -0.57018  -0.55585  -0.53817
 Alpha  occ. eigenvalues --   -0.52227  -0.51350  -0.50592  -0.49962  -0.49425
 Alpha  occ. eigenvalues --   -0.49056  -0.48325  -0.47766  -0.46297  -0.45363
 Alpha  occ. eigenvalues --   -0.44858  -0.41592  -0.35288  -0.33273  -0.32232
 Alpha virt. eigenvalues --    0.02998   0.03637   0.03799   0.04111   0.04772
 Alpha virt. eigenvalues --    0.05036   0.05424   0.05624   0.06094   0.06396
 Alpha virt. eigenvalues --    0.06880   0.07168   0.07540   0.07773   0.08127

 Mulliken charges:
               1
     1  C    0.862404
     2  O   -0.595092
     3  H   -0.334530
     4  C   -0.680834
     5  C   -0.051180
     6  C    0.541802
     7  C    0.630950
     8  C    1.281298
     9  C    0.413686
    10  C    0.057485
    11  C    1.235578
    12  C    1.009482
    13  C    0.162146
    14  C    0.543558
    15  C    0.452484
    16  C   -0.376733
    17  C    0.811124
    18  O   -0.791395
    19  B    0.625908
    20  H   -0.745490
    21  H   -0.872041
    22  H   -0.504444
    23  H   -0.566453
    24  H   -0.179728
    25  H   -0.122503
    26  H   -0.481335
    27  H   -0.054806
    28  H   -0.048658
    29  H   -0.150626
    30  H   -0.143858
    31  H   -0.160174
    32  H   -0.508542
    33  H   -0.532608
    34  H   -0.245875
    35  H   -0.177871
    36  H   -0.220243
    37  H   -0.082885
 Sum of Mulliken charges =  -0.00000

 Dipole moment (field-independent basis, Debye):
    X=              0.8934    Y=             -0.5657    Z=             -0.0697  Tot=              1.0598

 Test job not archived.
 1\1\GINC-SE116\SP\RHF\Aug-CC-pVDZ\C15H19B1O2\OHZDE\09-Apr-2025\0\\#t h
 f aug-cc-pvdz iop(5/13=1,5/36=2,99/5=2) pseudo=read geom=check guess=(
 read,tcheck) scf=(maxcycle=1)\\title\\0,1\C,0,1.26268,3.788556,-0.0866
 95\O,0,0.680117,2.490887,-0.065159\H,0,0.466139,4.497817,-0.305394\C,0
 ,-0.146142,-0.830146,-0.525274\C,0,1.049996,-0.123231,0.098783\C,0,-1.
 499848,-0.20161,-0.288152\C,0,-2.531029,-0.451062,-1.191476\C,0,-1.775
 962,0.587389,0.823525\C,0,-3.803736,0.061682,-0.988629\C,0,-3.046817,1
 .104826,1.031728\C,0,3.413869,0.175759,0.141059\C,0,-4.067094,0.842248

 Normal termination of Gaussian 16 at Wed Apr  9 02:13:16 2025.
