 Gaussian 16, Revision C.01,

 ----------------------------------------------------------------------
 #t hf aug-cc-pvdz symm=none int=(grid=ultrafine) guess=(read,tcheck) s
 table=opt
 ----------------------------------------------------------------------
 -----
 title
 -----
 Symbolic Z-matrix:
 Charge =  0 Multiplicity = 2

 SCF Done:  E(UHF) =  -1746.58182701     A.U. after   18 cycles
 Normal termination of Gaussian 16 at Wed Apr  9 03:31:29 2025.
 Gaussian 16:  ES64L-G16RevC.01  3-Jul-2019

 ----------------------------------------------------------------------
 #t hf aug-cc-pvdz iop(5/13=1,5/36=2,99/5=2) pseudo=read geom=check gue
 ss=(read,tcheck) scf=(maxcycle=1)
 ----------------------------------------------------------------------
 -----
 title
 -----
 Structure from the checkpoint file:  "BH10_306_reverse_mol2.chk"
 Charge =  0 Multiplicity = 2

                         Standard orientation:
 ---------------------------------------------------------------------
 Center     Atomic      Atomic             Coordinates (Angstroms)
 Number     Number       Type             X           Y           Z
 ---------------------------------------------------------------------
      1         14           0       -0.727017   -0.004328   -0.273321
      2         14           0       -0.828645    2.122130    0.715434
      3         14           0        0.059982   -1.567247    1.294348
      4         14           0       -2.873045   -0.640706   -0.992872
      5          6           0       -3.713784    0.806078   -1.864934
      6          1           0       -4.681683    0.501141   -2.273163
      7          1           0       -3.890327    1.640101   -1.181977
      8          1           0       -3.108119    1.179515   -2.694378
      9          6           0       -2.718447   -2.060640   -2.224206
     10          1           0       -2.237074   -2.931926   -1.774488
     11          1           0       -3.703251   -2.371592   -2.584631
     12          1           0       -2.125291   -1.767104   -3.093776
     13          6           0       -3.964514   -1.193993    0.440619
     14          1           0       -4.045084   -0.420957    1.208024
     15          1           0       -4.974732   -1.418784    0.086730
     16          1           0       -3.573527   -2.096333    0.916121
     17          6           0       -0.177875   -3.323826    0.650179
     18          1           0        0.206658   -4.054602    1.367419
     19          1           0       -1.233597   -3.548526    0.481744
     20          1           0        0.348442   -3.478242   -0.295070
     21          6           0        1.875294   -1.338558    1.743396
     22          1           0        2.084907   -0.316905    2.065369
     23          1           0        2.139914   -2.009826    2.565831
     24          1           0        2.535531   -1.565441    0.905571
     25          6           0       -0.944026   -1.359575    2.878574
     26          1           0       -2.017560   -1.445633    2.701011
     27          1           0       -0.664021   -2.124437    3.608664
     28          1           0       -0.760181   -0.385148    3.337607
     29          6           0        0.697522    2.463664    1.767870
     30          1           0        0.670022    3.479531    2.172507
     31          1           0        0.761092    1.773005    2.611980
     32          1           0        1.613983    2.358388    1.183198
     33          6           0       -0.944521    3.436480   -0.631484
     34          1           0       -1.829425    3.290601   -1.255068
     35          1           0       -1.006501    4.436491   -0.192758
     36          1           0       -0.070576    3.415851   -1.286706
     37          6           0       -2.353210    2.248506    1.818638
     38          1           0       -2.391010    3.223470    2.312837
     39          1           0       -3.275015    2.133711    1.243835
     40          1           0       -2.350347    1.481872    2.596743
     41          6           0        0.358817    0.114321   -1.868355
     42          6           0        1.707567    0.666559   -1.618680
     43          6           0        2.932523   -0.177557   -1.624600
     44          1           0        2.686042   -1.185734   -1.267532
     45          1           0        3.284318   -0.326545   -2.659770
     46          6           0        4.080587    0.395102   -0.797189
     47          1           0        3.738796    0.550209    0.231307
     48          1           0        4.341979    1.386445   -1.185121
     49          6           0        5.321309   -0.489994   -0.789429
     50          1           0        5.661251   -0.646019   -1.819032
     51          1           0        5.053297   -1.480287   -0.404570
     52          6           0        6.458064    0.089427    0.044375
     53          1           0        6.151479    0.223688    1.085147
     54          1           0        7.334510   -0.562038    0.037172
     55          1           0        6.766586    1.066537   -0.336974
     56          1           0        0.417690   -0.881631   -2.318302
     57          1           0       -0.208721    0.744861   -2.563211
     58          1           0        1.819852    1.738435   -1.491183
 ---------------------------------------------------------------------

 SCF Done:  E(UHF) =  -1746.85716409     A.U. after    2 cycles

 The electronic state is 2-A.
 Alpha  occ. eigenvalues --  -69.03681 -69.03574 -69.03551 -69.01406 -11.22844
 Alpha  occ. eigenvalues --  -11.22544 -11.22431 -11.22241 -11.21946 -11.21706
 Alpha  occ. eigenvalues --  -11.20668 -11.20620 -11.20613 -11.20548 -11.20535
 Alpha  occ. eigenvalues --  -11.20492 -11.20479 -11.20478 -11.20389  -6.79007
 Alpha  occ. eigenvalues --   -6.78919  -6.78882  -6.77174  -3.89741  -3.89735
 Alpha  occ. eigenvalues --   -3.89714  -3.89640  -3.89636  -3.89631  -3.89618
 Alpha  occ. eigenvalues --   -3.89613  -3.89591  -3.87878  -3.87759  -3.87754
 Alpha  occ. eigenvalues --   -1.08308  -1.03469  -0.96544  -0.95820  -0.95337
 Alpha  occ. eigenvalues --   -0.95299  -0.91823  -0.91652  -0.91604  -0.91450
 Alpha  occ. eigenvalues --   -0.91381  -0.91318  -0.87216  -0.79433  -0.78203
 Alpha  occ. eigenvalues --   -0.68326  -0.65198  -0.62010  -0.61351  -0.60845
 Alpha  occ. eigenvalues --   -0.59447  -0.58858  -0.58536  -0.57571  -0.57472
 Alpha  occ. eigenvalues --   -0.56749  -0.56399  -0.56268  -0.55758  -0.55669
 Alpha  occ. eigenvalues --   -0.55621  -0.54979  -0.54612  -0.54141  -0.54100
 Alpha  occ. eigenvalues --   -0.54016  -0.53714  -0.53543  -0.53342  -0.53179
 Alpha  occ. eigenvalues --   -0.52870  -0.52762  -0.52720  -0.50451  -0.49337
 Alpha  occ. eigenvalues --   -0.47149  -0.46729  -0.46201  -0.43980  -0.43170
 Alpha  occ. eigenvalues --   -0.43123  -0.42635  -0.42546  -0.42283  -0.41261
 Alpha  occ. eigenvalues --   -0.33399  -0.33116  -0.29213
 Alpha virt. eigenvalues --    0.02703   0.03404   0.03421   0.03585   0.04451
 Alpha virt. eigenvalues --    0.04805   0.04908   0.05121   0.05288   0.06002
 Alpha virt. eigenvalues --    0.06194   0.06279   0.06812   0.06859   0.07067

  Beta  occ. eigenvalues --  -69.03683 -69.03564 -69.03554 -69.01335 -11.22887
  Beta  occ. eigenvalues --  -11.22433 -11.22179 -11.22016 -11.21947 -11.20668
  Beta  occ. eigenvalues --  -11.20614 -11.20608 -11.20549 -11.20534 -11.20492
  Beta  occ. eigenvalues --  -11.20481 -11.20473 -11.20389 -11.20366  -6.79011
  Beta  occ. eigenvalues --   -6.78907  -6.78883  -6.77058  -3.89743  -3.89737
  Beta  occ. eigenvalues --   -3.89722  -3.89636  -3.89628  -3.89619  -3.89615
  Beta  occ. eigenvalues --   -3.89600  -3.89593  -3.87717  -3.87698  -3.87642
  Beta  occ. eigenvalues --   -1.07131  -1.01230  -0.96487  -0.95494  -0.95307
  Beta  occ. eigenvalues --   -0.95218  -0.91813  -0.91650  -0.91597  -0.91447
  Beta  occ. eigenvalues --   -0.91376  -0.91311  -0.86733  -0.79140  -0.74237
  Beta  occ. eigenvalues --   -0.67888  -0.64526  -0.61679  -0.61287  -0.60514
  Beta  occ. eigenvalues --   -0.58895  -0.58627  -0.57781  -0.57551  -0.57420
  Beta  occ. eigenvalues --   -0.56720  -0.56307  -0.56217  -0.55662  -0.55614
  Beta  occ. eigenvalues --   -0.55594  -0.54632  -0.54250  -0.54116  -0.53965
  Beta  occ. eigenvalues --   -0.53691  -0.53565  -0.53317  -0.53145  -0.53091
  Beta  occ. eigenvalues --   -0.52806  -0.52726  -0.52698  -0.49599  -0.48806
  Beta  occ. eigenvalues --   -0.46892  -0.46376  -0.45736  -0.43705  -0.43159
  Beta  occ. eigenvalues --   -0.43116  -0.42615  -0.42528  -0.42282  -0.39261
  Beta  occ. eigenvalues --   -0.33066  -0.33052
  Beta virt. eigenvalues --    0.02702   0.03404   0.03424   0.03594   0.04454
  Beta virt. eigenvalues --    0.04808   0.04912   0.05119   0.05285   0.06007
  Beta virt. eigenvalues --    0.06194   0.06280   0.06801   0.06860   0.07072

 Mulliken charges and spin densities:
               1          2
     1  Si   3.333333   0.031989
     2  Si   0.445990   0.012474
     3  Si  -0.078231  -0.013448
     4  Si   0.240151   0.021688
     5  C    0.920617  -0.000631
     6  H   -0.444455   0.000198
     7  H   -0.456013   0.000930
     8  H   -0.392321  -0.000849
     9  C    0.818999  -0.003720
    10  H   -0.447064   0.001034
    11  H   -0.449996  -0.000379
    12  H   -0.382272  -0.000360
    13  C    1.042901   0.005366
    14  H   -0.456417  -0.000705
    15  H   -0.437644   0.000859
    16  H   -0.447267  -0.000122
    17  C    0.948405   0.000664
    18  H   -0.471727  -0.000038
    19  H   -0.440516   0.000396
    20  H   -0.365992  -0.000388
    21  C    1.168785  -0.000240
    22  H   -0.518142  -0.000006
    23  H   -0.359852  -0.000134
    24  H   -0.664160  -0.000441
    25  C    1.185784  -0.001441
    26  H   -0.543573  -0.001838
    27  H   -0.420924   0.000569
    28  H   -0.419821   0.000175
    29  C    1.033879  -0.003378
    30  H   -0.428202   0.000636
    31  H   -0.500454  -0.000406
    32  H   -0.461270  -0.005954
    33  C    0.944425  -0.001024
    34  H   -0.431211  -0.000505
    35  H   -0.415825   0.000524
    36  H   -0.421564   0.002982
    37  C    0.938739  -0.003170
    38  H   -0.458212   0.000359
    39  H   -0.494494  -0.000458
    40  H   -0.467219  -0.000366
    41  C    0.482019  -0.307572
    42  C    0.788540   1.654787
    43  C   -0.216958  -0.362522
    44  H   -0.227241   0.007252
    45  H   -0.099268   0.047361
    46  C    0.236558   0.046980
    47  H   -0.403394   0.009025
    48  H   -0.234652  -0.001490
    49  C    0.609479  -0.003309
    50  H   -0.177364  -0.001072
    51  H   -0.172507  -0.000129
    52  C    0.698538   0.000783
    53  H   -0.109246  -0.000122
    54  H   -0.073390   0.000347
    55  H   -0.089778  -0.000006
    56  H   -0.655570   0.001866
    57  H   -0.342020   0.027745
    58  H   -0.760917  -0.160763
 Sum of Mulliken charges =   0.00000   1.00000

 Dipole moment (field-independent basis, Debye):
    X=              0.0654    Y=             -0.1055    Z=             -0.0760  Tot=              0.1455
                          Isotropic Fermi Contact Couplings
        Atom                 a.u.       MegaHertz       Gauss      10(-4) cm-1
     1  Si(29)             0.09084     -80.72855     -28.80595     -26.92815
     2  Si(29)            -0.00307       2.73214       0.97489       0.91134
     3  Si(29)            -0.00299       2.65334       0.94678       0.88506
     4  Si(29)             0.00997      -8.85863      -3.16098      -2.95492
     5  C(13)              0.00015       0.16656       0.05943       0.05556
     6  H(1)               0.00010       0.45883       0.16372       0.15305
     7  H(1)               0.00001       0.03459       0.01234       0.01154
     8  H(1)               0.00000       0.00982       0.00351       0.00328

 Normal termination of Gaussian 16 at Wed Apr  9 03:35:24 2025.
