 Gaussian 16, Revision C.01,

 ----------------------------------------------------------------------
 #t hf aug-cc-pvdz symm=none int=(grid=ultrafine) guess=(read,tcheck) s
 table=(opt,rrhf)
 ----------------------------------------------------------------------
 -----
 title
 -----
 Symbolic Z-matrix:
 Charge =  0 Multiplicity = 1

 SCF Done:  E(RHF) =  -764.834010574     A.U. after   14 cycles
 Normal termination of Gaussian 16 at Wed Apr  9 00:54:30 2025.
 Gaussian 16:  ES64L-G16RevC.01  3-Jul-2019

 ----------------------------------------------------------------------
 #t hf aug-cc-pvdz iop(5/13=1,5/36=2,99/5=2) pseudo=read geom=check gue
 ss=(read,tcheck) scf=(maxcycle=1)
 ----------------------------------------------------------------------
 -----
 title
 -----
 Structure from the checkpoint file:  "BH10_133_reverse_mol3.chk"
 Charge =  0 Multiplicity = 1

                         Standard orientation:
 ---------------------------------------------------------------------
 Center     Atomic      Atomic             Coordinates (Angstroms)
 Number     Number       Type             X           Y           Z
 ---------------------------------------------------------------------
      1          6           0        1.498148    0.470495    0.646023
      2          6           0        0.139108    0.858997    0.111459
      3          8           0       -0.756436   -0.105564    0.300327
      4          6           0       -2.083638    0.137828   -0.209185
      5          6           0       -2.906410   -1.094108    0.071534
      6          8           0       -0.097095    1.920658   -0.398262
      7         17           0        2.188424   -0.906068   -0.269706
      8          1           0        1.422477    0.162551    1.686300
      9          1           0        2.169792    1.315157    0.538002
     10          1           0       -2.007653    0.350080   -1.276679
     11          1           0       -2.485066    1.025721    0.281912
     12          1           0       -2.475821   -1.967683   -0.419501
     13          1           0       -3.921643   -0.952132   -0.303787
     14          1           0       -2.960301   -1.290575    1.143259
 ---------------------------------------------------------------------

 SCF Done:  E(RHF) =  -764.951967048     A.U. after    2 cycles

 The electronic state is 1-A.
 Alpha  occ. eigenvalues -- -103.66742 -20.62650 -20.57544 -11.40941 -11.32516
 Alpha  occ. eigenvalues --  -11.30791 -11.24102 -10.70006  -8.35735  -8.35428
 Alpha  occ. eigenvalues --   -8.35414  -1.43900  -1.34240  -1.18135  -1.05606
 Alpha  occ. eigenvalues --   -0.98168  -0.87857  -0.80229  -0.72630  -0.70762
 Alpha  occ. eigenvalues --   -0.70070  -0.64299  -0.61335  -0.59124  -0.56932
 Alpha  occ. eigenvalues --   -0.56008  -0.52923  -0.52398  -0.50283  -0.48423
 Alpha  occ. eigenvalues --   -0.46088  -0.45294
 Alpha virt. eigenvalues --    0.03318   0.04162   0.04972   0.05194   0.06232
 Alpha virt. eigenvalues --    0.06713   0.07812   0.07927   0.10911   0.12065
 Alpha virt. eigenvalues --    0.12179   0.13085   0.14024   0.14916   0.15365

 Mulliken charges:
               1
     1  C    0.108963
     2  C    0.242044
     3  O   -0.458770
     4  C    0.649858
     5  C    0.266141
     6  O   -0.418473
     7  Cl  -0.093962
     8  H    0.064085
     9  H    0.047419
    10  H   -0.151070
    11  H   -0.155592
    12  H   -0.039228
    13  H   -0.016866
    14  H   -0.044549
 Sum of Mulliken charges =  -0.00000

 Dipole moment (field-independent basis, Debye):
    X=             -1.4582    Y=             -0.7164    Z=              1.6214  Tot=              2.2953

 Test job not archived.
 1\1\GINC-SE435\SP\RHF\Aug-CC-pVDZ\C4H7Cl1O2\OHZDE\09-Apr-2025\0\\#t hf
  aug-cc-pvdz iop(5/13=1,5/36=2,99/5=2) pseudo=read geom=check guess=(r
 ead,tcheck) scf=(maxcycle=1)\\title\\0,1\C,0,1.498148,0.470495,0.64602
 3\C,0,0.139108,0.858997,0.111459\O,0,-0.756436,-0.105564,0.300327\C,0,
 -2.083638,0.137828,-0.209185\C,0,-2.90641,-1.094108,0.071534\O,0,-0.09
 7095,1.920658,-0.398262\Cl,0,2.188424,-0.906068,-0.269706\H,0,1.422477
 ,0.162551,1.6863\H,0,2.169792,1.315157,0.538002\H,0,-2.007653,0.35008,
 -1.276679\H,0,-2.485066,1.025721,0.281912\H,0,-2.475821,-1.967683,-0.4

 Normal termination of Gaussian 16 at Wed Apr  9 00:54:34 2025.
