 Gaussian 16, Revision C.01,

 ----------------------------------------------------------------------
 #t hf aug-cc-pvdz symm=none int=(grid=ultrafine) guess=(read,tcheck) s
 table=opt
 ----------------------------------------------------------------------
 -----
 title
 -----
 Symbolic Z-matrix:
 Charge =  0 Multiplicity = 2

 SCF Done:  E(UHF) =  -1426.17203727     A.U. after   20 cycles

 1\1\GINC-SE366\Stability\UHF\Aug-CC-pVDZ\C6H11S3\OHZDE\09-Apr-2025\0\\
 #t hf aug-cc-pvdz symm=none int=(grid=ultrafine) guess=(read,tcheck) s
 table=opt\\title\\0,2\H,0,0.631352,0.697623,-0.237874\C,0,0.847165,-1.
 52259,-0.227314\H,0,0.429012,-2.460027,0.153362\C,0,2.907064,-0.032251
 ,-0.159627\H,0,3.81742,0.183034,0.400909\H,0,1.065552,-1.683402,-1.287
 095\H,0,3.198636,-0.317632,-1.172538\C,0,2.147609,-1.178506,0.502861\H
 ,0,2.789752,-2.063841,0.507465\H,0,1.937196,-0.929232,1.546342\C,0,-0.
 196502,-0.431792,-0.111345\C,0,-2.773189,0.304859,-0.453983\C,0,-2.224

 Normal termination of Gaussian 16 at Wed Apr  9 00:57:35 2025.
 Gaussian 16:  ES64L-G16RevC.01  3-Jul-2019

 ----------------------------------------------------------------------
 #t hf aug-cc-pvdz iop(5/13=1,5/36=2,99/5=2) pseudo=read geom=check gue
 ss=(read,tcheck) scf=(maxcycle=1)
 ----------------------------------------------------------------------
 -----
 title
 -----
 Structure from the checkpoint file:  "BH10_159_forward_mol1.chk"
 Charge =  0 Multiplicity = 2

                         Standard orientation:
 ---------------------------------------------------------------------
 Center     Atomic      Atomic             Coordinates (Angstroms)
 Number     Number       Type             X           Y           Z
 ---------------------------------------------------------------------
      1          1           0        0.631352    0.697623   -0.237874
      2          6           0        0.847165   -1.522590   -0.227314
      3          1           0        0.429012   -2.460027    0.153362
      4          6           0        2.907064   -0.032251   -0.159627
      5          1           0        3.817420    0.183034    0.400909
      6          1           0        1.065552   -1.683402   -1.287095
      7          1           0        3.198636   -0.317632   -1.172538
      8          6           0        2.147609   -1.178506    0.502861
      9          1           0        2.789752   -2.063841    0.507465
     10          1           0        1.937196   -0.929232    1.546342
     11          6           0       -0.196502   -0.431792   -0.111345
     12          6           0       -2.773189    0.304859   -0.453983
     13          6           0       -2.224237    0.895309    0.834084
     14          1           0       -3.296520    1.057789   -1.042974
     15          1           0       -3.450375   -0.522425   -0.244157
     16          1           0       -1.757173    1.865570    0.661143
     17          1           0       -3.003590    1.006587    1.587762
     18         16           0       -1.375925   -0.327808   -1.448589
     19         16           0       -0.975485   -0.255162    1.476378
     20         16           0        1.938365    1.517707   -0.226564
 ---------------------------------------------------------------------

 SCF Done:  E(UHF) =  -1426.29980739     A.U. after    2 cycles

 The electronic state is 2-A.
 Alpha  occ. eigenvalues --  -93.54992 -93.54866 -93.51240 -11.32449 -11.29059
 Alpha  occ. eigenvalues --  -11.28863 -11.26321 -11.25771 -11.24754  -8.84790
 Alpha  occ. eigenvalues --   -8.84644  -8.81006  -6.18926  -6.18803  -6.18754
 Alpha  occ. eigenvalues --   -6.18579  -6.18463  -6.18330  -6.15826  -6.14878
 Alpha  occ. eigenvalues --   -6.14449  -1.15600  -1.09368  -1.02669  -0.98644
 Alpha  occ. eigenvalues --   -0.96659  -0.88508  -0.81840  -0.79735  -0.75930
 Alpha  occ. eigenvalues --   -0.66818  -0.66492  -0.64194  -0.60921  -0.59341
 Alpha  occ. eigenvalues --   -0.57285  -0.55810  -0.52815  -0.52196  -0.51657
 Alpha  occ. eigenvalues --   -0.48981  -0.48089  -0.44631  -0.43887  -0.40138
 Alpha  occ. eigenvalues --   -0.36572  -0.33635  -0.29810
 Alpha virt. eigenvalues --    0.03296   0.03679   0.04842   0.05026   0.05628
 Alpha virt. eigenvalues --    0.05758   0.06456   0.07186   0.07828   0.08175
 Alpha virt. eigenvalues --    0.09152   0.09929   0.10872   0.11663   0.12188

  Beta  occ. eigenvalues --  -93.54975 -93.54823 -93.50729 -11.30523 -11.29050
  Beta  occ. eigenvalues --  -11.28867 -11.26392 -11.25909 -11.24678  -8.84773
  Beta  occ. eigenvalues --   -8.84594  -8.80433  -6.18962  -6.18801  -6.18772
  Beta  occ. eigenvalues --   -6.18577  -6.18309  -6.18103  -6.14603  -6.14122
  Beta  occ. eigenvalues --   -6.13620  -1.14075  -1.08977  -1.01090  -0.98331
  Beta  occ. eigenvalues --   -0.95036  -0.87047  -0.81561  -0.78520  -0.72053
  Beta  occ. eigenvalues --   -0.66400  -0.65143  -0.63773  -0.60606  -0.59074
  Beta  occ. eigenvalues --   -0.56445  -0.52464  -0.52163  -0.50725  -0.50279
  Beta  occ. eigenvalues --   -0.48558  -0.47788  -0.43732  -0.43218  -0.36386
  Beta  occ. eigenvalues --   -0.35352  -0.32488
  Beta virt. eigenvalues --    0.03149   0.03568   0.04202   0.05024   0.05075
  Beta virt. eigenvalues --    0.05659   0.05796   0.06641   0.07221   0.07871
  Beta virt. eigenvalues --    0.08271   0.09264   0.10022   0.10959   0.11861

 Mulliken charges and spin densities:
               1          2
     1  H    0.489309  -0.322371
     2  C    0.455168  -0.127787
     3  H   -0.127828   0.029298
     4  C   -0.055628  -0.058442
     5  H   -0.066390   0.006426
     6  H   -0.073082  -0.000269
     7  H   -0.085016   0.001776
     8  C    0.324552   0.031990
     9  H   -0.056093  -0.003227
    10  H   -0.139059   0.000692
    11  C   -1.258045   0.886170
    12  C   -0.105528  -0.008361
    13  C    0.092616  -0.015055
    14  H   -0.054324   0.000283
    15  H   -0.065080  -0.003901
    16  H   -0.120544   0.000072
    17  H   -0.091980  -0.001091
    18  S    0.445284   0.031080
    19  S    0.394812   0.010360
    20  S    0.096857   0.542355
 Sum of Mulliken charges =  -0.00000   1.00000

 Dipole moment (field-independent basis, Debye):
    X=             -1.8434    Y=             -1.4843    Z=              0.5573  Tot=              2.4314
                          Isotropic Fermi Contact Couplings
        Atom                 a.u.       MegaHertz       Gauss      10(-4) cm-1
     1  H(1)              -0.06323    -282.61220    -100.84306     -94.26928
     2  C(13)             -0.02516     -28.28472     -10.09269      -9.43477
     3  H(1)               0.01236      55.24008      19.71103      18.42611
     4  C(13)             -0.01372     -15.41976      -5.50215      -5.14348
     5  H(1)               0.00500      22.33628       7.97014       7.45058
     6  H(1)               0.00129       5.75855       2.05479       1.92085
     7  H(1)               0.00026       1.17468       0.41916       0.39183
     8  C(13)              0.00913      10.26791       3.66385       3.42501

 Normal termination of Gaussian 16 at Wed Apr  9 00:57:47 2025.
