 Gaussian 16, Revision C.01,

 ----------------------------------------------------------------------
 #t hf aug-cc-pvdz symm=none int=(grid=ultrafine) guess=(read,tcheck) s
 table=(opt,rrhf)
 ----------------------------------------------------------------------
 -----
 title
 -----
 Symbolic Z-matrix:
 Charge =  0 Multiplicity = 1

 SCF Done:  E(RHF) =  -743.240130683     A.U. after   15 cycles
 Normal termination of Gaussian 16 at Wed Apr  9 01:38:45 2025.
 Gaussian 16:  ES64L-G16RevC.01  3-Jul-2019

 ----------------------------------------------------------------------
 #t hf aug-cc-pvdz iop(5/13=1,5/36=2,99/5=2) pseudo=read geom=check gue
 ss=(read,tcheck) scf=(maxcycle=1)
 ----------------------------------------------------------------------
 -----
 title
 -----
 Structure from the checkpoint file:  "BH10_418_reverse_mol2.chk"
 Charge =  0 Multiplicity = 1

                         Standard orientation:
 ---------------------------------------------------------------------
 Center     Atomic      Atomic             Coordinates (Angstroms)
 Number     Number       Type             X           Y           Z
 ---------------------------------------------------------------------
      1          6           0        0.594825   -1.407380    0.496480
      2          6           0       -0.752360   -1.401904   -0.227166
      3          6           0       -1.531967   -0.158235    0.127836
      4          6           0       -2.825366   -0.078717   -0.088549
      5          6           0        2.680327   -0.242868   -0.041794
      6          6           0        1.377830   -0.155308    0.167821
      7          6           0       -0.764893    0.993099    0.729724
      8          9           0       -3.590495    0.971747    0.179215
      9          9           0        3.374795   -1.370401    0.013837
     10          6           0        0.611006    1.108806    0.111947
     11          6           0        1.022321    2.253699   -0.430034
     12          9           0        3.496328    0.755374   -0.326364
     13          9           0       -3.565875   -1.047827   -0.611775
     14          1           0        0.370482    3.118608   -0.427494
     15          1           0        1.994285    2.372137   -0.885565
     16          1           0       -0.575865   -1.432619   -1.307247
     17          1           0       -1.320713   -2.298656    0.024768
     18          1           0        0.426911   -1.461102    1.577544
     19          1           0        1.164025   -2.294495    0.223988
     20          1           0       -0.653053    0.820485    1.807562
     21          1           0       -1.309195    1.928464    0.614641
 ---------------------------------------------------------------------

 SCF Done:  E(RHF) =  -743.490256059     A.U. after    2 cycles

 The electronic state is 1-A.
 Alpha  occ. eigenvalues --  -26.17469 -26.17247 -26.16524 -26.16480 -11.43551
 Alpha  occ. eigenvalues --  -11.42197 -11.27161 -11.26999 -11.26472 -11.26223
 Alpha  occ. eigenvalues --  -11.26147 -11.25924 -11.24179  -1.74524  -1.73407
 Alpha  occ. eigenvalues --   -1.69665  -1.68720  -1.16816  -1.10805  -1.06151
 Alpha  occ. eigenvalues --   -1.02618  -0.96544  -0.93894  -0.90452  -0.86778
 Alpha  occ. eigenvalues --   -0.85058  -0.83706  -0.81927  -0.81875  -0.81046
 Alpha  occ. eigenvalues --   -0.76480  -0.75565  -0.74828  -0.73647  -0.73237
 Alpha  occ. eigenvalues --   -0.72477  -0.69223  -0.65956  -0.63787  -0.62450
 Alpha  occ. eigenvalues --   -0.57819  -0.57204  -0.55701  -0.53109  -0.51605
 Alpha  occ. eigenvalues --   -0.49967  -0.44114  -0.37531  -0.33983
 Alpha virt. eigenvalues --    0.03293   0.03878   0.04222   0.05038   0.06005
 Alpha virt. eigenvalues --    0.06340   0.07020   0.07279   0.08441   0.09057
 Alpha virt. eigenvalues --    0.09515   0.10386   0.11625   0.11929   0.12023

 Mulliken charges:
               1
     1  C    0.425089
     2  C    0.346723
     3  C   -0.377971
     4  C    0.568173
     5  C    0.615022
     6  C   -0.188379
     7  C    0.124021
     8  F   -0.324992
     9  F   -0.308640
    10  C   -0.518344
    11  C    1.259643
    12  F   -0.271383
    13  F   -0.323432
    14  H   -0.418924
    15  H   -0.443000
    16  H    0.037998
    17  H   -0.053246
    18  H    0.057924
    19  H   -0.140076
    20  H    0.151944
    21  H   -0.218151
 Sum of Mulliken charges =  -0.00000

 Dipole moment (field-independent basis, Debye):
    X=              0.2735    Y=             -0.2817    Z=              0.7843  Tot=              0.8771

 Test job not archived.
 1\1\GINC-SE150\SP\RHF\Aug-CC-pVDZ\C9H8F4\OHZDE\09-Apr-2025\0\\#t hf au
 g-cc-pvdz iop(5/13=1,5/36=2,99/5=2) pseudo=read geom=check guess=(read
 ,tcheck) scf=(maxcycle=1)\\title\\0,1\C,0,0.594825,-1.40738,0.49648\C,
 0,-0.75236,-1.401904,-0.227166\C,0,-1.531967,-0.158235,0.127836\C,0,-2
 .825366,-0.078717,-0.088549\C,0,2.680327,-0.242868,-0.041794\C,0,1.377
 83,-0.155308,0.167821\C,0,-0.764893,0.993099,0.729724\F,0,-3.590495,0.
 971747,0.179215\F,0,3.374795,-1.370401,0.013837\C,0,0.611006,1.108806,
 0.111947\C,0,1.022321,2.253699,-0.430034\F,0,3.496328,0.755374,-0.3263

 Normal termination of Gaussian 16 at Wed Apr  9 01:39:01 2025.
