 Gaussian 16, Revision C.01,

 ----------------------------------------------------------------------
 #t hf aug-cc-pvdz symm=none int=(grid=ultrafine) guess=(read,tcheck) s
 table=opt
 ----------------------------------------------------------------------
 -----
 title
 -----
 Symbolic Z-matrix:
 Charge =  0 Multiplicity = 2

 SCF Done:  E(UHF) =  -676.683755787     A.U. after   17 cycles
 Normal termination of Gaussian 16 at Wed Apr  9 01:23:19 2025.
 Gaussian 16:  ES64L-G16RevC.01  3-Jul-2019

 ----------------------------------------------------------------------
 #t hf aug-cc-pvdz iop(5/13=1,5/36=2,99/5=2) pseudo=read geom=check gue
 ss=(read,tcheck) scf=(maxcycle=1)
 ----------------------------------------------------------------------
 -----
 title
 -----
 Structure from the checkpoint file:  "BH10_32_reverse_mol2.chk"
 Charge =  0 Multiplicity = 2

                         Standard orientation:
 ---------------------------------------------------------------------
 Center     Atomic      Atomic             Coordinates (Angstroms)
 Number     Number       Type             X           Y           Z
 ---------------------------------------------------------------------
      1          6           0        1.074515    2.332030    0.062177
      2          6           0        1.053686    0.855613   -0.146432
      3          8           0        0.085687    0.169406    0.543720
      4          6           0        2.315555    0.124827   -0.336754
      5         14           0       -1.464649   -0.196978    0.014017
      6          6           0       -2.254307   -1.054331    1.466205
      7          1           0       -1.684603   -1.942023    1.749659
      8          1           0       -3.274309   -1.369857    1.231803
      9          1           0       -2.297266   -0.393048    2.334322
     10          6           0       -1.361990   -1.317456   -1.478519
     11          1           0       -0.750853   -0.864009   -2.262590
     12          1           0       -2.355389   -1.504861   -1.895046
     13          1           0       -0.919345   -2.283463   -1.225985
     14          6           0       -2.386472    1.366935   -0.436063
     15          1           0       -2.423160    2.065080    0.403291
     16          1           0       -3.416324    1.133171   -0.720104
     17          1           0       -1.920402    1.876990   -1.282325
     18          1           0        1.802271    2.806864   -0.598059
     19          1           0        0.096689    2.779667   -0.124695
     20          1           0        1.351698    2.577073    1.098852
     21          6           0        2.343647   -1.372481   -0.474570
     22          1           0        3.055247    0.671828   -0.909584
     23          6           0        2.868307   -0.750102    0.780957
     24          1           0        3.050022   -1.798775   -1.175309
     25          1           0        1.395840   -1.889057   -0.412254
     26          1           0        3.937105   -0.739523    0.951949
     27          1           0        2.254714   -0.833824    1.668064
 ---------------------------------------------------------------------

 SCF Done:  E(UHF) =  -676.841184458     A.U. after    2 cycles

 The electronic state is 2-A.
 Alpha  occ. eigenvalues --  -69.07188 -20.55642 -11.28283 -11.23160 -11.22775
 Alpha  occ. eigenvalues --  -11.22703 -11.22245 -11.20780 -11.20593 -11.20587
 Alpha  occ. eigenvalues --   -6.82022  -3.92932  -3.92771  -3.92748  -1.32026
 Alpha  occ. eigenvalues --   -1.12911  -1.01229  -0.95981  -0.92124  -0.92061
 Alpha  occ. eigenvalues --   -0.87203  -0.81732  -0.77380  -0.67929  -0.67559
 Alpha  occ. eigenvalues --   -0.64351  -0.61433  -0.58892  -0.56579  -0.56437
 Alpha  occ. eigenvalues --   -0.56344  -0.55954  -0.54467  -0.54057  -0.53295
 Alpha  occ. eigenvalues --   -0.53201  -0.52167  -0.50829  -0.47891  -0.44602
 Alpha  occ. eigenvalues --   -0.43023  -0.42581  -0.41756  -0.29522
 Alpha virt. eigenvalues --    0.02921   0.04025   0.04282   0.04471   0.05491
 Alpha virt. eigenvalues --    0.05733   0.05836   0.06327   0.06583   0.07684
 Alpha virt. eigenvalues --    0.07757   0.08466   0.08556   0.08991   0.09380

  Beta  occ. eigenvalues --  -69.07174 -20.55348 -11.25756 -11.23510 -11.22609
  Beta  occ. eigenvalues --  -11.22485 -11.22421 -11.20783 -11.20595 -11.20592
  Beta  occ. eigenvalues --   -6.81998  -3.92897  -3.92759  -3.92737  -1.30403
  Beta  occ. eigenvalues --   -1.12262  -0.98817  -0.95959  -0.92126  -0.92053
  Beta  occ. eigenvalues --   -0.85742  -0.80991  -0.76558  -0.67416  -0.65102
  Beta  occ. eigenvalues --   -0.62030  -0.59441  -0.58415  -0.56465  -0.56289
  Beta  occ. eigenvalues --   -0.55732  -0.55066  -0.54335  -0.53904  -0.53266
  Beta  occ. eigenvalues --   -0.52119  -0.51647  -0.50508  -0.47524  -0.43158
  Beta  occ. eigenvalues --   -0.42321  -0.41551  -0.41210
  Beta virt. eigenvalues --    0.02907   0.04027   0.04286   0.04485   0.05462
  Beta virt. eigenvalues --    0.05735   0.05838   0.06332   0.06544   0.07674
  Beta virt. eigenvalues --    0.07751   0.08462   0.08498   0.08998   0.09373

 Mulliken charges and spin densities:
               1          2
     1  C    0.483221  -0.212137
     2  C   -0.475425   1.279474
     3  O   -1.001885   0.038679
     4  C    0.808137  -0.290740
     5  Si   1.606566  -0.015573
     6  C    0.500307  -0.001578
     7  H   -0.254882  -0.000460
     8  H   -0.297158  -0.000695
     9  H   -0.307458  -0.000355
    10  C    0.639349   0.000390
    11  H   -0.250239   0.001110
    12  H   -0.269709  -0.000366
    13  H   -0.308451   0.000208
    14  C    0.599132  -0.001744
    15  H   -0.307300  -0.000103
    16  H   -0.352457  -0.000578
    17  H   -0.331666   0.001611
    18  H   -0.012277  -0.003990
    19  H   -0.207100   0.009320
    20  H    0.066430   0.053386
    21  C    0.893268   0.023539
    22  H   -0.488746  -0.001578
    23  C    0.774859   0.141860
    24  H   -0.366447  -0.002412
    25  H   -0.439623  -0.005161
    26  H   -0.363106  -0.004244
    27  H   -0.337341  -0.007864
 Sum of Mulliken charges =  -0.00000   1.00000

 Dipole moment (field-independent basis, Debye):
    X=             -0.4224    Y=              0.2929    Z=             -0.6664  Tot=              0.8416
                          Isotropic Fermi Contact Couplings
        Atom                 a.u.       MegaHertz       Gauss      10(-4) cm-1
     1  C(13)             -0.03979     -44.73324     -15.96193     -14.92140
     2  C(13)              0.28329     318.46700     113.63694     106.22916
     3  O(17)              0.01040      -6.30636      -2.25026      -2.10357
     4  C(13)             -0.05816     -65.38342     -23.33043     -21.80956
     5  Si(29)             0.02275     -20.21647      -7.21374      -6.74349
     6  C(13)             -0.00117      -1.31460      -0.46908      -0.43850
     7  H(1)               0.00003       0.11541       0.04118       0.03850
     8  H(1)              -0.00015      -0.65546      -0.23389      -0.21864

 Normal termination of Gaussian 16 at Wed Apr  9 01:23:43 2025.
