 Gaussian 16, Revision C.01,

 ----------------------------------------------------------------------
 #t hf aug-cc-pvdz symm=none int=(grid=ultrafine) guess=(read,tcheck) s
 table=(opt,rrhf)
 ----------------------------------------------------------------------
 -----
 title
 -----
 Symbolic Z-matrix:
 Charge =  0 Multiplicity = 1

 SCF Done:  E(RHF) =  -1155.61047624     A.U. after   15 cycles
 Normal termination of Gaussian 16 at Wed Apr  9 02:00:05 2025.
 Gaussian 16:  ES64L-G16RevC.01  3-Jul-2019

 ----------------------------------------------------------------------
 #t hf aug-cc-pvdz iop(5/13=1,5/36=2,99/5=2) pseudo=read geom=check gue
 ss=(read,tcheck) scf=(maxcycle=1)
 ----------------------------------------------------------------------
 -----
 title
 -----
 Structure from the checkpoint file:  "BH10-RE_402_mol1.chk"
 Charge =  0 Multiplicity = 1

                         Standard orientation:
 ---------------------------------------------------------------------
 Center     Atomic      Atomic             Coordinates (Angstroms)
 Number     Number       Type             X           Y           Z
 ---------------------------------------------------------------------
      1          6           0        0.321519   -2.549670    0.399329
      2          1           0        0.265980   -3.481021   -0.173753
      3          1           0        0.428913   -2.849216    1.463297
      4          6           0       -0.963722   -1.797296    0.240716
      5          6           0        0.284683    0.286311   -0.170231
      6          1           0        0.506455    0.474981   -1.225572
      7          1           0        0.178544    1.260968    0.304854
      8          6           0        1.467662   -0.446564    0.459517
      9          1           0        1.304076   -0.471247    1.555566
     10          7           0        1.477868   -1.807378   -0.059271
     11          6           0       -2.302916    0.209790   -0.163228
     12          6           0       -2.242955   -2.562230    0.450574
     13          6           0       -3.399141   -0.537206   -0.363708
     14          6           0       -3.348690   -2.039869   -0.459323
     15          6           0       -0.998406   -0.488634   -0.029731
     16          6           0       -4.696088   -2.685401   -0.156135
     17          1           0       -4.647096   -3.771087   -0.267639
     18          1           0       -5.008811   -2.466012    0.868490
     19          1           0       -5.472153   -2.314054   -0.829705
     20          6           0        2.777110    0.278834    0.214741
     21          6           0        2.716633   -2.512301    0.201136
     22          1           0        2.593151   -3.551463   -0.111984
     23          1           0        2.956642   -2.523161    1.280585
     24          6           0        3.840346   -1.857021   -0.577963
     25          1           0        3.668977   -2.019111   -1.646484
     26          6           0        3.898023   -0.380690   -0.288277
     27          1           0        4.797772   -2.320979   -0.327159
     28          6           0        5.076113    0.334099   -0.497733
     29          1           0        5.943827   -0.187671   -0.887714
     30          6           0        2.875073    1.635794    0.523906
     31          1           0        2.020006    2.153822    0.941939
     32          6           0        5.157744    1.684587   -0.208256
     33          1           0        6.082459    2.223220   -0.376714
     34          6           0        4.048916    2.338314    0.314256
     35          1           0        4.100271    3.392022    0.560526
     36         14           0       -2.493790    2.082456   -0.033313
     37          6           0       -1.909997    2.673609    1.655770
     38          1           0       -0.855337    2.460077    1.840245
     39          1           0       -2.049749    3.753559    1.754705
     40          1           0       -2.485525    2.189273    2.448500
     41          6           0       -1.546977    2.977583   -1.389834
     42          1           0       -0.466074    2.858686   -1.303920
     43          1           0       -1.843632    2.608370   -2.374736
     44          1           0       -1.766602    4.048439   -1.357689
     45          6           0       -4.309762    2.530885   -0.207636
     46          1           0       -4.924533    2.064007    0.565029
     47          1           0       -4.428395    3.613597   -0.112820
     48          1           0       -4.711529    2.242120   -1.181577
     49          1           0       -3.072708   -2.286339   -1.496427
     50          1           0       -2.559721   -2.459285    1.499196
     51          1           0       -2.086224   -3.630498    0.276495
     52          1           0       -4.372010   -0.072280   -0.491591
 ---------------------------------------------------------------------

 SCF Done:  E(RHF) =  -1155.88793309     A.U. after    2 cycles

 The electronic state is 1-A.
 Alpha  occ. eigenvalues --  -69.04089 -15.60842 -11.26721 -11.26063 -11.25756
 Alpha  occ. eigenvalues --  -11.24218 -11.24110 -11.23751 -11.23686 -11.23680
 Alpha  occ. eigenvalues --  -11.23586 -11.23494 -11.23474 -11.23198 -11.23062
 Alpha  occ. eigenvalues --  -11.23009 -11.22859 -11.22747 -11.22502 -11.21440
 Alpha  occ. eigenvalues --  -11.20345 -11.20296 -11.20098  -6.79376  -3.90115
 Alpha  occ. eigenvalues --   -3.90100  -3.90075  -1.22376  -1.14640  -1.12884
 Alpha  occ. eigenvalues --   -1.07102  -1.05004  -1.03304  -1.00985  -0.98906
 Alpha  occ. eigenvalues --   -0.96616  -0.95266  -0.92630  -0.91487  -0.91348
 Alpha  occ. eigenvalues --   -0.87702  -0.85934  -0.83856  -0.81528  -0.81109
 Alpha  occ. eigenvalues --   -0.76400  -0.74215  -0.69761  -0.67843  -0.67107
 Alpha  occ. eigenvalues --   -0.65188  -0.64181  -0.64067  -0.62102  -0.61960
 Alpha  occ. eigenvalues --   -0.59921  -0.59597  -0.59193  -0.58364  -0.57796
 Alpha  occ. eigenvalues --   -0.56783  -0.56206  -0.55998  -0.55645  -0.54555
 Alpha  occ. eigenvalues --   -0.54100  -0.53631  -0.53573  -0.53125  -0.52815
 Alpha  occ. eigenvalues --   -0.52636  -0.52163  -0.51188  -0.50293  -0.49868
 Alpha  occ. eigenvalues --   -0.48729  -0.48114  -0.47614  -0.45711  -0.43627
 Alpha  occ. eigenvalues --   -0.43408  -0.42500  -0.40945  -0.39294  -0.35428
 Alpha  occ. eigenvalues --   -0.32939  -0.32260  -0.29449
 Alpha virt. eigenvalues --    0.02713   0.03285   0.03349   0.03822   0.04324
 Alpha virt. eigenvalues --    0.04558   0.05304   0.05376   0.05470   0.05793
 Alpha virt. eigenvalues --    0.05922   0.06830   0.07027   0.07237   0.07539

 Mulliken charges:
               1
     1  C    0.570121
     2  H   -0.079625
     3  H    0.164222
     4  C   -0.858970
     5  C    0.216097
     6  H   -0.048938
     7  H   -0.439102
     8  C    0.095997
     9  H   -0.102211
    10  N   -0.758927
    11  C   -1.090981
    12  C    0.876711
    13  C    0.115435
    14  C   -0.166956
    15  C   -0.466137
    16  C    1.086872
    17  H   -0.090999
    18  H   -0.001921
    19  H   -0.056507
    20  C    0.206036
    21  C    1.139434
    22  H   -0.277066
    23  H   -0.133681
    24  C    0.778405
    25  H    0.117661
    26  C   -0.511120
    27  H   -0.001491
    28  C    0.813616
    29  H   -0.598554
    30  C    0.704031
    31  H   -0.590351
    32  C    0.378640
    33  H   -0.465543
    34  C    0.183160
    35  H   -0.550111
    36  Si   0.839345
    37  C    1.073400
    38  H   -0.390357
    39  H   -0.278462
    40  H   -0.320823
    41  C    1.073912
    42  H   -0.375865
    43  H   -0.282444
    44  H   -0.274788
    45  C    0.787559
    46  H   -0.272781
    47  H   -0.497229
    48  H   -0.290069
    49  H   -0.100963
    50  H    0.028808
    51  H   -0.128524
    52  H   -0.747965
 Sum of Mulliken charges =  -0.00000

 Dipole moment (field-independent basis, Debye):
    X=             -0.2726    Y=             -1.0649    Z=              0.3711  Tot=              1.1602

 Test job not archived.
 1\1\GINC-SE460\SP\RHF\Aug-CC-pVDZ\C21H29N1Si1\OHZDE\09-Apr-2025\0\\#t
 hf aug-cc-pvdz iop(5/13=1,5/36=2,99/5=2) pseudo=read geom=check guess=
 (read,tcheck) scf=(maxcycle=1)\\title\\0,1\C,0,0.321519,-2.54967,0.399
 329\H,0,0.26598,-3.481021,-0.173753\H,0,0.428913,-2.849216,1.463297\C,
 0,-0.963722,-1.797296,0.240716\C,0,0.284683,0.286311,-0.170231\H,0,0.5
 06455,0.474981,-1.225572\H,0,0.178544,1.260968,0.304854\C,0,1.467662,-
 0.446564,0.459517\H,0,1.304076,-0.471247,1.555566\N,0,1.477868,-1.8073
 78,-0.059271\C,0,-2.302916,0.20979,-0.163228\C,0,-2.242955,-2.56223,0.

 Normal termination of Gaussian 16 at Wed Apr  9 02:02:53 2025.
