 Gaussian 16, Revision C.01,

 ----------------------------------------------------------------------
 #t hf aug-cc-pvdz symm=none int=(grid=ultrafine) guess=(read,tcheck) s
 table=opt
 ----------------------------------------------------------------------
 -----
 title
 -----
 Symbolic Z-matrix:
 Charge =  0 Multiplicity = 2

 SCF Done:  E(UHF) =  -550.947678049     A.U. after   19 cycles
 Normal termination of Gaussian 16 at Wed Apr  9 00:56:05 2025.
 Gaussian 16:  ES64L-G16RevC.01  3-Jul-2019

 ----------------------------------------------------------------------
 #t hf aug-cc-pvdz iop(5/13=1,5/36=2,99/5=2) pseudo=read geom=check gue
 ss=(read,tcheck) scf=(maxcycle=1)
 ----------------------------------------------------------------------
 -----
 title
 -----
 Structure from the checkpoint file:  "BH10_175_forward_mol3.chk"
 Charge =  0 Multiplicity = 2

                         Standard orientation:
 ---------------------------------------------------------------------
 Center     Atomic      Atomic             Coordinates (Angstroms)
 Number     Number       Type             X           Y           Z
 ---------------------------------------------------------------------
      1         16           0        0.115430   -0.144779   -0.402711
      2          6           0       -1.545496    0.299314    0.199779
      3          1           0       -1.527512    0.309213    1.288057
      4          1           0       -1.827820    1.271562   -0.203271
      5          1           0       -2.222837   -0.471212   -0.163993
      6          6           0        0.992373    1.219507    0.219766
      7          8           0        0.544831   -1.391318    0.312431
      8          1           0        0.721205    2.208081   -0.128743
      9          1           0        1.970177    1.016434    0.634603
 ---------------------------------------------------------------------

 SCF Done:  E(UHF) =  -551.040995252     A.U. after    2 cycles

 The electronic state is 2-A.
 Alpha  occ. eigenvalues --  -93.66490 -20.52043 -11.29236 -11.28170  -8.94906
 Alpha  occ. eigenvalues --   -6.29186  -6.28969  -6.28742  -1.30468  -1.06874
 Alpha  occ. eigenvalues --   -0.98341  -0.81447  -0.65764  -0.64514  -0.63086
 Alpha  occ. eigenvalues --   -0.58680  -0.57825  -0.54031  -0.45547  -0.44676
 Alpha  occ. eigenvalues --   -0.35682
 Alpha virt. eigenvalues --    0.02955   0.04490   0.05102   0.06039   0.07048
 Alpha virt. eigenvalues --    0.08595   0.11663   0.11778   0.13083   0.14128
 Alpha virt. eigenvalues --    0.15250   0.15730   0.16346   0.17567   0.18114

  Beta  occ. eigenvalues --  -93.66540 -20.52093 -11.27902 -11.26787  -8.94958
  Beta  occ. eigenvalues --   -6.29298  -6.29164  -6.28708  -1.30347  -1.04555
  Beta  occ. eigenvalues --   -0.93972  -0.78951  -0.64607  -0.63681  -0.62345
  Beta  occ. eigenvalues --   -0.57943  -0.56967  -0.53407  -0.44469  -0.38388
  Beta virt. eigenvalues --    0.02740   0.03929   0.04887   0.05638   0.06719
  Beta virt. eigenvalues --    0.07093   0.08698   0.11770   0.12738   0.13398
  Beta virt. eigenvalues --    0.15009   0.15938   0.16278   0.16610   0.18015

 Mulliken charges and spin densities:
               1          2
     1  S    1.173463  -0.132763
     2  C    0.049440   0.076486
     3  H    0.007521  -0.008754
     4  H   -0.050004  -0.008521
     5  H   -0.015936  -0.002250
     6  C    0.177574   1.279399
     7  O   -1.049636  -0.004383
     8  H   -0.164331  -0.104713
     9  H   -0.128090  -0.094500
 Sum of Mulliken charges =  -0.00000   1.00000

 Dipole moment (field-independent basis, Debye):
    X=             -1.7720    Y=              4.4089    Z=             -0.5931  Tot=              4.7886
                          Isotropic Fermi Contact Couplings
        Atom                 a.u.       MegaHertz       Gauss      10(-4) cm-1
     1  S(33)              0.01305       4.48088       1.59889       1.49466
     2  C(13)              0.05764      64.80100      23.12261      21.61529
     3  H(1)              -0.00151      -6.76871      -2.41524      -2.25780
     4  H(1)              -0.00151      -6.73355      -2.40270      -2.24607
     5  H(1)              -0.00058      -2.61056      -0.93151      -0.87079
     6  C(13)              0.22630     254.40094      90.77658      84.85902
     7  O(17)             -0.00593       3.59315       1.28213       1.19855
     8  H(1)              -0.02242    -100.22253     -35.76189     -33.43064

 Normal termination of Gaussian 16 at Wed Apr  9 00:56:07 2025.
