 Gaussian 16, Revision C.01,

 ----------------------------------------------------------------------
 #t hf aug-cc-pvdz symm=none int=(grid=ultrafine) guess=(read,tcheck) s
 table=opt
 ----------------------------------------------------------------------
 -----
 title
 -----
 Symbolic Z-matrix:
 Charge =  0 Multiplicity = 2

 SCF Done:  E(UHF) =  -1426.20369263     A.U. after   22 cycles

 1\1\GINC-SE368\Stability\UHF\Aug-CC-pVDZ\C6H11S3\OHZDE\09-Apr-2025\0\\
 #t hf aug-cc-pvdz symm=none int=(grid=ultrafine) guess=(read,tcheck) s
 table=opt\\title\\0,2\C,0,0.395303,1.855468,0.619333\H,0,0.00017,2.861
 36,0.451814\C,0,2.446586,0.473977,-0.168162\H,0,3.309131,0.605312,-0.8
 28322\H,0,0.917218,1.896365,1.58256\H,0,2.816512,0.594008,0.852639\C,0
 ,1.401957,1.543875,-0.489656\H,0,1.945262,2.472784,-0.688187\H,0,0.877
 53,1.294153,-1.414968\C,0,-0.827275,0.949479,0.783674\C,0,-1.506426,-0
 .854884,-1.149339\C,0,-1.413316,-1.664672,0.128996\H,0,-2.315583,-1.21

 Normal termination of Gaussian 16 at Wed Apr  9 00:57:26 2025.
 Gaussian 16:  ES64L-G16RevC.01  3-Jul-2019

 ----------------------------------------------------------------------
 #t hf aug-cc-pvdz iop(5/13=1,5/36=2,99/5=2) pseudo=read geom=check gue
 ss=(read,tcheck) scf=(maxcycle=1)
 ----------------------------------------------------------------------
 -----
 title
 -----
 Structure from the checkpoint file:  "BH10_159_forward_mol2.chk"
 Charge =  0 Multiplicity = 2

                         Standard orientation:
 ---------------------------------------------------------------------
 Center     Atomic      Atomic             Coordinates (Angstroms)
 Number     Number       Type             X           Y           Z
 ---------------------------------------------------------------------
      1          6           0        0.395303    1.855468    0.619333
      2          1           0        0.000171    2.861360    0.451814
      3          6           0        2.446586    0.473977   -0.168162
      4          1           0        3.309131    0.605311   -0.828322
      5          1           0        0.917219    1.896365    1.582560
      6          1           0        2.816512    0.594007    0.852639
      7          6           0        1.401957    1.543875   -0.489656
      8          1           0        1.945263    2.472784   -0.688187
      9          1           0        0.877530    1.294153   -1.414968
     10          6           0       -0.827275    0.949479    0.783674
     11          6           0       -1.506426   -0.854884   -1.149339
     12          6           0       -1.413316   -1.664672    0.128996
     13          1           0       -2.315583   -1.214492   -1.785894
     14          1           0       -0.566582   -0.892910   -1.696079
     15          1           0       -2.396681   -1.832390    0.566339
     16          1           0       -0.922723   -2.624138   -0.041609
     17         16           0       -1.911457    0.856030   -0.690396
     18         16           0       -0.377446   -0.751122    1.312576
     19         16           0        1.964230   -1.251708   -0.429645
     20          1           0       -1.450481    1.369299    1.572081
 ---------------------------------------------------------------------

 SCF Done:  E(UHF) =  -1426.32959187     A.U. after    2 cycles

 The electronic state is 2-A.
 Alpha  occ. eigenvalues --  -93.54076 -93.53462 -93.52971 -11.30555 -11.28004
 Alpha  occ. eigenvalues --  -11.27576 -11.26662 -11.25009 -11.24175  -8.83885
 Alpha  occ. eigenvalues --   -8.83246  -8.82705  -6.18084  -6.17999  -6.17840
 Alpha  occ. eigenvalues --   -6.17666  -6.17401  -6.17209  -6.16881  -6.16399
 Alpha  occ. eigenvalues --   -6.15989  -1.13309  -1.08015  -1.03077  -0.97530
 Alpha  occ. eigenvalues --   -0.95837  -0.87744  -0.80855  -0.80156  -0.74841
 Alpha  occ. eigenvalues --   -0.66197  -0.64632  -0.62731  -0.62254  -0.59166
 Alpha  occ. eigenvalues --   -0.56568  -0.55295  -0.52429  -0.52083  -0.48883
 Alpha  occ. eigenvalues --   -0.47768  -0.47005  -0.45285  -0.42836  -0.41221
 Alpha  occ. eigenvalues --   -0.35372  -0.34646  -0.32640
 Alpha virt. eigenvalues --    0.03446   0.03880   0.04384   0.05241   0.05817
 Alpha virt. eigenvalues --    0.05945   0.06292   0.07419   0.07566   0.08537
 Alpha virt. eigenvalues --    0.09045   0.09953   0.10700   0.10912   0.11985

  Beta  occ. eigenvalues --  -93.53922 -93.53462 -93.52058 -11.30579 -11.28031
  Beta  occ. eigenvalues --  -11.27576 -11.26790 -11.24998 -11.24145  -8.83693
  Beta  occ. eigenvalues --   -8.83246  -8.81678  -6.17877  -6.17666  -6.17400
  Beta  occ. eigenvalues --   -6.17213  -6.17209  -6.16880  -6.15840  -6.15411
  Beta  occ. eigenvalues --   -6.14161  -1.13131  -1.07671  -1.02129  -0.97048
  Beta  occ. eigenvalues --   -0.94240  -0.85347  -0.80158  -0.77312  -0.74266
  Beta  occ. eigenvalues --   -0.65898  -0.64325  -0.62135  -0.62003  -0.58925
  Beta  occ. eigenvalues --   -0.56056  -0.54958  -0.51988  -0.51496  -0.48335
  Beta  occ. eigenvalues --   -0.47702  -0.46836  -0.44292  -0.41503  -0.35422
  Beta  occ. eigenvalues --   -0.34387  -0.32835
  Beta virt. eigenvalues --    0.03448   0.03861   0.04094   0.04764   0.05253
  Beta virt. eigenvalues --    0.05866   0.06034   0.06557   0.07480   0.07581
  Beta virt. eigenvalues --    0.08735   0.09100   0.10003   0.10726   0.11292

 Mulliken charges and spin densities:
               1          2
     1  C    0.154428   0.012417
     2  H   -0.091916   0.000443
     3  C   -0.129306  -0.131071
     4  H   -0.035768   0.014189
     5  H   -0.110493  -0.000323
     6  H   -0.093106   0.003326
     7  C    0.356375   0.014294
     8  H   -0.083310   0.000671
     9  H   -0.141955  -0.009794
    10  C   -0.205395  -0.010843
    11  C    0.025460  -0.004332
    12  C    0.048492  -0.014097
    13  H   -0.061038  -0.000918
    14  H   -0.156802  -0.008424
    15  H   -0.130368  -0.004667
    16  H   -0.072553   0.006824
    17  S    0.378942   0.000286
    18  S    0.315839   0.084432
    19  S    0.191233   1.052269
    20  H   -0.158758  -0.004683
 Sum of Mulliken charges =  -0.00000   1.00000

 Dipole moment (field-independent basis, Debye):
    X=             -0.2804    Y=              0.9532    Z=             -0.1933  Tot=              1.0122
                          Isotropic Fermi Contact Couplings
        Atom                 a.u.       MegaHertz       Gauss      10(-4) cm-1
     1  C(13)              0.00413       4.64241       1.65653       1.54854
     2  H(1)               0.00015       0.65406       0.23338       0.21817
     3  C(13)             -0.02586     -29.06611     -10.37151      -9.69541
     4  H(1)               0.01292      57.77132      20.61424      19.27044
     5  H(1)               0.00009       0.39747       0.14183       0.13258
     6  H(1)               0.00292      13.05781       4.65935       4.35562
     7  C(13)              0.00607       6.82419       2.43504       2.27630
     8  H(1)              -0.00064      -2.87342      -1.02531      -0.95847

 Normal termination of Gaussian 16 at Wed Apr  9 00:57:37 2025.
