 Gaussian 16, Revision C.01,

 ----------------------------------------------------------------------
 #t hf aug-cc-pvdz symm=none int=(grid=ultrafine) guess=(read,tcheck) s
 table=opt
 ----------------------------------------------------------------------
 -----
 title
 -----
 Symbolic Z-matrix:
 Charge =  0 Multiplicity = 2

 SCF Done:  E(UHF) =  -962.539676107     A.U. after   29 cycles
 Normal termination of Gaussian 16 at Wed Apr  9 00:58:52 2025.
 Gaussian 16:  ES64L-G16RevC.01  3-Jul-2019

 ----------------------------------------------------------------------
 #t hf aug-cc-pvdz iop(5/13=1,5/36=2,99/5=2) pseudo=read geom=check gue
 ss=(read,tcheck) scf=(maxcycle=1)
 ----------------------------------------------------------------------
 -----
 title
 -----
 Structure from the checkpoint file:  "BH10_157_forward_mol1.chk"
 Charge =  0 Multiplicity = 2

                         Standard orientation:
 ---------------------------------------------------------------------
 Center     Atomic      Atomic             Coordinates (Angstroms)
 Number     Number       Type             X           Y           Z
 ---------------------------------------------------------------------
      1          7           0        1.762185   -0.464392    1.058765
      2          1           0        1.462405   -0.497280    2.021498
      3          6           0        0.756336   -0.449213    0.000495
      4          1           0        1.197992   -0.960905   -0.855250
      5          6           0       -0.488677   -1.203269    0.445299
      6          6           0        0.494814    1.010126   -0.402890
      7          1           0       -0.185339   -2.174124    0.839964
      8          1           0       -1.006247   -0.671926    1.252842
      9         16           0       -1.679780   -1.481101   -0.884872
     10          8           0       -0.433607    1.675469    0.043520
     11          1           0       -2.624486   -0.252108   -0.469721
     12          7           0        1.401294    1.517311   -1.246296
     13          1           0        2.246960    0.998975   -1.452285
     14          1           0        1.342682    2.497525   -1.476435
     15          6           0        3.084074   -0.403159    0.784002
     16          1           0        3.721673   -0.475902    1.677874
     17          8           0        3.540264   -0.280845   -0.335885
     18          8           0       -3.294489    0.519918    0.093306
     19          8           0       -2.645451    0.929112    1.212988
     20          1           0       -1.836509    1.386806    0.859318
 ---------------------------------------------------------------------

 SCF Done:  E(UHF) =  -962.733715127     A.U. after    2 cycles

 The electronic state is 2-A.
 Alpha  occ. eigenvalues --  -93.54943 -20.67743 -20.63723 -20.57660 -20.57040
 Alpha  occ. eigenvalues --  -15.69419 -15.66850 -11.39941 -11.39815 -11.32609
 Alpha  occ. eigenvalues --  -11.29373  -8.84687  -6.19672  -6.18520  -6.18091
 Alpha  occ. eigenvalues --   -1.48071  -1.39034  -1.38122  -1.24856  -1.20646
 Alpha  occ. eigenvalues --   -1.17622  -1.09128  -0.98852  -0.88288  -0.85667
 Alpha  occ. eigenvalues --   -0.82400  -0.79762  -0.76780  -0.75310  -0.74084
 Alpha  occ. eigenvalues --   -0.71382  -0.69886  -0.66417  -0.65554  -0.64946
 Alpha  occ. eigenvalues --   -0.61697  -0.59639  -0.59030  -0.56537  -0.55586
 Alpha  occ. eigenvalues --   -0.51524  -0.50505  -0.49387  -0.47730  -0.44678
 Alpha  occ. eigenvalues --   -0.43229  -0.42256  -0.37325
 Alpha virt. eigenvalues --    0.01940   0.03391   0.04032   0.04506   0.06476
 Alpha virt. eigenvalues --    0.06862   0.07535   0.07853   0.08386   0.09479
 Alpha virt. eigenvalues --    0.10543   0.10846   0.12027   0.12488   0.13253

  Beta  occ. eigenvalues --  -93.54352 -20.64955 -20.63316 -20.57658 -20.57039
  Beta  occ. eigenvalues --  -15.69420 -15.66851 -11.39942 -11.39817 -11.32602
  Beta  occ. eigenvalues --  -11.29430  -8.84036  -6.18223  -6.17730  -6.17029
  Beta  occ. eigenvalues --   -1.43508  -1.39022  -1.38091  -1.24846  -1.20603
  Beta  occ. eigenvalues --   -1.11931  -1.08341  -0.97034  -0.87400  -0.83449
  Beta  occ. eigenvalues --   -0.82228  -0.78236  -0.75144  -0.74974  -0.72106
  Beta  occ. eigenvalues --   -0.69758  -0.66604  -0.65317  -0.64889  -0.62541
  Beta  occ. eigenvalues --   -0.60134  -0.59057  -0.58650  -0.55570  -0.51912
  Beta  occ. eigenvalues --   -0.50425  -0.49093  -0.47533  -0.44647  -0.43157
  Beta  occ. eigenvalues --   -0.42113  -0.36035
  Beta virt. eigenvalues --   -0.00668   0.01942   0.03394   0.04142   0.04508
  Beta virt. eigenvalues --    0.06518   0.06906   0.07624   0.07862   0.08437
  Beta virt. eigenvalues --    0.09547   0.10725   0.10910   0.12086   0.12561

 Mulliken charges and spin densities:
               1          2
     1  N   -0.325341   0.003622
     2  H   -0.061155   0.000679
     3  C    0.074533  -0.022834
     4  H   -0.256664  -0.001802
     5  C    0.511196  -0.056069
     6  C    0.573667  -0.004234
     7  H   -0.035357   0.007811
     8  H   -0.121662   0.016693
     9  S    0.192579   0.697137
    10  O   -0.627224   0.001870
    11  H    0.315435  -0.277814
    12  N   -0.121012   0.002959
    13  H    0.067097   0.000176
    14  H   -0.027768  -0.000196
    15  C    0.701975  -0.000366
    16  H   -0.239686  -0.000098
    17  O   -0.493300   0.000446
    18  O   -0.271980   0.617299
    19  O   -0.238370   0.025596
    20  H    0.383039  -0.010874
 Sum of Mulliken charges =  -0.00000   1.00000

 Dipole moment (field-independent basis, Debye):
    X=              4.7983    Y=             -0.6966    Z=              1.9576  Tot=              5.2289
                          Isotropic Fermi Contact Couplings
        Atom                 a.u.       MegaHertz       Gauss      10(-4) cm-1
     1  N(14)             -0.00081      -0.26045      -0.09293      -0.08688
     2  H(1)              -0.00000      -0.00943      -0.00336      -0.00314
     3  C(13)              0.00139       1.55863       0.55616       0.51990
     4  H(1)              -0.00023      -1.02230      -0.36478      -0.34100
     5  C(13)             -0.01266     -14.23678      -5.08004      -4.74888
     6  C(13)             -0.00053      -0.59236      -0.21137      -0.19759
     7  H(1)               0.00545      24.35221       8.68948       8.12302
     8  H(1)               0.00802      35.83684      12.78748      11.95388

 Normal termination of Gaussian 16 at Wed Apr  9 00:59:06 2025.
