 Gaussian 16, Revision C.01,

 ----------------------------------------------------------------------
 #t hf aug-cc-pvdz symm=none int=(grid=ultrafine) guess=(read,tcheck) s
 table=(opt,rrhf)
 ----------------------------------------------------------------------
 -----
 title
 -----
 Symbolic Z-matrix:
 Charge =  0 Multiplicity = 1

 SCF Done:  E(RHF) =  -753.639988825     A.U. after   15 cycles
 Normal termination of Gaussian 16 at Wed Apr  9 02:09:04 2025.
 Gaussian 16:  ES64L-G16RevC.01  3-Jul-2019

 ----------------------------------------------------------------------
 #t hf aug-cc-pvdz iop(5/13=1,5/36=2,99/5=2) pseudo=read geom=check gue
 ss=(read,tcheck) scf=(maxcycle=1)
 ----------------------------------------------------------------------
 -----
 title
 -----
 Structure from the checkpoint file:  "BH10_94_forward_mol2.chk"
 Charge =  0 Multiplicity = 1

                         Standard orientation:
 ---------------------------------------------------------------------
 Center     Atomic      Atomic             Coordinates (Angstroms)
 Number     Number       Type             X           Y           Z
 ---------------------------------------------------------------------
      1          6           0       -0.734046    4.610883   -0.847598
      2          8           0        0.020673    3.430769   -0.629617
      3          1           0       -1.628817    4.400474   -1.437397
      4          6           0        1.634834    1.059397   -0.159683
      5          6           0        0.366684    1.113763    0.259007
      6          6           0        2.558216   -0.077133   -0.037782
      7          6           0        2.131459   -1.363036    0.305723
      8          6           0        3.917855    0.125146   -0.279184
      9          6           0        3.037676   -2.402897    0.420221
     10          6           0        4.828857   -0.914313   -0.161017
     11          6           0       -2.480216    1.489052    1.219099
     12          6           0        4.391568   -2.182624    0.191240
     13          6           0       -2.969697    0.395987    0.326251
     14          6           0       -2.733909   -0.897647    0.534871
     15          6           0       -3.211250   -1.975255   -0.317337
     16          6           0       -2.954002   -3.263926   -0.098759
     17          6           0       -3.419818   -4.391432   -0.960225
     18          8           0       -1.799055    2.506306    0.491076
     19          5           0       -0.513019    2.374643    0.043597
     20          1           0        1.077644   -1.553616    0.466808
     21          1           0        4.261401    1.115196   -0.557625
     22          1           0        2.688086   -3.394433    0.682538
     23          1           0        5.880721   -0.733870   -0.347484
     24          1           0       -1.839180    1.083589    2.007286
     25          1           0       -3.321733    1.990642    1.703187
     26          1           0        5.098605   -2.998516    0.280368
     27          1           0       -2.572320   -4.961397   -1.352298
     28          1           0       -4.008052   -4.031032   -1.805667
     29          1           0       -4.035247   -5.093368   -0.389797
     30          1           0       -0.098045    5.308707   -1.390973
     31          1           0       -1.041988    5.060370    0.098856
     32          1           0       -2.358303   -3.532818    0.771782
     33          1           0       -3.805687   -1.687981   -1.181924
     34          1           0       -3.551367    0.712242   -0.536174
     35          1           0       -2.139135   -1.193388    1.397707
     36          1           0        2.050655    1.943018   -0.637616
     37          1           0       -0.050357    0.240562    0.749808
 ---------------------------------------------------------------------

 SCF Done:  E(RHF) =  -753.876821679     A.U. after    2 cycles

 The electronic state is 1-A.
 Alpha  occ. eigenvalues --  -20.56681 -20.55643 -11.29736 -11.27592 -11.24937
 Alpha  occ. eigenvalues --  -11.24896 -11.24850 -11.24835 -11.24529 -11.24435
 Alpha  occ. eigenvalues --  -11.24379 -11.24291 -11.24271 -11.24154 -11.24129
 Alpha  occ. eigenvalues --  -11.23728 -11.20483  -7.63862  -1.33906  -1.30274
 Alpha  occ. eigenvalues --   -1.15173  -1.10092  -1.06220  -1.04845  -1.01323
 Alpha  occ. eigenvalues --   -0.98544  -0.96735  -0.92660  -0.90300  -0.85042
 Alpha  occ. eigenvalues --   -0.82886  -0.78600  -0.77150  -0.76218  -0.72328
 Alpha  occ. eigenvalues --   -0.70852  -0.68779  -0.67042  -0.65432  -0.64446
 Alpha  occ. eigenvalues --   -0.63914  -0.62922  -0.62758  -0.60863  -0.59516
 Alpha  occ. eigenvalues --   -0.59009  -0.58495  -0.57563  -0.56141  -0.54580
 Alpha  occ. eigenvalues --   -0.53291  -0.52329  -0.51671  -0.51025  -0.50329
 Alpha  occ. eigenvalues --   -0.49523  -0.48842  -0.48479  -0.46036  -0.45713
 Alpha  occ. eigenvalues --   -0.44096  -0.40621  -0.34269  -0.31955  -0.30744
 Alpha virt. eigenvalues --    0.02952   0.03621   0.03666   0.03950   0.04600
 Alpha virt. eigenvalues --    0.04856   0.05529   0.05646   0.05943   0.06376
 Alpha virt. eigenvalues --    0.06668   0.07111   0.07204   0.07754   0.08011

 Mulliken charges:
               1
     1  C    0.928973
     2  O   -0.626450
     3  H   -0.141890
     4  C    0.596889
     5  C    0.409634
     6  C    0.253206
     7  C    0.594333
     8  C    0.453518
     9  C    0.412280
    10  C    0.357417
    11  C    1.062790
    12  C    0.506830
    13  C    0.441505
    14  C    0.502560
    15  C    0.846087
    16  C   -0.136347
    17  C    0.388251
    18  O   -0.552735
    19  B    0.864708
    20  H   -0.502114
    21  H   -0.607852
    22  H   -0.491302
    23  H   -0.448899
    24  H   -0.349330
    25  H   -0.211023
    26  H   -0.444798
    27  H    0.098306
    28  H   -0.146106
    29  H    0.100937
    30  H   -0.320060
    31  H   -0.133051
    32  H   -0.477359
    33  H   -0.534473
    34  H   -0.523457
    35  H   -0.602518
    36  H   -0.760066
    37  H   -0.808395
 Sum of Mulliken charges =  -0.00000

 Dipole moment (field-independent basis, Debye):
    X=             -0.8017    Y=             -1.6133    Z=              0.3793  Tot=              1.8410

 Test job not archived.
 1\1\GINC-SE071\SP\RHF\Aug-CC-pVDZ\C15H19B1O2\OHZDE\09-Apr-2025\0\\#t h
 f aug-cc-pvdz iop(5/13=1,5/36=2,99/5=2) pseudo=read geom=check guess=(
 read,tcheck) scf=(maxcycle=1)\\title\\0,1\C,0,-0.734047,4.610883,-0.84
 7598\O,0,0.020673,3.430769,-0.629617\H,0,-1.628818,4.400474,-1.437397\
 C,0,1.634834,1.059397,-0.159683\C,0,0.366684,1.113763,0.259007\C,0,2.5
 58216,-0.077133,-0.037782\C,0,2.131459,-1.363036,0.305723\C,0,3.917855
 ,0.125146,-0.279184\C,0,3.037676,-2.402897,0.420221\C,0,4.828857,-0.91
 4312,-0.161017\C,0,-2.480216,1.489052,1.219099\C,0,4.391568,-2.182623,

 Normal termination of Gaussian 16 at Wed Apr  9 02:10:02 2025.
