 Gaussian 16, Revision C.01,

 ----------------------------------------------------------------------
 #t hf aug-cc-pvdz symm=none int=(grid=ultrafine) guess=(read,tcheck) s
 table=(opt,rrhf)
 ----------------------------------------------------------------------
 -----
 title
 -----
 Symbolic Z-matrix:
 Charge =  1 Multiplicity = 1

 SCF Done:  E(RHF) =  -1201.94346691     A.U. after   16 cycles
 Normal termination of Gaussian 16 at Wed Apr  9 01:42:03 2025.
 Gaussian 16:  ES64L-G16RevC.01  3-Jul-2019

 ----------------------------------------------------------------------
 #t hf aug-cc-pvdz iop(5/13=1,5/36=2,99/5=2) pseudo=read geom=check gue
 ss=(read,tcheck) scf=(maxcycle=1)
 ----------------------------------------------------------------------
 -----
 title
 -----
 Structure from the checkpoint file:  "BH10_330_forward_mol2.chk"
 Charge =  1 Multiplicity = 1

                         Standard orientation:
 ---------------------------------------------------------------------
 Center     Atomic      Atomic             Coordinates (Angstroms)
 Number     Number       Type             X           Y           Z
 ---------------------------------------------------------------------
      1          6           0        1.737334   -0.864522   -0.417892
      2          6           0        1.364871    0.460783   -0.193021
      3          6           0        2.363616    1.412212   -0.053153
      4          6           0        3.705513    1.044267   -0.131226
      5          6           0        4.033094   -0.295860   -0.359013
      6          6           0        3.054830   -1.266009   -0.515292
      7          1           0        2.103675    2.449751    0.118762
      8          1           0        5.075557   -0.582985   -0.423987
      9          1           0        3.326500   -2.296170   -0.709120
     10          6           0       -0.092146    0.641581   -0.142645
     11          6           0       -0.810331    1.812725    0.039653
     12          6           0       -0.768891   -0.558897   -0.321505
     13          6           0       -2.206118    1.736918    0.044892
     14          1           0       -0.299262    2.754340    0.168314
     15          6           0       -2.160053   -0.649073   -0.314320
     16          6           0       -2.877863    0.516753   -0.128066
     17          1           0       -3.957480    0.530464   -0.108704
     18         16           0        0.312475   -1.922839   -0.595041
     19          8           0       -2.671725   -1.880772   -0.472075
     20          8           0       -3.008421    2.792845    0.212541
     21          6           0        4.790823    2.073745   -0.002236
     22          1           0        5.184958    2.335580   -0.987489
     23          1           0        4.422249    2.987605    0.462713
     24          1           0        5.623073    1.696989    0.593324
     25          6           0       -4.091445   -2.028339   -0.547170
     26          1           0       -4.269421   -3.086739   -0.712672
     27          1           0       -4.559791   -1.716334    0.388048
     28          1           0       -4.491688   -1.451838   -1.382803
     29          6           0       -2.439604    4.084890    0.395023
     30          1           0       -1.849381    4.376824   -0.476608
     31          1           0       -3.280989    4.762430    0.506588
     32          1           0       -1.824419    4.115613    1.297299
     33          6           0        0.259198   -2.879962    0.979769
     34          6           0        0.400623   -2.047038    2.232668
     35          1           0        0.338236   -2.711490    3.096031
     36          1           0        1.361258   -1.533751    2.272790
     37          1           0       -0.398694   -1.311077    2.317926
     38          1           0       -0.698366   -3.398091    0.915946
     39          1           0        1.054831   -3.617328    0.861766
 ---------------------------------------------------------------------

 SCF Done:  E(RHF) =  -1202.21343497     A.U. after    2 cycles

 The electronic state is 1-A.
 Alpha  occ. eigenvalues --  -93.77900 -20.73521 -20.71743 -11.46090 -11.45235
 Alpha  occ. eigenvalues --  -11.42747 -11.41733 -11.41014 -11.40867 -11.40161
 Alpha  occ. eigenvalues --  -11.39940 -11.39779 -11.39300 -11.38603 -11.37533
 Alpha  occ. eigenvalues --  -11.37198 -11.36374 -11.36340 -11.35952 -11.34091
 Alpha  occ. eigenvalues --   -9.07256  -6.41421  -6.41406  -6.41101  -1.51081
 Alpha  occ. eigenvalues --   -1.49660  -1.34337  -1.27718  -1.24916  -1.19736
 Alpha  occ. eigenvalues --   -1.17245  -1.16205  -1.13018  -1.11532  -1.07321
 Alpha  occ. eigenvalues --   -1.06040  -1.04834  -0.99755  -0.98573  -0.94036
 Alpha  occ. eigenvalues --   -0.92956  -0.92023  -0.85973  -0.84141  -0.82020
 Alpha  occ. eigenvalues --   -0.80662  -0.79911  -0.79347  -0.77916  -0.77713
 Alpha  occ. eigenvalues --   -0.76855  -0.76370  -0.75418  -0.74558  -0.73114
 Alpha  occ. eigenvalues --   -0.70728  -0.70023  -0.69438  -0.68347  -0.67500
 Alpha  occ. eigenvalues --   -0.66763  -0.66022  -0.65212  -0.64870  -0.64804
 Alpha  occ. eigenvalues --   -0.63419  -0.63346  -0.63183  -0.62307  -0.61680
 Alpha  occ. eigenvalues --   -0.59929  -0.58925  -0.50440  -0.47168  -0.45080
 Alpha  occ. eigenvalues --   -0.43802
 Alpha virt. eigenvalues --   -0.06764  -0.05569  -0.04890  -0.04508  -0.04322
 Alpha virt. eigenvalues --   -0.03441  -0.03092  -0.02875  -0.02506  -0.02227
 Alpha virt. eigenvalues --   -0.02073  -0.01536  -0.01332  -0.00724  -0.00528

 Mulliken charges:
               1
     1  C   -0.719654
     2  C   -0.434330
     3  C    0.453642
     4  C   -0.264702
     5  C    1.262012
     6  C    0.852195
     7  H   -0.507367
     8  H   -0.629213
     9  H   -0.552496
    10  C    0.611244
    11  C    1.458797
    12  C   -0.211051
    13  C   -0.932659
    14  H   -0.690241
    15  C   -0.135272
    16  C    1.607388
    17  H   -0.837093
    18  S   -0.253388
    19  O   -0.711042
    20  O   -0.612327
    21  C    1.002037
    22  H    0.150827
    23  H   -0.143826
    24  H    0.006164
    25  C    0.990719
    26  H   -0.327688
    27  H   -0.105092
    28  H   -0.062455
    29  C    0.915288
    30  H   -0.056415
    31  H   -0.344303
    32  H   -0.065552
    33  C    0.250574
    34  C    0.567825
    35  H   -0.076812
    36  H   -0.104266
    37  H   -0.094617
    38  H   -0.138423
    39  H   -0.118427
 Sum of Mulliken charges =   1.00000

 Dipole moment (field-independent basis, Debye):
    X=              1.3962    Y=             -1.8527    Z=              1.1807  Tot=              2.6031

 Test job not archived.
 1\1\GINC-SE336\SP\RHF\Aug-CC-pVDZ\C17H19O2S1(1+)\OHZDE\09-Apr-2025\0\\
 #t hf aug-cc-pvdz iop(5/13=1,5/36=2,99/5=2) pseudo=read geom=check gue
 ss=(read,tcheck) scf=(maxcycle=1)\\title\\1,1\C,0,1.737334,-0.864522,-
 0.417892\C,0,1.364871,0.460783,-0.193021\C,0,2.363616,1.412212,-0.0531
 53\C,0,3.705513,1.044267,-0.131226\C,0,4.033094,-0.29586,-0.359013\C,0
 ,3.05483,-1.266009,-0.515292\H,0,2.103675,2.449751,0.118762\H,0,5.0755
 57,-0.582985,-0.423987\H,0,3.3265,-2.29617,-0.70912\C,0,-0.092146,0.64
 1581,-0.142645\C,0,-0.810331,1.812725,0.039653\C,0,-0.768891,-0.558897

 Normal termination of Gaussian 16 at Wed Apr  9 01:43:32 2025.
