 Gaussian 16, Revision C.01,

 ----------------------------------------------------------------------
 #t hf aug-cc-pvdz symm=none int=(grid=ultrafine) guess=(read,tcheck) s
 table=(opt,rrhf)
 ----------------------------------------------------------------------
 -----
 title
 -----
 Symbolic Z-matrix:
 Charge =  1 Multiplicity = 1

 SCF Done:  E(RHF) =  -1368.22615400     A.U. after   19 cycles
 Normal termination of Gaussian 16 at Wed Apr  9 02:17:05 2025.
 Gaussian 16:  ES64L-G16RevC.01  3-Jul-2019

 ----------------------------------------------------------------------
 #t hf aug-cc-pvdz iop(5/13=1,5/36=2,99/5=2) pseudo=read geom=check gue
 ss=(read,tcheck) scf=(maxcycle=1)
 ----------------------------------------------------------------------
 -----
 title
 -----
 Structure from the checkpoint file:  "BH10_249_forward_mol1.chk"
 Charge =  1 Multiplicity = 1

                         Standard orientation:
 ---------------------------------------------------------------------
 Center     Atomic      Atomic             Coordinates (Angstroms)
 Number     Number       Type             X           Y           Z
 ---------------------------------------------------------------------
      1          6           0        1.608758   -0.329377   -0.311197
      2          6           0        3.148128    1.833182   -0.328583
      3          6           0        4.310381    0.898517   -0.683018
      4          6           0        4.142307   -0.499353   -0.117071
      5          6           0        2.866613   -1.113616   -0.682337
      6          1           0        4.393134    0.837364   -1.773361
      7          1           0        5.229919    1.356008   -0.312247
      8          1           0        4.069862   -0.462657    0.971069
      9          1           0        2.953579   -1.165404   -1.771902
     10          1           0        2.755802   -2.131694   -0.308322
     11          7           0        1.858619    1.119661   -0.564146
     12          8           0        0.817432    1.862181   -0.605850
     13          6           0        0.444866   -0.765263   -1.200277
     14          1           0        0.330309   -1.846809   -1.120161
     15          1           0       -0.493895   -0.300088   -0.902494
     16          1           0        0.639609   -0.516739   -2.244114
     17          6           0        1.240793   -0.539128    1.166405
     18          1           0        0.426549    0.120159    1.471833
     19          1           0        0.897380   -1.565918    1.295593
     20          1           0        2.083320   -0.389916    1.837890
     21          6           0        3.181861    3.056534   -1.243400
     22          1           0        2.428153    3.791437   -0.965185
     23          1           0        4.162098    3.528280   -1.165325
     24          1           0        3.019773    2.768524   -2.282718
     25          6           0        3.217874    2.283649    1.138565
     26          1           0        4.097900    2.914046    1.270754
     27          1           0        2.349207    2.888388    1.406247
     28          1           0        3.294123    1.450098    1.834042
     29          6           0       -1.426157    3.586260    0.484784
     30          6           0       -1.907454    2.353500    0.646000
     31          6           0       -0.637750    2.673920    1.213692
     32          1           0       -1.546407    4.593897    0.125388
     33          1           0        0.357149    2.170360    0.427879
     34          1           0       -0.183310    2.648165    2.202440
     35          6           0       -2.919707    1.364432    0.449226
     36          6           0       -4.001037    1.628831   -0.397844
     37          6           0       -2.820354    0.130053    1.098098
     38          6           0       -4.967694    0.663353   -0.598362
     39          1           0       -4.076137    2.587047   -0.896256
     40          6           0       -3.791553   -0.832233    0.899914
     41          1           0       -1.986808   -0.067754    1.759735
     42          6           0       -4.857252   -0.561678    0.050179
     43          1           0       -5.810177    0.857208   -1.248642
     44          1           0       -3.730905   -1.786874    1.405172
     45          6           0       -5.883438   -1.635356   -0.211971
     46          9           0       -7.076443   -1.114153   -0.516774
     47          9           0       -5.503371   -2.406297   -1.244506
     48          9           0       -6.040285   -2.435259    0.849120
     49          7           0        5.301593   -1.317724   -0.404216
     50          6           0        5.551443   -2.431807    0.346839
     51          6           0        6.770288   -3.232748   -0.025170
     52          1           0        7.428551   -3.285413    0.842377
     53          1           0        6.460846   -4.250855   -0.262724
     54          1           0        7.322099   -2.818031   -0.868955
     55          8           0        4.817197   -2.739635    1.267137
     56          1           0        5.885133   -1.105405   -1.197156
 ---------------------------------------------------------------------

 SCF Done:  E(RHF) =  -1368.65442371     A.U. after    2 cycles

 The electronic state is 1-A.
 Alpha  occ. eigenvalues --  -26.25552 -26.25534 -26.25132 -20.80804 -20.61146
 Alpha  occ. eigenvalues --  -15.83794 -15.73476 -11.62282 -11.47864 -11.47521
 Alpha  occ. eigenvalues --  -11.46526 -11.44262 -11.41140 -11.40908 -11.40488
 Alpha  occ. eigenvalues --  -11.40380 -11.39953 -11.39877 -11.38551 -11.38497
 Alpha  occ. eigenvalues --  -11.37645 -11.34821 -11.34543 -11.34379 -11.33619
 Alpha  occ. eigenvalues --  -11.33511 -11.33479 -11.31862  -1.85424  -1.78360
 Alpha  occ. eigenvalues --   -1.77894  -1.57722  -1.43016  -1.39661  -1.30541
 Alpha  occ. eigenvalues --   -1.30311  -1.27010  -1.21581  -1.20992  -1.16401
 Alpha  occ. eigenvalues --   -1.14559  -1.12052  -1.10294  -1.06682  -1.06037
 Alpha  occ. eigenvalues --   -1.04848  -1.04199  -1.03335  -1.00782  -0.99025
 Alpha  occ. eigenvalues --   -0.97031  -0.96019  -0.95073  -0.94702  -0.93906
 Alpha  occ. eigenvalues --   -0.92357  -0.90231  -0.88474  -0.87924  -0.86242
 Alpha  occ. eigenvalues --   -0.86101  -0.82098  -0.81583  -0.81374  -0.80767
 Alpha  occ. eigenvalues --   -0.80574  -0.80430  -0.79121  -0.78866  -0.77437
 Alpha  occ. eigenvalues --   -0.76283  -0.75636  -0.74022  -0.73544  -0.72604
 Alpha  occ. eigenvalues --   -0.72272  -0.70906  -0.70361  -0.69761  -0.69220
 Alpha  occ. eigenvalues --   -0.68743  -0.68284  -0.67975  -0.67592  -0.66727
 Alpha  occ. eigenvalues --   -0.65615  -0.65358  -0.65045  -0.64306  -0.63929
 Alpha  occ. eigenvalues --   -0.63689  -0.63663  -0.62800  -0.61941  -0.61001
 Alpha  occ. eigenvalues --   -0.59806  -0.59644  -0.59114  -0.57228  -0.57142
 Alpha  occ. eigenvalues --   -0.51811  -0.50758  -0.48555  -0.47986  -0.43600
 Alpha virt. eigenvalues --   -0.14482  -0.08243  -0.06439  -0.05289  -0.04597
 Alpha virt. eigenvalues --   -0.04430  -0.03264  -0.03017  -0.02864  -0.02748
 Alpha virt. eigenvalues --   -0.02138  -0.01994  -0.01371  -0.01208  -0.00938

 Mulliken charges:
               1
     1  C   -4.529235
     2  C   -3.884039
     3  C    1.745305
     4  C   -0.454208
     5  C    2.025253
     6  H   -0.004770
     7  H   -0.080215
     8  H   -0.376934
     9  H    0.036019
    10  H   -0.081091
    11  N    0.452356
    12  O   -0.756071
    13  C    1.916972
    14  H    0.058774
    15  H   -0.102953
    16  H   -0.037334
    17  C    1.562422
    18  H   -0.307091
    19  H    0.000588
    20  H   -0.001782
    21  C    1.861181
    22  H    0.037131
    23  H    0.078460
    24  H   -0.042513
    25  C    1.351257
    26  H   -0.011578
    27  H   -0.093098
    28  H   -0.022442
    29  C    0.148397
    30  C    0.402261
    31  C    0.292793
    32  H   -0.419547
    33  H    0.278420
    34  H   -0.371607
    35  C    1.051871
    36  C    0.057244
    37  C    0.960259
    38  C    0.096360
    39  H   -0.618219
    40  C   -0.310169
    41  H   -0.674507
    42  C    1.152681
    43  H   -0.537902
    44  H   -0.592117
    45  C    0.949374
    46  F   -0.301976
    47  F   -0.315970
    48  F   -0.308268
    49  N   -0.053558
    50  C   -0.080653
    51  C    0.575189
    52  H    0.046261
    53  H    0.050458
    54  H   -0.184025
    55  O   -0.566590
    56  H   -0.066827
 Sum of Mulliken charges =   1.00000

 Dipole moment (field-independent basis, Debye):
    X=              2.6076    Y=              9.9994    Z=             -0.4242  Tot=             10.3425

 Test job not archived.
 1\1\GINC-SE250\SP\RHF\Aug-CC-pVDZ\C21H28F3N2O2(1+)\OHZDE\09-Apr-2025\0
 \\#t hf aug-cc-pvdz iop(5/13=1,5/36=2,99/5=2) pseudo=read geom=check g
 uess=(read,tcheck) scf=(maxcycle=1)\\title\\1,1\C,0,1.608758,-0.329377
 ,-0.311197\C,0,3.148128,1.833182,-0.328583\C,0,4.310381,0.898517,-0.68
 3018\C,0,4.142307,-0.499353,-0.117071\C,0,2.866613,-1.113616,-0.682337
 \H,0,4.393134,0.837364,-1.773361\H,0,5.229919,1.356008,-0.312247\H,0,4
 .069862,-0.462657,0.971069\H,0,2.953579,-1.165404,-1.771902\H,0,2.7558
 02,-2.131694,-0.308322\N,0,1.858619,1.119661,-0.564146\O,0,0.817432,1.

 Normal termination of Gaussian 16 at Wed Apr  9 02:20:37 2025.
