 Gaussian 16, Revision C.01,

 ----------------------------------------------------------------------
 #t hf aug-cc-pvdz symm=none int=(grid=ultrafine) guess=(read,tcheck) s
 table=(opt,rrhf)
 ----------------------------------------------------------------------
 -----
 title
 -----
 Symbolic Z-matrix:
 Charge =  0 Multiplicity = 1

 SCF Done:  E(RHF) =  -1063.90830731     A.U. after   13 cycles
 Normal termination of Gaussian 16 at Wed Apr  9 01:19:41 2025.
 Gaussian 16:  ES64L-G16RevC.01  3-Jul-2019

 ----------------------------------------------------------------------
 #t hf aug-cc-pvdz iop(5/13=1,5/36=2,99/5=2) pseudo=read geom=check gue
 ss=(read,tcheck) scf=(maxcycle=1)
 ----------------------------------------------------------------------
 -----
 title
 -----
 Structure from the checkpoint file:  "BH10_328_forward_mol2.chk"
 Charge =  0 Multiplicity = 1

                         Standard orientation:
 ---------------------------------------------------------------------
 Center     Atomic      Atomic             Coordinates (Angstroms)
 Number     Number       Type             X           Y           Z
 ---------------------------------------------------------------------
      1          8           0        2.821036   -0.933830    0.527642
      2          6           0        3.238793   -1.782040   -0.551615
      3          1           0        3.585424   -1.176654   -1.389436
      4          1           0        4.054962   -2.384560   -0.162572
      5          1           0        2.413188   -2.422802   -0.861931
      6         15           0        1.647779    0.102911    0.378947
      7          8           0        1.374017    0.906064    1.582842
      8          8           0        2.030807    0.961250   -0.915592
      9          8           0        0.425610   -0.826146   -0.102727
     10          6           0       -0.703577   -0.239907   -0.777952
     11          6           0       -1.493449    0.733443    0.126290
     12          8           0       -2.850052    0.347881    0.014402
     13          6           0       -2.884807   -1.070293   -0.172629
     14          6           0       -1.715245   -1.329460   -1.128345
     15          1           0       -2.041642   -1.211192   -2.161836
     16          1           0       -1.271287   -2.317845   -1.016142
     17          1           0       -0.326607    0.261571   -1.671004
     18          1           0        1.478419    1.768318   -0.951542
     19          6           0       -1.371996    2.195849   -0.266798
     20          1           0       -1.140090    0.605985    1.155720
     21          8           0       -0.025733    2.651242   -0.166195
     22          1           0       -2.033050    2.799775    0.359657
     23          1           0       -1.672700    2.330311   -1.306650
     24          1           0        0.292145    2.504324    0.739051
     25          6           0       -2.767700   -1.814694    1.147752
     26          1           0       -3.847935   -1.285157   -0.636454
     27          1           0       -2.889215   -2.887941    0.984297
     28          1           0       -3.543113   -1.480303    1.838310
     29          1           0       -1.792761   -1.656579    1.613151
 ---------------------------------------------------------------------

 SCF Done:  E(RHF) =  -1064.20977607     A.U. after    2 cycles

 The electronic state is 1-A.
 Alpha  occ. eigenvalues --  -81.44337 -20.61161 -20.60724 -20.60479 -20.58852
 Alpha  occ. eigenvalues --  -20.58035 -20.52686 -11.31979 -11.31246 -11.29976
 Alpha  occ. eigenvalues --  -11.29853 -11.29722 -11.24796 -11.23064  -7.92231
 Alpha  occ. eigenvalues --   -5.06941  -5.06902  -5.06831  -1.39784  -1.36453
 Alpha  occ. eigenvalues --   -1.35011  -1.34487  -1.33322  -1.26135  -1.06963
 Alpha  occ. eigenvalues --   -1.05147  -0.97516  -0.96886  -0.90535  -0.84151
 Alpha  occ. eigenvalues --   -0.81605  -0.80932  -0.76144  -0.73738  -0.71719
 Alpha  occ. eigenvalues --   -0.69254  -0.68390  -0.67927  -0.66209  -0.65639
 Alpha  occ. eigenvalues --   -0.64891  -0.63314  -0.61987  -0.61284  -0.60149
 Alpha  occ. eigenvalues --   -0.57694  -0.56948  -0.56569  -0.54858  -0.53940
 Alpha  occ. eigenvalues --   -0.53690  -0.52583  -0.51523  -0.51132  -0.50399
 Alpha  occ. eigenvalues --   -0.49098  -0.48267  -0.47486  -0.45465  -0.43882
 Alpha virt. eigenvalues --    0.02850   0.03809   0.04103   0.04498   0.05321
 Alpha virt. eigenvalues --    0.05591   0.05885   0.06312   0.06616   0.07568
 Alpha virt. eigenvalues --    0.08064   0.08512   0.08911   0.09485   0.10072

 Mulliken charges:
               1
     1  O   -0.888194
     2  C    0.752971
     3  H   -0.074659
     4  H   -0.242085
     5  H   -0.105580
     6  P    2.794344
     7  O   -0.974723
     8  O   -0.733008
     9  O   -1.100486
    10  C    0.192902
    11  C    0.451717
    12  O   -0.822800
    13  C    0.348754
    14  C    0.557070
    15  H   -0.002686
    16  H   -0.157000
    17  H   -0.416531
    18  H    0.216977
    19  C    0.990270
    20  H   -0.319427
    21  O   -0.673502
    22  H   -0.084887
    23  H   -0.023822
    24  H    0.260863
    25  C    0.543293
    26  H   -0.344939
    27  H   -0.025947
    28  H   -0.045493
    29  H   -0.073392
 Sum of Mulliken charges =  -0.00000

 Dipole moment (field-independent basis, Debye):
    X=             -1.1964    Y=             -3.0029    Z=             -3.4530  Tot=              4.7299

 Test job not archived.
 1\1\GINC-SE365\SP\RHF\Aug-CC-pVDZ\C7H15O6P1\OHZDE\09-Apr-2025\0\\#t hf
  aug-cc-pvdz iop(5/13=1,5/36=2,99/5=2) pseudo=read geom=check guess=(r
 ead,tcheck) scf=(maxcycle=1)\\title\\0,1\O,0,2.821036,-0.93383,0.52764
 2\C,0,3.238793,-1.78204,-0.551615\H,0,3.585424,-1.176654,-1.389436\H,0
 ,4.054962,-2.38456,-0.162572\H,0,2.413188,-2.422802,-0.861931\P,0,1.64
 7779,0.102911,0.378947\O,0,1.374017,0.906064,1.582842\O,0,2.030807,0.9
 6125,-0.915592\O,0,0.42561,-0.826146,-0.102727\C,0,-0.703577,-0.239907
 ,-0.777952\C,0,-1.493449,0.733443,0.12629\O,0,-2.850052,0.347881,0.014

 Normal termination of Gaussian 16 at Wed Apr  9 01:20:09 2025.
