 Gaussian 16, Revision C.01,

 ----------------------------------------------------------------------
 #t hf aug-cc-pvdz symm=none int=(grid=ultrafine) guess=(read,tcheck) s
 table=(opt,rrhf)
 ----------------------------------------------------------------------
 -----
 title
 -----
 Symbolic Z-matrix:
 Charge =  0 Multiplicity = 1

 SCF Done:  E(RHF) =  -650.918896874     A.U. after   13 cycles
 Normal termination of Gaussian 16 at Wed Apr  9 00:53:43 2025.
 Gaussian 16:  ES64L-G16RevC.01  3-Jul-2019

 ----------------------------------------------------------------------
 #t hf aug-cc-pvdz iop(5/13=1,5/36=2,99/5=2) pseudo=read geom=check gue
 ss=(read,tcheck) scf=(maxcycle=1)
 ----------------------------------------------------------------------
 -----
 title
 -----
 Structure from the checkpoint file:  "BH10_101_reverse_mol3.chk"
 Charge =  0 Multiplicity = 1

                         Standard orientation:
 ---------------------------------------------------------------------
 Center     Atomic      Atomic             Coordinates (Angstroms)
 Number     Number       Type             X           Y           Z
 ---------------------------------------------------------------------
      1          8           0        0.097064    1.505759   -0.000109
      2          6           0       -0.078181    0.340958   -0.000036
      3          6           0        0.953957   -0.749306    0.000119
      4          6           0        2.375359   -0.209268    0.000208
      5          1           0        0.753805   -1.379177   -0.870721
      6          1           0        0.753656   -1.379079    0.870994
      7          1           0        2.562884    0.405812   -0.880212
      8          1           0        3.087380   -1.035381    0.000322
      9          1           0        2.562731    0.405924    0.880582
     10         17           0       -1.764928   -0.315205   -0.000108
 ---------------------------------------------------------------------

 SCF Done:  E(RHF) =  -650.999212962     A.U. after    2 cycles

 The electronic state is 1-A.
 Alpha  occ. eigenvalues -- -103.66855 -20.61115 -11.42014 -11.28038 -11.24956
 Alpha  occ. eigenvalues --  -10.70229  -8.35931  -8.35643  -8.35632  -1.42234
 Alpha  occ. eigenvalues --   -1.16660  -1.07434  -0.91671  -0.77534  -0.70312
 Alpha  occ. eigenvalues --   -0.67304  -0.67111  -0.58953  -0.57387  -0.54642
 Alpha  occ. eigenvalues --   -0.52341  -0.47821  -0.47605  -0.46399
 Alpha virt. eigenvalues --    0.03032   0.04796   0.04880   0.05658   0.07518
 Alpha virt. eigenvalues --    0.09036   0.10580   0.11223   0.11806   0.12521
 Alpha virt. eigenvalues --    0.13272   0.15317   0.15688   0.16465   0.16489

 Mulliken charges:
               1
     1  O   -0.351345
     2  C   -0.025249
     3  C    0.132034
     4  C    0.476290
     5  H    0.039581
     6  H    0.039571
     7  H   -0.045348
     8  H   -0.036115
     9  H   -0.045351
    10  Cl  -0.184068
 Sum of Mulliken charges =   0.00000

 Dipole moment (field-independent basis, Debye):
    X=              2.1944    Y=             -2.5312    Z=              0.0003  Tot=              3.3500

 Test job not archived.
 1\1\GINC-SE116\SP\RHF\Aug-CC-pVDZ\C3H5Cl1O1\OHZDE\09-Apr-2025\0\\#t hf
  aug-cc-pvdz iop(5/13=1,5/36=2,99/5=2) pseudo=read geom=check guess=(r
 ead,tcheck) scf=(maxcycle=1)\\title\\0,1\O,0,-0.097064,1.505759,0.0001
 09\C,0,0.078181,0.340958,0.000036\C,0,-0.953957,-0.749306,-0.000119\C,
 0,-2.375359,-0.209268,-0.000208\H,0,-0.753805,-1.379177,0.870721\H,0,-
 0.753656,-1.379079,-0.870994\H,0,-2.562884,0.405812,0.880212\H,0,-3.08
 738,-1.035382,-0.000322\H,0,-2.562731,0.405924,-0.880582\Cl,0,1.764928
 ,-0.315204,0.000108\\Version=ES64L-G16RevC.01\State=1-A\HF=-650.999213

 Normal termination of Gaussian 16 at Wed Apr  9 00:53:47 2025.
