 Gaussian 16, Revision C.01,

 ----------------------------------------------------------------------
 #t hf aug-cc-pvdz symm=none int=(grid=ultrafine) guess=(read,tcheck) s
 table=opt
 ----------------------------------------------------------------------
 -----
 title
 -----
 Symbolic Z-matrix:
 Charge =  0 Multiplicity = 2

 SCF Done:  E(UHF) =  -1512.37309633     A.U. after   15 cycles
 Normal termination of Gaussian 16 at Wed Apr  9 01:24:15 2025.
 Gaussian 16:  ES64L-G16RevC.01  3-Jul-2019

 ----------------------------------------------------------------------
 #t hf aug-cc-pvdz iop(5/13=1,5/36=2,99/5=2) pseudo=read geom=check gue
 ss=(read,tcheck) scf=(maxcycle=1)
 ----------------------------------------------------------------------
 -----
 title
 -----
 Structure from the checkpoint file:  "BH10_291_forward_mol3.chk"
 Charge =  0 Multiplicity = 2

                         Standard orientation:
 ---------------------------------------------------------------------
 Center     Atomic      Atomic             Coordinates (Angstroms)
 Number     Number       Type             X           Y           Z
 ---------------------------------------------------------------------
      1         14           0       -0.000493    0.000060   -0.628883
      2         14           0       -2.264306    0.037055   -0.050547
      3         14           0        1.164004    1.941542   -0.050597
      4         14           0        1.100158   -1.978573   -0.050564
      5          6           0       -3.244162   -1.163276   -1.119075
      6          1           0       -4.299339   -1.164543   -0.830696
      7          1           0       -3.184839   -0.891370   -2.175272
      8          1           0       -2.868582   -2.183762   -1.017772
      9          6           0       -2.457279   -0.465634    1.758204
     10          1           0       -3.509379   -0.438659    2.057478
     11          1           0       -2.088587   -1.479434    1.931069
     12          1           0       -1.903188    0.205656    2.418231
     13          6           0       -2.961803    1.772967   -0.271452
     14          1           0       -4.026128    1.793821   -0.020189
     15          1           0       -2.455291    2.493324    0.375131
     16          1           0       -2.855281    2.117652   -1.302481
     17          6           0        0.831491    2.355408    1.760527
     18          1           0        1.139080    1.538516    2.417405
     19          1           0        1.381467    3.252663    2.059964
     20          1           0       -0.230270    2.541936    1.938221
     21          6           0        3.015400    1.678885   -0.278180
     22          1           0        3.257389    1.416991   -1.310654
     23          1           0        3.566141    2.589714   -0.026310
     24          1           0        3.388186    0.878491    0.365166
     25          6           0        0.610117    3.392273   -1.114077
     26          1           0        0.811532    3.206910   -2.171462
     27          1           0       -0.460986    3.576902   -1.007897
     28          1           0        1.137781    4.306180   -0.826122
     29          6           0        2.629102   -2.226185   -1.119942
     30          1           0        3.324567   -1.390153   -1.018818
     31          1           0        3.158466   -3.139182   -0.832220
     32          1           0        2.363271   -2.310582   -2.175985
     33          6           0        1.632445   -1.893923    1.758041
     34          1           0        2.135886   -2.818214    2.057095
     35          1           0        2.325382   -1.067123    1.930953
     36          1           0        0.774062   -1.750575    2.418321
     37          6           0       -0.054382   -3.450656   -0.270700
     38          1           0        0.459209   -4.382677   -0.017862
     39          1           0       -0.932077   -3.371077    0.374904
     40          1           0       -0.405130   -3.531730   -1.302001
 ---------------------------------------------------------------------

 SCF Done:  E(UHF) =  -1512.57565163     A.U. after    2 cycles

 The electronic state is 2-A.
 Alpha  occ. eigenvalues --  -69.04249 -69.04248 -69.04246 -69.01795 -11.20788
 Alpha  occ. eigenvalues --  -11.20786 -11.20786 -11.20759 -11.20759 -11.20756
 Alpha  occ. eigenvalues --  -11.20557 -11.20555 -11.20555  -6.79493  -6.79491
 Alpha  occ. eigenvalues --   -6.79482  -6.77663  -3.90249  -3.90248  -3.90245
 Alpha  occ. eigenvalues --   -3.90241  -3.90240  -3.90238  -3.90208  -3.90207
 Alpha  occ. eigenvalues --   -3.90204  -3.89002  -3.88049  -3.88049  -0.96364
 Alpha  occ. eigenvalues --   -0.95522  -0.95521  -0.91817  -0.91792  -0.91790
 Alpha  occ. eigenvalues --   -0.91591  -0.91589  -0.91448  -0.69673  -0.61483
 Alpha  occ. eigenvalues --   -0.61481  -0.58798  -0.57447  -0.57442  -0.56613
 Alpha  occ. eigenvalues --   -0.56612  -0.56605  -0.55872  -0.55837  -0.55835
 Alpha  occ. eigenvalues --   -0.54634  -0.54305  -0.54303  -0.53926  -0.53921
 Alpha  occ. eigenvalues --   -0.53569  -0.53050  -0.53015  -0.53010  -0.52148
 Alpha  occ. eigenvalues --   -0.43670  -0.43425  -0.43425  -0.42881  -0.42880
 Alpha  occ. eigenvalues --   -0.42553  -0.34271  -0.34267  -0.28121
 Alpha virt. eigenvalues --    0.02820   0.03688   0.03689   0.04294   0.05220
 Alpha virt. eigenvalues --    0.05221   0.05645   0.05646   0.05791   0.06816
 Alpha virt. eigenvalues --    0.07145   0.07295   0.07296   0.07462   0.07463

  Beta  occ. eigenvalues --  -69.04274 -69.04273 -69.04271 -69.01285 -11.20765
  Beta  occ. eigenvalues --  -11.20765 -11.20763 -11.20717 -11.20716 -11.20715
  Beta  occ. eigenvalues --  -11.20557 -11.20555 -11.20555  -6.79531  -6.79530
  Beta  occ. eigenvalues --   -6.79520  -6.76956  -3.90294  -3.90293  -3.90291
  Beta  occ. eigenvalues --   -3.90268  -3.90267  -3.90265  -3.90258  -3.90257
  Beta  occ. eigenvalues --   -3.90254  -3.87673  -3.87673  -3.86870  -0.96245
  Beta  occ. eigenvalues --   -0.95464  -0.95462  -0.91768  -0.91767  -0.91685
  Beta  occ. eigenvalues --   -0.91494  -0.91491  -0.91456  -0.66722  -0.61454
  Beta  occ. eigenvalues --   -0.61452  -0.58581  -0.57388  -0.57384  -0.56592
  Beta  occ. eigenvalues --   -0.56590  -0.56518  -0.55812  -0.55810  -0.55747
  Beta  occ. eigenvalues --   -0.54443  -0.54274  -0.54272  -0.53837  -0.53831
  Beta  occ. eigenvalues --   -0.53568  -0.53036  -0.52992  -0.52986  -0.49368
  Beta  occ. eigenvalues --   -0.43387  -0.43387  -0.43001  -0.42606  -0.42604
  Beta  occ. eigenvalues --   -0.42563  -0.33587  -0.33583
  Beta virt. eigenvalues --    0.02783   0.03483   0.03691   0.03692   0.05228
  Beta virt. eigenvalues --    0.05228   0.05408   0.05661   0.05662   0.06207
  Beta virt. eigenvalues --    0.06817   0.07154   0.07300   0.07301   0.07470

 Mulliken charges and spin densities:
               1          2
     1  Si  -0.798135   1.439377
     2  Si   1.764940  -0.143114
     3  Si   1.764654  -0.143223
     4  Si   1.765006  -0.143002
     5  C    0.530289  -0.012449
     6  H   -0.343195  -0.004825
     7  H   -0.368873  -0.011490
     8  H   -0.389008   0.009691
     9  C    0.705199   0.017962
    10  H   -0.342777   0.006326
    11  H   -0.431885  -0.003332
    12  H   -0.401334  -0.013414
    13  C    0.661246   0.005386
    14  H   -0.369861  -0.002663
    15  H   -0.423682   0.008377
    16  H   -0.324900  -0.002857
    17  C    0.704909   0.018038
    18  H   -0.402015  -0.013389
    19  H   -0.343253   0.006372
    20  H   -0.430408  -0.003413
    21  C    0.661398   0.005287
    22  H   -0.325356  -0.002950
    23  H   -0.369477  -0.002678
    24  H   -0.424152   0.008380
    25  C    0.531024  -0.012432
    26  H   -0.368840  -0.011376
    27  H   -0.389956   0.009675
    28  H   -0.342974  -0.004830
    29  C    0.530585  -0.012516
    30  H   -0.388994   0.009687
    31  H   -0.343433  -0.004832
    32  H   -0.368463  -0.011479
    33  C    0.705190   0.017938
    34  H   -0.342817   0.006340
    35  H   -0.431399  -0.003393
    36  H   -0.401548  -0.013402
    37  C    0.661408   0.005415
    38  H   -0.368785  -0.002649
    39  H   -0.425437   0.008378
    40  H   -0.324891  -0.002920
 Sum of Mulliken charges =  -0.00000   1.00000

 Dipole moment (field-independent basis, Debye):
    X=             -0.0003    Y=             -0.0007    Z=              0.2672  Tot=              0.2672
                          Isotropic Fermi Contact Couplings
        Atom                 a.u.       MegaHertz       Gauss      10(-4) cm-1
     1  Si(29)             0.28698    -255.04622     -91.00683     -85.07426
     2  Si(29)            -0.02688      23.88796       8.52382       7.96817
     3  Si(29)            -0.02690      23.90845       8.53113       7.97500
     4  Si(29)            -0.02689      23.89819       8.52747       7.97158
     5  C(13)              0.00072       0.80613       0.28765       0.26890
     6  H(1)              -0.00028      -1.24097      -0.44281      -0.41394
     7  H(1)              -0.00000      -0.00165      -0.00059      -0.00055
     8  H(1)              -0.00002      -0.08297      -0.02961      -0.02768

 Normal termination of Gaussian 16 at Wed Apr  9 01:25:35 2025.
