 Gaussian 16, Revision C.01,

 ----------------------------------------------------------------------
 #t hf aug-cc-pvdz symm=none int=(grid=ultrafine) guess=(read,tcheck) s
 table=opt
 ----------------------------------------------------------------------
 -----
 title
 -----
 Symbolic Z-matrix:
 Charge =  0 Multiplicity = 2

 SCF Done:  E(UHF) =  -1465.23720462     A.U. after   18 cycles

 1\1\GINC-SE227\Stability\UHF\Aug-CC-pVDZ\C7H13S3\OHZDE\09-Apr-2025\0\\
 #t hf aug-cc-pvdz symm=none int=(grid=ultrafine) guess=(read,tcheck) s
 table=opt\\title\\0,2\C,0,0.262198,-1.907548,0.57679\H,0,0.271418,-2.6
 10818,-0.261651\H,0,-0.108039,-2.47985,1.438634\C,0,1.701787,-1.456627
 ,0.871813\H,0,1.691184,-0.654355,1.614594\C,0,2.032275,0.209945,-1.097
 733\H,0,2.671658,0.379787,-1.965432\H,0,2.223966,-2.293418,1.344053\H,
 0,1.015354,0.092513,-1.46596\C,0,2.512615,-1.031244,-0.352149\H,0,3.54
 9107,-0.870058,-0.043778\H,0,2.524879,-1.86181,-1.068751\C,0,-0.691771

 Normal termination of Gaussian 16 at Wed Apr  9 01:01:38 2025.
 Gaussian 16:  ES64L-G16RevC.01  3-Jul-2019

 ----------------------------------------------------------------------
 #t hf aug-cc-pvdz iop(5/13=1,5/36=2,99/5=2) pseudo=read geom=check gue
 ss=(read,tcheck) scf=(maxcycle=1)
 ----------------------------------------------------------------------
 -----
 title
 -----
 Structure from the checkpoint file:  "BH10_168_reverse_mol2.chk"
 Charge =  0 Multiplicity = 2

                         Standard orientation:
 ---------------------------------------------------------------------
 Center     Atomic      Atomic             Coordinates (Angstroms)
 Number     Number       Type             X           Y           Z
 ---------------------------------------------------------------------
      1          6           0        0.262198   -1.907548    0.576790
      2          1           0        0.271418   -2.610818   -0.261651
      3          1           0       -0.108039   -2.479850    1.438634
      4          6           0        1.701787   -1.456627    0.871813
      5          1           0        1.691184   -0.654355    1.614594
      6          6           0        2.032275    0.209945   -1.097733
      7          1           0        2.671658    0.379787   -1.965432
      8          1           0        2.223966   -2.293418    1.344053
      9          1           0        1.015354    0.092513   -1.465960
     10          6           0        2.512615   -1.031244   -0.352149
     11          1           0        3.549107   -0.870057   -0.043778
     12          1           0        2.524879   -1.861810   -1.068751
     13          6           0       -0.691771   -0.802544    0.262793
     14          6           0       -1.923692    1.476548    0.214450
     15          6           0       -2.746329    0.579656   -0.696324
     16          1           0       -2.550668    2.197777    0.738040
     17          1           0       -1.148979    2.005454   -0.341843
     18          1           0       -3.646739    0.232451   -0.190349
     19          1           0       -3.025905    1.094421   -1.615323
     20         16           0       -1.130254    0.402646    1.452016
     21         16           0       -1.733789   -0.872491   -1.144849
     22         16           0        2.141686    1.774465   -0.158766
     23          1           0        1.207974    1.484867    0.765513
 ---------------------------------------------------------------------

 SCF Done:  E(UHF) =  -1465.37948551     A.U. after    2 cycles

 The electronic state is 2-A.
 Alpha  occ. eigenvalues --  -93.54890 -93.54750 -93.52036 -11.28983 -11.28754
 Alpha  occ. eigenvalues --  -11.28680 -11.26192 -11.25026 -11.23712 -11.23657
 Alpha  occ. eigenvalues --   -8.84653  -8.84516  -8.81808  -6.18761  -6.18638
 Alpha  occ. eigenvalues --   -6.18596  -6.18448  -6.18421  -6.18291  -6.15986
 Alpha  occ. eigenvalues --   -6.15785  -6.15459  -1.14993  -1.08913  -1.04403
 Alpha  occ. eigenvalues --   -0.98889  -0.98580  -0.92247  -0.86216  -0.81601
 Alpha  occ. eigenvalues --   -0.78168  -0.73244  -0.66620  -0.65741  -0.64277
 Alpha  occ. eigenvalues --   -0.61574  -0.59435  -0.58077  -0.56417  -0.54458
 Alpha  occ. eigenvalues --   -0.53858  -0.52544  -0.49814  -0.48801  -0.48131
 Alpha  occ. eigenvalues --   -0.46666  -0.45197  -0.43740  -0.43304  -0.36511
 Alpha  occ. eigenvalues --   -0.34582  -0.27713
 Alpha virt. eigenvalues --    0.03390   0.03768   0.04427   0.05003   0.05563
 Alpha virt. eigenvalues --    0.05753   0.06003   0.07129   0.07468   0.08177
 Alpha virt. eigenvalues --    0.08327   0.09006   0.09257   0.10717   0.11191

  Beta  occ. eigenvalues --  -93.54895 -93.54718 -93.52037 -11.28730 -11.28673
  Beta  occ. eigenvalues --  -11.26332 -11.26185 -11.25340 -11.23693 -11.23552
  Beta  occ. eigenvalues --   -8.84660  -8.84480  -8.81810  -6.18907  -6.18734
  Beta  occ. eigenvalues --   -6.18696  -6.18499  -6.18208  -6.17945  -6.15990
  Beta  occ. eigenvalues --   -6.15789  -6.15460  -1.13147  -1.08688  -1.03281
  Beta  occ. eigenvalues --   -0.98210  -0.97520  -0.92079  -0.86022  -0.81381
  Beta  occ. eigenvalues --   -0.77791  -0.69833  -0.66186  -0.64938  -0.63726
  Beta  occ. eigenvalues --   -0.61292  -0.58981  -0.57179  -0.56083  -0.53907
  Beta  occ. eigenvalues --   -0.53235  -0.49578  -0.49092  -0.48179  -0.47722
  Beta  occ. eigenvalues --   -0.46483  -0.43709  -0.43132  -0.39642  -0.34786
  Beta  occ. eigenvalues --   -0.34213
  Beta virt. eigenvalues --    0.03354   0.03754   0.04387   0.05011   0.05566
  Beta virt. eigenvalues --    0.05740   0.06008   0.07138   0.07480   0.08188
  Beta virt. eigenvalues --    0.08333   0.09034   0.09322   0.10307   0.10912

 Mulliken charges and spin densities:
               1          2
     1  C    0.176388  -0.275436
     2  H   -0.099213  -0.003000
     3  H   -0.080237   0.038846
     4  C    0.280203   0.025924
     5  H   -0.157375  -0.003570
     6  C    0.176638   0.004492
     7  H   -0.061656   0.003257
     8  H   -0.075714  -0.001434
     9  H   -0.230794  -0.017512
    10  C    0.109652   0.000696
    11  H   -0.127317  -0.000134
    12  H   -0.084158   0.000910
    13  C   -0.278503   1.287496
    14  C    0.053775  -0.014307
    15  C   -0.021050  -0.022349
    16  H   -0.058453  -0.000460
    17  H   -0.154846  -0.001146
    18  H   -0.090178  -0.006407
    19  H   -0.036834   0.000602
    20  S    0.212843  -0.028691
    21  S    0.262648   0.011914
    22  S    0.198567   0.003071
    23  H    0.085613  -0.002763
 Sum of Mulliken charges =  -0.00000   1.00000

 Dipole moment (field-independent basis, Debye):
    X=             -1.5196    Y=             -0.5607    Z=             -0.4878  Tot=              1.6916
                          Isotropic Fermi Contact Couplings
        Atom                 a.u.       MegaHertz       Gauss      10(-4) cm-1
     1  C(13)             -0.05778     -64.95709     -23.17831     -21.66735
     2  H(1)               0.00227      10.13297       3.61570       3.38000
     3  H(1)               0.01883      84.15744      30.02947      28.07190
     4  C(13)              0.02807      31.55331      11.25901      10.52505
     5  H(1)              -0.00108      -4.82851      -1.72293      -1.61062
     6  C(13)              0.00139       1.56441       0.55822       0.52183
     7  H(1)               0.00083       3.71819       1.32674       1.24026
     8  H(1)              -0.00069      -3.10177      -1.10679      -1.03464

 Normal termination of Gaussian 16 at Wed Apr  9 01:01:58 2025.
