 Gaussian 16, Revision C.01,

 ----------------------------------------------------------------------
 #t hf aug-cc-pvdz symm=none int=(grid=ultrafine) guess=(read,tcheck) s
 table=(opt,rrhf)
 ----------------------------------------------------------------------
 -----
 title
 -----
 Symbolic Z-matrix:
 Charge =  0 Multiplicity = 1

 SCF Done:  E(RHF) =  -1125.23397727     A.U. after   16 cycles
 Normal termination of Gaussian 16 at Wed Apr  9 01:59:51 2025.
 Gaussian 16:  ES64L-G16RevC.01  3-Jul-2019

 ----------------------------------------------------------------------
 #t hf aug-cc-pvdz iop(5/13=1,5/36=2,99/5=2) pseudo=read geom=check gue
 ss=(read,tcheck) scf=(maxcycle=1)
 ----------------------------------------------------------------------
 -----
 title
 -----
 Structure from the checkpoint file:  "BH10_299_forward_mol1.chk"
 Charge =  0 Multiplicity = 1

                         Standard orientation:
 ---------------------------------------------------------------------
 Center     Atomic      Atomic             Coordinates (Angstroms)
 Number     Number       Type             X           Y           Z
 ---------------------------------------------------------------------
      1          6           0        0.876355    2.583375   -0.894967
      2          6           0        0.850033    1.769986    0.428352
      3          6           0       -1.937579    0.984020   -0.609883
      4          1           0        1.895869    2.566938   -1.293271
      5          6           0        0.040803    2.498762    1.514073
      6          1           0        0.036064    1.899293    2.428328
      7          1           0        0.565928    3.427295    1.767318
      8          1           0       -2.888446    0.554342   -0.937317
      9          1           0        1.881497    1.768785    0.796280
     10          6           0       -1.394207    2.856118    1.150968
     11          1           0       -1.859222    3.336154    2.018027
     12          1           0       -1.393600    3.617195    0.365757
     13          6           0       -2.278117    1.688262    0.721701
     14          1           0       -2.301590    0.941883    1.522203
     15          1           0       -3.301400    2.069710    0.638760
     16          6           0       -1.539830    1.965297   -1.741344
     17          1           0       -1.996768    1.606821   -2.669286
     18          6           0       -0.044460    2.131755   -2.033180
     19          1           0        0.338509    1.187549   -2.431097
     20          1           0        0.056109    2.849737   -2.853807
     21          1           0       -1.993360    2.943289   -1.553490
     22          1           0        0.674471    3.635050   -0.662728
     23          6           0       -0.923342   -0.179800   -0.474080
     24          1           0       -0.584558   -0.410069   -1.497137
     25         14           0       -1.771917   -1.835873   -0.127310
     26          6           0       -3.067110   -2.113838   -1.469154
     27          1           0       -3.481120   -3.122816   -1.390462
     28          1           0       -3.902278   -1.413977   -1.397599
     29          1           0       -2.633907   -2.012753   -2.467957
     30          6           0       -2.660433   -1.943647    1.528310
     31          1           0       -3.179908   -2.903266    1.602847
     32          1           0       -1.985840   -1.867923    2.381902
     33          1           0       -3.413328   -1.157794    1.623989
     34          6           0       -0.544562   -3.258715   -0.290722
     35          1           0        0.211852   -3.299436    0.494564
     36          1           0       -1.081658   -4.211158   -0.271984
     37          1           0       -0.017452   -3.195414   -1.246200
     38          5           0        0.453856    0.236993    0.203144
     39          6           0        2.952305   -0.693785    1.524411
     40          1           0        3.977545   -0.648801    1.858558
     41          6           0        2.717761   -0.777105    0.175422
     42          8           0        1.563984   -0.577535   -0.392595
     43          8           0        3.730690   -1.021942   -0.647527
     44          6           0        3.508220   -0.857972   -2.050847
     45          1           0        2.723933   -1.529580   -2.397672
     46          1           0        4.456479   -1.106148   -2.519761
     47          1           0        3.231502    0.171542   -2.279586
     48          6           0        1.870837   -0.400814    2.385328
     49          1           0        2.104352    0.171850    3.281524
     50          6           0        0.558592   -0.687251    2.110194
     51          1           0       -0.213346   -0.373610    2.799189
     52          1           0        0.342227   -1.569500    1.530206
 ---------------------------------------------------------------------

 SCF Done:  E(RHF) =  -1125.51436396     A.U. after    2 cycles

 The electronic state is 1-A.
 Alpha  occ. eigenvalues --  -69.03279 -20.62458 -20.59321 -11.40207 -11.30521
 Alpha  occ. eigenvalues --  -11.28881 -11.22346 -11.21698 -11.21643 -11.21582
 Alpha  occ. eigenvalues --  -11.21480 -11.21356 -11.21206 -11.21190 -11.21146
 Alpha  occ. eigenvalues --  -11.19871 -11.19790 -11.19647 -11.19087 -11.17864
 Alpha  occ. eigenvalues --   -7.63077  -6.78606  -3.89293  -3.89285  -3.89263
 Alpha  occ. eigenvalues --   -1.43583  -1.34359  -1.09910  -1.09392  -1.03098
 Alpha  occ. eigenvalues --   -1.02685  -1.01866  -0.96436  -0.94054  -0.93478
 Alpha  occ. eigenvalues --   -0.91172  -0.90834  -0.90493  -0.87295  -0.84449
 Alpha  occ. eigenvalues --   -0.81711  -0.78838  -0.76959  -0.74532  -0.71334
 Alpha  occ. eigenvalues --   -0.69432  -0.68269  -0.66021  -0.65789  -0.63795
 Alpha  occ. eigenvalues --   -0.62567  -0.61395  -0.59865  -0.59459  -0.59199
 Alpha  occ. eigenvalues --   -0.58414  -0.57018  -0.56698  -0.56099  -0.55893
 Alpha  occ. eigenvalues --   -0.55502  -0.55018  -0.54752  -0.54240  -0.53428
 Alpha  occ. eigenvalues --   -0.53085  -0.52500  -0.51938  -0.51561  -0.50586
 Alpha  occ. eigenvalues --   -0.48584  -0.48192  -0.47467  -0.46644  -0.45378
 Alpha  occ. eigenvalues --   -0.44731  -0.42877  -0.42279  -0.42001  -0.41049
 Alpha  occ. eigenvalues --   -0.40875  -0.39931  -0.37720  -0.29690
 Alpha virt. eigenvalues --    0.02641   0.03479   0.03623   0.03877   0.04676
 Alpha virt. eigenvalues --    0.04922   0.05006   0.05204   0.05594   0.06365
 Alpha virt. eigenvalues --    0.06505   0.06749   0.06890   0.06956   0.07185

 Mulliken charges:
               1
     1  C    0.156124
     2  C    0.368565
     3  C    0.168284
     4  H   -0.230444
     5  C    0.420132
     6  H   -0.163331
     7  H   -0.209120
     8  H   -0.223057
     9  H   -0.270216
    10  C    0.444132
    11  H   -0.236164
    12  H    0.003489
    13  C    0.770017
    14  H   -0.081274
    15  H   -0.337522
    16  C    0.288758
    17  H   -0.207700
    18  C    1.018446
    19  H    0.054753
    20  H   -0.318710
    21  H   -0.183650
    22  H   -0.164615
    23  C    0.602114
    24  H    0.009302
    25  Si  -0.957826
    26  C    0.923347
    27  H   -0.460920
    28  H   -0.326685
    29  H   -0.179509
    30  C    1.099640
    31  H   -0.418587
    32  H   -0.364426
    33  H   -0.302096
    34  C    1.009750
    35  H   -0.309999
    36  H   -0.470388
    37  H   -0.176838
    38  B   -0.873601
    39  C    0.988450
    40  H   -0.578073
    41  C    0.268720
    42  O   -0.840182
    43  O   -0.726136
    44  C    1.099523
    45  H   -0.072424
    46  H   -0.338393
    47  H   -0.173779
    48  C    0.489101
    49  H   -0.484101
    50  C    1.255327
    51  H   -0.388582
    52  H   -0.369629
 Sum of Mulliken charges =  -0.00000

 Dipole moment (field-independent basis, Debye):
    X=              1.0693    Y=              0.3946    Z=             -0.5868  Tot=              1.2820

 Test job not archived.
 1\1\GINC-SE070\SP\RHF\Aug-CC-pVDZ\C17H31B1O2Si1\OHZDE\09-Apr-2025\0\\#
 t hf aug-cc-pvdz iop(5/13=1,5/36=2,99/5=2) pseudo=read geom=check gues
 s=(read,tcheck) scf=(maxcycle=1)\\title\\0,1\C,0,0.876355,2.583375,-0.
 894967\C,0,0.850033,1.769986,0.428352\C,0,-1.937579,0.98402,-0.609883\
 H,0,1.895869,2.566938,-1.293271\C,0,0.040803,2.498762,1.514073\H,0,0.0
 36064,1.899293,2.428328\H,0,0.565928,3.427295,1.767318\H,0,-2.888446,0
 .554342,-0.937317\H,0,1.881497,1.768785,0.79628\C,0,-1.394207,2.856118
 ,1.150968\H,0,-1.859222,3.336154,2.018027\H,0,-1.3936,3.617195,0.36575

 Normal termination of Gaussian 16 at Wed Apr  9 02:03:03 2025.
