 Gaussian 16, Revision C.01,

 ----------------------------------------------------------------------
 #t hf aug-cc-pvdz symm=none int=(grid=ultrafine) guess=(read,tcheck) s
 table=(opt,rrhf)
 ----------------------------------------------------------------------
 -----
 title
 -----
 Symbolic Z-matrix:
 Charge = -1 Multiplicity = 1

 SCF Done:  E(RHF) =  -1336.40347821     A.U. after   16 cycles
 Normal termination of Gaussian 16 at Wed Apr  9 01:34:38 2025.
 Gaussian 16:  ES64L-G16RevC.01  3-Jul-2019

 ----------------------------------------------------------------------
 #t hf aug-cc-pvdz iop(5/13=1,5/36=2,99/5=2) pseudo=read geom=check gue
 ss=(read,tcheck) scf=(maxcycle=1)
 ----------------------------------------------------------------------
 -----
 title
 -----
 Structure from the checkpoint file:  "BH10_324_forward_mol1.chk"
 Charge = -1 Multiplicity = 1

                         Standard orientation:
 ---------------------------------------------------------------------
 Center     Atomic      Atomic             Coordinates (Angstroms)
 Number     Number       Type             X           Y           Z
 ---------------------------------------------------------------------
      1         16           0        3.751951   -1.742422   -0.687728
      2          6           0        4.245893   -0.699419    0.731082
      3          6           0        4.065158    0.807748    0.498886
      4          1           0        5.304471   -0.869159    0.940525
      5          1           0        3.684215   -0.982870    1.622447
      6          7           0        4.901407    1.263099   -0.597969
      7          6           0        2.596884    1.167764    0.308115
      8          1           0        4.367680    1.322425    1.423095
      9          8           0        2.198334    1.911617   -0.570930
     10          8           0        1.798262    0.634781    1.213013
     11          6           0        1.266028   -1.913422   -0.180742
     12          8           0       -0.530597   -1.998426    0.228682
     13          1           0        1.291636   -2.925452   -0.540746
     14          1           0        1.591222   -1.710705    0.819914
     15          1           0        1.180881   -1.107764   -0.883195
     16          6           0       -1.218301   -0.932895    0.175912
     17          6           0       -2.642414   -0.942927    0.102674
     18          7           0       -0.635559    0.292247    0.172284
     19          6           0       -1.367805    1.412703   -0.010942
     20          6           0       -3.264646    0.288493   -0.037143
     21          7           0       -2.691657    1.493989   -0.121791
     22          7           0       -3.579959   -1.959418    0.109979
     23          6           0       -4.722021   -1.355071   -0.013661
     24          7           0       -4.606217    0.018308   -0.115314
     25          1           0       -5.689698   -1.835514   -0.045210
     26          6           0       -5.658335    0.997457   -0.238587
     27          1           0       -5.862991    1.483487    0.718392
     28          1           0       -6.565097    0.506554   -0.592362
     29          1           0       -5.358326    1.761642   -0.955208
     30          7           0       -0.652691    2.573920   -0.062660
     31          1           0       -1.164625    3.376535   -0.386739
     32          1           0        0.330287    2.497129   -0.319035
     33          1           0        0.847901    0.584196    0.852133
     34          1           0        4.486190    2.094845   -1.004511
     35          1           0        4.847136    0.542040   -1.317227
 ---------------------------------------------------------------------

 SCF Done:  E(RHF) =  -1336.69827457     A.U. after    2 cycles

 The electronic state is 1-A.
 Alpha  occ. eigenvalues --  -93.30888 -20.47455 -20.44279 -20.43943 -15.59112
 Alpha  occ. eigenvalues --  -15.52741 -15.52406 -15.50485 -15.50152 -15.47711
 Alpha  occ. eigenvalues --  -11.26858 -11.26145 -11.25337 -11.22044 -11.21809
 Alpha  occ. eigenvalues --  -11.21288 -11.19797 -11.15371 -11.14086 -11.11982
 Alpha  occ. eigenvalues --   -8.60642  -5.94814  -5.94500  -5.94379  -1.29392
 Alpha  occ. eigenvalues --   -1.24398  -1.22473  -1.19365  -1.17159  -1.07813
 Alpha  occ. eigenvalues --   -1.05269  -1.03813  -1.02745  -0.90998  -0.88412
 Alpha  occ. eigenvalues --   -0.88038  -0.83887  -0.78661  -0.77270  -0.74969
 Alpha  occ. eigenvalues --   -0.69404  -0.68948  -0.65767  -0.63351  -0.61308
 Alpha  occ. eigenvalues --   -0.59903  -0.58770  -0.57509  -0.57331  -0.55003
 Alpha  occ. eigenvalues --   -0.54732  -0.53590  -0.52697  -0.52323  -0.51907
 Alpha  occ. eigenvalues --   -0.50825  -0.49610  -0.48833  -0.47744  -0.46514
 Alpha  occ. eigenvalues --   -0.45197  -0.44529  -0.43282  -0.42050  -0.40101
 Alpha  occ. eigenvalues --   -0.39077  -0.37292  -0.36746  -0.35165  -0.33735
 Alpha  occ. eigenvalues --   -0.32929  -0.30474  -0.29981  -0.28981  -0.26983
 Alpha  occ. eigenvalues --   -0.26745  -0.18908  -0.15723  -0.15562
 Alpha virt. eigenvalues --    0.08432   0.10051   0.10926   0.11603   0.12524
 Alpha virt. eigenvalues --    0.13285   0.13851   0.14139   0.14414   0.15522
 Alpha virt. eigenvalues --    0.15854   0.16325   0.17027   0.17275   0.17489

 Mulliken charges:
               1
     1  S   -0.347345
     2  C    0.479790
     3  C    0.222155
     4  H   -0.152805
     5  H   -0.188774
     6  N   -0.396427
     7  C    0.405400
     8  H   -0.011746
     9  O   -0.657524
    10  O   -0.552688
    11  C    0.952420
    12  O   -0.592836
    13  H   -0.274586
    14  H   -0.087858
    15  H   -0.049352
    16  C    0.101510
    17  C    0.685087
    18  N   -0.590723
    19  C    0.651223
    20  C    0.025559
    21  N   -0.508128
    22  N   -0.838846
    23  C    0.803176
    24  N   -0.334681
    25  H   -0.414938
    26  C    0.858717
    27  H   -0.076096
    28  H   -0.254723
    29  H   -0.137910
    30  N   -0.171514
    31  H   -0.015283
    32  H   -0.051870
    33  H    0.378723
    34  H    0.012189
    35  H    0.130706
 Sum of Mulliken charges =  -1.00000

 Dipole moment (field-independent basis, Debye):
    X=            -11.4937    Y=              5.2257    Z=              1.1297  Tot=             12.6763

 Test job not archived.
 1\1\GINC-SE129\SP\RHF\Aug-CC-pVDZ\C10H15N6O3S1(1-)\OHZDE\09-Apr-2025\0
 \\#t hf aug-cc-pvdz iop(5/13=1,5/36=2,99/5=2) pseudo=read geom=check g
 uess=(read,tcheck) scf=(maxcycle=1)\\title\\-1,1\S,0,3.751951,-1.74242
 2,-0.687728\C,0,4.245893,-0.699419,0.731082\C,0,4.065158,0.807748,0.49
 8886\H,0,5.304471,-0.869159,0.940525\H,0,3.684215,-0.98287,1.622447\N,
 0,4.901407,1.263099,-0.597969\C,0,2.596884,1.167764,0.308115\H,0,4.367
 68,1.322425,1.423095\O,0,2.198334,1.911617,-0.57093\O,0,1.798262,0.634
 781,1.213013\C,0,1.266028,-1.913422,-0.180742\O,0,-0.530597,-1.998426,

 Normal termination of Gaussian 16 at Wed Apr  9 01:35:43 2025.
