 Gaussian 16, Revision C.01,

 ----------------------------------------------------------------------
 #t hf aug-cc-pvdz symm=none int=(grid=ultrafine) guess=(read,tcheck) s
 table=(opt,rrhf)
 ----------------------------------------------------------------------
 -----
 title
 -----
 Symbolic Z-matrix:
 Charge =  0 Multiplicity = 1

 SCF Done:  E(RHF) =  -1155.49654080     A.U. after   17 cycles
 Normal termination of Gaussian 16 at Wed Apr  9 02:27:35 2025.
 Gaussian 16:  ES64L-G16RevC.01  3-Jul-2019

 ----------------------------------------------------------------------
 #t hf aug-cc-pvdz iop(5/13=1,5/36=2,99/5=2) pseudo=read geom=check gue
 ss=(read,tcheck) scf=(maxcycle=1)
 ----------------------------------------------------------------------
 -----
 title
 -----
 Structure from the checkpoint file:  "BH10_402_forward_mol1.chk"
 Charge =  0 Multiplicity = 1

                         Standard orientation:
 ---------------------------------------------------------------------
 Center     Atomic      Atomic             Coordinates (Angstroms)
 Number     Number       Type             X           Y           Z
 ---------------------------------------------------------------------
      1          6           0       -0.072733   -2.364039   -0.954229
      2          1           0       -0.144263   -3.451906   -0.965247
      3          1           0        0.226554   -2.050967   -1.963374
      4          6           0        1.009081   -1.910167    0.031016
      5          6           0       -0.347302    0.120673    0.461314
      6          1           0       -0.762434   -0.080606    1.454435
      7          1           0       -0.280802    1.202029    0.388628
      8          6           0       -1.349433   -0.371905   -0.603647
      9          1           0       -1.003818   -0.008859   -1.577953
     10          7           0       -1.392107   -1.826935   -0.695906
     11          6           0        2.185726    0.237434    0.245491
     12          6           0        2.043650   -2.787263    0.334780
     13          1           0        2.319651   -2.908822    1.365892
     14          1           0        2.103448   -3.715502   -0.232686
     15          6           0        3.427974   -0.342797   -0.044551
     16          1           0        4.059376    0.175341   -0.764657
     17          6           0        3.870553   -1.588655    0.384798
     18          6           0        1.010934   -0.541567    0.358621
     19          6           0        5.068774   -2.245401   -0.247191
     20          1           0        5.039548   -3.328531   -0.114759
     21          1           0        5.116129   -2.040069   -1.317885
     22          1           0        5.997790   -1.890054    0.210903
     23          1           0        3.775084   -1.769885    1.442754
     24          6           0       -2.721687    0.203873   -0.340338
     25          6           0       -2.069863   -2.436053    0.438444
     26          1           0       -1.630116   -2.137119    1.403391
     27          1           0       -1.955427   -3.518978    0.362402
     28          6           0       -3.542438   -2.064317    0.394164
     29          1           0       -4.017131   -2.609842   -0.427367
     30          6           0       -3.747990   -0.586593    0.174610
     31          1           0       -4.038457   -2.376371    1.317203
     32          6           0       -4.981287    0.000689    0.451942
     33          1           0       -5.778167   -0.615467    0.855411
     34          6           0       -2.953992    1.557236   -0.576369
     35          1           0       -2.159030    2.169022   -0.989089
     36          6           0       -5.204237    1.347130    0.220023
     37          1           0       -6.170175    1.784308    0.442659
     38          6           0       -4.183286    2.131605   -0.302392
     39          1           0       -4.346459    3.184751   -0.496762
     40         14           0        2.137563    2.129861    0.083823
     41          6           0        3.891286    2.766226   -0.152913
     42          1           0        4.325008    2.451097   -1.104626
     43          1           0        3.884618    3.859726   -0.145819
     44          1           0        4.556313    2.431321    0.645855
     45          6           0        1.151369    2.707114   -1.414465
     46          1           0        0.089380    2.467697   -1.358780
     47          1           0        1.544870    2.245962   -2.323982
     48          1           0        1.240167    3.791086   -1.529072
     49          6           0        1.476569    2.910729    1.662438
     50          1           0        2.075500    2.592309    2.519422
     51          1           0        1.544205    4.000357    1.598375
     52          1           0        0.437490    2.654738    1.873283
 ---------------------------------------------------------------------

 SCF Done:  E(RHF) =  -1155.77424030     A.U. after    2 cycles

 The electronic state is 1-A.
 Alpha  occ. eigenvalues --  -69.04265 -15.60713 -11.26633 -11.25834 -11.25521
 Alpha  occ. eigenvalues --  -11.25382 -11.24215 -11.24111 -11.23940 -11.23919
 Alpha  occ. eigenvalues --  -11.23685 -11.23616 -11.23522 -11.23411 -11.23280
 Alpha  occ. eigenvalues --  -11.23163 -11.23141 -11.22763 -11.22707 -11.22162
 Alpha  occ. eigenvalues --  -11.20448 -11.20238 -11.20153  -6.79538  -3.90265
 Alpha  occ. eigenvalues --   -3.90252  -3.90229  -1.22140  -1.14421  -1.11309
 Alpha  occ. eigenvalues --   -1.06251  -1.05060  -1.03848  -1.00501  -0.98891
 Alpha  occ. eigenvalues --   -0.96680  -0.95299  -0.92490  -0.91599  -0.91282
 Alpha  occ. eigenvalues --   -0.88179  -0.85991  -0.83103  -0.82131  -0.81248
 Alpha  occ. eigenvalues --   -0.77634  -0.73291  -0.69705  -0.67511  -0.66256
 Alpha  occ. eigenvalues --   -0.65971  -0.64574  -0.63367  -0.62650  -0.61253
 Alpha  occ. eigenvalues --   -0.59714  -0.59572  -0.59048  -0.58311  -0.57797
 Alpha  occ. eigenvalues --   -0.57004  -0.56642  -0.56215  -0.55995  -0.55305
 Alpha  occ. eigenvalues --   -0.54633  -0.54162  -0.54017  -0.53378  -0.53273
 Alpha  occ. eigenvalues --   -0.52823  -0.52369  -0.51423  -0.50031  -0.49569
 Alpha  occ. eigenvalues --   -0.48887  -0.47719  -0.46347  -0.45963  -0.44320
 Alpha  occ. eigenvalues --   -0.42552  -0.42401  -0.41406  -0.35748  -0.33094
 Alpha  occ. eigenvalues --   -0.32249  -0.30128  -0.27693
 Alpha virt. eigenvalues --    0.02683   0.03290   0.03384   0.03832   0.04328
 Alpha virt. eigenvalues --    0.04534   0.05279   0.05366   0.05467   0.05698
 Alpha virt. eigenvalues --    0.05794   0.06888   0.07107   0.07239   0.07379

 Mulliken charges:
               1
     1  C    0.727612
     2  H   -0.241460
     3  H   -0.114058
     4  C   -0.395498
     5  C   -0.381052
     6  H   -0.033746
     7  H   -0.783893
     8  C    0.074536
     9  H   -0.297810
    10  N   -0.883396
    11  C   -1.668201
    12  C    1.512662
    13  H   -0.136445
    14  H   -0.532591
    15  C    1.554271
    16  H   -0.668548
    17  C   -0.284801
    18  C    0.140033
    19  C    0.764698
    20  H   -0.082139
    21  H   -0.098987
    22  H    0.051552
    23  H   -0.274152
    24  C    0.096096
    25  C    1.295215
    26  H   -0.034398
    27  H   -0.288910
    28  C    0.534909
    29  H    0.121337
    30  C   -0.577446
    31  H   -0.006810
    32  C    0.798874
    33  H   -0.662782
    34  C    1.303423
    35  H   -0.530223
    36  C    0.261113
    37  H   -0.473905
    38  C    0.131523
    39  H   -0.585869
    40  Si   0.958278
    41  C    0.851850
    42  H   -0.319900
    43  H   -0.456561
    44  H   -0.267630
    45  C    1.248544
    46  H   -1.003973
    47  H   -0.215862
    48  H   -0.238820
    49  C    1.041815
    50  H   -0.338478
    51  H   -0.276839
    52  H   -0.313156
 Sum of Mulliken charges =  -0.00000

 Dipole moment (field-independent basis, Debye):
    X=              1.0312    Y=             -0.9724    Z=              0.5494  Tot=              1.5201

 Test job not archived.
 1\1\GINC-SE462\SP\RHF\Aug-CC-pVDZ\C21H29N1Si1\OHZDE\09-Apr-2025\0\\#t
 hf aug-cc-pvdz iop(5/13=1,5/36=2,99/5=2) pseudo=read geom=check guess=
 (read,tcheck) scf=(maxcycle=1)\\title\\0,1\C,0,-0.072733,-2.364039,-0.
 954229\H,0,-0.144263,-3.451906,-0.965247\H,0,0.226554,-2.050967,-1.963
 374\C,0,1.009081,-1.910167,0.031016\C,0,-0.347302,0.120673,0.461314\H,
 0,-0.762434,-0.080606,1.454435\H,0,-0.280802,1.202029,0.388628\C,0,-1.
 349433,-0.371905,-0.603647\H,0,-1.003818,-0.008859,-1.577953\N,0,-1.39
 2107,-1.826935,-0.695906\C,0,2.185726,0.237434,0.245491\C,0,2.04365,-2

 Normal termination of Gaussian 16 at Wed Apr  9 02:30:39 2025.
