 Gaussian 16, Revision C.01,

 ----------------------------------------------------------------------
 #t hf aug-cc-pvdz symm=none int=(grid=ultrafine) guess=(read,tcheck) s
 table=(opt,rrhf)
 ----------------------------------------------------------------------
 -----
 title
 -----
 Symbolic Z-matrix:
 Charge =  0 Multiplicity = 1

 SCF Done:  E(RHF) =  -864.111411637     A.U. after   15 cycles
 Normal termination of Gaussian 16 at Wed Apr  9 00:58:46 2025.
 Gaussian 16:  ES64L-G16RevC.01  3-Jul-2019

 ----------------------------------------------------------------------
 #t hf aug-cc-pvdz iop(5/13=1,5/36=2,99/5=2) pseudo=read geom=check gue
 ss=(read,tcheck) scf=(maxcycle=1)
 ----------------------------------------------------------------------
 -----
 title
 -----
 Structure from the checkpoint file:  "BH10_136_forward_mol2.chk"
 Charge =  0 Multiplicity = 1

                         Standard orientation:
 ---------------------------------------------------------------------
 Center     Atomic      Atomic             Coordinates (Angstroms)
 Number     Number       Type             X           Y           Z
 ---------------------------------------------------------------------
      1         17           0       -2.942743   -0.637394   -1.173169
      2          6           0       -2.109930    0.134928    0.326376
      3          6           0       -0.678016   -0.266898    0.301291
      4          6           0        0.345174    0.563255    0.044190
      5          7           0        1.660215    0.224422   -0.013951
      6          1           0        0.160622    1.613931   -0.150875
      7          1           0       -0.490788   -1.319531    0.478628
      8          6           0       -2.826432   -0.456694    1.532607
      9          6           0        2.145471   -1.119694    0.246189
     10          1           0        1.736463   -1.509889    1.184978
     11          6           0        3.668119   -0.956820    0.303935
     12          1           0        1.830155   -1.799082   -0.554942
     13          1           0        3.986093   -0.803851    1.338244
     14          6           0        3.932465    0.311905   -0.512960
     15          1           0        4.195081   -1.830674   -0.078753
     16          6           0        2.736095    1.191769   -0.164360
     17          1           0        3.921413    0.082867   -1.581423
     18          1           0        4.886345    0.783409   -0.275752
     19          1           0        2.498673    1.917430   -0.945604
     20          1           0        2.917152    1.744329    0.768675
     21          1           0       -2.680828   -1.536147    1.578728
     22          1           0       -3.896967   -0.252176    1.493402
     23          1           0       -2.413315   -0.013554    2.442520
     24          6           0       -2.367802    1.628369    0.215864
     25          1           0       -1.949059    2.042712   -0.700647
     26          1           0       -1.926627    2.142427    1.073576
     27          1           0       -3.440152    1.821808    0.211983
 ---------------------------------------------------------------------

 SCF Done:  E(RHF) =  -864.252438197     A.U. after    2 cycles

 The electronic state is 1-A.
 Alpha  occ. eigenvalues -- -103.61511 -15.63080 -11.30840 -11.28242 -11.27580
 Alpha  occ. eigenvalues --  -11.26980 -11.24254 -11.24197 -11.23121 -11.22818
 Alpha  occ. eigenvalues --  -11.21364 -10.64806  -8.30499  -8.30251  -8.30249
 Alpha  occ. eigenvalues --   -1.24049  -1.14886  -1.08217  -1.03179  -0.99770
 Alpha  occ. eigenvalues --   -0.97116  -0.94193  -0.86686  -0.81629  -0.78215
 Alpha  occ. eigenvalues --   -0.72906  -0.70222  -0.68286  -0.64551  -0.61443
 Alpha  occ. eigenvalues --   -0.60345  -0.59730  -0.58289  -0.56609  -0.55834
 Alpha  occ. eigenvalues --   -0.54241  -0.52631  -0.51144  -0.50020  -0.49766
 Alpha  occ. eigenvalues --   -0.48863  -0.48210  -0.47948  -0.43762  -0.42301
 Alpha  occ. eigenvalues --   -0.41987  -0.29103
 Alpha virt. eigenvalues --    0.02933   0.03662   0.03761   0.04267   0.05382
 Alpha virt. eigenvalues --    0.05670   0.06206   0.06586   0.06964   0.07213
 Alpha virt. eigenvalues --    0.07937   0.08069   0.08339   0.09725   0.10108

 Mulliken charges:
               1
     1  Cl  -0.283084
     2  C   -1.823796
     3  C    1.693363
     4  C   -0.756562
     5  N   -0.250802
     6  H   -0.618860
     7  H   -0.652261
     8  C    0.899012
     9  C    1.116655
    10  H   -0.281087
    11  C    0.172267
    12  H   -0.328256
    13  H   -0.112579
    14  C    0.343730
    15  H   -0.043894
    16  C    0.913343
    17  H   -0.164827
    18  H   -0.070008
    19  H   -0.269881
    20  H   -0.246129
    21  H   -0.042164
    22  H   -0.100306
    23  H    0.033322
    24  C    0.889922
    25  H    0.012661
    26  H    0.096454
    27  H   -0.126234
 Sum of Mulliken charges =  -0.00000

 Dipole moment (field-independent basis, Debye):
    X=              3.9597    Y=              1.5197    Z=              1.9962  Tot=              4.6876

 Test job not archived.
 1\1\GINC-SE072\SP\RHF\Aug-CC-pVDZ\C9H16Cl1N1\OHZDE\09-Apr-2025\0\\#t h
 f aug-cc-pvdz iop(5/13=1,5/36=2,99/5=2) pseudo=read geom=check guess=(
 read,tcheck) scf=(maxcycle=1)\\title\\0,1\Cl,0,-2.942743,-0.637394,-1.
 173169\C,0,-2.10993,0.134928,0.326376\C,0,-0.678016,-0.266898,0.301291
 \C,0,0.345174,0.563255,0.04419\N,0,1.660215,0.224422,-0.013951\H,0,0.1
 60622,1.613931,-0.150875\H,0,-0.490788,-1.319531,0.478628\C,0,-2.82643
 2,-0.456694,1.532607\C,0,2.145471,-1.119694,0.246189\H,0,1.736463,-1.5
 09889,1.184978\C,0,3.668119,-0.95682,0.303935\H,0,1.830155,-1.799082,-

 Normal termination of Gaussian 16 at Wed Apr  9 00:59:08 2025.
