 Gaussian 16, Revision C.01,

 ----------------------------------------------------------------------
 #t hf aug-cc-pvdz symm=none int=(grid=ultrafine) guess=(read,tcheck) s
 table=(opt,rrhf)
 ----------------------------------------------------------------------
 -----
 title
 -----
 Symbolic Z-matrix:
 Charge =  0 Multiplicity = 1

 SCF Done:  E(RHF) =  -681.080009221     A.U. after   16 cycles

 1\1\GINC-SE462\Stability\RHF\Aug-CC-pVDZ\C10H7F3\OHZDE\09-Apr-2025\0\\
 #t hf aug-cc-pvdz symm=none int=(grid=ultrafine) guess=(read,tcheck) s
 table=(opt,rrhf)\\title\\0,1\C,0,-4.281495,-0.738302,0.014218\C,0,-3.1
 59832,-0.099179,0.005013\C,0,-4.387588,0.761911,0.015081\H,0,-4.832577
 ,-1.661226,0.018572\C,0,-1.716928,-0.073151,-0.006904\C,0,-1.042384,1.
 146446,-0.015565\C,0,-0.979954,-1.260727,-0.013002\C,0,0.342407,1.1842
 26,-0.028584\H,0,-1.614356,2.065733,-0.014274\C,0,0.400699,-1.226974,-
 0.026458\H,0,-1.501058,-2.209913,-0.009922\C,0,1.06116,-0.002198,-0.03

 Normal termination of Gaussian 16 at Wed Apr  9 01:01:20 2025.
 Gaussian 16:  ES64L-G16RevC.01  3-Jul-2019

 ----------------------------------------------------------------------
 #t hf aug-cc-pvdz iop(5/13=1,5/36=2,99/5=2) pseudo=read geom=check gue
 ss=(read,tcheck) scf=(maxcycle=1)
 ----------------------------------------------------------------------
 -----
 title
 -----
 Structure from the checkpoint file:  "BH10_249_forward_mol2.chk"
 Charge =  0 Multiplicity = 1

                         Standard orientation:
 ---------------------------------------------------------------------
 Center     Atomic      Atomic             Coordinates (Angstroms)
 Number     Number       Type             X           Y           Z
 ---------------------------------------------------------------------
      1          6           0        4.281495    0.738302    0.014218
      2          6           0        3.159832    0.099179    0.005013
      3          6           0        4.387588   -0.761911    0.015081
      4          1           0        4.832577    1.661226    0.018572
      5          6           0        1.716928    0.073151   -0.006904
      6          6           0        1.042384   -1.146446   -0.015565
      7          6           0        0.979954    1.260727   -0.013002
      8          6           0       -0.342407   -1.184226   -0.028584
      9          1           0        1.614356   -2.065733   -0.014274
     10          6           0       -0.400699    1.226974   -0.026458
     11          1           0        1.501058    2.209913   -0.009922
     12          6           0       -1.061160    0.002198   -0.035486
     13          1           0       -0.863356   -2.132446   -0.041062
     14          1           0       -0.969998    2.147392   -0.037958
     15          6           0       -2.558599   -0.027656    0.001583
     16          9           0       -3.101631    0.998354   -0.677767
     17          9           0       -3.058957   -1.160310   -0.520235
     18          9           0       -3.029498    0.056909    1.263591
     19          1           0        4.674561   -1.278380    0.930911
     20          1           0        4.689678   -1.278296   -0.895939
 ---------------------------------------------------------------------

 SCF Done:  E(RHF) =  -681.303117434     A.U. after    2 cycles

 The electronic state is 1-A.
 Alpha  occ. eigenvalues --  -26.16426 -26.16328 -26.15851 -11.52671 -11.28230
 Alpha  occ. eigenvalues --  -11.28092 -11.27267 -11.27257 -11.26859 -11.26771
 Alpha  occ. eigenvalues --  -11.26685 -11.26289 -11.25725  -1.76026  -1.69029
 Alpha  occ. eigenvalues --   -1.68485  -1.19149  -1.16531  -1.08768  -1.04166
 Alpha  occ. eigenvalues --   -1.00942  -0.91175  -0.88939  -0.87604  -0.85500
 Alpha  occ. eigenvalues --   -0.83221  -0.81730  -0.77592  -0.76995  -0.76643
 Alpha  occ. eigenvalues --   -0.72697  -0.72312  -0.71782  -0.71273  -0.67401
 Alpha  occ. eigenvalues --   -0.66326  -0.63059  -0.61866  -0.61537  -0.55632
 Alpha  occ. eigenvalues --   -0.54069  -0.53325  -0.49773  -0.43459  -0.42023
 Alpha  occ. eigenvalues --   -0.36737  -0.32866
 Alpha virt. eigenvalues --    0.03072   0.03583   0.04134   0.04881   0.05252
 Alpha virt. eigenvalues --    0.05903   0.06193   0.07531   0.08770   0.09030
 Alpha virt. eigenvalues --    0.09133   0.09553   0.11356   0.11769   0.12604

 Mulliken charges:
               1
     1  C    0.214976
     2  C    0.418481
     3  C    0.421752
     4  H   -0.390337
     5  C    0.598056
     6  C    0.191104
     7  C   -0.085278
     8  C    0.149486
     9  H   -0.610123
    10  C   -0.085772
    11  H   -0.602087
    12  C    1.159414
    13  H   -0.551831
    14  H   -0.555064
    15  C    0.853754
    16  F   -0.327302
    17  F   -0.318800
    18  F   -0.329660
    19  H   -0.074968
    20  H   -0.075801
 Sum of Mulliken charges =  -0.00000

 Dipole moment (field-independent basis, Debye):
    X=              3.0555    Y=              0.4740    Z=             -0.1004  Tot=              3.0937

 Test job not archived.
 1\1\GINC-SE462\SP\RHF\Aug-CC-pVDZ\C10H7F3\OHZDE\09-Apr-2025\0\\#t hf a
 ug-cc-pvdz iop(5/13=1,5/36=2,99/5=2) pseudo=read geom=check guess=(rea
 d,tcheck) scf=(maxcycle=1)\\title\\0,1\C,0,-4.281495,-0.738302,0.01421
 8\C,0,-3.159832,-0.099179,0.005013\C,0,-4.387588,0.761911,0.015081\H,0
 ,-4.832577,-1.661226,0.018572\C,0,-1.716928,-0.073151,-0.006904\C,0,-1
 .042384,1.146446,-0.015565\C,0,-0.979954,-1.260727,-0.013002\C,0,0.342
 407,1.184226,-0.028584\H,0,-1.614356,2.065733,-0.014274\C,0,0.400699,-
 1.226974,-0.026458\H,0,-1.501058,-2.209913,-0.009922\C,0,1.06116,-0.00

 Normal termination of Gaussian 16 at Wed Apr  9 01:01:34 2025.
