 Gaussian 16, Revision C.01,

 ----------------------------------------------------------------------
 #t hf aug-cc-pvdz symm=none int=(grid=ultrafine) guess=(read,tcheck) s
 table=opt
 ----------------------------------------------------------------------
 -----
 title
 -----
 Symbolic Z-matrix:
 Charge =  0 Multiplicity = 2

 SCF Done:  E(UHF) =  -709.182044527     A.U. after   25 cycles

 1\1\GINC-SE131\Stability\UHF\Aug-CC-pVDZ\C8H15S1\OHZDE\09-Apr-2025\0\\
 #t hf aug-cc-pvdz symm=none int=(grid=ultrafine) guess=(read,tcheck) s
 table=opt\\title\\0,2\C,0,0.938215,0.708224,0.342979\C,0,-0.331527,1.0
 7807,1.048094\C,0,-1.465209,1.538394,0.116175\H,0,-0.11232,1.898465,1.
 744206\H,0,-0.677429,0.240158,1.658306\C,0,-1.991746,0.438792,-0.81249
 9\H,0,-1.117402,2.381266,-0.487887\H,0,-2.28912,1.920626,0.72824\C,0,-
 2.721773,-0.64369,-0.076032\H,0,-1.167375,0.004453,-1.3848\H,0,-2.6749
 92,0.895227,-1.537067\C,0,-2.387238,-1.925816,-0.065016\S,0,1.284716,-

 Normal termination of Gaussian 16 at Wed Apr  9 01:04:30 2025.
 Gaussian 16:  ES64L-G16RevC.01  3-Jul-2019

 ----------------------------------------------------------------------
 #t hf aug-cc-pvdz iop(5/13=1,5/36=2,99/5=2) pseudo=read geom=check gue
 ss=(read,tcheck) scf=(maxcycle=1)
 ----------------------------------------------------------------------
 -----
 title
 -----
 Structure from the checkpoint file:  "BH10_27_forward_mol2.chk"
 Charge =  0 Multiplicity = 2

                         Standard orientation:
 ---------------------------------------------------------------------
 Center     Atomic      Atomic             Coordinates (Angstroms)
 Number     Number       Type             X           Y           Z
 ---------------------------------------------------------------------
      1          6           0        0.938215    0.708224    0.342979
      2          6           0       -0.331527    1.078070    1.048094
      3          6           0       -1.465209    1.538394    0.116175
      4          1           0       -0.112320    1.898465    1.744206
      5          1           0       -0.677429    0.240158    1.658306
      6          6           0       -1.991746    0.438792   -0.812499
      7          1           0       -1.117402    2.381266   -0.487887
      8          1           0       -2.289120    1.920626    0.728240
      9          6           0       -2.721773   -0.643690   -0.076032
     10          1           0       -1.167375    0.004453   -1.384800
     11          1           0       -2.674992    0.895227   -1.537067
     12          6           0       -2.387238   -1.925816   -0.065016
     13         16           0        1.284716   -0.994678    0.226302
     14          6           0        1.601925    1.705939   -0.546002
     15          1           0        1.221568    1.663208   -1.577658
     16          1           0        2.683806    1.571298   -0.600382
     17          1           0        1.416489    2.717577   -0.176232
     18          6           0        3.035518   -1.044139   -0.238714
     19          1           0        3.202696   -0.642692   -1.236732
     20          1           0        3.319359   -2.095711   -0.233019
     21          1           0        3.644292   -0.508867    0.489345
     22          1           0       -2.962035   -2.656398    0.491701
     23          1           0       -1.521414   -2.287765   -0.608758
     24          1           0       -3.590573   -0.320648    0.495999
 ---------------------------------------------------------------------

 SCF Done:  E(UHF) =  -709.301135817     A.U. after    2 cycles

 The electronic state is 2-A.
 Alpha  occ. eigenvalues --  -93.52803 -11.26188 -11.25781 -11.23414 -11.23390
 Alpha  occ. eigenvalues --  -11.23149 -11.23006 -11.22807 -11.22103  -8.82576
 Alpha  occ. eigenvalues --   -6.16724  -6.16477  -6.16351  -1.11153  -1.06764
 Alpha  occ. eigenvalues --   -1.01741  -0.98405  -0.93117  -0.88555  -0.81801
 Alpha  occ. eigenvalues --   -0.75288  -0.72105  -0.64470  -0.63932  -0.62483
 Alpha  occ. eigenvalues --   -0.60239  -0.59729  -0.57571  -0.57433  -0.56347
 Alpha  occ. eigenvalues --   -0.53701  -0.51220  -0.50273  -0.49408  -0.46869
 Alpha  occ. eigenvalues --   -0.46302  -0.44161  -0.39810  -0.35675  -0.27936
 Alpha virt. eigenvalues --    0.03327   0.03951   0.04388   0.04520   0.05503
 Alpha virt. eigenvalues --    0.05823   0.06082   0.06627   0.07111   0.07722
 Alpha virt. eigenvalues --    0.08312   0.08418   0.09553   0.10071   0.10806

  Beta  occ. eigenvalues --  -93.52789 -11.26160 -11.23713 -11.23389 -11.23337
  Beta  occ. eigenvalues --  -11.23197 -11.22961 -11.22816 -11.22102  -8.82562
  Beta  occ. eigenvalues --   -6.16846  -6.16577  -6.16035  -1.09059  -1.05673
  Beta  occ. eigenvalues --   -1.01499  -0.97562  -0.92978  -0.87770  -0.81447
  Beta  occ. eigenvalues --   -0.75079  -0.69026  -0.63644  -0.63356  -0.61132
  Beta  occ. eigenvalues --   -0.60019  -0.59177  -0.56799  -0.56149  -0.55754
  Beta  occ. eigenvalues --   -0.53518  -0.50993  -0.49214  -0.48956  -0.46626
  Beta  occ. eigenvalues --   -0.45671  -0.42691  -0.35718  -0.34937
  Beta virt. eigenvalues --    0.03339   0.03890   0.04396   0.04512   0.05506
  Beta virt. eigenvalues --    0.05830   0.06087   0.06599   0.07120   0.07718
  Beta virt. eigenvalues --    0.08279   0.08340   0.09563   0.10012   0.10782

 Mulliken charges and spin densities:
               1          2
     1  C   -0.402883   1.387594
     2  C    0.329477  -0.260792
     3  C    0.129042   0.049282
     4  H   -0.024513   0.023575
     5  H   -0.170188  -0.005336
     6  C    0.381471  -0.001954
     7  H   -0.140141  -0.002831
     8  H   -0.147213  -0.000154
     9  C    0.620249  -0.000488
    10  H   -0.196729  -0.007368
    11  H   -0.017499  -0.000577
    12  C    0.520871   0.002003
    13  S    0.259897  -0.011265
    14  C    0.367604  -0.226833
    15  H    0.062746   0.050357
    16  H   -0.215010   0.010900
    17  H   -0.080178   0.005335
    18  C    0.109252  -0.008778
    19  H   -0.046186  -0.002342
    20  H   -0.201578  -0.002739
    21  H   -0.028852   0.003759
    22  H   -0.334953   0.000452
    23  H   -0.335119  -0.001782
    24  H   -0.439567  -0.000021
 Sum of Mulliken charges =  -0.00000   1.00000

 Dipole moment (field-independent basis, Debye):
    X=              1.1317    Y=              1.3610    Z=             -0.4542  Tot=              1.8274
                          Isotropic Fermi Contact Couplings
        Atom                 a.u.       MegaHertz       Gauss      10(-4) cm-1
     1  C(13)              0.26747     300.68526     107.29198     100.29781
     2  C(13)             -0.06057     -68.09259     -24.29713     -22.71324
     3  C(13)              0.04193      47.13648      16.81947      15.72304
     4  H(1)               0.01494      66.77639      23.82748      22.27421
     5  H(1)               0.00210       9.40041       3.35430       3.13564
     6  C(13)             -0.00298      -3.34862      -1.19487      -1.11698
     7  H(1)              -0.00112      -4.98488      -1.77873      -1.66278
     8  H(1)              -0.00021      -0.93073      -0.33211      -0.31046

 Normal termination of Gaussian 16 at Wed Apr  9 01:04:48 2025.
