 Gaussian 16, Revision C.01,

 ----------------------------------------------------------------------
 #t hf aug-cc-pvdz symm=none int=(grid=ultrafine) guess=(read,tcheck) s
 table=(opt,rrhf)
 ----------------------------------------------------------------------
 -----
 title
 -----
 Symbolic Z-matrix:
 Charge =  0 Multiplicity = 1

 SCF Done:  E(RHF) =  -576.011618209     A.U. after   13 cycles

 1\1\GINC-SE459\Stability\RHF\Aug-CC-pVDZ\C3H5Cl1\OHZDE\09-Apr-2025\0\\
 #t hf aug-cc-pvdz symm=none int=(grid=ultrafine) guess=(read,tcheck) s
 table=(opt,rrhf)\\title\\0,1\C,0,0.034598,0.741215,0.137322\C,0,-1.129
 787,-0.131605,0.447372\C,0,-2.215312,-0.193958,-0.308514\H,0,-1.05238,
 -0.728382,1.350995\H,0,-2.304958,0.38512,-1.221522\H,0,-3.053595,-0.82
 5498,-0.042263\H,0,0.263488,1.417643,0.958591\H,0,-0.121917,1.314529,-
 0.773196\Cl,0,1.537198,-0.238666,-0.113511\\Version=ES64L-G16RevC.01\H
 F=-576.0116182\RMSD=4.477e-09\Dipole=-0.7816751,0.4250664,0.1162947\Qu

 Normal termination of Gaussian 16 at Wed Apr  9 00:53:00 2025.
 Gaussian 16:  ES64L-G16RevC.01  3-Jul-2019

 ----------------------------------------------------------------------
 #t hf aug-cc-pvdz iop(5/13=1,5/36=2,99/5=2) pseudo=read geom=check gue
 ss=(read,tcheck) scf=(maxcycle=1)
 ----------------------------------------------------------------------
 -----
 title
 -----
 Structure from the checkpoint file:  "BH10_100_reverse_mol3.chk"
 Charge =  0 Multiplicity = 1

                         Standard orientation:
 ---------------------------------------------------------------------
 Center     Atomic      Atomic             Coordinates (Angstroms)
 Number     Number       Type             X           Y           Z
 ---------------------------------------------------------------------
      1          6           0        0.034598    0.741215    0.137322
      2          6           0       -1.129787   -0.131605    0.447372
      3          6           0       -2.215312   -0.193958   -0.308514
      4          1           0       -1.052380   -0.728382    1.350995
      5          1           0       -2.304958    0.385120   -1.221522
      6          1           0       -3.053595   -0.825498   -0.042263
      7          1           0        0.263488    1.417643    0.958591
      8          1           0       -0.121917    1.314529   -0.773196
      9         17           0        1.537198   -0.238666   -0.113511
 ---------------------------------------------------------------------

 SCF Done:  E(RHF) =  -576.067989457     A.U. after    2 cycles

 The electronic state is 1-A.
 Alpha  occ. eigenvalues -- -103.64864 -11.31154 -11.26190 -11.25268 -10.68156
 Alpha  occ. eigenvalues --   -8.33872  -8.33581  -8.33573  -1.16575  -1.06420
 Alpha  occ. eigenvalues --   -0.92468  -0.78419  -0.67515  -0.62968  -0.59914
 Alpha  occ. eigenvalues --   -0.55287  -0.52864  -0.45104  -0.44611  -0.38709
 Alpha virt. eigenvalues --    0.03492   0.04582   0.04671   0.06452   0.07038
 Alpha virt. eigenvalues --    0.08565   0.09653   0.12412   0.13477   0.14905
 Alpha virt. eigenvalues --    0.15452   0.16173   0.16654   0.16727   0.17114

 Mulliken charges:
               1
     1  C   -0.105061
     2  C    0.643909
     3  C    0.449560
     4  H   -0.315411
     5  H   -0.259640
     6  H   -0.269884
     7  H    0.056338
     8  H   -0.042031
     9  Cl  -0.157781
 Sum of Mulliken charges =  -0.00000

 Dipole moment (field-independent basis, Debye):
    X=             -2.0493    Y=              1.1067    Z=              0.3018  Tot=              2.3485

 Test job not archived.
 1\1\GINC-SE459\SP\RHF\Aug-CC-pVDZ\C3H5Cl1\OHZDE\09-Apr-2025\0\\#t hf a
 ug-cc-pvdz iop(5/13=1,5/36=2,99/5=2) pseudo=read geom=check guess=(rea
 d,tcheck) scf=(maxcycle=1)\\title\\0,1\C,0,0.034598,0.741215,0.137322\
 C,0,-1.129787,-0.131605,0.447372\C,0,-2.215312,-0.193958,-0.308514\H,0
 ,-1.05238,-0.728382,1.350995\H,0,-2.304958,0.38512,-1.221522\H,0,-3.05
 3595,-0.825498,-0.042263\H,0,0.263488,1.417643,0.958591\H,0,-0.121917,
 1.314529,-0.773196\Cl,0,1.537198,-0.238666,-0.113511\\Version=ES64L-G1
 6RevC.01\State=1-A\HF=-576.0679895\RMSD=5.274e-03\Dipole=-0.8062451,0.

 Normal termination of Gaussian 16 at Wed Apr  9 00:53:03 2025.
