 Gaussian 16, Revision C.01,

 ----------------------------------------------------------------------
 #t hf aug-cc-pvdz symm=none int=(grid=ultrafine) guess=(read,tcheck) s
 table=(opt,rrhf)
 ----------------------------------------------------------------------
 -----
 title
 -----
 Symbolic Z-matrix:
 Charge = -1 Multiplicity = 1

 SCF Done:  E(RHF) =  -214.473013429     A.U. after   13 cycles
 Normal termination of Gaussian 16 at Wed Apr  9 01:54:05 2025.
 Gaussian 16:  ES64L-G16RevC.01  3-Jul-2019

 ----------------------------------------------------------------------
 #t hf aug-cc-pvdz iop(5/13=1,5/36=2,99/5=2) pseudo=read geom=check gue
 ss=(read,tcheck) scf=(maxcycle=1)
 ----------------------------------------------------------------------
 -----
 title
 -----
 Structure from the checkpoint file:  "BH76RC_8_mol1.chk"
 Charge = -1 Multiplicity = 1

                         Standard orientation:
 ---------------------------------------------------------------------
 Center     Atomic      Atomic             Coordinates (Angstroms)
 Number     Number       Type             X           Y           Z
 ---------------------------------------------------------------------
      1          9           0        1.899053   -0.076457   -0.005404
      2          6           0        0.489413    0.105484    0.006768
      3          1           0        0.001304   -0.786167   -0.361155
      4          1           0        0.171943    0.298358    1.023244
      5          1           0        0.249744    0.947470   -0.630885
      6          8           0       -2.169447   -0.073143   -0.002320
      7          1           0       -3.095369    0.180697   -0.004624
 ---------------------------------------------------------------------

 SCF Done:  E(RHF) =  -214.546478699     A.U. after    2 cycles

 The electronic state is 1-A.
 Alpha  occ. eigenvalues --  -25.93183 -20.22234 -11.12678  -1.45754  -0.89406
 Alpha  occ. eigenvalues --   -0.78275  -0.56368  -0.56292  -0.53213  -0.37205
 Alpha  occ. eigenvalues --   -0.36905  -0.29261  -0.15340  -0.15310
 Alpha virt. eigenvalues --    0.15829   0.17779   0.18133   0.18445   0.24351
 Alpha virt. eigenvalues --    0.27265   0.27789   0.31727   0.38947   0.41432
 Alpha virt. eigenvalues --    0.41698   0.42393   0.44533   0.45284   0.46330

 Mulliken charges:
               1
     1  F   -0.473338
     2  C    0.785644
     3  H   -0.103061
     4  H   -0.119513
     5  H   -0.121780
     6  O   -0.937736
     7  H   -0.030215
 Sum of Mulliken charges =  -1.00000

 Dipole moment (field-independent basis, Debye):
    X=              5.5243    Y=              0.8991    Z=              0.0242  Tot=              5.5971

 Test job not archived.
 1\1\GINC-SE212\SP\RHF\Aug-CC-pVDZ\C1H4F1O1(1-)\OHZDE\09-Apr-2025\0\\#t
  hf aug-cc-pvdz iop(5/13=1,5/36=2,99/5=2) pseudo=read geom=check guess
 =(read,tcheck) scf=(maxcycle=1)\\title\\-1,1\F,0,1.89905296,-0.0764571
 1,-0.00540401\C,0,0.48941325,0.10548407,0.00676802\H,0,0.001304,-0.786
 16683,-0.36115498\H,0,0.17194291,0.29835805,1.02324351\H,0,0.24974413,
 0.94747063,-0.63088507\O,0,-2.16944664,-0.07314287,-0.00232\H,0,-3.095
 36918,0.18069708,-0.004624\\Version=ES64L-G16RevC.01\State=1-A\HF=-214
 .5464787\RMSD=3.748e-03\Dipole=2.1734395,0.353738,0.0095072\Quadrupole

 Normal termination of Gaussian 16 at Wed Apr  9 01:54:06 2025.
