 Gaussian 16, Revision C.01,

 ----------------------------------------------------------------------
 #t hf aug-cc-pvdz symm=none int=(grid=ultrafine) guess=(read,tcheck) s
 table=(opt,rrhf)
 ----------------------------------------------------------------------
 -----
 title
 -----
 Symbolic Z-matrix:
 Charge =  0 Multiplicity = 1

 SCF Done:  E(RHF) =  -139.057571197     A.U. after   10 cycles
 Normal termination of Gaussian 16 at Wed Apr  9 01:53:04 2025.
 Gaussian 16:  ES64L-G16RevC.01  3-Jul-2019

 ----------------------------------------------------------------------
 #t hf aug-cc-pvdz iop(5/13=1,5/36=2,99/5=2) pseudo=read geom=check gue
 ss=(read,tcheck) scf=(maxcycle=1)
 ----------------------------------------------------------------------
 -----
 title
 -----
 Structure from the checkpoint file:  "BH76RC_2_mol2.chk"
 Charge =  0 Multiplicity = 1

                         Standard orientation:
 ---------------------------------------------------------------------
 Center     Atomic      Atomic             Coordinates (Angstroms)
 Number     Number       Type             X           Y           Z
 ---------------------------------------------------------------------
      1          6           0        0.000000    0.000000   -0.632077
      2          9           0        0.000000    0.000000    0.749118
      3          1           0        0.000000    1.029833   -0.983198
      4          1           0        0.891861   -0.514916   -0.983198
      5          1           0       -0.891861   -0.514916   -0.983198
 ---------------------------------------------------------------------

 SCF Done:  E(RHF) =  -139.109369375     A.U. after    2 cycles

 The electronic state is 1-A1.
 Alpha  occ. eigenvalues --  -26.10347 -11.31935  -1.63705  -0.97156  -0.74212
 Alpha  occ. eigenvalues --   -0.74212  -0.71685  -0.55162  -0.55162
 Alpha virt. eigenvalues --    0.03443   0.05818   0.05818   0.08720   0.14474
 Alpha virt. eigenvalues --    0.14474   0.16969   0.24701   0.27423   0.27423
 Alpha virt. eigenvalues --    0.28709   0.28717   0.28717   0.37955   0.41232

 Mulliken charges:
               1
     1  C    0.774170
     2  F   -0.417862
     3  H   -0.118770
     4  H   -0.118770
     5  H   -0.118770
 Sum of Mulliken charges =  -0.00000

 Dipole moment (field-independent basis, Debye):
    X=             -0.0000    Y=              0.0000    Z=             -2.2616  Tot=              2.2616

 Test job not archived.
 1\1\GINC-SE150\SP\RHF\Aug-CC-pVDZ\C1H3F1\OHZDE\09-Apr-2025\0\\#t hf au
 g-cc-pvdz iop(5/13=1,5/36=2,99/5=2) pseudo=read geom=check guess=(read
 ,tcheck) scf=(maxcycle=1)\\title\\0,1\C,0,0.,0.,0.06556636\F,0,0.,0.,-
 1.31562849\H,0,0.5149163,-0.89186119,0.41668738\H,0,0.5149163,0.891861
 19,0.41668738\H,0,-1.02983259,0.,0.41668738\\Version=ES64L-G16RevC.01\
 State=1-A1\HF=-139.1093694\RMSD=4.551e-03\Dipole=0.,0.,0.8897709\Quadr
 upole=0.218204,0.218204,-0.436408,0.,0.,0.\PG=C03V [C3(C1F1),3SGV(H1)]
 \\@

 Normal termination of Gaussian 16 at Wed Apr  9 01:53:05 2025.
