 Gaussian 16, Revision C.01,

 ----------------------------------------------------------------------
 #t hf aug-cc-pvdz symm=none int=(grid=ultrafine) guess=(read,tcheck) s
 table=(opt,rrhf)
 ----------------------------------------------------------------------
 -----
 title
 -----
 Symbolic Z-matrix:
 Charge = -1 Multiplicity = 1

 SCF Done:  E(RHF) =  -598.574269392     A.U. after   12 cycles
 Normal termination of Gaussian 16 at Wed Apr  9 01:53:14 2025.
 Gaussian 16:  ES64L-G16RevC.01  3-Jul-2019

 ----------------------------------------------------------------------
 #t hf aug-cc-pvdz iop(5/13=1,5/36=2,99/5=2) pseudo=read geom=check gue
 ss=(read,tcheck) scf=(maxcycle=1)
 ----------------------------------------------------------------------
 -----
 title
 -----
 Structure from the checkpoint file:  "BH76RC_6_mol1.chk"
 Charge = -1 Multiplicity = 1

                         Standard orientation:
 ---------------------------------------------------------------------
 Center     Atomic      Atomic             Coordinates (Angstroms)
 Number     Number       Type             X           Y           Z
 ---------------------------------------------------------------------
      1         17           0        0.000000    0.000000    1.623140
      2          6           0        0.000000    0.000000   -0.227359
      3          1           0        0.000000    1.026323   -0.555139
      4          1           0        0.888822   -0.513162   -0.555139
      5          1           0       -0.888822   -0.513162   -0.555139
      6          9           0        0.000000    0.000000   -2.729311
 ---------------------------------------------------------------------

 SCF Done:  E(RHF) =  -598.637762975     A.U. after    2 cycles

 The electronic state is 1-A1.
 Alpha  occ. eigenvalues -- -103.49489 -25.69653 -11.12930 -10.52801  -8.18504
 Alpha  occ. eigenvalues --   -8.18265  -8.18265  -1.17487  -0.99251  -0.75435
 Alpha  occ. eigenvalues --   -0.44701  -0.44701  -0.38610  -0.29963  -0.29963
 Alpha  occ. eigenvalues --   -0.27753  -0.27753  -0.27678
 Alpha virt. eigenvalues --    0.15924   0.17677   0.17677   0.20060   0.28114
 Alpha virt. eigenvalues --    0.28114   0.28215   0.28794   0.28794   0.31862
 Alpha virt. eigenvalues --    0.37933   0.42947   0.43110   0.43110   0.49566

 Mulliken charges:
               1
     1  Cl  -0.380811
     2  C    0.332985
     3  H    0.008013
     4  H    0.008013
     5  H    0.008013
     6  F   -0.976214
 Sum of Mulliken charges =  -1.00000

 Dipole moment (field-independent basis, Debye):
    X=              0.0000    Y=              0.0000    Z=              8.1973  Tot=              8.1973

 Test job not archived.
 1\1\GINC-SE150\SP\RHF\Aug-CC-pVDZ\C1H3Cl1F1(1-)\OHZDE\09-Apr-2025\0\\#
 t hf aug-cc-pvdz iop(5/13=1,5/36=2,99/5=2) pseudo=read geom=check gues
 s=(read,tcheck) scf=(maxcycle=1)\\title\\-1,1\Cl,0,0.,0.,2.12296416\C,
 0,0.,0.,0.27246585\H,0,-0.51316166,-0.88882207,-0.05531445\H,0,-0.5131
 6166,0.88882207,-0.05531445\H,0,1.02632332,0.,-0.05531445\F,0,0.,0.,-2
 .22948665\\Version=ES64L-G16RevC.01\State=1-A1\HF=-598.637763\RMSD=3.3
 19e-03\Dipole=0.,0.,3.2250719\Quadrupole=9.7903411,9.7903411,-19.58068
 21,0.,0.,0.\PG=C03V [C3(F1C1Cl1),3SGV(H1)]\\@

 Normal termination of Gaussian 16 at Wed Apr  9 01:53:16 2025.
