 Gaussian 16, Revision C.01,

 ----------------------------------------------------------------------
 #t hf aug-cc-pvdz symm=none int=(grid=ultrafine) guess=(read,tcheck) s
 table=(opt,rrhf)
 ----------------------------------------------------------------------
 -----
 title
 -----
 Symbolic Z-matrix:
 Charge = -1 Multiplicity = 1

 SCF Done:  E(RHF) =  -598.633442914     A.U. after   11 cycles
 Normal termination of Gaussian 16 at Wed Apr  9 01:53:43 2025.
 Gaussian 16:  ES64L-G16RevC.01  3-Jul-2019

 ----------------------------------------------------------------------
 #t hf aug-cc-pvdz iop(5/13=1,5/36=2,99/5=2) pseudo=read geom=check gue
 ss=(read,tcheck) scf=(maxcycle=1)
 ----------------------------------------------------------------------
 -----
 title
 -----
 Structure from the checkpoint file:  "BH76RC_6_mol2.chk"
 Charge = -1 Multiplicity = 1

                         Standard orientation:
 ---------------------------------------------------------------------
 Center     Atomic      Atomic             Coordinates (Angstroms)
 Number     Number       Type             X           Y           Z
 ---------------------------------------------------------------------
      1          9           0        0.000000    0.000000   -2.648542
      2          6           0        0.000000    0.000000   -1.240168
      3          1           0       -0.000000    1.024720   -0.886408
      4          1           0       -0.887433   -0.512360   -0.886408
      5          1           0        0.887433   -0.512360   -0.886408
      6         17           0        0.000000    0.000000    1.996301
 ---------------------------------------------------------------------

 SCF Done:  E(RHF) =  -598.697270936     A.U. after    2 cycles

 The electronic state is 1-A1.
 Alpha  occ. eigenvalues -- -103.35004 -25.96255 -11.16190 -10.38004  -8.03582
 Alpha  occ. eigenvalues --   -8.03572  -8.03572  -1.49056  -0.81931  -0.79627
 Alpha  occ. eigenvalues --   -0.59577  -0.59577  -0.56603  -0.40184  -0.40184
 Alpha  occ. eigenvalues --   -0.18115  -0.17851  -0.17851
 Alpha virt. eigenvalues --    0.15131   0.17196   0.17196   0.21961   0.26197
 Alpha virt. eigenvalues --    0.26197   0.30221   0.31073   0.33242   0.33242
 Alpha virt. eigenvalues --    0.39161   0.41687   0.41687   0.43258   0.43258

 Mulliken charges:
               1
     1  F   -0.456069
     2  C    0.821269
     3  H   -0.128497
     4  H   -0.128497
     5  H   -0.128497
     6  Cl  -0.979710
 Sum of Mulliken charges =  -1.00000

 Dipole moment (field-independent basis, Debye):
    X=             -0.0000    Y=              0.0000    Z=             -6.2166  Tot=              6.2166

 Test job not archived.
 1\1\GINC-SE092\SP\RHF\Aug-CC-pVDZ\C1H3Cl1F1(1-)\OHZDE\09-Apr-2025\0\\#
 t hf aug-cc-pvdz iop(5/13=1,5/36=2,99/5=2) pseudo=read geom=check gues
 s=(read,tcheck) scf=(maxcycle=1)\\title\\-1,1\F,0,0.,0.,-1.88993612\C,
 0,0.,0.,-0.48156273\H,0,-0.51235996,0.88743348,-0.12780247\H,0,-0.5123
 5996,-0.88743348,-0.12780247\H,0,1.02471992,0.,-0.12780247\Cl,0,0.,0.,
 2.75490626\\Version=ES64L-G16RevC.01\State=1-A1\HF=-598.6972709\RMSD=3
 .658e-03\Dipole=0.,0.,-2.4458131\Quadrupole=7.6595039,7.6595039,-15.31
 90079,0.,0.,0.\PG=C03V [C3(F1C1Cl1),3SGV(H1)]\\@

 Normal termination of Gaussian 16 at Wed Apr  9 01:53:45 2025.
