 Gaussian 16, Revision C.01,

 ----------------------------------------------------------------------
 #t hf aug-cc-pvdz symm=none int=(grid=ultrafine) guess=(read,tcheck) s
 table=(opt,rrhf)
 ----------------------------------------------------------------------
 -----
 title
 -----
 Symbolic Z-matrix:
 Charge =  0 Multiplicity = 1

 SCF Done:  E(RHF) =  -499.122199607     A.U. after   11 cycles

 1\1\GINC-SE334\Stability\RHF\Aug-CC-pVDZ\C1H3Cl1\OHZDE\09-Apr-2025\0\\
 #t hf aug-cc-pvdz symm=none int=(grid=ultrafine) guess=(read,tcheck) s
 table=(opt,rrhf)\\title\\0,1\C,0,0.,0.,-0.14991696\Cl,0,0.,0.,1.632801
 68\H,0,-0.51399776,-0.89027024,-0.49429491\H,0,-0.51399776,0.89027024,
 -0.49429491\H,0,1.02799552,0.,-0.49429491\\Version=ES64L-G16RevC.01\HF
 =-499.1221996\RMSD=1.698e-09\Dipole=0.,0.,-0.8571707\Quadrupole=0.5867
 ,0.5867001,-1.1734001,0.,0.,0.\PG=Unknown\\@
 The archive entry for this job was punched.

 Normal termination of Gaussian 16 at Wed Apr  9 01:53:03 2025.
 Gaussian 16:  ES64L-G16RevC.01  3-Jul-2019

 ----------------------------------------------------------------------
 #t hf aug-cc-pvdz iop(5/13=1,5/36=2,99/5=2) pseudo=read geom=check gue
 ss=(read,tcheck) scf=(maxcycle=1)
 ----------------------------------------------------------------------
 -----
 title
 -----
 Structure from the checkpoint file:  "BH76RC_5_mol2.chk"
 Charge =  0 Multiplicity = 1

                         Standard orientation:
 ---------------------------------------------------------------------
 Center     Atomic      Atomic             Coordinates (Angstroms)
 Number     Number       Type             X           Y           Z
 ---------------------------------------------------------------------
      1          6           0        0.000000    0.000000   -1.125888
      2         17           0        0.000000    0.000000    0.656831
      3          1           0        0.000000    1.027996   -1.470266
      4          1           0        0.890270   -0.513998   -1.470266
      5          1           0       -0.890270   -0.513998   -1.470266
 ---------------------------------------------------------------------

 SCF Done:  E(RHF) =  -499.156540899     A.U. after    2 cycles

 The electronic state is 1-A1.
 Alpha  occ. eigenvalues -- -103.65141 -11.30179 -10.68448  -8.34174  -8.33870
 Alpha  occ. eigenvalues --   -8.33870  -1.16225  -0.92773  -0.62351  -0.62351
 Alpha  occ. eigenvalues --   -0.55815  -0.44793  -0.44793
 Alpha virt. eigenvalues --    0.03322   0.05784   0.05784   0.07655   0.13773
 Alpha virt. eigenvalues --    0.15081   0.15081   0.15879   0.16781   0.16781
 Alpha virt. eigenvalues --    0.22799   0.26740   0.26740   0.29826   0.35133

 Mulliken charges:
               1
     1  C    0.224222
     2  Cl  -0.206124
     3  H   -0.006033
     4  H   -0.006033
     5  H   -0.006033
 Sum of Mulliken charges =  -0.00000

 Dipole moment (field-independent basis, Debye):
    X=              0.0000    Y=              0.0000    Z=             -2.2303  Tot=              2.2303

 Test job not archived.
 1\1\GINC-SE334\SP\RHF\Aug-CC-pVDZ\C1H3Cl1\OHZDE\09-Apr-2025\0\\#t hf a
 ug-cc-pvdz iop(5/13=1,5/36=2,99/5=2) pseudo=read geom=check guess=(rea
 d,tcheck) scf=(maxcycle=1)\\title\\0,1\C,0,0.,0.,-0.14991696\Cl,0,0.,0
 .,1.63280168\H,0,-0.51399776,-0.89027024,-0.49429491\H,0,-0.51399776,0
 .89027024,-0.49429491\H,0,1.02799552,0.,-0.49429491\\Version=ES64L-G16
 RevC.01\State=1-A1\HF=-499.1565409\RMSD=2.814e-03\Dipole=0.,0.,-0.8774
 533\Quadrupole=-0.4886606,-0.4886606,0.9773212,0.,0.,0.\PG=C03V [C3(C1
 Cl1),3SGV(H1)]\\@

 Normal termination of Gaussian 16 at Wed Apr  9 01:53:05 2025.
