 Gaussian 16, Revision C.01,

 ----------------------------------------------------------------------
 #t hf aug-cc-pvdz symm=none int=(grid=ultrafine) guess=(read,tcheck) s
 table=(opt,rrhf)
 ----------------------------------------------------------------------
 -----
 title
 -----
 Symbolic Z-matrix:
 Charge =  0 Multiplicity = 1

 SCF Done:  E(RHF) =  -629.286459389     A.U. after   15 cycles
 Normal termination of Gaussian 16 at Wed Apr  9 01:58:21 2025.
 Gaussian 16:  ES64L-G16RevC.01  3-Jul-2019

 ----------------------------------------------------------------------
 #t hf aug-cc-pvdz iop(5/13=1,5/36=2,99/5=2) pseudo=read geom=check gue
 ss=(read,tcheck) scf=(maxcycle=1)
 ----------------------------------------------------------------------
 -----
 title
 -----
 Structure from the checkpoint file:  "BHPERI26_26_mol3.chk"
 Charge =  0 Multiplicity = 1

                         Standard orientation:
 ---------------------------------------------------------------------
 Center     Atomic      Atomic             Coordinates (Angstroms)
 Number     Number       Type             X           Y           Z
 ---------------------------------------------------------------------
      1          6           0       -0.005137    0.390174    1.204752
      2         16           0        1.216920    0.813244    0.000000
      3          6           0       -0.005137   -1.714447    0.702159
      4          6           0       -1.294288    0.694069    0.686481
      5          6           0       -0.005137    0.390174   -1.204752
      6          6           0       -0.005137   -1.714447   -0.702159
      7          6           0       -1.294288    0.694069   -0.686481
      8          1           0        0.260498    0.477189    2.250149
      9          1           0        0.915735   -1.928851    1.230286
     10          1           0       -0.903787   -2.002111    1.233478
     11          1           0       -2.180432    0.729041    1.307287
     12          1           0        0.260498    0.477189   -2.250149
     13          1           0        0.915735   -1.928851   -1.230286
     14          1           0       -0.903787   -2.002111   -1.233478
     15          1           0       -2.180432    0.729041   -1.307287
 ---------------------------------------------------------------------

 SCF Done:  E(RHF) =  -629.376430941     A.U. after    2 cycles

 The electronic state is 1-A'.
 Alpha  occ. eigenvalues --  -93.54338 -11.28834 -11.28815 -11.24384 -11.24259
 Alpha  occ. eigenvalues --  -11.24056 -11.23951  -8.84086  -6.18219  -6.18100
 Alpha  occ. eigenvalues --   -6.17724  -1.15460  -1.00803  -0.96869  -0.96782
 Alpha  occ. eigenvalues --   -0.79569  -0.76980  -0.73702  -0.69702  -0.63078
 Alpha  occ. eigenvalues --   -0.57491  -0.55908  -0.55465  -0.54543  -0.51577
 Alpha  occ. eigenvalues --   -0.49316  -0.46873  -0.34294  -0.33561  -0.30621
 Alpha virt. eigenvalues --    0.03446   0.03921   0.04537   0.05504   0.05808
 Alpha virt. eigenvalues --    0.06402   0.06599   0.08604   0.08662   0.09396
 Alpha virt. eigenvalues --    0.10985   0.12378   0.12901   0.13882   0.14043

 Mulliken charges:
               1
     1  C    0.044397
     2  S    0.513794
     3  C    0.525668
     4  C    0.518811
     5  C    0.044397
     6  C    0.525668
     7  C    0.518811
     8  H   -0.446903
     9  H   -0.243301
    10  H   -0.277788
    11  H   -0.377781
    12  H   -0.446903
    13  H   -0.243301
    14  H   -0.277788
    15  H   -0.377781
 Sum of Mulliken charges =  -0.00000

 Dipole moment (field-independent basis, Debye):
    X=             -1.0835    Y=             -0.6421    Z=              0.0000  Tot=              1.2595

 Test job not archived.
 1\1\GINC-SE340\SP\RHF\Aug-CC-pVDZ\C6H8S1\OHZDE\09-Apr-2025\0\\#t hf au
 g-cc-pvdz iop(5/13=1,5/36=2,99/5=2) pseudo=read geom=check guess=(read
 ,tcheck) scf=(maxcycle=1)\\title\\0,1\C,0,0.82811617,-0.21159069,1.204
 75228\S,0,1.44229834,-1.34965552,0.\C,0,-1.2490846,-0.5502165,0.702159
 2\C,0,0.92063189,1.10965989,0.68648123\C,0,0.82811617,-0.21159069,-1.2
 0475228\C,0,-1.2490846,-0.5502165,-0.7021592\C,0,0.92063189,1.10965989
 ,-0.68648123\H,0,0.95673688,-0.45976412,2.25014885\H,0,-1.31253023,-1.
 49358792,1.23028597\H,0,-1.67759031,0.29044161,1.23347838\H,0,0.812571

 Normal termination of Gaussian 16 at Wed Apr  9 01:58:25 2025.
