 Gaussian 16, Revision C.01,

 ----------------------------------------------------------------------
 #t hf aug-cc-pvdz symm=none int=(grid=ultrafine) guess=(read,tcheck) s
 table=(opt,rrhf)
 ----------------------------------------------------------------------
 -----
 title
 -----
 Symbolic Z-matrix:
 Charge =  0 Multiplicity = 1

 SCF Done:  E(RHF) =  -443.872463111     A.U. after   12 cycles

 1\1\GINC-SE141\Stability\RHF\Aug-CC-pVDZ\C4H6Si1\OHZDE\09-Apr-2025\0\\
 #t hf aug-cc-pvdz symm=none int=(grid=ultrafine) guess=(read,tcheck) s
 table=(opt,rrhf)\\title\\0,1\Si,0,0.,0.,-1.37623845\C,0,0.,-1.35357739
 ,-0.07601308\C,0,0.,1.35357739,-0.07601308\C,0,0.,-0.74316821,1.123967
 26\C,0,0.,0.74316821,1.12396726\H,0,-1.20433713,0.,-2.24936337\H,0,1.2
 0433713,0.,-2.24936337\H,0,0.,-2.43103669,-0.18113111\H,0,0.,2.4310366
 9,-0.18113111\H,0,0.,-1.27765036,2.07065953\H,0,0.,1.27765036,2.070659
 53\\Version=ES64L-G16RevC.01\HF=-443.8724631\RMSD=6.121e-09\Dipole=0.,

 Normal termination of Gaussian 16 at Wed Apr  9 01:55:11 2025.
 Gaussian 16:  ES64L-G16RevC.01  3-Jul-2019

 ----------------------------------------------------------------------
 #t hf aug-cc-pvdz iop(5/13=1,5/36=2,99/5=2) pseudo=read geom=check gue
 ss=(read,tcheck) scf=(maxcycle=1)
 ----------------------------------------------------------------------
 -----
 title
 -----
 Structure from the checkpoint file:  "BHPERI26_21_mol1.chk"
 Charge =  0 Multiplicity = 1

                         Standard orientation:
 ---------------------------------------------------------------------
 Center     Atomic      Atomic             Coordinates (Angstroms)
 Number     Number       Type             X           Y           Z
 ---------------------------------------------------------------------
      1         14           0       -0.000000    0.000000    1.207794
      2          6           0        0.000000    1.353577   -0.092431
      3          6           0       -0.000000   -1.353577   -0.092431
      4          6           0        0.000000    0.743168   -1.292412
      5          6           0       -0.000000   -0.743168   -1.292412
      6          1           0       -1.204337    0.000000    2.080919
      7          1           0        1.204337   -0.000000    2.080919
      8          1           0        0.000000    2.431037    0.012687
      9          1           0       -0.000000   -2.431037    0.012687
     10          1           0        0.000000    1.277650   -2.239104
     11          1           0       -0.000000   -1.277650   -2.239104
 ---------------------------------------------------------------------

 SCF Done:  E(RHF) =  -443.942137725     A.U. after    2 cycles

 The electronic state is 1-A1.
 Alpha  occ. eigenvalues --  -69.06222 -11.25854 -11.25786 -11.22735 -11.22728
 Alpha  occ. eigenvalues --   -6.81492  -3.92312  -3.92256  -3.92223  -1.10002
 Alpha  occ. eigenvalues --   -0.97229  -0.83825  -0.70678  -0.70365  -0.65610
 Alpha  occ. eigenvalues --   -0.57824  -0.53991  -0.50096  -0.45561  -0.44770
 Alpha  occ. eigenvalues --   -0.43240  -0.32738
 Alpha virt. eigenvalues --    0.03293   0.04247   0.04498   0.05801   0.06093
 Alpha virt. eigenvalues --    0.06441   0.06778   0.07580   0.08467   0.10039
 Alpha virt. eigenvalues --    0.12722   0.13972   0.14247   0.14508   0.14786

 Mulliken charges:
               1
     1  Si   0.702732
     2  C   -0.020682
     3  C   -0.020682
     4  C    0.474993
     5  C    0.474993
     6  H   -0.013481
     7  H   -0.013481
     8  H   -0.416488
     9  H   -0.416488
    10  H   -0.375708
    11  H   -0.375708
 Sum of Mulliken charges =  -0.00000

 Dipole moment (field-independent basis, Debye):
    X=              0.0000    Y=              0.0000    Z=             -0.7013  Tot=              0.7013

 Test job not archived.
 1\1\GINC-SE141\SP\RHF\Aug-CC-pVDZ\C4H6Si1\OHZDE\09-Apr-2025\0\\#t hf a
 ug-cc-pvdz iop(5/13=1,5/36=2,99/5=2) pseudo=read geom=check guess=(rea
 d,tcheck) scf=(maxcycle=1)\\title\\0,1\Si,0,0.,0.,-1.37623845\C,0,0.,-
 1.35357739,-0.07601308\C,0,0.,1.35357739,-0.07601308\C,0,0.,-0.7431682
 1,1.12396726\C,0,0.,0.74316821,1.12396726\H,0,-1.20433713,0.,-2.249363
 37\H,0,1.20433713,0.,-2.24936337\H,0,0.,-2.43103669,-0.18113111\H,0,0.
 ,2.43103669,-0.18113111\H,0,0.,-1.27765036,2.07065953\H,0,0.,1.2776503
 6,2.07065953\\Version=ES64L-G16RevC.01\State=1-A1\HF=-443.9421377\RMSD

 Normal termination of Gaussian 16 at Wed Apr  9 01:55:15 2025.
