 Gaussian 16, Revision C.01,

 ----------------------------------------------------------------------
 #t hf aug-cc-pvdz symm=none int=(grid=ultrafine) guess=(read,tcheck) s
 table=(opt,rrhf)
 ----------------------------------------------------------------------
 -----
 title
 -----
 Symbolic Z-matrix:
 Charge =  0 Multiplicity = 1

 SCF Done:  E(RHF) =  -573.067317299     A.U. after   15 cycles
 Normal termination of Gaussian 16 at Wed Apr  9 01:56:58 2025.
 Gaussian 16:  ES64L-G16RevC.01  3-Jul-2019

 ----------------------------------------------------------------------
 #t hf aug-cc-pvdz iop(5/13=1,5/36=2,99/5=2) pseudo=read geom=check gue
 ss=(read,tcheck) scf=(maxcycle=1)
 ----------------------------------------------------------------------
 -----
 title
 -----
 Structure from the checkpoint file:  "BHPERI26_24_mol3.chk"
 Charge =  0 Multiplicity = 1

                         Standard orientation:
 ---------------------------------------------------------------------
 Center     Atomic      Atomic             Coordinates (Angstroms)
 Number     Number       Type             X           Y           Z
 ---------------------------------------------------------------------
      1          1           0       -1.555451    1.784068    1.290038
      2          6           0       -0.800401    1.277384    0.698094
      3          6           0        0.136699    0.394952    1.247013
      4          6           0       -0.800401    1.277384   -0.698094
      5          1           0        2.017003    1.316940    0.000000
      6         15           0        1.441209    0.002458    0.000000
      7          6           0       -0.800401   -1.551526    0.697823
      8          1           0        0.314024    0.315799    2.312915
      9          6           0       -0.800401   -1.551526   -0.697823
     10          1           0       -1.555451    1.784068   -1.290038
     11          6           0        0.136699    0.394952   -1.247013
     12          1           0        0.314024    0.315799   -2.312915
     13          1           0       -0.077974   -2.157056   -1.231458
     14          1           0       -1.713547   -1.344579    1.238859
     15          1           0       -0.077974   -2.157056    1.231458
     16          1           0       -1.713547   -1.344579   -1.238859
 ---------------------------------------------------------------------

 SCF Done:  E(RHF) =  -573.158154449     A.U. after    2 cycles

 The electronic state is 1-A'.
 Alpha  occ. eigenvalues --  -81.25426 -11.25847 -11.25846 -11.24614 -11.24500
 Alpha  occ. eigenvalues --  -11.24100 -11.23987  -7.75641  -4.89642  -4.89621
 Alpha  occ. eigenvalues --   -4.89337  -1.11765  -1.01491  -0.95861  -0.87688
 Alpha  occ. eigenvalues --   -0.80026  -0.72770  -0.71418  -0.67533  -0.63640
 Alpha  occ. eigenvalues --   -0.57965  -0.55962  -0.55580  -0.53152  -0.51301
 Alpha  occ. eigenvalues --   -0.45754  -0.45015  -0.34705  -0.32041  -0.31246
 Alpha virt. eigenvalues --    0.03417   0.04019   0.04599   0.05288   0.05872
 Alpha virt. eigenvalues --    0.06498   0.06523   0.06831   0.08249   0.08544
 Alpha virt. eigenvalues --    0.10003   0.10128   0.12510   0.13765   0.14067

 Mulliken charges:
               1
     1  H   -0.391371
     2  C    0.401479
     3  C    0.259761
     4  C    0.401479
     5  H    0.181261
     6  P    0.276847
     7  C    0.595268
     8  H   -0.549430
     9  C    0.595268
    10  H   -0.391371
    11  C    0.259761
    12  H   -0.549430
    13  H   -0.266008
    14  H   -0.278753
    15  H   -0.266008
    16  H   -0.278753
 Sum of Mulliken charges =   0.00000

 Dipole moment (field-independent basis, Debye):
    X=             -1.1165    Y=              0.1735    Z=             -0.0000  Tot=              1.1299

 Test job not archived.
 1\1\GINC-SE363\SP\RHF\Aug-CC-pVDZ\C6H9P1\OHZDE\09-Apr-2025\0\\#t hf au
 g-cc-pvdz iop(5/13=1,5/36=2,99/5=2) pseudo=read geom=check guess=(read
 ,tcheck) scf=(maxcycle=1)\\title\\0,1\H,0,-1.20945809,1.86172553,1.290
 03837\C,0,-0.45440788,1.35504139,0.6980942\C,0,0.48269239,0.47260913,1
 .24701336\C,0,-0.45440788,1.35504139,-0.6980942\H,0,2.36299592,1.39459
 74,0.\P,0,1.78720176,0.08011502,0.\C,0,-0.45440788,-1.47386842,0.69782
 32\H,0,0.66001744,0.39345611,2.31291466\C,0,-0.45440788,-1.47386842,-0
 .6978232\H,0,-1.20945809,1.86172553,-1.29003837\C,0,0.48269239,0.47260

 Normal termination of Gaussian 16 at Wed Apr  9 01:57:02 2025.
