 Gaussian 16, Revision C.01,

 ----------------------------------------------------------------------
 #t hf aug-cc-pvdz symm=none int=(grid=ultrafine) guess=(read,tcheck) s
 table=(opt,rrhf)
 ----------------------------------------------------------------------
 -----
 title
 -----
 Symbolic Z-matrix:
 Charge =  0 Multiplicity = 1

 SCF Done:  E(RHF) =  -573.066873776     A.U. after   15 cycles
 Normal termination of Gaussian 16 at Wed Apr  9 01:57:22 2025.
 Gaussian 16:  ES64L-G16RevC.01  3-Jul-2019

 ----------------------------------------------------------------------
 #t hf aug-cc-pvdz iop(5/13=1,5/36=2,99/5=2) pseudo=read geom=check gue
 ss=(read,tcheck) scf=(maxcycle=1)
 ----------------------------------------------------------------------
 -----
 title
 -----
 Structure from the checkpoint file:  "BHPERI26_25_mol3.chk"
 Charge =  0 Multiplicity = 1

                         Standard orientation:
 ---------------------------------------------------------------------
 Center     Atomic      Atomic             Coordinates (Angstroms)
 Number     Number       Type             X           Y           Z
 ---------------------------------------------------------------------
      1          1           0       -2.176208    0.853743    1.292398
      2          6           0       -1.277980    0.737855    0.696552
      3          6           0       -0.029503    0.378132    1.243025
      4          6           0       -1.277980    0.737855   -0.696552
      5          1           0        2.132482   -0.173140    0.000000
      6         15           0        1.203305    0.902023    0.000000
      7          6           0       -0.029503   -1.774930    0.696470
      8          1           0        0.159520    0.417499    2.309561
      9          6           0       -0.029503   -1.774930   -0.696470
     10          1           0       -2.176208    0.853743   -1.292398
     11          6           0       -0.029503    0.378132   -1.243025
     12          1           0        0.159520    0.417499   -2.309561
     13          1           0        0.885185   -1.984480   -1.237100
     14          1           0       -0.937611   -2.011713    1.235148
     15          1           0        0.885185   -1.984480    1.237100
     16          1           0       -0.937611   -2.011713   -1.235148
 ---------------------------------------------------------------------

 SCF Done:  E(RHF) =  -573.157678183     A.U. after    2 cycles

 The electronic state is 1-A'.
 Alpha  occ. eigenvalues --  -81.25803 -11.25993 -11.25993 -11.24409 -11.24293
 Alpha  occ. eigenvalues --  -11.24025 -11.23912  -7.76102  -4.90183  -4.90092
 Alpha  occ. eigenvalues --   -4.89772  -1.12153  -1.00946  -0.95977  -0.88025
 Alpha  occ. eigenvalues --   -0.79571  -0.73023  -0.71493  -0.68454  -0.62816
 Alpha  occ. eigenvalues --   -0.57504  -0.55665  -0.54312  -0.53326  -0.50772
 Alpha  occ. eigenvalues --   -0.48616  -0.46009  -0.34563  -0.32152  -0.30307
 Alpha virt. eigenvalues --    0.03363   0.03988   0.04379   0.05558   0.05813
 Alpha virt. eigenvalues --    0.06304   0.06524   0.07299   0.07959   0.08429
 Alpha virt. eigenvalues --    0.10060   0.11088   0.12225   0.12557   0.13992

 Mulliken charges:
               1
     1  H   -0.403176
     2  C    0.367737
     3  C    0.369492
     4  C    0.367737
     5  H    0.190497
     6  P    0.281728
     7  C    0.561874
     8  H   -0.554635
     9  C    0.561874
    10  H   -0.403176
    11  C    0.369492
    12  H   -0.554635
    13  H   -0.281336
    14  H   -0.296068
    15  H   -0.281336
    16  H   -0.296068
 Sum of Mulliken charges =  -0.00000

 Dipole moment (field-independent basis, Debye):
    X=             -0.5088    Y=             -0.8881    Z=             -0.0000  Tot=              1.0235

 Test job not archived.
 1\1\GINC-SE340\SP\RHF\Aug-CC-pVDZ\C6H9P1\OHZDE\09-Apr-2025\0\\#t hf au
 g-cc-pvdz iop(5/13=1,5/36=2,99/5=2) pseudo=read geom=check guess=(read
 ,tcheck) scf=(maxcycle=1)\\title\\0,1\H,0,-1.95893181,1.23117454,1.292
 39837\C,0,-1.06070455,1.11528651,0.6965522\C,0,0.1877728,0.7555634,1.2
 4302535\C,0,-1.06070455,1.11528651,-0.6965522\H,0,2.34975742,0.2042912
 5,0.\P,0,1.42058115,1.27945455,0.\C,0,0.1877728,-1.39749821,0.6964702\
 H,0,0.37679586,0.79493041,2.30956066\C,0,0.1877728,-1.39749821,-0.6964
 702\H,0,-1.95893181,1.23117454,-1.29239837\C,0,0.1877728,0.7555634,-1.

 Normal termination of Gaussian 16 at Wed Apr  9 01:57:27 2025.
