 Gaussian 16, Revision C.01,

 ----------------------------------------------------------------------
 #t hf aug-cc-pvdz symm=none int=(grid=ultrafine) guess=(read,tcheck) s
 table=(opt,rrhf)
 ----------------------------------------------------------------------
 -----
 title
 -----
 Symbolic Z-matrix:
 Charge =  0 Multiplicity = 1

 SCF Done:  E(RHF) =  -551.328298272     A.U. after   13 cycles
 Normal termination of Gaussian 16 at Wed Apr  9 01:57:20 2025.
 Gaussian 16:  ES64L-G16RevC.01  3-Jul-2019

 ----------------------------------------------------------------------
 #t hf aug-cc-pvdz iop(5/13=1,5/36=2,99/5=2) pseudo=read geom=check gue
 ss=(read,tcheck) scf=(maxcycle=1)
 ----------------------------------------------------------------------
 -----
 title
 -----
 Structure from the checkpoint file:  "BHPERI26_26_mol1.chk"
 Charge =  0 Multiplicity = 1

                         Standard orientation:
 ---------------------------------------------------------------------
 Center     Atomic      Atomic             Coordinates (Angstroms)
 Number     Number       Type             X           Y           Z
 ---------------------------------------------------------------------
      1          6           0        0.000000    0.713555   -1.270864
      2          6           0        0.000000    1.240985   -0.012203
      3         16           0        0.000000    0.000000    1.198037
      4          6           0       -0.000000   -1.240985   -0.012203
      5          6           0       -0.000000   -0.713555   -1.270864
      6          1           0        0.000000    1.318136   -2.168158
      7          1           0        0.000000    2.278819    0.282266
      8          1           0       -0.000000   -2.278819    0.282266
      9          1           0       -0.000000   -1.318136   -2.168158
 ---------------------------------------------------------------------

 SCF Done:  E(RHF) =  -551.397351846     A.U. after    2 cycles

 The electronic state is 1-A1.
 Alpha  occ. eigenvalues --  -93.56404 -11.27415 -11.27391 -11.25059 -11.24971
 Alpha  occ. eigenvalues --   -8.86215  -6.20311  -6.20188  -6.19843  -1.15923
 Alpha  occ. eigenvalues --   -0.98220  -0.97565  -0.76938  -0.75275  -0.70226
 Alpha  occ. eigenvalues --   -0.58342  -0.55764  -0.52797  -0.52325  -0.47361
 Alpha  occ. eigenvalues --   -0.34758  -0.33329
 Alpha virt. eigenvalues --    0.03583   0.04185   0.04775   0.05985   0.08568
 Alpha virt. eigenvalues --    0.09623   0.11973   0.12204   0.13925   0.14254
 Alpha virt. eigenvalues --    0.14406   0.14469   0.14557   0.14695   0.15781

 Mulliken charges:
               1
     1  C    0.347103
     2  C   -0.101542
     3  S    0.801111
     4  C   -0.101542
     5  C    0.347103
     6  H   -0.310819
     7  H   -0.335297
     8  H   -0.335297
     9  H   -0.310819
 Sum of Mulliken charges =  -0.00000

 Dipole moment (field-independent basis, Debye):
    X=              0.0000    Y=              0.0000    Z=             -0.7944  Tot=              0.7944

 Test job not archived.
 1\1\GINC-SE363\SP\RHF\Aug-CC-pVDZ\C4H4S1\OHZDE\09-Apr-2025\0\\#t hf au
 g-cc-pvdz iop(5/13=1,5/36=2,99/5=2) pseudo=read geom=check guess=(read
 ,tcheck) scf=(maxcycle=1)\\title\\0,1\C,0,-0.7135547,0.,-0.69976624\C,
 0,-1.24098496,0.,0.55889443\S,0,0.,0.,1.76913499\C,0,1.24098496,0.,0.5
 5889443\C,0,0.7135547,0.,-0.69976624\H,0,-1.3181355,0.,-1.5970597\H,0,
 -2.27881941,0.,0.85336402\H,0,2.27881941,0.,0.85336402\H,0,1.3181355,0
 .,-1.5970597\\Version=ES64L-G16RevC.01\State=1-A1\HF=-551.3973518\RMSD
 =1.240e-02\Dipole=0.,0.,-0.3125475\Quadrupole=3.4466894,-4.1588625,0.7

 Normal termination of Gaussian 16 at Wed Apr  9 01:57:22 2025.
