 Gaussian 16, Revision C.01,

 ----------------------------------------------------------------------
 #t hf aug-cc-pvdz symm=none int=(grid=ultrafine) guess=(read,tcheck) s
 table=(opt,rrhf)
 ----------------------------------------------------------------------
 -----
 title
 -----
 Symbolic Z-matrix:
 Charge =  0 Multiplicity = 1

 SCF Done:  E(RHF) =  -624.723675783     A.U. after   14 cycles
 Normal termination of Gaussian 16 at Wed Apr  9 02:01:27 2025.
 Gaussian 16:  ES64L-G16RevC.01  3-Jul-2019

 ----------------------------------------------------------------------
 #t hf aug-cc-pvdz iop(5/13=1,5/36=2,99/5=2) pseudo=read geom=check gue
 ss=(read,tcheck) scf=(maxcycle=1)
 ----------------------------------------------------------------------
 -----
 title
 -----
 Structure from the checkpoint file:  "BHROT27_24_mol2.chk"
 Charge =  0 Multiplicity = 1

                         Standard orientation:
 ---------------------------------------------------------------------
 Center     Atomic      Atomic             Coordinates (Angstroms)
 Number     Number       Type             X           Y           Z
 ---------------------------------------------------------------------
      1         16           0        1.644480   -1.029565    0.012116
      2          7           0        1.312978    1.572509   -0.169684
      3          7           0       -0.581908    0.483155    0.457587
      4          6           0        0.795758    0.373109    0.095332
      5          1           0        0.718183    2.377383   -0.123381
      6          1           0        2.269417    1.649086   -0.458682
      7          1           0       -0.659848    0.147163    1.409703
      8          6           0       -1.462779   -0.339818   -0.376136
      9          6           0       -2.905172   -0.112312    0.007022
     10          1           0       -1.300736   -0.041892   -1.409803
     11          1           0       -1.197959   -1.395782   -0.296748
     12          1           0       -3.185716    0.926739   -0.143528
     13          1           0       -3.561212   -0.733759   -0.594973
     14          1           0       -3.078136   -0.371419    1.050933
 ---------------------------------------------------------------------

 SCF Done:  E(RHF) =  -624.812782495     A.U. after    2 cycles

 The electronic state is 1-A.
 Alpha  occ. eigenvalues --  -93.47930 -15.67461 -15.63812 -11.38474 -11.26929
 Alpha  occ. eigenvalues --  -11.23176  -8.77969  -6.12225  -6.11703  -6.11591
 Alpha  occ. eigenvalues --   -1.27304  -1.17456  -1.01857  -0.96564  -0.85470
 Alpha  occ. eigenvalues --   -0.80518  -0.74198  -0.67334  -0.66173  -0.61445
 Alpha  occ. eigenvalues --   -0.55314  -0.53711  -0.52660  -0.50883  -0.50420
 Alpha  occ. eigenvalues --   -0.41019  -0.33543  -0.32491
 Alpha virt. eigenvalues --    0.02878   0.03746   0.04362   0.05063   0.06569
 Alpha virt. eigenvalues --    0.07049   0.07580   0.08201   0.10202   0.10514
 Alpha virt. eigenvalues --    0.12412   0.13126   0.14236   0.14637   0.15147

 Mulliken charges:
               1
     1  S   -0.084681
     2  N   -0.195752
     3  N   -0.729291
     4  C    0.464681
     5  H   -0.017520
     6  H    0.014683
     7  H    0.085131
     8  C    0.632573
     9  C    0.387159
    10  H   -0.237650
    11  H   -0.155447
    12  H   -0.046861
    13  H   -0.041057
    14  H   -0.075966
 Sum of Mulliken charges =   0.00000

 Dipole moment (field-independent basis, Debye):
    X=             -1.8442    Y=              3.2554    Z=             -0.0786  Tot=              3.7423

 Test job not archived.
 1\1\GINC-SE094\SP\RHF\Aug-CC-pVDZ\C3H8N2S1\OHZDE\09-Apr-2025\0\\#t hf
 aug-cc-pvdz iop(5/13=1,5/36=2,99/5=2) pseudo=read geom=check guess=(re
 ad,tcheck) scf=(maxcycle=1)\\title\\0,1\S,0,0.9877987,1.6908616,-0.050
 66349\N,0,-1.61020626,1.29841558,-0.15110636\N,0,-0.45937754,-0.564341
 ,0.46247752\C,0,-0.39187804,0.81146297,0.08312165\H,0,-2.39944662,0.68
 603674,-0.07469157\H,0,-1.71732706,2.24968277,-0.44737712\H,0,-0.09355
 347,-0.62431146,1.4048497\C,0,0.35853015,-1.43528096,-0.38652433\C,0,0
 .17576383,-2.87823113,0.01789791\H,0,0.0263868,-1.291253,-1.4124002\H,

 Normal termination of Gaussian 16 at Wed Apr  9 02:01:31 2025.
