 Gaussian 16, Revision C.01,

 ----------------------------------------------------------------------
 #t hf aug-cc-pvdz symm=none int=(grid=ultrafine) guess=(read,tcheck) s
 table=(opt,rrhf)
 ----------------------------------------------------------------------
 -----
 title
 -----
 Symbolic Z-matrix:
 Charge =  0 Multiplicity = 1

 SCF Done:  E(RHF) =  -624.712124326     A.U. after   14 cycles
 Normal termination of Gaussian 16 at Wed Apr  9 02:01:41 2025.
 Gaussian 16:  ES64L-G16RevC.01  3-Jul-2019

 ----------------------------------------------------------------------
 #t hf aug-cc-pvdz iop(5/13=1,5/36=2,99/5=2) pseudo=read geom=check gue
 ss=(read,tcheck) scf=(maxcycle=1)
 ----------------------------------------------------------------------
 -----
 title
 -----
 Structure from the checkpoint file:  "BHROT27_26_mol2.chk"
 Charge =  0 Multiplicity = 1

                         Standard orientation:
 ---------------------------------------------------------------------
 Center     Atomic      Atomic             Coordinates (Angstroms)
 Number     Number       Type             X           Y           Z
 ---------------------------------------------------------------------
      1         16           0       -2.022240   -0.763244   -0.100530
      2          7           0       -0.853673    1.570904    0.026509
      3          7           0        0.543363   -0.237499    0.494683
      4          6           0       -0.753670    0.234999    0.144069
      5          1           0       -0.050868    2.165235    0.102218
      6          1           0       -1.725568    1.968410   -0.266502
      7          1           0        0.778819    0.060531    1.432015
      8          6           0        1.599781    0.108630   -0.448776
      9          6           0        2.933398   -0.426524    0.020924
     10          1           0        1.331506   -0.342069   -1.402127
     11          1           0        1.690222    1.188777   -0.625788
     12          1           0        2.914583   -1.508857    0.101651
     13          1           0        3.718107   -0.141556   -0.673795
     14          1           0        3.194146   -0.015039    0.995160
 ---------------------------------------------------------------------

 SCF Done:  E(RHF) =  -624.801721319     A.U. after    2 cycles

 The electronic state is 1-A.
 Alpha  occ. eigenvalues --  -93.47903 -15.67275 -15.63631 -11.38432 -11.28280
 Alpha  occ. eigenvalues --  -11.23894  -8.77935  -6.12184  -6.11676  -6.11528
 Alpha  occ. eigenvalues --   -1.27290  -1.16987  -1.02958  -0.96950  -0.85615
 Alpha  occ. eigenvalues --   -0.80131  -0.74492  -0.70076  -0.65703  -0.62278
 Alpha  occ. eigenvalues --   -0.56508  -0.53960  -0.52236  -0.51587  -0.50180
 Alpha  occ. eigenvalues --   -0.40444  -0.33536  -0.32120
 Alpha virt. eigenvalues --    0.02196   0.03663   0.03975   0.05185   0.06378
 Alpha virt. eigenvalues --    0.07030   0.07204   0.08395   0.09720   0.09993
 Alpha virt. eigenvalues --    0.12020   0.13045   0.13958   0.14728   0.15384

 Mulliken charges:
               1
     1  S   -0.000365
     2  N   -0.183272
     3  N   -0.573055
     4  C    0.292375
     5  H   -0.024619
     6  H    0.012784
     7  H    0.019809
     8  C    0.641218
     9  C    0.374427
    10  H   -0.186685
    11  H   -0.200310
    12  H   -0.012923
    13  H   -0.049545
    14  H   -0.109838
 Sum of Mulliken charges =  -0.00000

 Dipole moment (field-independent basis, Debye):
    X=              3.6597    Y=              4.3544    Z=              0.2591  Tot=              5.6940

 Test job not archived.
 1\1\GINC-SE461\SP\RHF\Aug-CC-pVDZ\C3H8N2S1\OHZDE\09-Apr-2025\0\\#t hf
 aug-cc-pvdz iop(5/13=1,5/36=2,99/5=2) pseudo=read geom=check guess=(re
 ad,tcheck) scf=(maxcycle=1)\\title\\0,1\S,0,0.66677564,2.05437369,0.14
 977685\N,0,-1.62081433,0.80292359,-0.02554571\N,0,0.24495718,-0.524249
 26,-0.4713313\C,0,-0.28033597,0.75225082,-0.1204862\H,0,-2.18417446,-0
 .02032756,-0.11685858\H,0,-2.05472923,1.65770957,0.2662196\H,0,-0.0281
 8719,-0.76360303,-1.41523483\C,0,-0.07866699,-1.59927786,0.45900259\C,
 0,0.51260491,-2.90920939,-0.01005744\H,0,0.34555462,-1.32170942,1.4217

 Normal termination of Gaussian 16 at Wed Apr  9 02:01:46 2025.
