 Gaussian 16, Revision C.01,

 ----------------------------------------------------------------------
 #t hf aug-cc-pvdz symm=none int=(grid=ultrafine) guess=(read,tcheck) s
 table=(opt,rrhf)
 ----------------------------------------------------------------------
 -----
 title
 -----
 Symbolic Z-matrix:
 Charge =  0 Multiplicity = 1

 SCF Done:  E(RHF) =  -1101.50015873     A.U. after   14 cycles
 Normal termination of Gaussian 16 at Wed Apr  9 02:00:59 2025.
 Gaussian 16:  ES64L-G16RevC.01  3-Jul-2019

 ----------------------------------------------------------------------
 #t hf aug-cc-pvdz iop(5/13=1,5/36=2,99/5=2) pseudo=read geom=check gue
 ss=(read,tcheck) scf=(maxcycle=1)
 ----------------------------------------------------------------------
 -----
 title
 -----
 Structure from the checkpoint file:  "BHROT27_20_mol2.chk"
 Charge =  0 Multiplicity = 1

                         Standard orientation:
 ---------------------------------------------------------------------
 Center     Atomic      Atomic             Coordinates (Angstroms)
 Number     Number       Type             X           Y           Z
 ---------------------------------------------------------------------
      1          6           0        0.771197    1.514712    1.113418
      2          6           0        0.652379    2.893014    0.828813
      3          6           0       -0.155148    3.135472   -0.237761
      4         16           0       -0.771197    1.694412   -0.899649
      5          6           0        0.055978    0.726545    0.257864
      6          6           0       -0.055978   -0.726545    0.257864
      7         16           0        0.771197   -1.694412   -0.899649
      8          6           0        0.155148   -3.135472   -0.237761
      9          6           0       -0.652379   -2.893014    0.828813
     10          6           0       -0.771197   -1.514712    1.113418
     11          1           0        1.372077    1.105332    1.907486
     12          1           0        1.150897    3.668029    1.385377
     13          1           0       -0.415822    4.082812   -0.672491
     14          1           0        0.415822   -4.082812   -0.672491
     15          1           0       -1.150897   -3.668029    1.385377
     16          1           0       -1.372077   -1.105332    1.907486
 ---------------------------------------------------------------------

 SCF Done:  E(RHF) =  -1101.63712605     A.U. after    2 cycles

 The electronic state is 1-A.
 Alpha  occ. eigenvalues --  -93.56526 -93.56525 -11.28174 -11.28095 -11.27174
 Alpha  occ. eigenvalues --  -11.27173 -11.24896 -11.24895 -11.24739 -11.24739
 Alpha  occ. eigenvalues --   -8.86429  -8.86429  -6.20567  -6.20560  -6.20435
 Alpha  occ. eigenvalues --   -6.20432  -6.20069  -6.20069  -1.18745  -1.16204
 Alpha  occ. eigenvalues --   -1.03209  -0.98682  -0.98324  -0.95255  -0.80814
 Alpha  occ. eigenvalues --   -0.76962  -0.76263  -0.72328  -0.71031  -0.65237
 Alpha  occ. eigenvalues --   -0.58031  -0.57203  -0.57092  -0.56016  -0.54165
 Alpha  occ. eigenvalues --   -0.51756  -0.51681  -0.47779  -0.47548  -0.35588
 Alpha  occ. eigenvalues --   -0.34588  -0.34486  -0.32024
 Alpha virt. eigenvalues --    0.03468   0.03690   0.04584   0.04775   0.05717
 Alpha virt. eigenvalues --    0.06155   0.08267   0.08662   0.09225   0.09814
 Alpha virt. eigenvalues --    0.10652   0.11307   0.11817   0.12329   0.13526

 Mulliken charges:
               1
     1  C    0.141060
     2  C    0.348237
     3  C   -0.193638
     4  S    0.608529
     5  C    0.207190
     6  C    0.207190
     7  S    0.608529
     8  C   -0.193638
     9  C    0.348237
    10  C    0.141060
    11  H   -0.444626
    12  H   -0.319937
    13  H   -0.346815
    14  H   -0.346815
    15  H   -0.319937
    16  H   -0.444626
 Sum of Mulliken charges =  -0.00000

 Dipole moment (field-independent basis, Debye):
    X=             -0.0000    Y=              0.0000    Z=              1.0673  Tot=              1.0673

 Test job not archived.
 1\1\GINC-SE461\SP\RHF\Aug-CC-pVDZ\C8H6S2\OHZDE\09-Apr-2025\0\\#t hf au
 g-cc-pvdz iop(5/13=1,5/36=2,99/5=2) pseudo=read geom=check guess=(read
 ,tcheck) scf=(maxcycle=1)\\title\\0,1\C,0,-1.4452769,-0.8945789,-0.653
 0359\C,0,-2.828686,-0.8908769,-0.3684307\C,0,-3.137507,-0.1063297,0.69
 81435\S,0,-1.7527144,0.6275104,1.3600308\C,0,-0.7193656,-0.116248,0.20
 25179\C,0,0.7193656,0.116248,0.2025179\S,0,1.7527144,-0.6275104,1.3600
 308\C,0,3.137507,0.1063297,0.6981435\C,0,2.828686,0.8908769,-0.3684307
 \C,0,1.4452769,0.8945789,-0.6530359\H,0,-0.9873115,-1.4593053,-1.44710

 Normal termination of Gaussian 16 at Wed Apr  9 02:01:04 2025.
