 Gaussian 16, Revision C.01,

 ----------------------------------------------------------------------
 #t hf aug-cc-pvdz symm=none int=(grid=ultrafine) guess=(read,tcheck) s
 table=(opt,rrhf)
 ----------------------------------------------------------------------
 -----
 title
 -----
 Symbolic Z-matrix:
 Charge =  0 Multiplicity = 1

 SCF Done:  E(RHF) =  -624.741759531     A.U. after   13 cycles
 Normal termination of Gaussian 16 at Wed Apr  9 02:00:26 2025.
 Gaussian 16:  ES64L-G16RevC.01  3-Jul-2019

 ----------------------------------------------------------------------
 #t hf aug-cc-pvdz iop(5/13=1,5/36=2,99/5=2) pseudo=read geom=check gue
 ss=(read,tcheck) scf=(maxcycle=1)
 ----------------------------------------------------------------------
 -----
 title
 -----
 Structure from the checkpoint file:  "BHROT27_24_mol1.chk"
 Charge =  0 Multiplicity = 1

                         Standard orientation:
 ---------------------------------------------------------------------
 Center     Atomic      Atomic             Coordinates (Angstroms)
 Number     Number       Type             X           Y           Z
 ---------------------------------------------------------------------
      1         16           0       -1.518283   -1.103947   -0.003126
      2          7           0       -1.527466    1.534491   -0.070820
      3          7           0        0.535283    0.567320    0.048554
      4          6           0       -0.795643    0.385622    0.004016
      5          1           0       -1.148158    2.379622    0.317608
      6          1           0       -2.513687    1.401561    0.046841
      7          1           0        0.892228    1.489494   -0.126331
      8          6           0        1.493771   -0.517398    0.021998
      9          6           0        2.898514    0.038819   -0.023007
     10          1           0        1.344923   -1.138666    0.902139
     11          1           0        1.294766   -1.152607   -0.839409
     12          1           0        3.122316    0.629069    0.863450
     13          1           0        3.619364   -0.770787   -0.079832
     14          1           0        3.046201    0.670517   -0.896636
 ---------------------------------------------------------------------

 SCF Done:  E(RHF) =  -624.831708035     A.U. after    2 cycles

 The electronic state is 1-A.
 Alpha  occ. eigenvalues --  -93.46471 -15.66504 -15.65847 -11.38082 -11.27691
 Alpha  occ. eigenvalues --  -11.24325  -8.76509  -6.10783  -6.10212  -6.10160
 Alpha  occ. eigenvalues --   -1.28223  -1.17924  -1.03103  -0.96358  -0.87912
 Alpha  occ. eigenvalues --   -0.78917  -0.73964  -0.70253  -0.65924  -0.63270
 Alpha  occ. eigenvalues --   -0.57039  -0.55033  -0.53872  -0.51576  -0.49907
 Alpha  occ. eigenvalues --   -0.40628  -0.32181  -0.31700
 Alpha virt. eigenvalues --    0.02213   0.03482   0.04660   0.04898   0.06452
 Alpha virt. eigenvalues --    0.06711   0.08263   0.08688   0.10479   0.11586
 Alpha virt. eigenvalues --    0.12064   0.13146   0.13602   0.14655   0.15219

 Mulliken charges:
               1
     1  S   -0.142810
     2  N   -0.212608
     3  N   -0.524948
     4  C    0.347864
     5  H   -0.068228
     6  H    0.062727
     7  H   -0.093380
     8  C    0.961341
     9  C    0.217188
    10  H   -0.178217
    11  H   -0.184638
    12  H   -0.039944
    13  H   -0.060142
    14  H   -0.084204
 Sum of Mulliken charges =  -0.00000

 Dipole moment (field-independent basis, Debye):
    X=              3.0494    Y=              4.4126    Z=              0.5140  Tot=              5.3883

 Test job not archived.
 1\1\GINC-SE419\SP\RHF\Aug-CC-pVDZ\C3H8N2S1\OHZDE\09-Apr-2025\0\\#t hf
 aug-cc-pvdz iop(5/13=1,5/36=2,99/5=2) pseudo=read geom=check guess=(re
 ad,tcheck) scf=(maxcycle=1)\\title\\0,1\S,0,-1.07651409,1.55909331,-0.
 16473424\N,0,1.55759138,1.52879103,-0.00166526\N,0,0.55024178,-0.51665
 328,0.07584105\C,0,0.39480762,0.81542712,-0.01226111\H,0,2.35939051,1.
 14610345,0.46702008\H,0,1.43099378,2.51919923,0.08325352\H,0,1.4782087
 4,-0.89064132,-0.01023746\C,0,-0.54350315,-1.45978337,-0.02538257\C,0,
 -0.00842596,-2.87304067,0.00782816\H,0,-1.23656353,-1.28244277,0.79375

 Normal termination of Gaussian 16 at Wed Apr  9 02:00:30 2025.
