 Gaussian 16, Revision C.01,

 ----------------------------------------------------------------------
 #t hf aug-cc-pvdz symm=none int=(grid=ultrafine) guess=(read,tcheck) s
 table=(opt,rrhf)
 ----------------------------------------------------------------------
 -----
 title
 -----
 Symbolic Z-matrix:
 Charge =  0 Multiplicity = 1

 SCF Done:  E(RHF) =  -624.742569277     A.U. after   14 cycles
 Normal termination of Gaussian 16 at Wed Apr  9 02:01:27 2025.
 Gaussian 16:  ES64L-G16RevC.01  3-Jul-2019

 ----------------------------------------------------------------------
 #t hf aug-cc-pvdz iop(5/13=1,5/36=2,99/5=2) pseudo=read geom=check gue
 ss=(read,tcheck) scf=(maxcycle=1)
 ----------------------------------------------------------------------
 -----
 title
 -----
 Structure from the checkpoint file:  "BHROT27_25_mol1.chk"
 Charge =  0 Multiplicity = 1

                         Standard orientation:
 ---------------------------------------------------------------------
 Center     Atomic      Atomic             Coordinates (Angstroms)
 Number     Number       Type             X           Y           Z
 ---------------------------------------------------------------------
      1          6           0        2.915523   -0.566727    0.007575
      2          6           0        1.736774    0.378405    0.041168
      3          7           0        0.494726   -0.342329   -0.088057
      4          6           0       -0.728436    0.215256   -0.029400
      5          7           0       -0.755325    1.565627   -0.041587
      6         16           0       -2.115884   -0.695384    0.023735
      7          1           0        0.063979    2.118987    0.117304
      8          1           0       -1.651237    1.990857    0.088089
      9          1           0        0.498856   -1.341526   -0.002478
     10          1           0        1.822867    1.100855   -0.771991
     11          1           0        1.749441    0.941605    0.979259
     12          1           0        2.935798   -1.131272   -0.920792
     13          1           0        3.841997   -0.006294    0.087631
     14          1           0        2.873480   -1.271764    0.834675
 ---------------------------------------------------------------------

 SCF Done:  E(RHF) =  -624.833217467     A.U. after    2 cycles

 The electronic state is 1-A.
 Alpha  occ. eigenvalues --  -93.45956 -15.66402 -15.66279 -11.38098 -11.30013
 Alpha  occ. eigenvalues --  -11.25437  -8.75981  -6.10262  -6.09658  -6.09621
 Alpha  occ. eigenvalues --   -1.28779  -1.18081  -1.05371  -0.95711  -0.87046
 Alpha  occ. eigenvalues --   -0.82785  -0.74798  -0.68666  -0.67683  -0.64802
 Alpha  occ. eigenvalues --   -0.57620  -0.57314  -0.54698  -0.52209  -0.49547
 Alpha  occ. eigenvalues --   -0.41700  -0.31424  -0.31203
 Alpha virt. eigenvalues --    0.02169   0.03303   0.04156   0.04812   0.06168
 Alpha virt. eigenvalues --    0.07239   0.07474   0.08455   0.10574   0.11453
 Alpha virt. eigenvalues --    0.12208   0.13349   0.13727   0.14097   0.15182

 Mulliken charges:
               1
     1  C    0.168375
     2  C    0.993401
     3  N   -0.461702
     4  C    0.228619
     5  N   -0.198406
     6  S   -0.114456
     7  H   -0.010566
     8  H    0.035917
     9  H   -0.033617
    10  H   -0.263716
    11  H   -0.267426
    12  H   -0.013073
    13  H   -0.026075
    14  H   -0.037274
 Sum of Mulliken charges =  -0.00000

 Dipole moment (field-independent basis, Debye):
    X=              5.5802    Y=              3.0044    Z=              0.5125  Tot=              6.3583

 Test job not archived.
 1\1\GINC-SE252\SP\RHF\Aug-CC-pVDZ\C3H8N2S1\OHZDE\09-Apr-2025\0\\#t hf
 aug-cc-pvdz iop(5/13=1,5/36=2,99/5=2) pseudo=read geom=check guess=(re
 ad,tcheck) scf=(maxcycle=1)\\title\\0,1\C,0,0.62527801,2.89809628,-0.0
 3936045\C,0,-0.34255388,1.7374537,-0.031501\N,0,0.36138843,0.47998434,
 0.01403975\C,0,-0.22542645,-0.72812871,0.09515085\N,0,-1.56562722,-0.7
 3828989,-0.0725709\S,0,0.6429302,-2.1195582,0.35396039\H,0,-2.11587316
 ,0.0976519,-0.03875318\H,0,-2.0221603,-1.61654192,0.07076903\H,0,1.343
 88429,0.47744786,0.21511755\H,0,-0.96428971,1.77250469,-0.92748736\H,0

 Normal termination of Gaussian 16 at Wed Apr  9 02:01:31 2025.
