 Gaussian 16, Revision C.01,

 ----------------------------------------------------------------------
 #t hf aug-cc-pvdz symm=none int=(grid=ultrafine) guess=(read,tcheck) s
 table=(opt,rrhf)
 ----------------------------------------------------------------------
 -----
 title
 -----
 Symbolic Z-matrix:
 Charge =  0 Multiplicity = 1

 SCF Done:  E(RHF) =  -1101.50043630     A.U. after   15 cycles
 Normal termination of Gaussian 16 at Wed Apr  9 02:01:25 2025.
 Gaussian 16:  ES64L-G16RevC.01  3-Jul-2019

 ----------------------------------------------------------------------
 #t hf aug-cc-pvdz iop(5/13=1,5/36=2,99/5=2) pseudo=read geom=check gue
 ss=(read,tcheck) scf=(maxcycle=1)
 ----------------------------------------------------------------------
 -----
 title
 -----
 Structure from the checkpoint file:  "BHROT27_21_mol1.chk"
 Charge =  0 Multiplicity = 1

                         Standard orientation:
 ---------------------------------------------------------------------
 Center     Atomic      Atomic             Coordinates (Angstroms)
 Number     Number       Type             X           Y           Z
 ---------------------------------------------------------------------
      1          6           0       -0.251265    1.560482    1.364124
      2          6           0       -0.156974    2.924471    1.018780
      3          6           0        0.156974    3.111837   -0.290948
      4         16           0        0.356216    1.628452   -1.103796
      5          6           0       -0.000624    0.722125    0.312545
      6          6           0        0.000624   -0.722125    0.312545
      7         16           0       -0.356216   -1.628452   -1.103796
      8          6           0       -0.156974   -3.111837   -0.290948
      9          6           0        0.156974   -2.924471    1.018780
     10          6           0        0.251265   -1.560482    1.364124
     11          1           0       -0.517943    1.200711    2.343447
     12          1           0       -0.325204    3.733132    1.709456
     13          1           0        0.282376    4.038401   -0.819168
     14          1           0       -0.282376   -4.038401   -0.819168
     15          1           0        0.325204   -3.733132    1.709456
     16          1           0        0.517943   -1.200711    2.343447
 ---------------------------------------------------------------------

 SCF Done:  E(RHF) =  -1101.63755038     A.U. after    2 cycles

 The electronic state is 1-A.
 Alpha  occ. eigenvalues --  -93.56619 -93.56617 -11.28454 -11.28371 -11.27158
 Alpha  occ. eigenvalues --  -11.27157 -11.24938 -11.24937 -11.24785 -11.24781
 Alpha  occ. eigenvalues --   -8.86555  -8.86554  -6.20713  -6.20684  -6.20571
 Alpha  occ. eigenvalues --   -6.20556  -6.20189  -6.20189  -1.19044  -1.16277
 Alpha  occ. eigenvalues --   -1.03588  -0.99411  -0.97954  -0.95252  -0.81243
 Alpha  occ. eigenvalues --   -0.78219  -0.75091  -0.72246  -0.71483  -0.65219
 Alpha  occ. eigenvalues --   -0.58401  -0.57584  -0.56773  -0.55912  -0.54702
 Alpha  occ. eigenvalues --   -0.51762  -0.51733  -0.48771  -0.46807  -0.38002
 Alpha  occ. eigenvalues --   -0.35521  -0.35001  -0.29149
 Alpha virt. eigenvalues --    0.03414   0.03652   0.04387   0.04991   0.05880
 Alpha virt. eigenvalues --    0.05898   0.07492   0.08537   0.09748   0.10211
 Alpha virt. eigenvalues --    0.11268   0.11450   0.11987   0.12638   0.13336

 Mulliken charges:
               1
     1  C    0.338554
     2  C    0.329476
     3  C   -0.191425
     4  S    0.680908
     5  C    0.018579
     6  C    0.018579
     7  S    0.680908
     8  C   -0.191425
     9  C    0.329476
    10  C    0.338554
    11  H   -0.481267
    12  H   -0.328325
    13  H   -0.366499
    14  H   -0.366499
    15  H   -0.328325
    16  H   -0.481267
 Sum of Mulliken charges =  -0.00000

 Dipole moment (field-independent basis, Debye):
    X=             -0.0000    Y=              0.0000    Z=              1.2907  Tot=              1.2907

 Test job not archived.
 1\1\GINC-SE249\SP\RHF\Aug-CC-pVDZ\C8H6S2\OHZDE\09-Apr-2025\0\\#t hf au
 g-cc-pvdz iop(5/13=1,5/36=2,99/5=2) pseudo=read geom=check guess=(read
 ,tcheck) scf=(maxcycle=1)\\title\\0,1\C,0,-1.5509383,-0.3046782,0.7974
 216\C,0,-2.91736,-0.2572608,0.4520777\C,0,-3.1153913,0.050072,-0.85765
 04\S,0,-1.6397192,0.3001116,-1.6704985\C,0,-0.7216777,-0.0254094,-0.25
 41573\C,0,0.7216777,0.0254094,-0.2541573\S,0,1.6397192,-0.3001116,-1.6
 704985\C,0,3.1153913,-0.050072,-0.8576504\C,0,2.91736,0.2572608,0.4520
 777\C,0,1.5509383,0.3046782,0.7974216\H,0,-1.182226,-0.5588506,1.77674

 Normal termination of Gaussian 16 at Wed Apr  9 02:01:31 2025.
