 Gaussian 16, Revision C.01,

 ----------------------------------------------------------------------
 #t hf aug-cc-pvdz symm=none int=(grid=ultrafine) guess=(read,tcheck) s
 table=(opt,rrhf)
 ----------------------------------------------------------------------
 -----
 title
 -----
 Symbolic Z-matrix:
 Charge =  0 Multiplicity = 1

 SCF Done:  E(RHF) =  -796.217364970     A.U. after   11 cycles
 Normal termination of Gaussian 16 at Wed Apr  9 01:58:17 2025.
 Gaussian 16:  ES64L-G16RevC.01  3-Jul-2019

 ----------------------------------------------------------------------
 #t hf aug-cc-pvdz iop(5/13=1,5/36=2,99/5=2) pseudo=read geom=check gue
 ss=(read,tcheck) scf=(maxcycle=1)
 ----------------------------------------------------------------------
 -----
 title
 -----
 Structure from the checkpoint file:  "BHROT27_10_mol2.chk"
 Charge =  0 Multiplicity = 1

                         Standard orientation:
 ---------------------------------------------------------------------
 Center     Atomic      Atomic             Coordinates (Angstroms)
 Number     Number       Type             X           Y           Z
 ---------------------------------------------------------------------
      1         16           0        0.000000    1.057229   -0.077941
      2         16           0       -0.000000   -1.057229   -0.077941
      3          1           0        0.000000    1.209318    1.247048
      4          1           0       -0.000000   -1.209318    1.247048
 ---------------------------------------------------------------------

 SCF Done:  E(RHF) =  -796.259289821     A.U. after    2 cycles

 The electronic state is 1-A1.
 Alpha  occ. eigenvalues --  -93.57164 -93.57160  -8.86861  -8.86848  -6.20965
 Alpha  occ. eigenvalues --   -6.20949  -6.20763  -6.20742  -6.20326  -6.20315
 Alpha  occ. eigenvalues --   -1.03924  -0.88131  -0.61853  -0.50129  -0.47535
 Alpha  occ. eigenvalues --   -0.45668  -0.33675
 Alpha virt. eigenvalues --    0.03273   0.04347   0.08804   0.10565   0.11317
 Alpha virt. eigenvalues --    0.12363   0.12488   0.14791   0.16486   0.18759
 Alpha virt. eigenvalues --    0.18914   0.22022   0.25920   0.26914   0.28546

 Mulliken charges:
               1
     1  S   -0.060803
     2  S   -0.060803
     3  H    0.060803
     4  H    0.060803
 Sum of Mulliken charges =  -0.00000

 Dipole moment (field-independent basis, Debye):
    X=             -0.0000    Y=              0.0000    Z=              1.7067  Tot=              1.7067

 Test job not archived.
 1\1\GINC-SE219\SP\RHF\Aug-CC-pVDZ\H2S2\OHZDE\09-Apr-2025\0\\#t hf aug-
 cc-pvdz iop(5/13=1,5/36=2,99/5=2) pseudo=read geom=check guess=(read,t
 check) scf=(maxcycle=1)\\title\\0,1\S,0,1.0572291,0.,-0.6622784\S,0,-1
 .0572291,0.,-0.6622784\H,0,1.2093176,0.,0.6627105\H,0,-1.2093176,0.,0.
 6627105\\Version=ES64L-G16RevC.01\State=1-A1\HF=-796.2592898\RMSD=8.66
 5e-03\Dipole=0.,0.,0.6714534\Quadrupole=0.4968849,-3.0201932,2.5233083
 ,0.,0.,0.\PG=C02V [SGV(H2S2)]\\@

 Normal termination of Gaussian 16 at Wed Apr  9 01:58:19 2025.
