 Gaussian 16, Revision C.01,

 ----------------------------------------------------------------------
 #t hf aug-cc-pvdz symm=none int=(grid=ultrafine) guess=(read,tcheck) s
 table=(opt,rrhf)
 ----------------------------------------------------------------------
 -----
 title
 -----
 Symbolic Z-matrix:
 Charge =  0 Multiplicity = 1

 SCF Done:  E(RHF) =  -796.220607716     A.U. after   10 cycles
 Normal termination of Gaussian 16 at Wed Apr  9 02:01:50 2025.
 Gaussian 16:  ES64L-G16RevC.01  3-Jul-2019

 ----------------------------------------------------------------------
 #t hf aug-cc-pvdz iop(5/13=1,5/36=2,99/5=2) pseudo=read geom=check gue
 ss=(read,tcheck) scf=(maxcycle=1)
 ----------------------------------------------------------------------
 -----
 title
 -----
 Structure from the checkpoint file:  "BHROT27_9_mol2.chk"
 Charge =  0 Multiplicity = 1

                         Standard orientation:
 ---------------------------------------------------------------------
 Center     Atomic      Atomic             Coordinates (Angstroms)
 Number     Number       Type             X           Y           Z
 ---------------------------------------------------------------------
      1         16           0        0.000000    1.049308    0.000000
      2         16           0       -0.000000   -1.049308    0.000000
      3          1           0        1.334460    1.117167    0.000000
      4          1           0       -1.334460   -1.117167    0.000000
 ---------------------------------------------------------------------

 SCF Done:  E(RHF) =  -796.262969617     A.U. after    2 cycles

 The electronic state is 1-AG.
 Alpha  occ. eigenvalues --  -93.57114 -93.57113  -8.86816  -8.86801  -6.20909
 Alpha  occ. eigenvalues --   -6.20899  -6.20738  -6.20704  -6.20279  -6.20270
 Alpha  occ. eigenvalues --   -1.04248  -0.88079  -0.58045  -0.55782  -0.45833
 Alpha  occ. eigenvalues --   -0.45558  -0.33485
 Alpha virt. eigenvalues --    0.03778   0.04356   0.06675   0.11076   0.11973
 Alpha virt. eigenvalues --    0.12318   0.13142   0.14814   0.17812   0.18946
 Alpha virt. eigenvalues --    0.19483   0.19705   0.26128   0.26506   0.29456

 Mulliken charges:
               1
     1  S   -0.114661
     2  S   -0.114661
     3  H    0.114661
     4  H    0.114661
 Sum of Mulliken charges =  -0.00000

 Dipole moment (field-independent basis, Debye):
    X=              0.0000    Y=             -0.0000    Z=              0.0000  Tot=              0.0000

 Test job not archived.
 1\1\GINC-SE252\SP\RHF\Aug-CC-pVDZ\H2S2\OHZDE\09-Apr-2025\0\\#t hf aug-
 cc-pvdz iop(5/13=1,5/36=2,99/5=2) pseudo=read geom=check guess=(read,t
 check) scf=(maxcycle=1)\\title\\0,1\S,0,-0.1980499,1.0304478,0.\S,0,0.
 1980499,-1.0304478,0.\H,0,1.0996175,1.3489585,0.\H,0,-1.0996175,-1.348
 9585,0.\\Version=ES64L-G16RevC.01\State=1-AG\HF=-796.2629696\RMSD=8.12
 0e-03\Dipole=0.,0.,0.\Quadrupole=1.9519614,1.098202,-3.0501635,2.46085
 82,0.,0.\PG=C02H [SGH(H2S2)]\\@

 Normal termination of Gaussian 16 at Wed Apr  9 02:01:51 2025.
