 Gaussian 16, Revision C.01,

 ----------------------------------------------------------------------
 #t hf aug-cc-pvdz symm=none int=(grid=ultrafine) guess=(read,tcheck) s
 table=(opt,rrhf)
 ----------------------------------------------------------------------
 -----
 title
 -----
 Symbolic Z-matrix:
 Charge =  0 Multiplicity = 1

 SCF Done:  E(RHF) =  -1101.50182128     A.U. after   15 cycles
 Normal termination of Gaussian 16 at Wed Apr  9 02:00:58 2025.
 Gaussian 16:  ES64L-G16RevC.01  3-Jul-2019

 ----------------------------------------------------------------------
 #t hf aug-cc-pvdz iop(5/13=1,5/36=2,99/5=2) pseudo=read geom=check gue
 ss=(read,tcheck) scf=(maxcycle=1)
 ----------------------------------------------------------------------
 -----
 title
 -----
 Structure from the checkpoint file:  "BHROT27_20_mol1.chk"
 Charge =  0 Multiplicity = 1

                         Standard orientation:
 ---------------------------------------------------------------------
 Center     Atomic      Atomic             Coordinates (Angstroms)
 Number     Number       Type             X           Y           Z
 ---------------------------------------------------------------------
      1          6           0       -1.221774    1.433920    0.322619
      2          6           0       -1.023109    2.827726    0.261902
      3          6           0        0.259062    3.160167   -0.043415
      4         16           0        1.221774    1.776100   -0.281866
      5          6           0       -0.086853    0.716830    0.062498
      6          6           0        0.086853   -0.716830    0.062498
      7         16           0       -1.221774   -1.776100   -0.281866
      8          6           0       -0.259062   -3.160167   -0.043415
      9          6           0        1.023109   -2.827726    0.261902
     10          6           0        1.221774   -1.433920    0.322619
     11          1           0       -2.154946    0.964438    0.585437
     12          1           0       -1.794758    3.553436    0.452458
     13          1           0        0.687090    4.139050   -0.149655
     14          1           0       -0.687090   -4.139050   -0.149655
     15          1           0        1.794758   -3.553436    0.452458
     16          1           0        2.154946   -0.964438    0.585437
 ---------------------------------------------------------------------

 SCF Done:  E(RHF) =  -1101.63903568     A.U. after    2 cycles

 The electronic state is 1-A.
 Alpha  occ. eigenvalues --  -93.56627 -93.56626 -11.28460 -11.28376 -11.27190
 Alpha  occ. eigenvalues --  -11.27189 -11.24917 -11.24917 -11.24768 -11.24766
 Alpha  occ. eigenvalues --   -8.86559  -8.86559  -6.20710  -6.20696  -6.20575
 Alpha  occ. eigenvalues --   -6.20566  -6.20197  -6.20194  -1.19095  -1.16343
 Alpha  occ. eigenvalues --   -1.03631  -0.99455  -0.97975  -0.95308  -0.81259
 Alpha  occ. eigenvalues --   -0.78402  -0.74931  -0.72306  -0.71395  -0.65336
 Alpha  occ. eigenvalues --   -0.58239  -0.57679  -0.56375  -0.56167  -0.55347
 Alpha  occ. eigenvalues --   -0.51856  -0.51776  -0.48395  -0.46918  -0.38040
 Alpha  occ. eigenvalues --   -0.35504  -0.35086  -0.29192
 Alpha virt. eigenvalues --    0.03538   0.03652   0.04426   0.04956   0.05731
 Alpha virt. eigenvalues --    0.06335   0.06699   0.09323   0.09506   0.10444
 Alpha virt. eigenvalues --    0.11274   0.11314   0.12235   0.12500   0.13446

 Mulliken charges:
               1
     1  C    0.337456
     2  C    0.307590
     3  C   -0.140342
     4  S    0.658655
     5  C    0.034976
     6  C    0.034976
     7  S    0.658655
     8  C   -0.140342
     9  C    0.307590
    10  C    0.337456
    11  H   -0.496143
    12  H   -0.325519
    13  H   -0.376675
    14  H   -0.376675
    15  H   -0.325519
    16  H   -0.496143
 Sum of Mulliken charges =  -0.00000

 Dipole moment (field-independent basis, Debye):
    X=              0.0000    Y=             -0.0000    Z=              0.4309  Tot=              0.4309

 Test job not archived.
 1\1\GINC-SE333\SP\RHF\Aug-CC-pVDZ\C8H6S2\OHZDE\09-Apr-2025\0\\#t hf au
 g-cc-pvdz iop(5/13=1,5/36=2,99/5=2) pseudo=read geom=check guess=(read
 ,tcheck) scf=(maxcycle=1)\\title\\0,1\C,0,-1.459533,-1.1910594,0.16003
 27\C,0,-2.8488073,-0.9628516,0.0993153\C,0,-3.1539559,0.3260872,-0.206
 0017\S,0,-1.7497644,1.2592017,-0.444453\C,0,-0.7185117,-0.0716168,-0.1
 000887\C,0,0.7185117,0.0716168,-0.1000887\S,0,1.7497644,-1.2592017,-0.
 444453\C,0,3.1539559,-0.3260872,-0.2060017\C,0,2.8488073,0.9628516,0.0
 993153\C,0,1.459533,1.1910594,0.1600327\H,0,-1.0099655,-2.1339875,0.42

 Normal termination of Gaussian 16 at Wed Apr  9 02:01:04 2025.
