 Gaussian 16, Revision C.01,

 ----------------------------------------------------------------------
 #t hf aug-cc-pvdz symm=none int=(grid=ultrafine) guess=(read,tcheck) s
 table=(opt,rrhf)
 ----------------------------------------------------------------------
 -----
 title
 -----
 Symbolic Z-matrix:
 Charge =  0 Multiplicity = 1

 SCF Done:  E(RHF) =  -690.819814554     A.U. after   11 cycles

 1\1\GINC-SE127\Stability\RHF\Aug-CC-pVDZ\C6H7Cl1\OHZDE\09-Apr-2025\0\\
 #t hf aug-cc-pvdz symm=none int=(grid=ultrafine) guess=(read,tcheck) s
 table=(opt,rrhf)\\title\\0,1\C,0,1.3915,0.,1.\C,0,0.69575,1.20507435,1
 .\C,0,-0.69575,1.20507435,1.\C,0,-1.3915,0.,1.\C,0,-0.69575,-1.2050743
 5,1.\C,0,0.69575,-1.20507435,1.\H,0,2.4715,0.,1.\H,0,1.23575,2.1403817
 9,1.\H,0,-1.23575,2.14038179,1.\H,0,-2.4715,0.,1.\H,0,-1.23575,-2.1403
 8179,1.\H,0,1.23575,-2.14038179,1.\Cl,0,0.,0.,4.4\H,0,0.,0.,3.1253\\Ve
 rsion=ES64L-G16RevC.01\HF=-690.8198146\RMSD=7.251e-09\Dipole=0.,0.,-0.

 Normal termination of Gaussian 16 at Wed Apr  9 02:11:53 2025.
 Gaussian 16:  ES64L-G16RevC.01  3-Jul-2019

 ----------------------------------------------------------------------
 #t hf aug-cc-pvdz iop(5/13=1,5/36=2,99/5=2) pseudo=read geom=check gue
 ss=(read,tcheck) scf=(maxcycle=1)
 ----------------------------------------------------------------------
 -----
 title
 -----
 Structure from the checkpoint file:  "BzDC215_92_mol1.chk"
 Charge =  0 Multiplicity = 1

                         Standard orientation:
 ---------------------------------------------------------------------
 Center     Atomic      Atomic             Coordinates (Angstroms)
 Number     Number       Type             X           Y           Z
 ---------------------------------------------------------------------
      1          6           0        0.000000    1.391500   -0.998755
      2          6           0       -1.205074    0.695750   -0.998755
      3          6           0       -1.205074   -0.695750   -0.998755
      4          6           0       -0.000000   -1.391500   -0.998755
      5          6           0        1.205074   -0.695750   -0.998755
      6          6           0        1.205074    0.695750   -0.998755
      7          1           0        0.000000    2.471500   -0.998755
      8          1           0       -2.140382    1.235750   -0.998755
      9          1           0       -2.140382   -1.235750   -0.998755
     10          1           0       -0.000000   -2.471500   -0.998755
     11          1           0        2.140382   -1.235750   -0.998755
     12          1           0        2.140382    1.235750   -0.998755
     13         17           0        0.000000    0.000000    2.401245
     14          1           0        0.000000    0.000000    1.126545
 ---------------------------------------------------------------------

 SCF Done:  E(RHF) =  -690.907816136     A.U. after    2 cycles

 The electronic state is 1-A1.
 Alpha  occ. eigenvalues -- -103.65023 -11.25849 -11.25801 -11.25801 -11.25680
 Alpha  occ. eigenvalues --  -11.25680 -11.25632 -10.68345  -8.34110  -8.33795
 Alpha  occ. eigenvalues --   -8.33795  -1.16043  -1.13816  -1.02510  -1.02510
 Alpha  occ. eigenvalues --   -0.84003  -0.84003  -0.72942  -0.65840  -0.63973
 Alpha  occ. eigenvalues --   -0.62494  -0.60659  -0.60659  -0.51354  -0.51129
 Alpha  occ. eigenvalues --   -0.51129  -0.46829  -0.46829  -0.35593  -0.35593
 Alpha virt. eigenvalues --    0.03254   0.04028   0.04028   0.05620   0.05620
 Alpha virt. eigenvalues --    0.07399   0.07492   0.09511   0.09511   0.11772
 Alpha virt. eigenvalues --    0.13280   0.13280   0.14192   0.14984   0.14984

 Mulliken charges:
               1
     1  C    0.442188
     2  C    0.442188
     3  C    0.442188
     4  C    0.442188
     5  C    0.442188
     6  C    0.442188
     7  H   -0.458996
     8  H   -0.458996
     9  H   -0.458996
    10  H   -0.458996
    11  H   -0.458996
    12  H   -0.458996
    13  Cl  -0.137875
    14  H    0.238723
 Sum of Mulliken charges =   0.00000

 Dipole moment (field-independent basis, Debye):
    X=              0.0000    Y=             -0.0000    Z=             -2.0122  Tot=              2.0122

 Test job not archived.
 1\1\GINC-SE127\SP\RHF\Aug-CC-pVDZ\C6H7Cl1\OHZDE\09-Apr-2025\0\\#t hf a
 ug-cc-pvdz iop(5/13=1,5/36=2,99/5=2) pseudo=read geom=check guess=(rea
 d,tcheck) scf=(maxcycle=1)\\title\\0,1\C,0,1.3915,0.,1.\C,0,0.69575,1.
 20507435,1.\C,0,-0.69575,1.20507435,1.\C,0,-1.3915,0.,1.\C,0,-0.69575,
 -1.20507435,1.\C,0,0.69575,-1.20507435,1.\H,0,2.4715,0.,1.\H,0,1.23575
 ,2.14038179,1.\H,0,-1.23575,2.14038179,1.\H,0,-2.4715,0.,1.\H,0,-1.235
 75,-2.14038179,1.\H,0,1.23575,-2.14038179,1.\Cl,0,0.,0.,4.4\H,0,0.,0.,
 3.1253\\Version=ES64L-G16RevC.01\State=1-A1\HF=-690.9078161\RMSD=9.818

 Normal termination of Gaussian 16 at Wed Apr  9 02:11:57 2025.
