 Gaussian 16, Revision C.01,

 ----------------------------------------------------------------------
 #t hf aug-cc-pvdz symm=none int=(grid=ultrafine) guess=(read,tcheck) s
 table=(opt,rrhf)
 ----------------------------------------------------------------------
 -----
 title
 -----
 Symbolic Z-matrix:
 Charge =  0 Multiplicity = 1

 SCF Done:  E(RHF) =  -690.809548436     A.U. after   11 cycles

 1\1\GINC-SE365\Stability\RHF\Aug-CC-pVDZ\C6H7Cl1\OHZDE\09-Apr-2025\0\\
 #t hf aug-cc-pvdz symm=none int=(grid=ultrafine) guess=(read,tcheck) s
 table=(opt,rrhf)\\title\\0,1\C,0,1.3915,0.,1.\C,0,0.69575,1.20507435,1
 .\C,0,-0.69575,1.20507435,1.\C,0,-1.3915,0.,1.\C,0,-0.69575,-1.2050743
 5,1.\C,0,0.69575,-1.20507435,1.\H,0,2.4715,0.,1.\H,0,1.23575,2.1403817
 9,1.\H,0,-1.23575,2.14038179,1.\H,0,-2.4715,0.,1.\H,0,-1.23575,-2.1403
 8179,1.\H,0,1.23575,-2.14038179,1.\Cl,0,0.,0.,4.1\H,0,0.,0.,2.8253\\Ve
 rsion=ES64L-G16RevC.01\HF=-690.8095484\RMSD=6.475e-09\Dipole=0.,0.,-0.

 Normal termination of Gaussian 16 at Wed Apr  9 02:11:17 2025.
 Gaussian 16:  ES64L-G16RevC.01  3-Jul-2019

 ----------------------------------------------------------------------
 #t hf aug-cc-pvdz iop(5/13=1,5/36=2,99/5=2) pseudo=read geom=check gue
 ss=(read,tcheck) scf=(maxcycle=1)
 ----------------------------------------------------------------------
 -----
 title
 -----
 Structure from the checkpoint file:  "BzDC215_89_mol1.chk"
 Charge =  0 Multiplicity = 1

                         Standard orientation:
 ---------------------------------------------------------------------
 Center     Atomic      Atomic             Coordinates (Angstroms)
 Number     Number       Type             X           Y           Z
 ---------------------------------------------------------------------
      1          6           0        0.000000    1.391500   -0.908755
      2          6           0       -1.205074    0.695750   -0.908755
      3          6           0       -1.205074   -0.695750   -0.908755
      4          6           0       -0.000000   -1.391500   -0.908755
      5          6           0        1.205074   -0.695750   -0.908755
      6          6           0        1.205074    0.695750   -0.908755
      7          1           0        0.000000    2.471500   -0.908755
      8          1           0       -2.140382    1.235750   -0.908755
      9          1           0       -2.140382   -1.235750   -0.908755
     10          1           0       -0.000000   -2.471500   -0.908755
     11          1           0        2.140382   -1.235750   -0.908755
     12          1           0        2.140382    1.235750   -0.908755
     13         17           0        0.000000    0.000000    2.191245
     14          1           0        0.000000    0.000000    0.916545
 ---------------------------------------------------------------------

 SCF Done:  E(RHF) =  -690.897437832     A.U. after    2 cycles

 The electronic state is 1-A1.
 Alpha  occ. eigenvalues -- -103.64034 -11.25989 -11.25943 -11.25943 -11.25821
 Alpha  occ. eigenvalues --  -11.25821 -11.25772 -10.67418  -8.33180  -8.32872
 Alpha  occ. eigenvalues --   -8.32872  -1.16629  -1.13040  -1.02748  -1.02748
 Alpha  occ. eigenvalues --   -0.84166  -0.84166  -0.73258  -0.65961  -0.64128
 Alpha  occ. eigenvalues --   -0.62902  -0.60860  -0.60860  -0.51277  -0.51277
 Alpha  occ. eigenvalues --   -0.50419  -0.46388  -0.46388  -0.35704  -0.35704
 Alpha virt. eigenvalues --    0.03243   0.04020   0.04020   0.05618   0.05618
 Alpha virt. eigenvalues --    0.07486   0.07675   0.09373   0.09373   0.11348
 Alpha virt. eigenvalues --    0.13291   0.13291   0.14177   0.14957   0.14957

 Mulliken charges:
               1
     1  C    0.443720
     2  C    0.443720
     3  C    0.443720
     4  C    0.443720
     5  C    0.443720
     6  C    0.443720
     7  H   -0.462634
     8  H   -0.462634
     9  H   -0.462634
    10  H   -0.462634
    11  H   -0.462634
    12  H   -0.462634
    13  Cl  -0.162477
    14  H    0.275961
 Sum of Mulliken charges =  -0.00000

 Dipole moment (field-independent basis, Debye):
    X=             -0.0000    Y=              0.0000    Z=             -2.1492  Tot=              2.1492

 Test job not archived.
 1\1\GINC-SE365\SP\RHF\Aug-CC-pVDZ\C6H7Cl1\OHZDE\09-Apr-2025\0\\#t hf a
 ug-cc-pvdz iop(5/13=1,5/36=2,99/5=2) pseudo=read geom=check guess=(rea
 d,tcheck) scf=(maxcycle=1)\\title\\0,1\C,0,1.3915,0.,1.\C,0,0.69575,1.
 20507435,1.\C,0,-0.69575,1.20507435,1.\C,0,-1.3915,0.,1.\C,0,-0.69575,
 -1.20507435,1.\C,0,0.69575,-1.20507435,1.\H,0,2.4715,0.,1.\H,0,1.23575
 ,2.14038179,1.\H,0,-1.23575,2.14038179,1.\H,0,-2.4715,0.,1.\H,0,-1.235
 75,-2.14038179,1.\H,0,1.23575,-2.14038179,1.\Cl,0,0.,0.,4.1\H,0,0.,0.,
 2.8253\\Version=ES64L-G16RevC.01\State=1-A1\HF=-690.8974378\RMSD=9.839

 Normal termination of Gaussian 16 at Wed Apr  9 02:11:21 2025.
