 Gaussian 16, Revision C.01,

 ----------------------------------------------------------------------
 #t hf aug-cc-pvdz symm=none int=(grid=ultrafine) guess=(read,tcheck) s
 table=(opt,rrhf)
 ----------------------------------------------------------------------
 -----
 title
 -----
 Symbolic Z-matrix:
 Charge =  0 Multiplicity = 1

 SCF Done:  E(RHF) =  -690.824325076     A.U. after   11 cycles

 1\1\GINC-SE461\Stability\RHF\Aug-CC-pVDZ\C6H7Cl1\OHZDE\09-Apr-2025\0\\
 #t hf aug-cc-pvdz symm=none int=(grid=ultrafine) guess=(read,tcheck) s
 table=(opt,rrhf)\\title\\0,1\C,0,1.3915,0.,1.\C,0,0.69575,1.20507435,1
 .\C,0,-0.69575,1.20507435,1.\C,0,-1.3915,0.,1.\C,0,-0.69575,-1.2050743
 5,1.\C,0,0.69575,-1.20507435,1.\H,0,2.4715,0.,1.\H,0,1.23575,2.1403817
 9,1.\H,0,-1.23575,2.14038179,1.\H,0,-2.4715,0.,1.\H,0,-1.23575,-2.1403
 8179,1.\H,0,1.23575,-2.14038179,1.\Cl,0,0.,0.,5.\H,0,0.,0.,3.7253\\Ver
 sion=ES64L-G16RevC.01\HF=-690.8243251\RMSD=8.954e-09\Dipole=0.,0.,-0.7

 Normal termination of Gaussian 16 at Wed Apr  9 02:02:13 2025.
 Gaussian 16:  ES64L-G16RevC.01  3-Jul-2019

 ----------------------------------------------------------------------
 #t hf aug-cc-pvdz iop(5/13=1,5/36=2,99/5=2) pseudo=read geom=check gue
 ss=(read,tcheck) scf=(maxcycle=1)
 ----------------------------------------------------------------------
 -----
 title
 -----
 Structure from the checkpoint file:  "BzDC215_100_mol1.chk"
 Charge =  0 Multiplicity = 1

                         Standard orientation:
 ---------------------------------------------------------------------
 Center     Atomic      Atomic             Coordinates (Angstroms)
 Number     Number       Type             X           Y           Z
 ---------------------------------------------------------------------
      1          6           0        0.000000    1.391500   -1.178755
      2          6           0       -1.205074    0.695750   -1.178755
      3          6           0       -1.205074   -0.695750   -1.178755
      4          6           0       -0.000000   -1.391500   -1.178755
      5          6           0        1.205074   -0.695750   -1.178755
      6          6           0        1.205074    0.695750   -1.178755
      7          1           0        0.000000    2.471500   -1.178755
      8          1           0       -2.140382    1.235750   -1.178755
      9          1           0       -2.140382   -1.235750   -1.178755
     10          1           0       -0.000000   -2.471500   -1.178755
     11          1           0        2.140382   -1.235750   -1.178755
     12          1           0        2.140382    1.235750   -1.178755
     13         17           0        0.000000    0.000000    2.821245
     14          1           0        0.000000    0.000000    1.546545
 ---------------------------------------------------------------------

 SCF Done:  E(RHF) =  -690.912674107     A.U. after    2 cycles

 The electronic state is 1-A1.
 Alpha  occ. eigenvalues -- -103.66158 -11.25572 -11.25523 -11.25523 -11.25402
 Alpha  occ. eigenvalues --  -11.25402 -11.25354 -10.69431  -8.35198  -8.34875
 Alpha  occ. eigenvalues --   -8.34875  -1.15490  -1.14767  -1.02176  -1.02176
 Alpha  occ. eigenvalues --   -0.83738  -0.83738  -0.72603  -0.65625  -0.63706
 Alpha  occ. eigenvalues --   -0.62529  -0.60377  -0.60377  -0.51774  -0.50883
 Alpha  occ. eigenvalues --   -0.50883  -0.47569  -0.47569  -0.35248  -0.35248
 Alpha virt. eigenvalues --    0.03245   0.04028   0.04028   0.05616   0.05616
 Alpha virt. eigenvalues --    0.06889   0.07495   0.09718   0.09718   0.12506
 Alpha virt. eigenvalues --    0.13217   0.13217   0.14209   0.14631   0.14631

 Mulliken charges:
               1
     1  C    0.442600
     2  C    0.442600
     3  C    0.442600
     4  C    0.442600
     5  C    0.442600
     6  C    0.442600
     7  H   -0.448537
     8  H   -0.448537
     9  H   -0.448537
    10  H   -0.448537
    11  H   -0.448537
    12  H   -0.448537
    13  Cl  -0.109007
    14  H    0.144625
 Sum of Mulliken charges =  -0.00000

 Dipole moment (field-independent basis, Debye):
    X=             -0.0000    Y=             -0.0000    Z=             -1.7788  Tot=              1.7788

 Test job not archived.
 1\1\GINC-SE461\SP\RHF\Aug-CC-pVDZ\C6H7Cl1\OHZDE\09-Apr-2025\0\\#t hf a
 ug-cc-pvdz iop(5/13=1,5/36=2,99/5=2) pseudo=read geom=check guess=(rea
 d,tcheck) scf=(maxcycle=1)\\title\\0,1\C,0,1.3915,0.,1.\C,0,0.69575,1.
 20507435,1.\C,0,-0.69575,1.20507435,1.\C,0,-1.3915,0.,1.\C,0,-0.69575,
 -1.20507435,1.\C,0,0.69575,-1.20507435,1.\H,0,2.4715,0.,1.\H,0,1.23575
 ,2.14038179,1.\H,0,-1.23575,2.14038179,1.\H,0,-2.4715,0.,1.\H,0,-1.235
 75,-2.14038179,1.\H,0,1.23575,-2.14038179,1.\Cl,0,0.,0.,5.\H,0,0.,0.,3
 .7253\\Version=ES64L-G16RevC.01\State=1-A1\HF=-690.9126741\RMSD=9.745e

 Normal termination of Gaussian 16 at Wed Apr  9 02:02:17 2025.
