 Gaussian 16, Revision C.01,

 ----------------------------------------------------------------------
 #t hf aug-cc-pvdz symm=none int=(grid=ultrafine) guess=(read,tcheck) s
 table=(opt,rrhf)
 ----------------------------------------------------------------------
 -----
 title
 -----
 Symbolic Z-matrix:
 Charge =  0 Multiplicity = 1

 SCF Done:  E(RHF) =  -629.426996180     A.U. after   13 cycles
 Normal termination of Gaussian 16 at Wed Apr  9 02:06:22 2025.
 Gaussian 16:  ES64L-G16RevC.01  3-Jul-2019

 ----------------------------------------------------------------------
 #t hf aug-cc-pvdz iop(5/13=1,5/36=2,99/5=2) pseudo=read geom=check gue
 ss=(read,tcheck) scf=(maxcycle=1)
 ----------------------------------------------------------------------
 -----
 title
 -----
 Structure from the checkpoint file:  "BzDC215_119_mol1.chk"
 Charge =  0 Multiplicity = 1

                         Standard orientation:
 ---------------------------------------------------------------------
 Center     Atomic      Atomic             Coordinates (Angstroms)
 Number     Number       Type             X           Y           Z
 ---------------------------------------------------------------------
      1          6           0       -1.143246    1.406946    0.000000
      2          6           0       -1.143246    0.711196    1.205074
      3          6           0       -1.143246   -0.680304    1.205074
      4          6           0       -1.143246   -1.376054   -0.000000
      5          6           0       -1.143246   -0.680304   -1.205074
      6          6           0       -1.143246    0.711196   -1.205074
      7          1           0       -1.143246    2.486946    0.000000
      8          1           0       -1.143246    1.251196    2.140382
      9          1           0       -1.143246   -1.220304    2.140382
     10          1           0       -1.143246   -2.456054   -0.000000
     11          1           0       -1.143246   -1.220304   -2.140382
     12          1           0       -1.143246    1.251196   -2.140382
     13         16           0        2.756754    0.015446    0.000000
     14          1           0        2.435000   -1.280818   -0.000000
     15          1           0        1.473279    0.384932    0.000000
 ---------------------------------------------------------------------

 SCF Done:  E(RHF) =  -629.517613398     A.U. after    2 cycles

 The electronic state is 1-A'.
 Alpha  occ. eigenvalues --  -93.53258 -11.25285 -11.25246 -11.25225 -11.25123
 Alpha  occ. eigenvalues --  -11.25104 -11.25065  -8.83068  -6.17265  -6.17057
 Alpha  occ. eigenvalues --   -6.16673  -1.15142  -1.01908  -1.01867  -0.95595
 Alpha  occ. eigenvalues --   -0.83471  -0.83464  -0.72326  -0.65383  -0.63422
 Alpha  occ. eigenvalues --   -0.60127  -0.60087  -0.57772  -0.51852  -0.50634
 Alpha  occ. eigenvalues --   -0.50610  -0.47875  -0.37109  -0.34994  -0.34689
 Alpha virt. eigenvalues --    0.03196   0.04005   0.04149   0.05566   0.05622
 Alpha virt. eigenvalues --    0.05851   0.07499   0.08258   0.09742   0.09887
 Alpha virt. eigenvalues --    0.12110   0.13172   0.13231   0.14079   0.14238

 Mulliken charges:
               1
     1  C    0.438919
     2  C    0.455299
     3  C    0.500303
     4  C    0.414228
     5  C    0.500303
     6  C    0.455299
     7  H   -0.454148
     8  H   -0.456180
     9  H   -0.469263
    10  H   -0.488783
    11  H   -0.469263
    12  H   -0.456180
    13  S    0.004070
    14  H    0.017783
    15  H    0.007612
 Sum of Mulliken charges =  -0.00000

 Dipole moment (field-independent basis, Debye):
    X=             -1.4313    Y=             -0.5033    Z=             -0.0000  Tot=              1.5172

 Test job not archived.
 1\1\GINC-SE069\SP\RHF\Aug-CC-pVDZ\C6H8S1\OHZDE\09-Apr-2025\0\\#t hf au
 g-cc-pvdz iop(5/13=1,5/36=2,99/5=2) pseudo=read geom=check guess=(read
 ,tcheck) scf=(maxcycle=1)\\title\\0,1\C,0,1.3915,0.,1.\C,0,0.69575,1.2
 0507435,1.\C,0,-0.69575,1.20507435,1.\C,0,-1.3915,0.,1.\C,0,-0.69575,-
 1.20507435,1.\C,0,0.69575,-1.20507435,1.\H,0,2.4715,0.,1.\H,0,1.23575,
 2.14038179,1.\H,0,-1.23575,2.14038179,1.\H,0,-2.4715,0.,1.\H,0,-1.2357
 5,-2.14038179,1.\H,0,1.23575,-2.14038179,1.\S,0,0.,0.,4.9\H,0,-1.29626
 462,0.,4.57824638\H,0,0.36948551,0.,3.6165251\\Version=ES64L-G16RevC.0

 Normal termination of Gaussian 16 at Wed Apr  9 02:06:26 2025.
