 Gaussian 16, Revision C.01,

 ----------------------------------------------------------------------
 #t hf aug-cc-pvdz symm=none int=(grid=ultrafine) guess=(read,tcheck) s
 table=(opt,rrhf)
 ----------------------------------------------------------------------
 -----
 title
 -----
 Symbolic Z-matrix:
 Charge =  0 Multiplicity = 1

 SCF Done:  E(RHF) =  -573.174127960     A.U. after   14 cycles
 Normal termination of Gaussian 16 at Wed Apr  9 02:08:31 2025.
 Gaussian 16:  ES64L-G16RevC.01  3-Jul-2019

 ----------------------------------------------------------------------
 #t hf aug-cc-pvdz iop(5/13=1,5/36=2,99/5=2) pseudo=read geom=check gue
 ss=(read,tcheck) scf=(maxcycle=1)
 ----------------------------------------------------------------------
 -----
 title
 -----
 Structure from the checkpoint file:  "BzDC215_135_mol1.chk"
 Charge =  0 Multiplicity = 1

                         Standard orientation:
 ---------------------------------------------------------------------
 Center     Atomic      Atomic             Coordinates (Angstroms)
 Number     Number       Type             X           Y           Z
 ---------------------------------------------------------------------
      1          6           0        1.149990    0.018841   -1.371736
      2          6           0        1.127174   -1.196754   -0.694920
      3          6           0        1.064629   -1.218127    0.695010
      4          6           0        1.024900   -0.023906    1.408122
      5          6           0        1.047716    1.191689    0.731306
      6          6           0        1.110261    1.213062   -0.658624
      7          1           0        1.198534    0.035430   -2.450517
      8          1           0        1.158010   -2.123638   -1.248395
      9          1           0        1.046921   -2.161600    1.220315
     10          1           0        0.976357   -0.040495    2.486903
     11          1           0        1.016881    2.118573    1.284781
     12          1           0        1.127969    2.156535   -1.183929
     13         15           0       -2.608724   -0.025964   -0.148490
     14          1           0       -1.199135   -0.017028   -0.084923
     15          1           0       -3.109332   -0.640509    1.018895
     16          1           0       -2.233366    1.153361    0.529272
 ---------------------------------------------------------------------

 SCF Done:  E(RHF) =  -573.264353277     A.U. after    2 cycles

 The electronic state is 1-A.
 Alpha  occ. eigenvalues --  -81.23950 -11.25037 -11.24979 -11.24959 -11.24867
 Alpha  occ. eigenvalues --  -11.24847 -11.24784  -7.74514  -4.88511  -4.88333
 Alpha  occ. eigenvalues --   -4.88163  -1.14886  -1.01648  -1.01636  -0.83223
 Alpha  occ. eigenvalues --   -0.83220  -0.79790  -0.72086  -0.65149  -0.63158
 Alpha  occ. eigenvalues --   -0.59866  -0.59853  -0.55100  -0.50632  -0.50380
 Alpha  occ. eigenvalues --   -0.50373  -0.44652  -0.36227  -0.34693  -0.34354
 Alpha virt. eigenvalues --    0.03138   0.04152   0.04204   0.05386   0.05650
 Alpha virt. eigenvalues --    0.05672   0.07514   0.08513   0.09057   0.09548
 Alpha virt. eigenvalues --    0.10022   0.10554   0.12230   0.12834   0.14141

 Mulliken charges:
               1
     1  C    0.434954
     2  C    0.522184
     3  C    0.443842
     4  C    0.538532
     5  C    0.434807
     6  C    0.516262
     7  H   -0.475860
     8  H   -0.471616
     9  H   -0.479422
    10  H   -0.485064
    11  H   -0.504598
    12  H   -0.484015
    13  P   -0.134756
    14  H    0.089748
    15  H    0.122982
    16  H   -0.067981
 Sum of Mulliken charges =   0.00000

 Dipole moment (field-independent basis, Debye):
    X=              0.8538    Y=             -0.2778    Z=              0.5771  Tot=              1.0673

 Test job not archived.
 1\1\GINC-SE024\SP\RHF\Aug-CC-pVDZ\C6H9P1\OHZDE\09-Apr-2025\0\\#t hf au
 g-cc-pvdz iop(5/13=1,5/36=2,99/5=2) pseudo=read geom=check guess=(read
 ,tcheck) scf=(maxcycle=1)\\title\\0,1\C,0,1.3915,0.,1.\C,0,0.69575,1.2
 0507435,1.\C,0,-0.69575,1.20507435,1.\C,0,-1.3915,0.,1.\C,0,-0.69575,-
 1.20507435,1.\C,0,0.69575,-1.20507435,1.\H,0,2.4715,0.,1.\H,0,1.23575,
 2.14038179,1.\H,0,-1.23575,2.14038179,1.\H,0,-2.4715,0.,1.\H,0,-1.2357
 5,-2.14038179,1.\H,0,1.23575,-2.14038179,1.\P,0,0.,0.,4.7\H,0,0.,0.,3.
 28895\H,0,-1.19800816,0.59336739,5.15139084\H,0,-0.64201064,-1.1867347

 Normal termination of Gaussian 16 at Wed Apr  9 02:08:37 2025.
