 Gaussian 16, Revision C.01,

 ----------------------------------------------------------------------
 #t hf aug-cc-pvdz symm=none int=(grid=ultrafine) guess=(read,tcheck) s
 table=(opt,rrhf)
 ----------------------------------------------------------------------
 -----
 title
 -----
 Symbolic Z-matrix:
 Charge =  0 Multiplicity = 1

 SCF Done:  E(RHF) =  -573.177118562     A.U. after   13 cycles
 Normal termination of Gaussian 16 at Wed Apr  9 02:08:27 2025.
 Gaussian 16:  ES64L-G16RevC.01  3-Jul-2019

 ----------------------------------------------------------------------
 #t hf aug-cc-pvdz iop(5/13=1,5/36=2,99/5=2) pseudo=read geom=check gue
 ss=(read,tcheck) scf=(maxcycle=1)
 ----------------------------------------------------------------------
 -----
 title
 -----
 Structure from the checkpoint file:  "BzDC215_137_mol1.chk"
 Charge =  0 Multiplicity = 1

                         Standard orientation:
 ---------------------------------------------------------------------
 Center     Atomic      Atomic             Coordinates (Angstroms)
 Number     Number       Type             X           Y           Z
 ---------------------------------------------------------------------
      1          6           0        1.203833    0.019045   -1.374398
      2          6           0        1.183661   -1.196636   -0.697652
      3          6           0        1.127291   -1.218182    0.692539
      4          6           0        1.091095   -0.024047    1.405983
      5          6           0        1.111267    1.191634    0.729237
      6          6           0        1.167636    1.213180   -0.660954
      7          1           0        1.247584    0.035767   -2.453382
      8          1           0        1.211754   -2.123453   -1.251386
      9          1           0        1.111635   -2.161722    1.217789
     10          1           0        1.047344   -0.040769    2.484967
     11          1           0        1.083173    2.118451    1.282971
     12          1           0        1.183293    2.156719   -1.186204
     13         15           0       -2.749249   -0.026001   -0.142575
     14          1           0       -1.339388   -0.017499   -0.085276
     15          1           0       -3.244845   -0.640556    1.026942
     16          1           0       -2.370524    1.153118    0.533671
 ---------------------------------------------------------------------

 SCF Done:  E(RHF) =  -573.267478403     A.U. after    2 cycles

 The electronic state is 1-A.
 Alpha  occ. eigenvalues --  -81.24257 -11.24958 -11.24904 -11.24890 -11.24788
 Alpha  occ. eigenvalues --  -11.24776 -11.24719  -7.74810  -4.88803  -4.88622
 Alpha  occ. eigenvalues --   -4.88453  -1.14771  -1.01555  -1.01546  -0.83145
 Alpha  occ. eigenvalues --   -0.83142  -0.79964  -0.71998  -0.65080  -0.63084
 Alpha  occ. eigenvalues --   -0.59787  -0.59778  -0.54791  -0.50830  -0.50308
 Alpha  occ. eigenvalues --   -0.50302  -0.45048  -0.36313  -0.34595  -0.34417
 Alpha virt. eigenvalues --    0.03141   0.04154   0.04207   0.05307   0.05657
 Alpha virt. eigenvalues --    0.05679   0.07527   0.08474   0.09100   0.09578
 Alpha virt. eigenvalues --    0.10115   0.10525   0.12310   0.12649   0.14174

 Mulliken charges:
               1
     1  C    0.434266
     2  C    0.505841
     3  C    0.441120
     4  C    0.530906
     5  C    0.443890
     6  C    0.513075
     7  H   -0.470635
     8  H   -0.464493
     9  H   -0.473758
    10  H   -0.478959
    11  H   -0.505211
    12  H   -0.478636
    13  P   -0.084498
    14  H    0.039127
    15  H    0.125229
    16  H   -0.077264
 Sum of Mulliken charges =   0.00000

 Dipole moment (field-independent basis, Debye):
    X=              0.7565    Y=             -0.2685    Z=              0.5720  Tot=              0.9857

 Test job not archived.
 1\1\GINC-SE345\SP\RHF\Aug-CC-pVDZ\C6H9P1\OHZDE\09-Apr-2025\0\\#t hf au
 g-cc-pvdz iop(5/13=1,5/36=2,99/5=2) pseudo=read geom=check guess=(read
 ,tcheck) scf=(maxcycle=1)\\title\\0,1\C,0,1.3915,0.,1.\C,0,0.69575,1.2
 0507435,1.\C,0,-0.69575,1.20507435,1.\C,0,-1.3915,0.,1.\C,0,-0.69575,-
 1.20507435,1.\C,0,0.69575,-1.20507435,1.\H,0,2.4715,0.,1.\H,0,1.23575,
 2.14038179,1.\H,0,-1.23575,2.14038179,1.\H,0,-2.4715,0.,1.\H,0,-1.2357
 5,-2.14038179,1.\H,0,1.23575,-2.14038179,1.\P,0,0.,0.,4.9\H,0,0.,0.,3.
 48895\H,0,-1.19800816,0.59336739,5.35139084\H,0,-0.64201064,-1.1867347

 Normal termination of Gaussian 16 at Wed Apr  9 02:08:33 2025.
