 Gaussian 16, Revision C.01,

 ----------------------------------------------------------------------
 #t hf aug-cc-pvdz symm=none int=(grid=ultrafine) guess=(read,tcheck) s
 table=(opt,rrhf)
 ----------------------------------------------------------------------
 -----
 title
 -----
 Symbolic Z-matrix:
 Charge =  0 Multiplicity = 1

 SCF Done:  E(RHF) =  -521.947422690     A.U. after   13 cycles
 Normal termination of Gaussian 16 at Wed Apr  9 02:10:29 2025.
 Gaussian 16:  ES64L-G16RevC.01  3-Jul-2019

 ----------------------------------------------------------------------
 #t hf aug-cc-pvdz iop(5/13=1,5/36=2,99/5=2) pseudo=read geom=check gue
 ss=(read,tcheck) scf=(maxcycle=1)
 ----------------------------------------------------------------------
 -----
 title
 -----
 Structure from the checkpoint file:  "BzDC215_160_mol1.chk"
 Charge =  0 Multiplicity = 1

                         Standard orientation:
 ---------------------------------------------------------------------
 Center     Atomic      Atomic             Coordinates (Angstroms)
 Number     Number       Type             X           Y           Z
 ---------------------------------------------------------------------
      1          6           0       -1.260907   -1.395765    0.020259
      2          6           0       -1.280080   -0.713965   -1.192612
      3          6           0       -1.294214    0.677372   -1.208484
      4          6           0       -1.289175    1.386910   -0.011487
      5          6           0       -1.270002    0.705111    1.201383
      6          6           0       -1.255868   -0.686227    1.217256
      7          1           0       -1.249937   -2.475639    0.032578
      8          1           0       -1.283991   -1.264667   -2.121650
      9          1           0       -1.309095    1.206545   -2.149842
     10          1           0       -1.300145    2.466784   -0.023806
     11          1           0       -1.266092    1.255812    2.130422
     12          1           0       -1.240987   -1.215400    2.158614
     13         14           0        2.974525    0.038250   -0.038800
     14          1           0        1.501276    0.023454   -0.023828
     15          1           0        3.470851   -1.167698   -0.724554
     16          1           0        3.451498    1.432154   -0.059637
     17          1           0        3.484749   -0.637459    1.167018
 ---------------------------------------------------------------------

 SCF Done:  E(RHF) =  -522.040864843     A.U. after    2 cycles

 The electronic state is 1-A.
 Alpha  occ. eigenvalues --  -69.05419 -11.24610 -11.24558 -11.24554 -11.24440
 Alpha  occ. eigenvalues --  -11.24435 -11.24384  -6.80861  -3.91676  -3.91628
 Alpha  occ. eigenvalues --   -3.91610  -1.14406  -1.01187  -1.01186  -0.82810
 Alpha  occ. eigenvalues --   -0.82809  -0.71672  -0.71066  -0.64778  -0.62750
 Alpha  occ. eigenvalues --   -0.59459  -0.59457  -0.51615  -0.50756  -0.49990
 Alpha  occ. eigenvalues --   -0.49989  -0.46697  -0.42879  -0.34199  -0.34190
 Alpha virt. eigenvalues --    0.03221   0.04149   0.04182   0.04610   0.05644
 Alpha virt. eigenvalues --    0.05709   0.06974   0.07128   0.07566   0.07612
 Alpha virt. eigenvalues --    0.09542   0.09892   0.11224   0.11311   0.12592

 Mulliken charges:
               1
     1  C    0.485716
     2  C    0.504604
     3  C    0.476116
     4  C    0.456226
     5  C    0.517497
     6  C    0.491820
     7  H   -0.488334
     8  H   -0.494075
     9  H   -0.481563
    10  H   -0.491250
    11  H   -0.488258
    12  H   -0.491759
    13  Si   0.004948
    14  H    0.078512
    15  H    0.009078
    16  H   -0.022325
    17  H   -0.066952
 Sum of Mulliken charges =  -0.00000

 Dipole moment (field-independent basis, Debye):
    X=             -0.2843    Y=              0.5682    Z=             -0.5382  Tot=              0.8327

 Test job not archived.
 1\1\GINC-SE366\SP\RHF\Aug-CC-pVDZ\C6H10Si1\OHZDE\09-Apr-2025\0\\#t hf
 aug-cc-pvdz iop(5/13=1,5/36=2,99/5=2) pseudo=read geom=check guess=(re
 ad,tcheck) scf=(maxcycle=1)\\title\\0,1\C,0,1.3915,0.,1.\C,0,0.69575,1
 .20507435,1.\C,0,-0.69575,1.20507435,1.\C,0,-1.3915,0.,1.\C,0,-0.69575
 ,-1.20507435,1.\C,0,0.69575,-1.20507435,1.\H,0,2.4715,0.,1.\H,0,1.2357
 5,2.14038179,1.\H,0,-1.23575,2.14038179,1.\H,0,-2.4715,0.,1.\H,0,-1.23
 575,-2.14038179,1.\H,0,1.23575,-2.14038179,1.\Si,0,0.,0.,5.25\H,0,0.,0
 .,3.7766\H,0,1.20302606,0.69456742,5.74113333\H,0,-1.38913484,0.,5.741

 Normal termination of Gaussian 16 at Wed Apr  9 02:10:35 2025.
