 Gaussian 16, Revision C.01,

 ----------------------------------------------------------------------
 #t hf aug-cc-pvdz symm=none int=(grid=ultrafine) guess=(read,tcheck) s
 table=(opt,rrhf)
 ----------------------------------------------------------------------
 -----
 title
 -----
 Symbolic Z-matrix:
 Charge =  0 Multiplicity = 1

 SCF Done:  E(RHF) =  -521.946528387     A.U. after   13 cycles
 Normal termination of Gaussian 16 at Wed Apr  9 02:10:35 2025.
 Gaussian 16:  ES64L-G16RevC.01  3-Jul-2019

 ----------------------------------------------------------------------
 #t hf aug-cc-pvdz iop(5/13=1,5/36=2,99/5=2) pseudo=read geom=check gue
 ss=(read,tcheck) scf=(maxcycle=1)
 ----------------------------------------------------------------------
 -----
 title
 -----
 Structure from the checkpoint file:  "BzDC215_157_mol1.chk"
 Charge =  0 Multiplicity = 1

                         Standard orientation:
 ---------------------------------------------------------------------
 Center     Atomic      Atomic             Coordinates (Angstroms)
 Number     Number       Type             X           Y           Z
 ---------------------------------------------------------------------
      1          6           0       -1.214963   -1.396121    0.021047
      2          6           0       -1.235401   -0.714714   -1.192023
      3          6           0       -1.250478    0.676609   -1.208320
      4          6           0       -1.245117    1.386525   -0.011548
      5          6           0       -1.224679    0.705117    1.201522
      6          6           0       -1.209602   -0.686206    1.217819
      7          1           0       -1.203261   -2.475984    0.033696
      8          1           0       -1.239561   -1.265708   -2.120886
      9          1           0       -1.266340    1.205477   -2.149833
     10          1           0       -1.256819    2.466387   -0.024197
     11          1           0       -1.220518    1.256111    2.130386
     12          1           0       -1.193739   -1.215074    2.159332
     13         14           0        2.869485    0.039106   -0.039657
     14          1           0        1.396255    0.023328   -0.023699
     15          1           0        3.366161   -1.166723   -0.725366
     16          1           0        3.345509    1.433323   -0.061247
     17          1           0        3.380964   -0.635884    1.166031
 ---------------------------------------------------------------------

 SCF Done:  E(RHF) =  -522.039918627     A.U. after    2 cycles

 The electronic state is 1-A.
 Alpha  occ. eigenvalues --  -69.05280 -11.24640 -11.24588 -11.24583 -11.24470
 Alpha  occ. eigenvalues --  -11.24465 -11.24414  -6.80726  -3.91541  -3.91491
 Alpha  occ. eigenvalues --   -3.91476  -1.14442  -1.01217  -1.01215  -0.82837
 Alpha  occ. eigenvalues --   -0.82836  -0.71703  -0.70977  -0.64804  -0.62776
 Alpha  occ. eigenvalues --   -0.59484  -0.59483  -0.51923  -0.50673  -0.50015
 Alpha  occ. eigenvalues --   -0.50014  -0.46269  -0.42791  -0.34247  -0.34236
 Alpha virt. eigenvalues --    0.03224   0.04152   0.04185   0.04637   0.05641
 Alpha virt. eigenvalues --    0.05704   0.07008   0.07183   0.07584   0.07611
 Alpha virt. eigenvalues --    0.09542   0.09876   0.11292   0.11390   0.12355

 Mulliken charges:
               1
     1  C    0.493961
     2  C    0.503260
     3  C    0.480701
     4  C    0.452242
     5  C    0.528497
     6  C    0.490257
     7  H   -0.492375
     8  H   -0.498156
     9  H   -0.484824
    10  H   -0.495718
    11  H   -0.493384
    12  H   -0.496383
    13  Si  -0.026059
    14  H    0.105362
    15  H    0.012061
    16  H   -0.017309
    17  H   -0.062133
 Sum of Mulliken charges =  -0.00000

 Dipole moment (field-independent basis, Debye):
    X=             -0.3329    Y=              0.5650    Z=             -0.5355  Tot=              0.8466

 Test job not archived.
 1\1\GINC-SE127\SP\RHF\Aug-CC-pVDZ\C6H10Si1\OHZDE\09-Apr-2025\0\\#t hf
 aug-cc-pvdz iop(5/13=1,5/36=2,99/5=2) pseudo=read geom=check guess=(re
 ad,tcheck) scf=(maxcycle=1)\\title\\0,1\C,0,1.3915,0.,1.\C,0,0.69575,1
 .20507435,1.\C,0,-0.69575,1.20507435,1.\C,0,-1.3915,0.,1.\C,0,-0.69575
 ,-1.20507435,1.\C,0,0.69575,-1.20507435,1.\H,0,2.4715,0.,1.\H,0,1.2357
 5,2.14038179,1.\H,0,-1.23575,2.14038179,1.\H,0,-2.4715,0.,1.\H,0,-1.23
 575,-2.14038179,1.\H,0,1.23575,-2.14038179,1.\Si,0,0.,0.,5.1\H,0,0.,0.
 ,3.6266\H,0,1.20302606,0.69456742,5.59113333\H,0,-1.38913484,0.,5.5911

 Normal termination of Gaussian 16 at Wed Apr  9 02:10:42 2025.
