 Gaussian 16, Revision C.01,

 ----------------------------------------------------------------------
 #t hf aug-cc-pvdz symm=none int=(grid=ultrafine) guess=(read,tcheck) s
 table=(opt,rrhf)
 ----------------------------------------------------------------------
 -----
 title
 -----
 Symbolic Z-matrix:
 Charge =  0 Multiplicity = 1

 SCF Done:  E(RHF) =  -573.164664369     A.U. after   14 cycles
 Normal termination of Gaussian 16 at Wed Apr  9 02:07:29 2025.
 Gaussian 16:  ES64L-G16RevC.01  3-Jul-2019

 ----------------------------------------------------------------------
 #t hf aug-cc-pvdz iop(5/13=1,5/36=2,99/5=2) pseudo=read geom=check gue
 ss=(read,tcheck) scf=(maxcycle=1)
 ----------------------------------------------------------------------
 -----
 title
 -----
 Structure from the checkpoint file:  "BzDC215_132_mol1.chk"
 Charge =  0 Multiplicity = 1

                         Standard orientation:
 ---------------------------------------------------------------------
 Center     Atomic      Atomic             Coordinates (Angstroms)
 Number     Number       Type             X           Y           Z
 ---------------------------------------------------------------------
      1          6           0        1.072604    0.019675   -1.366032
      2          6           0        1.044271   -1.196339   -0.690176
      3          6           0        0.969036   -1.218581    0.699110
      4          6           0        0.922134   -0.024811    1.412541
      5          6           0        0.950466    1.191203    0.736686
      6          6           0        1.025702    1.213445   -0.652601
      7          1           0        1.130998    0.036938   -2.444314
      8          1           0        1.080674   -2.122873   -1.243899
      9          1           0        0.947046   -2.162379    1.223669
     10          1           0        0.863740   -0.042074    2.490823
     11          1           0        0.914064    2.117737    1.290408
     12          1           0        1.047692    2.157243   -1.177160
     13         15           0       -2.397557   -0.025856   -0.160967
     14          1           0       -0.988613   -0.016191   -0.084512
     15          1           0       -2.908476   -0.641375    1.001427
     16          1           0       -2.029058    1.153265    0.520900
 ---------------------------------------------------------------------

 SCF Done:  E(RHF) =  -573.254722385     A.U. after    2 cycles

 The electronic state is 1-A.
 Alpha  occ. eigenvalues --  -81.23304 -11.25195 -11.25130 -11.25098 -11.25023
 Alpha  occ. eigenvalues --  -11.24987 -11.24904  -7.73900  -4.87906  -4.87730
 Alpha  occ. eigenvalues --   -4.87559  -1.15177  -1.01854  -1.01836  -0.83389
 Alpha  occ. eigenvalues --   -0.83384  -0.79526  -0.72290  -0.65291  -0.63313
 Alpha  occ. eigenvalues --   -0.60042  -0.60023  -0.55908  -0.50533  -0.50523
 Alpha  occ. eigenvalues --   -0.50110  -0.43853  -0.36259  -0.34848  -0.34003
 Alpha virt. eigenvalues --    0.03124   0.04140   0.04192   0.05522   0.05637
 Alpha virt. eigenvalues --    0.05658   0.07489   0.08554   0.09000   0.09465
 Alpha virt. eigenvalues --    0.09832   0.10605   0.12063   0.13210   0.14068

 Mulliken charges:
               1
     1  C    0.442537
     2  C    0.548125
     3  C    0.451889
     4  C    0.550708
     5  C    0.429546
     6  C    0.520042
     7  H   -0.481673
     8  H   -0.482689
     9  H   -0.488033
    10  H   -0.494795
    11  H   -0.504143
    12  H   -0.489164
    13  P   -0.230966
    14  H    0.151604
    15  H    0.119745
    16  H   -0.042731
 Sum of Mulliken charges =   0.00000

 Dipole moment (field-independent basis, Debye):
    X=              1.0433    Y=             -0.2921    Z=              0.5903  Tot=              1.2338

 Test job not archived.
 1\1\GINC-SE457\SP\RHF\Aug-CC-pVDZ\C6H9P1\OHZDE\09-Apr-2025\0\\#t hf au
 g-cc-pvdz iop(5/13=1,5/36=2,99/5=2) pseudo=read geom=check guess=(read
 ,tcheck) scf=(maxcycle=1)\\title\\0,1\C,0,1.3915,0.,1.\C,0,0.69575,1.2
 0507435,1.\C,0,-0.69575,1.20507435,1.\C,0,-1.3915,0.,1.\C,0,-0.69575,-
 1.20507435,1.\C,0,0.69575,-1.20507435,1.\H,0,2.4715,0.,1.\H,0,1.23575,
 2.14038179,1.\H,0,-1.23575,2.14038179,1.\H,0,-2.4715,0.,1.\H,0,-1.2357
 5,-2.14038179,1.\H,0,1.23575,-2.14038179,1.\P,0,0.,0.,4.4\H,0,0.,0.,2.
 98895\H,0,-1.19800816,0.59336739,4.85139084\H,0,-0.64201064,-1.1867347

 Normal termination of Gaussian 16 at Wed Apr  9 02:07:35 2025.
