 Gaussian 16, Revision C.01,

 ----------------------------------------------------------------------
 #t hf aug-cc-pvdz symm=none int=(grid=ultrafine) guess=(read,tcheck) s
 table=(opt,rrhf)
 ----------------------------------------------------------------------
 -----
 title
 -----
 Symbolic Z-matrix:
 Charge =  0 Multiplicity = 1

 SCF Done:  E(RHF) =  -521.942749966     A.U. after   13 cycles
 Normal termination of Gaussian 16 at Wed Apr  9 02:09:43 2025.
 Gaussian 16:  ES64L-G16RevC.01  3-Jul-2019

 ----------------------------------------------------------------------
 #t hf aug-cc-pvdz iop(5/13=1,5/36=2,99/5=2) pseudo=read geom=check gue
 ss=(read,tcheck) scf=(maxcycle=1)
 ----------------------------------------------------------------------
 -----
 title
 -----
 Structure from the checkpoint file:  "BzDC215_154_mol1.chk"
 Charge =  0 Multiplicity = 1

                         Standard orientation:
 ---------------------------------------------------------------------
 Center     Atomic      Atomic             Coordinates (Angstroms)
 Number     Number       Type             X           Y           Z
 ---------------------------------------------------------------------
      1          6           0       -1.122599   -1.397023    0.023040
      2          6           0       -1.146192   -0.716609   -1.190531
      3          6           0       -1.163627    0.674673   -1.207899
      4          6           0       -1.157470    1.385542   -0.011697
      5          6           0       -1.133877    0.705128    1.201874
      6          6           0       -1.116441   -0.686154    1.219242
      7          1           0       -1.109066   -2.476854    0.036520
      8          1           0       -1.150971   -1.268344   -2.118952
      9          1           0       -1.181939    1.202770   -2.149800
     10          1           0       -1.171003    2.465373   -0.025177
     11          1           0       -1.129098    1.256863    2.130295
     12          1           0       -1.098130   -1.214251    2.161143
     13         14           0        2.659378    0.041281   -0.041829
     14          1           0        1.186206    0.023049   -0.023412
     15          1           0        3.156936   -1.164256   -0.727412
     16          1           0        3.133029    1.436276   -0.065307
     17          1           0        3.173988   -0.631899    1.163539
 ---------------------------------------------------------------------

 SCF Done:  E(RHF) =  -522.036124208     A.U. after    2 cycles

 The electronic state is 1-A.
 Alpha  occ. eigenvalues --  -69.04902 -11.24725 -11.24673 -11.24669 -11.24556
 Alpha  occ. eigenvalues --  -11.24549 -11.24499  -6.80360  -3.91177  -3.91123
 Alpha  occ. eigenvalues --   -3.91113  -1.14567  -1.01315  -1.01313  -0.82922
 Alpha  occ. eigenvalues --   -0.82921  -0.71811  -0.70768  -0.64883  -0.62857
 Alpha  occ. eigenvalues --   -0.59568  -0.59567  -0.52791  -0.50449  -0.50094
 Alpha  occ. eigenvalues --   -0.50093  -0.45094  -0.42564  -0.34398  -0.34375
 Alpha virt. eigenvalues --    0.03224   0.04155   0.04188   0.04702   0.05635
 Alpha virt. eigenvalues --    0.05690   0.07071   0.07292   0.07584   0.07633
 Alpha virt. eigenvalues --    0.09531   0.09820   0.11433   0.11573   0.11900

 Mulliken charges:
               1
     1  C    0.510444
     2  C    0.496151
     3  C    0.499267
     4  C    0.443166
     5  C    0.551623
     6  C    0.484981
     7  H   -0.498979
     8  H   -0.505668
     9  H   -0.492525
    10  H   -0.504762
    11  H   -0.502699
    12  H   -0.505884
    13  Si  -0.076385
    14  H    0.148433
    15  H    0.016528
    16  H   -0.009251
    17  H   -0.054440
 Sum of Mulliken charges =  -0.00000

 Dipole moment (field-independent basis, Debye):
    X=             -0.4641    Y=              0.5574    Z=             -0.5289  Tot=              0.8977

 Test job not archived.
 1\1\GINC-SE403\SP\RHF\Aug-CC-pVDZ\C6H10Si1\OHZDE\09-Apr-2025\0\\#t hf
 aug-cc-pvdz iop(5/13=1,5/36=2,99/5=2) pseudo=read geom=check guess=(re
 ad,tcheck) scf=(maxcycle=1)\\title\\0,1\C,0,1.3915,0.,1.\C,0,0.69575,1
 .20507435,1.\C,0,-0.69575,1.20507435,1.\C,0,-1.3915,0.,1.\C,0,-0.69575
 ,-1.20507435,1.\C,0,0.69575,-1.20507435,1.\H,0,2.4715,0.,1.\H,0,1.2357
 5,2.14038179,1.\H,0,-1.23575,2.14038179,1.\H,0,-2.4715,0.,1.\H,0,-1.23
 575,-2.14038179,1.\H,0,1.23575,-2.14038179,1.\Si,0,0.,0.,4.8\H,0,0.,0.
 ,3.3266\H,0,1.20302606,0.69456742,5.29113333\H,0,-1.38913484,0.,5.2911

 Normal termination of Gaussian 16 at Wed Apr  9 02:09:50 2025.
