 Gaussian 16, Revision C.01,

 ----------------------------------------------------------------------
 #t hf aug-cc-pvdz symm=none int=(grid=ultrafine) guess=(read,tcheck) s
 table=(opt,rrhf)
 ----------------------------------------------------------------------
 -----
 title
 -----
 Symbolic Z-matrix:
 Charge =  0 Multiplicity = 1

 SCF Done:  E(RHF) =  -690.821522277     A.U. after   11 cycles

 1\1\GINC-SE365\Stability\RHF\Aug-CC-pVDZ\C6H7Cl1\OHZDE\09-Apr-2025\0\\
 #t hf aug-cc-pvdz symm=none int=(grid=ultrafine) guess=(read,tcheck) s
 table=(opt,rrhf)\\title\\0,1\C,0,1.3915,0.,1.\C,0,0.69575,1.20507435,1
 .\C,0,-0.69575,1.20507435,1.\C,0,-1.3915,0.,1.\C,0,-0.69575,-1.2050743
 5,1.\C,0,0.69575,-1.20507435,1.\H,0,2.4715,0.,1.\H,0,1.23575,2.1403817
 9,1.\H,0,-1.23575,2.14038179,1.\H,0,-2.4715,0.,1.\H,0,-1.23575,-2.1403
 8179,1.\H,0,1.23575,-2.14038179,1.\Cl,0,0.,0.,4.5\H,0,0.,0.,3.2253\\Ve
 rsion=ES64L-G16RevC.01\HF=-690.8215223\RMSD=7.678e-09\Dipole=0.,0.,-0.

 Normal termination of Gaussian 16 at Wed Apr  9 02:11:48 2025.
 Gaussian 16:  ES64L-G16RevC.01  3-Jul-2019

 ----------------------------------------------------------------------
 #t hf aug-cc-pvdz iop(5/13=1,5/36=2,99/5=2) pseudo=read geom=check gue
 ss=(read,tcheck) scf=(maxcycle=1)
 ----------------------------------------------------------------------
 -----
 title
 -----
 Structure from the checkpoint file:  "BzDC215_93_mol1.chk"
 Charge =  0 Multiplicity = 1

                         Standard orientation:
 ---------------------------------------------------------------------
 Center     Atomic      Atomic             Coordinates (Angstroms)
 Number     Number       Type             X           Y           Z
 ---------------------------------------------------------------------
      1          6           0        0.000000    1.391500   -1.028755
      2          6           0       -1.205074    0.695750   -1.028755
      3          6           0       -1.205074   -0.695750   -1.028755
      4          6           0       -0.000000   -1.391500   -1.028755
      5          6           0        1.205074   -0.695750   -1.028755
      6          6           0        1.205074    0.695750   -1.028755
      7          1           0        0.000000    2.471500   -1.028755
      8          1           0       -2.140382    1.235750   -1.028755
      9          1           0       -2.140382   -1.235750   -1.028755
     10          1           0       -0.000000   -2.471500   -1.028755
     11          1           0        2.140382   -1.235750   -1.028755
     12          1           0        2.140382    1.235750   -1.028755
     13         17           0        0.000000    0.000000    2.471245
     14          1           0        0.000000    0.000000    1.196545
 ---------------------------------------------------------------------

 SCF Done:  E(RHF) =  -690.909570622     A.U. after    2 cycles

 The electronic state is 1-A1.
 Alpha  occ. eigenvalues -- -103.65276 -11.25802 -11.25753 -11.25753 -11.25632
 Alpha  occ. eigenvalues --  -11.25632 -11.25584 -10.68585  -8.34350  -8.34034
 Alpha  occ. eigenvalues --   -8.34034  -1.15912  -1.14021  -1.02444  -1.02444
 Alpha  occ. eigenvalues --   -0.83954  -0.83954  -0.72868  -0.65801  -0.63925
 Alpha  occ. eigenvalues --   -0.62435  -0.60603  -0.60603  -0.51524  -0.51083
 Alpha  occ. eigenvalues --   -0.51083  -0.46972  -0.46972  -0.35538  -0.35538
 Alpha virt. eigenvalues --    0.03255   0.04029   0.04029   0.05620   0.05620
 Alpha virt. eigenvalues --    0.07310   0.07493   0.09551   0.09551   0.11909
 Alpha virt. eigenvalues --    0.13273   0.13273   0.14196   0.14992   0.14992

 Mulliken charges:
               1
     1  C    0.441638
     2  C    0.441638
     3  C    0.441638
     4  C    0.441638
     5  C    0.441638
     6  C    0.441638
     7  H   -0.456836
     8  H   -0.456836
     9  H   -0.456836
    10  H   -0.456836
    11  H   -0.456836
    12  H   -0.456836
    13  Cl  -0.130987
    14  H    0.222172
 Sum of Mulliken charges =  -0.00000

 Dipole moment (field-independent basis, Debye):
    X=             -0.0000    Y=             -0.0000    Z=             -1.9689  Tot=              1.9689

 Test job not archived.
 1\1\GINC-SE365\SP\RHF\Aug-CC-pVDZ\C6H7Cl1\OHZDE\09-Apr-2025\0\\#t hf a
 ug-cc-pvdz iop(5/13=1,5/36=2,99/5=2) pseudo=read geom=check guess=(rea
 d,tcheck) scf=(maxcycle=1)\\title\\0,1\C,0,1.3915,0.,1.\C,0,0.69575,1.
 20507435,1.\C,0,-0.69575,1.20507435,1.\C,0,-1.3915,0.,1.\C,0,-0.69575,
 -1.20507435,1.\C,0,0.69575,-1.20507435,1.\H,0,2.4715,0.,1.\H,0,1.23575
 ,2.14038179,1.\H,0,-1.23575,2.14038179,1.\H,0,-2.4715,0.,1.\H,0,-1.235
 75,-2.14038179,1.\H,0,1.23575,-2.14038179,1.\Cl,0,0.,0.,4.5\H,0,0.,0.,
 3.2253\\Version=ES64L-G16RevC.01\State=1-A1\HF=-690.9095706\RMSD=9.805

 Normal termination of Gaussian 16 at Wed Apr  9 02:11:51 2025.
