 Gaussian 16, Revision C.01,

 ----------------------------------------------------------------------
 #t hf aug-cc-pvdz symm=none int=(grid=ultrafine) guess=(read,tcheck) s
 table=(opt,rrhf)
 ----------------------------------------------------------------------
 -----
 title
 -----
 Symbolic Z-matrix:
 Charge =  0 Multiplicity = 1

 SCF Done:  E(RHF) =  -291.220158913     A.U. after    9 cycles
 Normal termination of Gaussian 16 at Wed Apr  9 02:09:04 2025.
 Gaussian 16:  ES64L-G16RevC.01  3-Jul-2019

 ----------------------------------------------------------------------
 #t hf aug-cc-pvdz iop(5/13=1,5/36=2,99/5=2) pseudo=read geom=check gue
 ss=(read,tcheck) scf=(maxcycle=1)
 ----------------------------------------------------------------------
 -----
 title
 -----
 Structure from the checkpoint file:  "BzDC215_152_mol3.chk"
 Charge =  0 Multiplicity = 1

                         Standard orientation:
 ---------------------------------------------------------------------
 Center     Atomic      Atomic             Coordinates (Angstroms)
 Number     Number       Type             X           Y           Z
 ---------------------------------------------------------------------
      1         14           0        0.028050    0.000000   -0.028444
      2          1           0        0.388653    1.383627    0.327153
      3          1           0       -1.241790    0.000000   -0.775715
      4          1           0        1.254335   -0.798837   -0.198708
      5          1           0       -0.793892   -0.584790    1.045493
 ---------------------------------------------------------------------

 SCF Done:  E(RHF) =  -291.244656992     A.U. after    2 cycles

 The electronic state is 1-A.
 Alpha  occ. eigenvalues --  -69.06543  -6.81980  -3.92787  -3.92751  -3.92720
 Alpha  occ. eigenvalues --   -0.72051  -0.51713  -0.48831  -0.43734
 Alpha virt. eigenvalues --    0.03568   0.05694   0.06039   0.06224   0.08973
 Alpha virt. eigenvalues --    0.09308   0.09378   0.15218   0.16111   0.18527
 Alpha virt. eigenvalues --    0.19276   0.20129   0.20609   0.31315   0.34921

 Mulliken charges:
               1
     1  Si   0.289053
     2  H   -0.113062
     3  H   -0.018308
     4  H   -0.062710
     5  H   -0.094973
 Sum of Mulliken charges =   0.00000

 Dipole moment (field-independent basis, Debye):
    X=              0.6042    Y=             -0.0318    Z=             -0.5788  Tot=              0.8373

 Test job not archived.
 1\1\GINC-SE127\SP\RHF\Aug-CC-pVDZ\H4Si1\OHZDE\09-Apr-2025\0\\#t hf aug
 -cc-pvdz iop(5/13=1,5/36=2,99/5=2) pseudo=read geom=check guess=(read,
 tcheck) scf=(maxcycle=1)\\title\\0,1\Si,0,0.,0.,5.2\H,0,0.,0.,3.7266\H
 ,0,1.20302606,0.69456742,5.69113333\H,0,-1.38913484,0.,5.69113333\H,0,
 0.69456742,-1.20302606,5.69113333\\Version=ES64L-G16RevC.01\State=1-A\
 HF=-291.244657\RMSD=7.248e-03\Dipole=-0.2419182,0.2234047,0.0085352\Qu
 adrupole=0.113279,-0.1823692,0.0690902,-0.0527313,-0.1107419,0.1238433
 \PG=C01 [X(H4Si1)]\\@

 Normal termination of Gaussian 16 at Wed Apr  9 02:09:06 2025.
