 Gaussian 16, Revision C.01,

 ----------------------------------------------------------------------
 #t hf aug-cc-pvdz symm=none int=(grid=ultrafine) guess=(read,tcheck) s
 table=(opt,rrhf)
 ----------------------------------------------------------------------
 -----
 title
 -----
 Symbolic Z-matrix:
 Charge =  0 Multiplicity = 1

 SCF Done:  E(RHF) =  -521.940545315     A.U. after   13 cycles
 Normal termination of Gaussian 16 at Wed Apr  9 02:09:47 2025.
 Gaussian 16:  ES64L-G16RevC.01  3-Jul-2019

 ----------------------------------------------------------------------
 #t hf aug-cc-pvdz iop(5/13=1,5/36=2,99/5=2) pseudo=read geom=check gue
 ss=(read,tcheck) scf=(maxcycle=1)
 ----------------------------------------------------------------------
 -----
 title
 -----
 Structure from the checkpoint file:  "BzDC215_153_mol1.chk"
 Charge =  0 Multiplicity = 1

                         Standard orientation:
 ---------------------------------------------------------------------
 Center     Atomic      Atomic             Coordinates (Angstroms)
 Number     Number       Type             X           Y           Z
 ---------------------------------------------------------------------
      1          6           0       -1.091623   -1.397398    0.023868
      2          6           0       -1.116514   -0.717399   -1.189909
      3          6           0       -1.134922    0.673865   -1.207721
      4          6           0       -1.128440    1.385130   -0.011756
      5          6           0       -1.103549    0.705131    1.202020
      6          6           0       -1.085140   -0.686133    1.219833
      7          1           0       -1.077335   -2.477215    0.037692
      8          1           0       -1.121545   -1.269442   -2.118146
      9          1           0       -1.154241    1.201640   -2.149783
     10          1           0       -1.142727    2.464947   -0.025581
     11          1           0       -1.098518    1.257173    2.130258
     12          1           0       -1.065822   -1.213908    2.161894
     13         14           0        2.589331    0.042189   -0.042734
     14          1           0        1.116185    0.022946   -0.023305
     15          1           0        3.087254   -1.163229   -0.728261
     16          1           0        3.062003    1.437503   -0.066993
     17          1           0        3.105229   -0.630239    1.162503
 ---------------------------------------------------------------------

 SCF Done:  E(RHF) =  -522.033936701     A.U. after    2 cycles

 The electronic state is 1-A.
 Alpha  occ. eigenvalues --  -69.04737 -11.24764 -11.24712 -11.24708 -11.24594
 Alpha  occ. eigenvalues --  -11.24588 -11.24538  -6.80202  -3.91019  -3.90962
 Alpha  occ. eigenvalues --   -3.90955  -1.14633  -1.01363  -1.01361  -0.82962
 Alpha  occ. eigenvalues --   -0.82962  -0.71870  -0.70688  -0.64919  -0.62896
 Alpha  occ. eigenvalues --   -0.59610  -0.59608  -0.53159  -0.50356  -0.50132
 Alpha  occ. eigenvalues --   -0.50131  -0.44591  -0.42467  -0.34469  -0.34440
 Alpha virt. eigenvalues --    0.03222   0.04154   0.04188   0.04729   0.05632
 Alpha virt. eigenvalues --    0.05684   0.07092   0.07327   0.07578   0.07643
 Alpha virt. eigenvalues --    0.09521   0.09791   0.11480   0.11640   0.11771

 Mulliken charges:
               1
     1  C    0.514112
     2  C    0.493586
     3  C    0.507017
     4  C    0.441112
     5  C    0.557696
     6  C    0.483411
     7  H   -0.500347
     8  H   -0.507811
     9  H   -0.494909
    10  H   -0.507550
    11  H   -0.504835
    12  H   -0.508752
    13  Si  -0.086752
    14  H    0.156783
    15  H    0.017495
    16  H   -0.007410
    17  H   -0.052846
 Sum of Mulliken charges =  -0.00000

 Dipole moment (field-independent basis, Debye):
    X=             -0.5203    Y=              0.5544    Z=             -0.5263  Tot=              0.9247

 Test job not archived.
 1\1\GINC-SE273\SP\RHF\Aug-CC-pVDZ\C6H10Si1\OHZDE\09-Apr-2025\0\\#t hf
 aug-cc-pvdz iop(5/13=1,5/36=2,99/5=2) pseudo=read geom=check guess=(re
 ad,tcheck) scf=(maxcycle=1)\\title\\0,1\C,0,1.3915,0.,1.\C,0,0.69575,1
 .20507435,1.\C,0,-0.69575,1.20507435,1.\C,0,-1.3915,0.,1.\C,0,-0.69575
 ,-1.20507435,1.\C,0,0.69575,-1.20507435,1.\H,0,2.4715,0.,1.\H,0,1.2357
 5,2.14038179,1.\H,0,-1.23575,2.14038179,1.\H,0,-2.4715,0.,1.\H,0,-1.23
 575,-2.14038179,1.\H,0,1.23575,-2.14038179,1.\Si,0,0.,0.,4.7\H,0,0.,0.
 ,3.2266\H,0,1.20302606,0.69456742,5.19113333\H,0,-1.38913484,0.,5.1911

 Normal termination of Gaussian 16 at Wed Apr  9 02:09:54 2025.
