 Gaussian 16, Revision C.01,

 ----------------------------------------------------------------------
 #t hf aug-cc-pvdz symm=none int=(grid=ultrafine) guess=(read,tcheck) s
 table=(opt,rrhf)
 ----------------------------------------------------------------------
 -----
 title
 -----
 Symbolic Z-matrix:
 Charge =  0 Multiplicity = 1

 SCF Done:  E(RHF) =  -521.948162323     A.U. after   13 cycles
 Normal termination of Gaussian 16 at Wed Apr  9 02:10:44 2025.
 Gaussian 16:  ES64L-G16RevC.01  3-Jul-2019

 ----------------------------------------------------------------------
 #t hf aug-cc-pvdz iop(5/13=1,5/36=2,99/5=2) pseudo=read geom=check gue
 ss=(read,tcheck) scf=(maxcycle=1)
 ----------------------------------------------------------------------
 -----
 title
 -----
 Structure from the checkpoint file:  "BzDC215_163_mol1.chk"
 Charge =  0 Multiplicity = 1

                         Standard orientation:
 ---------------------------------------------------------------------
 Center     Atomic      Atomic             Coordinates (Angstroms)
 Number     Number       Type             X           Y           Z
 ---------------------------------------------------------------------
      1          6           0       -1.337229   -1.395271    0.019164
      2          6           0       -1.354626   -0.712928   -1.193428
      3          6           0       -1.367439    0.678429   -1.208709
      4          6           0       -1.362854    1.387443   -0.011400
      5          6           0       -1.345458    0.705100    1.201192
      6          6           0       -1.332645   -0.686257    1.216473
      7          1           0       -1.327285   -2.475160    0.031024
      8          1           0       -1.358184   -1.263223   -2.122709
      9          1           0       -1.380941    1.208023   -2.149851
     10          1           0       -1.372799    2.467332   -0.023260
     11          1           0       -1.341900    1.255394    2.130473
     12          1           0       -1.319143   -1.215852    2.157615
     13         14           0        3.149580    0.037065   -0.037613
     14          1           0        1.676304    0.023648   -0.024027
     15          1           0        3.645415   -1.169051   -0.723426
     16          1           0        3.627881    1.430530   -0.057397
     17          1           0        3.658039   -0.639645    1.168388
 ---------------------------------------------------------------------

 SCF Done:  E(RHF) =  -522.041733190     A.U. after    2 cycles

 The electronic state is 1-A.
 Alpha  occ. eigenvalues --  -69.05600 -11.24574 -11.24522 -11.24518 -11.24404
 Alpha  occ. eigenvalues --  -11.24400 -11.24349  -6.81040  -3.91853  -3.91807
 Alpha  occ. eigenvalues --   -3.91787  -1.14367  -1.01154  -1.01153  -0.82778
 Alpha  occ. eigenvalues --   -0.82778  -0.71639  -0.71195  -0.64748  -0.62720
 Alpha  occ. eigenvalues --   -0.59430  -0.59429  -0.51271  -0.50848  -0.49960
 Alpha  occ. eigenvalues --   -0.49959  -0.47227  -0.42998  -0.34145  -0.34139
 Alpha virt. eigenvalues --    0.03212   0.04142   0.04175   0.04568   0.05649
 Alpha virt. eigenvalues --    0.05718   0.06914   0.07036   0.07522   0.07618
 Alpha virt. eigenvalues --    0.09534   0.09903   0.11114   0.11198   0.12945

 Mulliken charges:
               1
     1  C    0.475588
     2  C    0.502394
     3  C    0.475185
     4  C    0.459640
     5  C    0.503535
     6  C    0.491624
     7  H   -0.481815
     8  H   -0.487123
     9  H   -0.477771
    10  H   -0.484294
    11  H   -0.480699
    12  H   -0.484732
    13  Si   0.056806
    14  H    0.032800
    15  H    0.003968
    16  H   -0.030613
    17  H   -0.074496
 Sum of Mulliken charges =  -0.00000

 Dipole moment (field-independent basis, Debye):
    X=             -0.2215    Y=              0.5729    Z=             -0.5421  Tot=              0.8193

 Test job not archived.
 1\1\GINC-SE071\SP\RHF\Aug-CC-pVDZ\C6H10Si1\OHZDE\09-Apr-2025\0\\#t hf
 aug-cc-pvdz iop(5/13=1,5/36=2,99/5=2) pseudo=read geom=check guess=(re
 ad,tcheck) scf=(maxcycle=1)\\title\\0,1\C,0,1.3915,0.,1.\C,0,0.69575,1
 .20507435,1.\C,0,-0.69575,1.20507435,1.\C,0,-1.3915,0.,1.\C,0,-0.69575
 ,-1.20507435,1.\C,0,0.69575,-1.20507435,1.\H,0,2.4715,0.,1.\H,0,1.2357
 5,2.14038179,1.\H,0,-1.23575,2.14038179,1.\H,0,-2.4715,0.,1.\H,0,-1.23
 575,-2.14038179,1.\H,0,1.23575,-2.14038179,1.\Si,0,0.,0.,5.5\H,0,0.,0.
 ,4.0266\H,0,1.20302606,0.69456742,5.99113333\H,0,-1.38913484,0.,5.9911

 Normal termination of Gaussian 16 at Wed Apr  9 02:10:50 2025.
