 Gaussian 16, Revision C.01,

 ----------------------------------------------------------------------
 #t hf aug-cc-pvdz symm=none int=(grid=ultrafine) guess=(read,tcheck) s
 table=(opt,rrhf)
 ----------------------------------------------------------------------
 -----
 title
 -----
 Symbolic Z-matrix:
 Charge =  0 Multiplicity = 1

 SCF Done:  E(RHF) =  -521.945630938     A.U. after   13 cycles
 Normal termination of Gaussian 16 at Wed Apr  9 02:10:36 2025.
 Gaussian 16:  ES64L-G16RevC.01  3-Jul-2019

 ----------------------------------------------------------------------
 #t hf aug-cc-pvdz iop(5/13=1,5/36=2,99/5=2) pseudo=read geom=check gue
 ss=(read,tcheck) scf=(maxcycle=1)
 ----------------------------------------------------------------------
 -----
 title
 -----
 Structure from the checkpoint file:  "BzDC215_156_mol1.chk"
 Charge =  0 Multiplicity = 1

                         Standard orientation:
 ---------------------------------------------------------------------
 Center     Atomic      Atomic             Coordinates (Angstroms)
 Number     Number       Type             X           Y           Z
 ---------------------------------------------------------------------
      1          6           0       -1.184254   -1.396390    0.021642
      2          6           0       -1.205640   -0.715279   -1.191578
      3          6           0       -1.221424    0.676032   -1.208195
      4          6           0       -1.215823    1.386232   -0.011593
      5          6           0       -1.194438    0.705121    1.201627
      6          6           0       -1.178653   -0.686190    1.218244
      7          1           0       -1.172003   -2.476244    0.034539
      8          1           0       -1.209987   -1.266494   -2.120310
      9          1           0       -1.238022    1.204671   -2.149825
     10          1           0       -1.228074    2.466086   -0.024491
     11          1           0       -1.190091    1.256336    2.130359
     12          1           0       -1.162055   -1.214829    2.159874
     13         14           0        2.799453    0.039754   -0.040305
     14          1           0        1.326240    0.023240   -0.023608
     15          1           0        3.296394   -1.165987   -0.725977
     16          1           0        3.274767    1.434205   -0.062460
     17          1           0        3.311873   -0.634695    1.165287
 ---------------------------------------------------------------------

 SCF Done:  E(RHF) =  -522.039002417     A.U. after    2 cycles

 The electronic state is 1-A.
 Alpha  occ. eigenvalues --  -69.05171 -11.24664 -11.24612 -11.24608 -11.24495
 Alpha  occ. eigenvalues --  -11.24489 -11.24438  -6.80619  -3.91435  -3.91385
 Alpha  occ. eigenvalues --   -3.91371  -1.14474  -1.01243  -1.01241  -0.82860
 Alpha  occ. eigenvalues --   -0.82859  -0.71730  -0.70912  -0.64826  -0.62798
 Alpha  occ. eigenvalues --   -0.59507  -0.59505  -0.52174  -0.50607  -0.50037
 Alpha  occ. eigenvalues --   -0.50035  -0.45928  -0.42724  -0.34288  -0.34274
 Alpha virt. eigenvalues --    0.03225   0.04154   0.04187   0.04657   0.05639
 Alpha virt. eigenvalues --    0.05699   0.07030   0.07220   0.07590   0.07615
 Alpha virt. eigenvalues --    0.09541   0.09861   0.11339   0.11448   0.12196

 Mulliken charges:
               1
     1  C    0.499872
     2  C    0.501341
     3  C    0.485690
     4  C    0.449096
     5  C    0.536470
     6  C    0.488657
     7  H   -0.494903
     8  H   -0.500791
     9  H   -0.487325
    10  H   -0.498767
    11  H   -0.496789
    12  H   -0.499582
    13  Si  -0.045254
    14  H    0.121839
    15  H    0.013826
    16  H   -0.014235
    17  H   -0.059146
 Sum of Mulliken charges =   0.00000

 Dipole moment (field-independent basis, Debye):
    X=             -0.3710    Y=              0.5627    Z=             -0.5335  Tot=              0.8596

 Test job not archived.
 1\1\GINC-SE024\SP\RHF\Aug-CC-pVDZ\C6H10Si1\OHZDE\09-Apr-2025\0\\#t hf
 aug-cc-pvdz iop(5/13=1,5/36=2,99/5=2) pseudo=read geom=check guess=(re
 ad,tcheck) scf=(maxcycle=1)\\title\\0,1\C,0,1.3915,0.,1.\C,0,0.69575,1
 .20507435,1.\C,0,-0.69575,1.20507435,1.\C,0,-1.3915,0.,1.\C,0,-0.69575
 ,-1.20507435,1.\C,0,0.69575,-1.20507435,1.\H,0,2.4715,0.,1.\H,0,1.2357
 5,2.14038179,1.\H,0,-1.23575,2.14038179,1.\H,0,-2.4715,0.,1.\H,0,-1.23
 575,-2.14038179,1.\H,0,1.23575,-2.14038179,1.\Si,0,0.,0.,5.\H,0,0.,0.,
 3.5266\H,0,1.20302606,0.69456742,5.49113333\H,0,-1.38913484,0.,5.49113

 Normal termination of Gaussian 16 at Wed Apr  9 02:10:42 2025.
