 Gaussian 16, Revision C.01,

 ----------------------------------------------------------------------
 #t hf aug-cc-pvdz symm=none int=(grid=ultrafine) guess=(read,tcheck) s
 table=(opt,rrhf)
 ----------------------------------------------------------------------
 -----
 title
 -----
 Symbolic Z-matrix:
 Charge =  0 Multiplicity = 1

 SCF Done:  E(RHF) =  -521.948606608     A.U. after   11 cycles
 Normal termination of Gaussian 16 at Wed Apr  9 02:10:58 2025.
 Gaussian 16:  ES64L-G16RevC.01  3-Jul-2019

 ----------------------------------------------------------------------
 #t hf aug-cc-pvdz iop(5/13=1,5/36=2,99/5=2) pseudo=read geom=check gue
 ss=(read,tcheck) scf=(maxcycle=1)
 ----------------------------------------------------------------------
 -----
 title
 -----
 Structure from the checkpoint file:  "BzDC215_168_mol1.chk"
 Charge =  0 Multiplicity = 1

                         Standard orientation:
 ---------------------------------------------------------------------
 Center     Atomic      Atomic             Coordinates (Angstroms)
 Number     Number       Type             X           Y           Z
 ---------------------------------------------------------------------
      1          6           0       -1.791729   -1.393663    0.015569
      2          6           0       -1.803043   -0.709540   -1.196092
      3          6           0       -1.811351    0.681871   -1.209417
      4          6           0       -1.808345    1.389160   -0.011083
      5          6           0       -1.797031    0.705037    1.200577
      6          6           0       -1.788723   -0.686374    1.213903
      7          1           0       -1.785281   -2.473594    0.025911
      8          1           0       -1.805377   -1.258496   -2.126168
      9          1           0       -1.820133    1.212847   -2.149836
     10          1           0       -1.814793    2.469091   -0.021425
     11          1           0       -1.794697    1.253993    2.130654
     12          1           0       -1.779941   -1.217349    2.154322
     13         14           0        4.199750    0.033228   -0.033750
     14          1           0        2.726402    0.024515   -0.024911
     15          1           0        4.693922   -1.173494   -0.719698
     16          1           0        4.682572    1.425178   -0.049999
     17          1           0        4.702161   -0.646828    1.172905
 ---------------------------------------------------------------------

 SCF Done:  E(RHF) =  -522.042742415     A.U. after    2 cycles

 The electronic state is 1-A.
 Alpha  occ. eigenvalues --  -69.06129 -11.24501 -11.24450 -11.24449 -11.24330
 Alpha  occ. eigenvalues --  -11.24329 -11.24279  -6.81565  -3.92374  -3.92335
 Alpha  occ. eigenvalues --   -3.92307  -1.14298  -1.01084  -1.01084  -0.82709
 Alpha  occ. eigenvalues --   -0.82709  -0.71649  -0.71572  -0.64679  -0.62652
 Alpha  occ. eigenvalues --   -0.59365  -0.59364  -0.51356  -0.50652  -0.49893
 Alpha  occ. eigenvalues --   -0.49893  -0.48309  -0.43382  -0.34052  -0.34051
 Alpha virt. eigenvalues --    0.03182   0.04108   0.04134   0.04375   0.05687
 Alpha virt. eigenvalues --    0.05756   0.06542   0.06575   0.07143   0.07638
 Alpha virt. eigenvalues --    0.09415   0.09762   0.10726   0.10811   0.11764

 Mulliken charges:
               1
     1  C    0.450882
     2  C    0.450157
     3  C    0.456008
     4  C    0.445922
     5  C    0.454908
     6  C    0.449916
     7  H   -0.450376
     8  H   -0.449457
     9  H   -0.452178
    10  H   -0.450643
    11  H   -0.450025
    12  H   -0.449130
    13  Si   0.200394
    14  H   -0.065360
    15  H   -0.006988
    16  H   -0.049267
    17  H   -0.084762
 Sum of Mulliken charges =  -0.00000

 Dipole moment (field-independent basis, Debye):
    X=             -0.0601    Y=              0.5907    Z=             -0.5567  Tot=              0.8139

 Test job not archived.
 1\1\GINC-SE227\SP\RHF\Aug-CC-pVDZ\C6H10Si1\OHZDE\09-Apr-2025\0\\#t hf
 aug-cc-pvdz iop(5/13=1,5/36=2,99/5=2) pseudo=read geom=check guess=(re
 ad,tcheck) scf=(maxcycle=1)\\title\\0,1\C,0,1.3915,0.,1.\C,0,0.69575,1
 .20507435,1.\C,0,-0.69575,1.20507435,1.\C,0,-1.3915,0.,1.\C,0,-0.69575
 ,-1.20507435,1.\C,0,0.69575,-1.20507435,1.\H,0,2.4715,0.,1.\H,0,1.2357
 5,2.14038179,1.\H,0,-1.23575,2.14038179,1.\H,0,-2.4715,0.,1.\H,0,-1.23
 575,-2.14038179,1.\H,0,1.23575,-2.14038179,1.\Si,0,0.,0.,7.\H,0,0.,0.,
 5.5266\H,0,1.20302606,0.69456742,7.49113333\H,0,-1.38913484,0.,7.49113

 Normal termination of Gaussian 16 at Wed Apr  9 02:11:04 2025.
