 Gaussian 16, Revision C.01,

 ----------------------------------------------------------------------
 #t hf aug-cc-pvdz symm=none int=(grid=ultrafine) guess=(read,tcheck) s
 table=(opt,rrhf)
 ----------------------------------------------------------------------
 -----
 title
 -----
 Symbolic Z-matrix:
 Charge =  0 Multiplicity = 1

 SCF Done:  E(RHF) =  -573.179837561     A.U. after   13 cycles
 Normal termination of Gaussian 16 at Wed Apr  9 02:09:28 2025.
 Gaussian 16:  ES64L-G16RevC.01  3-Jul-2019

 ----------------------------------------------------------------------
 #t hf aug-cc-pvdz iop(5/13=1,5/36=2,99/5=2) pseudo=read geom=check gue
 ss=(read,tcheck) scf=(maxcycle=1)
 ----------------------------------------------------------------------
 -----
 title
 -----
 Structure from the checkpoint file:  "BzDC215_147_mol1.chk"
 Charge =  0 Multiplicity = 1

                         Standard orientation:
 ---------------------------------------------------------------------
 Center     Atomic      Atomic             Coordinates (Angstroms)
 Number     Number       Type             X           Y           Z
 ---------------------------------------------------------------------
      1          6           0        1.587023    0.028086   -1.382864
      2          6           0        1.575808   -1.191848   -0.713604
      3          6           0        1.541221   -1.222163    0.677136
      4          6           0        1.517848   -0.032545    1.398616
      5          6           0        1.529063    1.187389    0.729357
      6          6           0        1.563650    1.217705   -0.661383
      7          1           0        1.613867    0.051615   -2.462273
      8          1           0        1.593949   -2.115159   -1.273575
      9          1           0        1.532517   -2.169003    1.196575
     10          1           0        1.491004   -0.056074    2.478026
     11          1           0        1.510922    2.110701    1.289327
     12          1           0        1.572354    2.164545   -1.180823
     13         15           0       -3.695875   -0.025872   -0.123163
     14          1           0       -2.285279   -0.019517   -0.087943
     15          1           0       -4.173906   -0.647225    1.050068
     16          1           0       -3.304982    1.148442    0.554518
 ---------------------------------------------------------------------

 SCF Done:  E(RHF) =  -573.271296589     A.U. after    2 cycles

 The electronic state is 1-A.
 Alpha  occ. eigenvalues --  -81.25183 -11.24699 -11.24649 -11.24647 -11.24529
 Alpha  occ. eigenvalues --  -11.24527 -11.24478  -7.75722  -4.89698  -4.89507
 Alpha  occ. eigenvalues --   -4.89344  -1.14495  -1.01289  -1.01287  -0.82904
 Alpha  occ. eigenvalues --   -0.82903  -0.80711  -0.71759  -0.64864  -0.62849
 Alpha  occ. eigenvalues --   -0.59558  -0.59555  -0.54833  -0.50855  -0.50084
 Alpha  occ. eigenvalues --   -0.50081  -0.46169  -0.36949  -0.34269  -0.34263
 Alpha virt. eigenvalues --    0.03095   0.04132   0.04180   0.04870   0.05679
 Alpha virt. eigenvalues --    0.05706   0.07574   0.08097   0.09405   0.09487
 Alpha virt. eigenvalues --    0.10385   0.10414   0.11281   0.12552   0.13602

 Mulliken charges:
               1
     1  C    0.447850
     2  C    0.471081
     3  C    0.437720
     4  C    0.499377
     5  C    0.423250
     6  C    0.510460
     7  H   -0.456613
     8  H   -0.456830
     9  H   -0.456301
    10  H   -0.464195
    11  H   -0.463501
    12  H   -0.463382
    13  P    0.002616
    14  H   -0.067814
    15  H    0.122615
    16  H   -0.086333
 Sum of Mulliken charges =  -0.00000

 Dipole moment (field-independent basis, Debye):
    X=              0.4378    Y=             -0.2333    Z=              0.5624  Tot=              0.7500

 Test job not archived.
 1\1\GINC-SE024\SP\RHF\Aug-CC-pVDZ\C6H9P1\OHZDE\09-Apr-2025\0\\#t hf au
 g-cc-pvdz iop(5/13=1,5/36=2,99/5=2) pseudo=read geom=check guess=(read
 ,tcheck) scf=(maxcycle=1)\\title\\0,1\C,0,1.3915,0.,1.\C,0,0.69575,1.2
 0507435,1.\C,0,-0.69575,1.20507435,1.\C,0,-1.3915,0.,1.\C,0,-0.69575,-
 1.20507435,1.\C,0,0.69575,-1.20507435,1.\H,0,2.4715,0.,1.\H,0,1.23575,
 2.14038179,1.\H,0,-1.23575,2.14038179,1.\H,0,-2.4715,0.,1.\H,0,-1.2357
 5,-2.14038179,1.\H,0,1.23575,-2.14038179,1.\P,0,0.,0.,6.25\H,0,0.,0.,4
 .83895\H,0,-1.19800816,0.59336739,6.70139084\H,0,-0.64201064,-1.186734

 Normal termination of Gaussian 16 at Wed Apr  9 02:09:33 2025.
