 Gaussian 16, Revision C.01,

 ----------------------------------------------------------------------
 #t hf aug-cc-pvdz symm=none int=(grid=ultrafine) guess=(read,tcheck) s
 table=(opt,rrhf)
 ----------------------------------------------------------------------
 -----
 title
 -----
 Symbolic Z-matrix:
 Charge =  0 Multiplicity = 1

 SCF Done:  E(RHF) =  -573.178037969     A.U. after   13 cycles
 Normal termination of Gaussian 16 at Wed Apr  9 02:08:38 2025.
 Gaussian 16:  ES64L-G16RevC.01  3-Jul-2019

 ----------------------------------------------------------------------
 #t hf aug-cc-pvdz iop(5/13=1,5/36=2,99/5=2) pseudo=read geom=check gue
 ss=(read,tcheck) scf=(maxcycle=1)
 ----------------------------------------------------------------------
 -----
 title
 -----
 Structure from the checkpoint file:  "BzDC215_138_mol1.chk"
 Charge =  0 Multiplicity = 1

                         Standard orientation:
 ---------------------------------------------------------------------
 Center     Atomic      Atomic             Coordinates (Angstroms)
 Number     Number       Type             X           Y           Z
 ---------------------------------------------------------------------
      1          6           0        1.231220    0.019321   -1.375499
      2          6           0        1.212157   -1.196487   -0.698950
      3          6           0        1.158406   -1.218292    0.691341
      4          6           0        1.123716   -0.024289    1.405081
      5          6           0        1.142779    1.191519    0.728532
      6          6           0        1.196531    1.213324   -0.661759
      7          1           0        1.272939    0.036245   -2.454561
      8          1           0        1.239081   -2.123201   -1.252913
      9          1           0        1.143610   -2.161930    1.216439
     10          1           0        1.081997   -0.041213    2.484143
     11          1           0        1.115855    2.118234    1.282495
     12          1           0        1.211326    2.156963   -1.186857
     13         15           0       -2.819462   -0.026011   -0.140109
     14          1           0       -1.409495   -0.017712   -0.085466
     15          1           0       -3.312937   -0.640724    1.030222
     16          1           0       -2.439302    1.152926    0.535649
 ---------------------------------------------------------------------

 SCF Done:  E(RHF) =  -573.268476918     A.U. after    2 cycles

 The electronic state is 1-A.
 Alpha  occ. eigenvalues --  -81.24383 -11.24924 -11.24871 -11.24860 -11.24755
 Alpha  occ. eigenvalues --  -11.24745 -11.24690  -7.74932  -4.88923  -4.88740
 Alpha  occ. eigenvalues --   -4.88573  -1.14729  -1.01518  -1.01510  -0.83113
 Alpha  occ. eigenvalues --   -0.83111  -0.80045  -0.71963  -0.65052  -0.63053
 Alpha  occ. eigenvalues --   -0.59756  -0.59747  -0.54699  -0.50889  -0.50279
 Alpha  occ. eigenvalues --   -0.50273  -0.45211  -0.36370  -0.34552  -0.34422
 Alpha virt. eigenvalues --    0.03141   0.04154   0.04207   0.05270   0.05659
 Alpha virt. eigenvalues --    0.05682   0.07533   0.08452   0.09124   0.09587
 Alpha virt. eigenvalues --    0.10153   0.10513   0.12297   0.12623   0.14187

 Mulliken charges:
               1
     1  C    0.434870
     2  C    0.498932
     3  C    0.440576
     4  C    0.527193
     5  C    0.448466
     6  C    0.511397
     7  H   -0.468100
     8  H   -0.461645
     9  H   -0.471316
    10  H   -0.476491
    11  H   -0.504868
    12  H   -0.475922
    13  P   -0.065340
    14  H    0.015992
    15  H    0.126294
    16  H   -0.080038
 Sum of Mulliken charges =  -0.00000

 Dipole moment (field-independent basis, Debye):
    X=              0.7152    Y=             -0.2642    Z=              0.5701  Tot=              0.9520

 Test job not archived.
 1\1\GINC-SE292\SP\RHF\Aug-CC-pVDZ\C6H9P1\OHZDE\09-Apr-2025\0\\#t hf au
 g-cc-pvdz iop(5/13=1,5/36=2,99/5=2) pseudo=read geom=check guess=(read
 ,tcheck) scf=(maxcycle=1)\\title\\0,1\C,0,1.3915,0.,1.\C,0,0.69575,1.2
 0507435,1.\C,0,-0.69575,1.20507435,1.\C,0,-1.3915,0.,1.\C,0,-0.69575,-
 1.20507435,1.\C,0,0.69575,-1.20507435,1.\H,0,2.4715,0.,1.\H,0,1.23575,
 2.14038179,1.\H,0,-1.23575,2.14038179,1.\H,0,-2.4715,0.,1.\H,0,-1.2357
 5,-2.14038179,1.\H,0,1.23575,-2.14038179,1.\P,0,0.,0.,5.\H,0,0.,0.,3.5
 8895\H,0,-1.19800816,0.59336739,5.45139084\H,0,-0.64201064,-1.18673478

 Normal termination of Gaussian 16 at Wed Apr  9 02:08:43 2025.
