 Gaussian 16, Revision C.01,

 ----------------------------------------------------------------------
 #t hf aug-cc-pvdz symm=none int=(grid=ultrafine) guess=(read,tcheck) s
 table=(opt,rrhf)
 ----------------------------------------------------------------------
 -----
 title
 -----
 Symbolic Z-matrix:
 Charge =  0 Multiplicity = 1

 SCF Done:  E(RHF) =  -573.171813069     A.U. after   14 cycles
 Normal termination of Gaussian 16 at Wed Apr  9 02:08:02 2025.
 Gaussian 16:  ES64L-G16RevC.01  3-Jul-2019

 ----------------------------------------------------------------------
 #t hf aug-cc-pvdz iop(5/13=1,5/36=2,99/5=2) pseudo=read geom=check gue
 ss=(read,tcheck) scf=(maxcycle=1)
 ----------------------------------------------------------------------
 -----
 title
 -----
 Structure from the checkpoint file:  "BzDC215_134_mol1.chk"
 Charge =  0 Multiplicity = 1

                         Standard orientation:
 ---------------------------------------------------------------------
 Center     Atomic      Atomic             Coordinates (Angstroms)
 Number     Number       Type             X           Y           Z
 ---------------------------------------------------------------------
      1          6           0        1.123656    0.018947   -1.370111
      2          6           0        1.099249   -1.196705   -0.693452
      3          6           0        1.033022   -1.218198    0.696305
      4          6           0        0.991201   -0.024039    1.409403
      5          6           0        1.015607    1.191612    0.732744
      6          6           0        1.081834    1.213106   -0.657013
      7          1           0        1.175058    0.035629   -2.448758
      8          1           0        1.131709   -2.123540   -1.246917
      9          1           0        1.014079   -2.161715    1.221487
     10          1           0        0.939799   -0.040721    2.488050
     11          1           0        0.983148    2.118448    1.286208
     12          1           0        1.100777    2.156623   -1.182196
     13         15           0       -2.538398   -0.025936   -0.152071
     14          1           0       -1.128984   -0.016768   -0.084765
     15          1           0       -3.041996   -0.640657    1.013934
     16          1           0       -2.165037    1.153399    0.526776
 ---------------------------------------------------------------------

 SCF Done:  E(RHF) =  -573.261980500     A.U. after    2 cycles

 The electronic state is 1-A.
 Alpha  occ. eigenvalues --  -81.23763 -11.25083 -11.25023 -11.25000 -11.24913
 Alpha  occ. eigenvalues --  -11.24889 -11.24821  -7.74335  -4.88335  -4.88158
 Alpha  occ. eigenvalues --   -4.87986  -1.14964  -1.01706  -1.01693  -0.83270
 Alpha  occ. eigenvalues --   -0.83267  -0.79699  -0.72143  -0.65190  -0.63203
 Alpha  occ. eigenvalues --   -0.59915  -0.59901  -0.55323  -0.50489  -0.50423
 Alpha  occ. eigenvalues --   -0.50416  -0.44414  -0.36210  -0.34746  -0.34279
 Alpha virt. eigenvalues --    0.03135   0.04149   0.04201   0.05429   0.05646
 Alpha virt. eigenvalues --    0.05668   0.07506   0.08530   0.09038   0.09525
 Alpha virt. eigenvalues --    0.09966   0.10570   0.12175   0.12953   0.14120

 Mulliken charges:
               1
     1  C    0.436559
     2  C    0.530996
     3  C    0.446146
     4  C    0.542293
     5  C    0.431747
     6  C    0.517453
     7  H   -0.478219
     8  H   -0.475499
     9  H   -0.482422
    10  H   -0.488429
    11  H   -0.504186
    12  H   -0.486291
    13  P   -0.165238
    14  H    0.114300
    15  H    0.121921
    16  H   -0.061131
 Sum of Mulliken charges =  -0.00000

 Dipole moment (field-independent basis, Debye):
    X=              0.9108    Y=             -0.2827    Z=              0.5806  Tot=              1.1164

 Test job not archived.
 1\1\GINC-SE127\SP\RHF\Aug-CC-pVDZ\C6H9P1\OHZDE\09-Apr-2025\0\\#t hf au
 g-cc-pvdz iop(5/13=1,5/36=2,99/5=2) pseudo=read geom=check guess=(read
 ,tcheck) scf=(maxcycle=1)\\title\\0,1\C,0,1.3915,0.,1.\C,0,0.69575,1.2
 0507435,1.\C,0,-0.69575,1.20507435,1.\C,0,-1.3915,0.,1.\C,0,-0.69575,-
 1.20507435,1.\C,0,0.69575,-1.20507435,1.\H,0,2.4715,0.,1.\H,0,1.23575,
 2.14038179,1.\H,0,-1.23575,2.14038179,1.\H,0,-2.4715,0.,1.\H,0,-1.2357
 5,-2.14038179,1.\H,0,1.23575,-2.14038179,1.\P,0,0.,0.,4.6\H,0,0.,0.,3.
 18895\H,0,-1.19800816,0.59336739,5.05139084\H,0,-0.64201064,-1.1867347

 Normal termination of Gaussian 16 at Wed Apr  9 02:08:08 2025.
