 Gaussian 16, Revision C.01,

 ----------------------------------------------------------------------
 #t hf aug-cc-pvdz symm=none int=(grid=ultrafine) guess=(read,tcheck) s
 table=(opt,rrhf)
 ----------------------------------------------------------------------
 -----
 title
 -----
 Symbolic Z-matrix:
 Charge =  0 Multiplicity = 1

 SCF Done:  E(RHF) =  -521.944404106     A.U. after   13 cycles
 Normal termination of Gaussian 16 at Wed Apr  9 02:09:59 2025.
 Gaussian 16:  ES64L-G16RevC.01  3-Jul-2019

 ----------------------------------------------------------------------
 #t hf aug-cc-pvdz iop(5/13=1,5/36=2,99/5=2) pseudo=read geom=check gue
 ss=(read,tcheck) scf=(maxcycle=1)
 ----------------------------------------------------------------------
 -----
 title
 -----
 Structure from the checkpoint file:  "BzDC215_155_mol1.chk"
 Charge =  0 Multiplicity = 1

                         Standard orientation:
 ---------------------------------------------------------------------
 Center     Atomic      Atomic             Coordinates (Angstroms)
 Number     Number       Type             X           Y           Z
 ---------------------------------------------------------------------
      1          6           0       -1.153471   -1.396689    0.022302
      2          6           0       -1.175902   -0.715907   -1.191084
      3          6           0       -1.192468    0.675391   -1.208056
      4          6           0       -1.186603    1.385907   -0.011642
      5          6           0       -1.164172    0.705125    1.201743
      6          6           0       -1.147605   -0.686173    1.218716
      7          1           0       -1.140613   -2.476532    0.035475
      8          1           0       -1.180454   -1.267367   -2.119669
      9          1           0       -1.209878    1.203774   -2.149814
     10          1           0       -1.199461    2.465750   -0.024815
     11          1           0       -1.159619    1.256585    2.130329
     12          1           0       -1.130195   -1.214556    2.160474
     13         14           0        2.729418    0.040474   -0.041025
     14          1           0        1.256224    0.023147   -0.023512
     15          1           0        3.226650   -1.165170   -0.726655
     16          1           0        3.203945    1.435183   -0.063806
     17          1           0        3.242876   -0.633375    1.164461
 ---------------------------------------------------------------------

 SCF Done:  E(RHF) =  -522.037770631     A.U. after    2 cycles

 The electronic state is 1-A.
 Alpha  occ. eigenvalues --  -69.05046 -11.24693 -11.24640 -11.24636 -11.24523
 Alpha  occ. eigenvalues --  -11.24517 -11.24466  -6.80498  -3.91315  -3.91263
 Alpha  occ. eigenvalues --   -3.91250  -1.14515  -1.01275  -1.01273  -0.82888
 Alpha  occ. eigenvalues --   -0.82887  -0.71766  -0.70842  -0.64852  -0.62824
 Alpha  occ. eigenvalues --   -0.59534  -0.59532  -0.52463  -0.50533  -0.50063
 Alpha  occ. eigenvalues --   -0.50061  -0.45538  -0.42649  -0.34338  -0.34320
 Alpha virt. eigenvalues --    0.03225   0.04155   0.04188   0.04679   0.05637
 Alpha virt. eigenvalues --    0.05695   0.07051   0.07256   0.07588   0.07623
 Alpha virt. eigenvalues --    0.09537   0.09843   0.11386   0.11509   0.12043

 Mulliken charges:
               1
     1  C    0.505549
     2  C    0.498859
     3  C    0.492006
     4  C    0.445940
     5  C    0.544376
     6  C    0.486815
     7  H   -0.497142
     8  H   -0.503311
     9  H   -0.489945
    10  H   -0.501806
    11  H   -0.499961
    12  H   -0.502785
    13  Si  -0.062305
    14  H    0.136454
    15  H    0.015323
    16  H   -0.011524
    17  H   -0.056544
 Sum of Mulliken charges =  -0.00000

 Dipole moment (field-independent basis, Debye):
    X=             -0.4145    Y=              0.5601    Z=             -0.5313  Tot=              0.8763

 Test job not archived.
 1\1\GINC-SE365\SP\RHF\Aug-CC-pVDZ\C6H10Si1\OHZDE\09-Apr-2025\0\\#t hf
 aug-cc-pvdz iop(5/13=1,5/36=2,99/5=2) pseudo=read geom=check guess=(re
 ad,tcheck) scf=(maxcycle=1)\\title\\0,1\C,0,1.3915,0.,1.\C,0,0.69575,1
 .20507435,1.\C,0,-0.69575,1.20507435,1.\C,0,-1.3915,0.,1.\C,0,-0.69575
 ,-1.20507435,1.\C,0,0.69575,-1.20507435,1.\H,0,2.4715,0.,1.\H,0,1.2357
 5,2.14038179,1.\H,0,-1.23575,2.14038179,1.\H,0,-2.4715,0.,1.\H,0,-1.23
 575,-2.14038179,1.\H,0,1.23575,-2.14038179,1.\Si,0,0.,0.,4.9\H,0,0.,0.
 ,3.4266\H,0,1.20302606,0.69456742,5.39113333\H,0,-1.38913484,0.,5.3911

 Normal termination of Gaussian 16 at Wed Apr  9 02:10:04 2025.
