 Gaussian 16, Revision C.01,

 ----------------------------------------------------------------------
 #t hf aug-cc-pvdz symm=none int=(grid=ultrafine) guess=(read,tcheck) s
 table=(opt,rrhf)
 ----------------------------------------------------------------------
 -----
 title
 -----
 Symbolic Z-matrix:
 Charge =  0 Multiplicity = 1

 SCF Done:  E(RHF) =  -690.821999243     A.U. after   11 cycles

 1\1\GINC-SE097\Stability\RHF\Aug-CC-pVDZ\C6H7Cl1\OHZDE\09-Apr-2025\0\\
 #t hf aug-cc-pvdz symm=none int=(grid=ultrafine) guess=(read,tcheck) s
 table=(opt,rrhf)\\title\\0,1\C,0,1.3915,0.,1.\C,0,0.69575,1.20507435,1
 .\C,0,-0.69575,1.20507435,1.\C,0,-1.3915,0.,1.\C,0,-0.69575,-1.2050743
 5,1.\C,0,0.69575,-1.20507435,1.\H,0,2.4715,0.,1.\H,0,1.23575,2.1403817
 9,1.\H,0,-1.23575,2.14038179,1.\H,0,-2.4715,0.,1.\H,0,-1.23575,-2.1403
 8179,1.\H,0,1.23575,-2.14038179,1.\Cl,0,0.,0.,7.\H,0,0.,0.,5.7253\\Ver
 sion=ES64L-G16RevC.01\HF=-690.8219992\RMSD=8.829e-09\Dipole=0.,0.,-0.5

 Normal termination of Gaussian 16 at Wed Apr  9 02:04:14 2025.
 Gaussian 16:  ES64L-G16RevC.01  3-Jul-2019

 ----------------------------------------------------------------------
 #t hf aug-cc-pvdz iop(5/13=1,5/36=2,99/5=2) pseudo=read geom=check gue
 ss=(read,tcheck) scf=(maxcycle=1)
 ----------------------------------------------------------------------
 -----
 title
 -----
 Structure from the checkpoint file:  "BzDC215_106_mol1.chk"
 Charge =  0 Multiplicity = 1

                         Standard orientation:
 ---------------------------------------------------------------------
 Center     Atomic      Atomic             Coordinates (Angstroms)
 Number     Number       Type             X           Y           Z
 ---------------------------------------------------------------------
      1          6           0        0.000000    1.391500   -1.778755
      2          6           0       -1.205074    0.695750   -1.778755
      3          6           0       -1.205074   -0.695750   -1.778755
      4          6           0       -0.000000   -1.391500   -1.778755
      5          6           0        1.205074   -0.695750   -1.778755
      6          6           0        1.205074    0.695750   -1.778755
      7          1           0        0.000000    2.471500   -1.778755
      8          1           0       -2.140382    1.235750   -1.778755
      9          1           0       -2.140382   -1.235750   -1.778755
     10          1           0       -0.000000   -2.471500   -1.778755
     11          1           0        2.140382   -1.235750   -1.778755
     12          1           0        2.140382    1.235750   -1.778755
     13         17           0        0.000000    0.000000    4.221245
     14          1           0        0.000000    0.000000    2.946545
 ---------------------------------------------------------------------

 SCF Done:  E(RHF) =  -690.911346438     A.U. after    2 cycles

 The electronic state is 1-A1.
 Alpha  occ. eigenvalues -- -103.67301 -11.24996 -11.24946 -11.24946 -11.24825
 Alpha  occ. eigenvalues --  -11.24825 -11.24777 -10.70565  -8.36330  -8.35998
 Alpha  occ. eigenvalues --   -8.35998  -1.15874  -1.14812  -1.01587  -1.01587
 Alpha  occ. eigenvalues --   -0.83199  -0.83199  -0.72059  -0.65149  -0.63492
 Alpha  occ. eigenvalues --   -0.63149  -0.59848  -0.59848  -0.51185  -0.50372
 Alpha  occ. eigenvalues --   -0.50372  -0.48574  -0.48574  -0.34576  -0.34576
 Alpha virt. eigenvalues --    0.03092   0.03988   0.03988   0.05395   0.05605
 Alpha virt. eigenvalues --    0.05605   0.07494   0.10144   0.10144   0.11394
 Alpha virt. eigenvalues --    0.12370   0.12370   0.13699   0.14290   0.14422

 Mulliken charges:
               1
     1  C    0.442027
     2  C    0.442027
     3  C    0.442027
     4  C    0.442027
     5  C    0.442027
     6  C    0.442027
     7  H   -0.441621
     8  H   -0.441621
     9  H   -0.441621
    10  H   -0.441621
    11  H   -0.441621
    12  H   -0.441621
    13  Cl  -0.100781
    14  H    0.098342
 Sum of Mulliken charges =  -0.00000

 Dipole moment (field-independent basis, Debye):
    X=             -0.0000    Y=             -0.0000    Z=             -1.4038  Tot=              1.4038

 Test job not archived.
 1\1\GINC-SE097\SP\RHF\Aug-CC-pVDZ\C6H7Cl1\OHZDE\09-Apr-2025\0\\#t hf a
 ug-cc-pvdz iop(5/13=1,5/36=2,99/5=2) pseudo=read geom=check guess=(rea
 d,tcheck) scf=(maxcycle=1)\\title\\0,1\C,0,1.3915,0.,1.\C,0,0.69575,1.
 20507435,1.\C,0,-0.69575,1.20507435,1.\C,0,-1.3915,0.,1.\C,0,-0.69575,
 -1.20507435,1.\C,0,0.69575,-1.20507435,1.\H,0,2.4715,0.,1.\H,0,1.23575
 ,2.14038179,1.\H,0,-1.23575,2.14038179,1.\H,0,-2.4715,0.,1.\H,0,-1.235
 75,-2.14038179,1.\H,0,1.23575,-2.14038179,1.\Cl,0,0.,0.,7.\H,0,0.,0.,5
 .7253\\Version=ES64L-G16RevC.01\State=1-A1\HF=-690.9113464\RMSD=9.675e

 Normal termination of Gaussian 16 at Wed Apr  9 02:04:18 2025.
