 Gaussian 16, Revision C.01,

 ----------------------------------------------------------------------
 #t hf aug-cc-pvdz symm=none int=(grid=ultrafine) guess=(read,tcheck) s
 table=(opt,rrhf)
 ----------------------------------------------------------------------
 -----
 title
 -----
 Symbolic Z-matrix:
 Charge =  0 Multiplicity = 1

 SCF Done:  E(RHF) =  -573.168731500     A.U. after   14 cycles
 Normal termination of Gaussian 16 at Wed Apr  9 02:07:26 2025.
 Gaussian 16:  ES64L-G16RevC.01  3-Jul-2019

 ----------------------------------------------------------------------
 #t hf aug-cc-pvdz iop(5/13=1,5/36=2,99/5=2) pseudo=read geom=check gue
 ss=(read,tcheck) scf=(maxcycle=1)
 ----------------------------------------------------------------------
 -----
 title
 -----
 Structure from the checkpoint file:  "BzDC215_133_mol1.chk"
 Charge =  0 Multiplicity = 1

                         Standard orientation:
 ---------------------------------------------------------------------
 Center     Atomic      Atomic             Coordinates (Angstroms)
 Number     Number       Type             X           Y           Z
 ---------------------------------------------------------------------
      1          6           0        1.097823    0.019217   -1.368230
      2          6           0        1.071595   -1.196570   -0.691884
      3          6           0        1.001176   -1.218346    0.697663
      4          6           0        0.956985   -0.024334    1.410863
      5          6           0        0.983213    1.191454    0.734516
      6          6           0        1.053631    1.213230   -0.655030
      7          1           0        1.152478    0.036118   -2.446714
      8          1           0        1.105894   -2.123292   -1.245428
      9          1           0        0.980820   -2.161968    1.222603
     10          1           0        0.902330   -0.041235    2.489346
     11          1           0        0.948914    2.118176    1.288060
     12          1           0        1.073987    2.156852   -1.179970
     13         15           0       -2.468014   -0.025900   -0.156189
     14          1           0       -1.058811   -0.016490   -0.084626
     15          1           0       -2.975018   -0.640940    1.008172
     16          1           0       -2.096919    1.153370    0.524011
 ---------------------------------------------------------------------

 SCF Done:  E(RHF) =  -573.258843971     A.U. after    2 cycles

 The electronic state is 1-A.
 Alpha  occ. eigenvalues --  -81.23548 -11.25136 -11.25073 -11.25046 -11.24964
 Alpha  occ. eigenvalues --  -11.24935 -11.24861  -7.74131  -4.88134  -4.87958
 Alpha  occ. eigenvalues --   -4.87786  -1.15059  -1.01774  -1.01759  -0.83325
 Alpha  occ. eigenvalues --   -0.83321  -0.79610  -0.72210  -0.65237  -0.63254
 Alpha  occ. eigenvalues --   -0.59973  -0.59957  -0.55594  -0.50475  -0.50466
 Alpha  occ. eigenvalues --   -0.50312  -0.44147  -0.36219  -0.34799  -0.34165
 Alpha virt. eigenvalues --    0.03131   0.04145   0.04197   0.05474   0.05642
 Alpha virt. eigenvalues --    0.05663   0.07498   0.08544   0.09020   0.09497
 Alpha virt. eigenvalues --    0.09903   0.10587   0.12119   0.13080   0.14096

 Mulliken charges:
               1
     1  C    0.439109
     2  C    0.539764
     3  C    0.448942
     4  C    0.546218
     5  C    0.430119
     6  C    0.518552
     7  H   -0.480202
     8  H   -0.479277
     9  H   -0.485348
    10  H   -0.491753
    11  H   -0.504010
    12  H   -0.488055
    13  P   -0.197941
    14  H    0.135704
    15  H    0.120882
    16  H   -0.052705
 Sum of Mulliken charges =  -0.00000

 Dipole moment (field-independent basis, Debye):
    X=              0.9738    Y=             -0.2875    Z=              0.5849  Tot=              1.1718

 Test job not archived.
 1\1\GINC-SE461\SP\RHF\Aug-CC-pVDZ\C6H9P1\OHZDE\09-Apr-2025\0\\#t hf au
 g-cc-pvdz iop(5/13=1,5/36=2,99/5=2) pseudo=read geom=check guess=(read
 ,tcheck) scf=(maxcycle=1)\\title\\0,1\C,0,1.3915,0.,1.\C,0,0.69575,1.2
 0507435,1.\C,0,-0.69575,1.20507435,1.\C,0,-1.3915,0.,1.\C,0,-0.69575,-
 1.20507435,1.\C,0,0.69575,-1.20507435,1.\H,0,2.4715,0.,1.\H,0,1.23575,
 2.14038179,1.\H,0,-1.23575,2.14038179,1.\H,0,-2.4715,0.,1.\H,0,-1.2357
 5,-2.14038179,1.\H,0,1.23575,-2.14038179,1.\P,0,0.,0.,4.5\H,0,0.,0.,3.
 08895\H,0,-1.19800816,0.59336739,4.95139084\H,0,-0.64201064,-1.1867347

 Normal termination of Gaussian 16 at Wed Apr  9 02:07:33 2025.
