 Gaussian 16, Revision C.01,

 ----------------------------------------------------------------------
 #t hf aug-cc-pvdz symm=none int=(grid=ultrafine) guess=(read,tcheck) s
 table=(opt,rrhf)
 ----------------------------------------------------------------------
 -----
 title
 -----
 Symbolic Z-matrix:
 Charge =  0 Multiplicity = 1

 SCF Done:  E(RHF) =  -342.450977231     A.U. after   11 cycles
 Normal termination of Gaussian 16 at Wed Apr  9 02:06:51 2025.
 Gaussian 16:  ES64L-G16RevC.01  3-Jul-2019

 ----------------------------------------------------------------------
 #t hf aug-cc-pvdz iop(5/13=1,5/36=2,99/5=2) pseudo=read geom=check gue
 ss=(read,tcheck) scf=(maxcycle=1)
 ----------------------------------------------------------------------
 -----
 title
 -----
 Structure from the checkpoint file:  "BzDC215_132_mol3.chk"
 Charge =  0 Multiplicity = 1

                         Standard orientation:
 ---------------------------------------------------------------------
 Center     Atomic      Atomic             Coordinates (Angstroms)
 Number     Number       Type             X           Y           Z
 ---------------------------------------------------------------------
      1         15           0       -0.049647   -0.101153   -0.068225
      2          1           0        1.090677   -0.156388    0.761035
      3          1           0       -1.060538    0.620091    0.601827
      4          1           0        0.714570    1.053597   -0.339492
 ---------------------------------------------------------------------

 SCF Done:  E(RHF) =  -342.473050098     A.U. after    2 cycles

 The electronic state is 1-A.
 Alpha  occ. eigenvalues --  -81.25824  -7.76363  -4.90332  -4.90138  -4.89969
 Alpha  occ. eigenvalues --   -0.81355  -0.55461  -0.46839  -0.37537
 Alpha virt. eigenvalues --    0.03416   0.06804   0.07732   0.09016   0.10462
 Alpha virt. eigenvalues --    0.10678   0.16802   0.19107   0.22071   0.23662
 Alpha virt. eigenvalues --    0.26498   0.26849   0.37507   0.38103   0.41184

 Mulliken charges:
               1
     1  P   -0.020416
     2  H   -0.025885
     3  H    0.125072
     4  H   -0.078771
 Sum of Mulliken charges =   0.00000

 Dipole moment (field-independent basis, Debye):
    X=             -0.0481    Y=              0.3721    Z=              0.5517  Tot=              0.6672

 Test job not archived.
 1\1\GINC-SE461\SP\RHF\Aug-CC-pVDZ\H3P1\OHZDE\09-Apr-2025\0\\#t hf aug-
 cc-pvdz iop(5/13=1,5/36=2,99/5=2) pseudo=read geom=check guess=(read,t
 check) scf=(maxcycle=1)\\title\\0,1\P,0,0.,0.,5.05\H,0,0.,0.,3.63895\H
 ,0,-1.19800816,0.59336739,5.50139084\H,0,-0.64201064,-1.18673478,4.637
 02904\\Version=ES64L-G16RevC.01\State=1-A\HF=-342.4730501\RMSD=1.607e-
 02\Dipole=-0.2265391,0.0789593,-0.1065155\Quadrupole=-0.6265333,0.3433
 19,0.2832143,-0.1340819,-0.8514235,0.4402112\PG=C01 [X(H3P1)]\\@

 Normal termination of Gaussian 16 at Wed Apr  9 02:06:52 2025.
