 Gaussian 16, Revision C.01,

 ----------------------------------------------------------------------
 #t hf aug-cc-pvdz symm=none int=(grid=ultrafine) guess=(read,tcheck) s
 table=(opt,rrhf)
 ----------------------------------------------------------------------
 -----
 title
 -----
 Symbolic Z-matrix:
 Charge =  0 Multiplicity = 1

 SCF Done:  E(RHF) =  -521.937636306     A.U. after   13 cycles
 Normal termination of Gaussian 16 at Wed Apr  9 02:09:32 2025.
 Gaussian 16:  ES64L-G16RevC.01  3-Jul-2019

 ----------------------------------------------------------------------
 #t hf aug-cc-pvdz iop(5/13=1,5/36=2,99/5=2) pseudo=read geom=check gue
 ss=(read,tcheck) scf=(maxcycle=1)
 ----------------------------------------------------------------------
 -----
 title
 -----
 Structure from the checkpoint file:  "BzDC215_152_mol1.chk"
 Charge =  0 Multiplicity = 1

                         Standard orientation:
 ---------------------------------------------------------------------
 Center     Atomic      Atomic             Coordinates (Angstroms)
 Number     Number       Type             X           Y           Z
 ---------------------------------------------------------------------
      1          6           0       -1.060522   -1.397823    0.024804
      2          6           0       -1.086873   -0.718295   -1.189205
      3          6           0       -1.106378    0.672948   -1.207519
      4          6           0       -1.099532    1.384662   -0.011823
      5          6           0       -1.073181    0.705134    1.202187
      6          6           0       -1.053676   -0.686109    1.220500
      7          1           0       -1.045383   -2.477624    0.039018
      8          1           0       -1.092186   -1.270685   -2.117233
      9          1           0       -1.126830    1.200358   -2.149761
     10          1           0       -1.114670    2.464463   -0.026037
     11          1           0       -1.067868    1.257524    2.130215
     12          1           0       -1.033224   -1.213519    2.162743
     13         14           0        2.519278    0.043220   -0.043760
     14          1           0        1.046162    0.022838   -0.023193
     15          1           0        3.017613   -1.162065   -0.729221
     16          1           0        2.990845    1.438892   -0.068898
     17          1           0        3.036622   -0.628360    1.161331
 ---------------------------------------------------------------------

 SCF Done:  E(RHF) =  -522.031049138     A.U. after    2 cycles

 The electronic state is 1-A.
 Alpha  occ. eigenvalues --  -69.04547 -11.24808 -11.24757 -11.24754 -11.24639
 Alpha  occ. eigenvalues --  -11.24632 -11.24583  -6.80021  -3.90839  -3.90779
 Alpha  occ. eigenvalues --   -3.90775  -1.14715  -1.01421  -1.01420  -0.83011
 Alpha  occ. eigenvalues --   -0.83010  -0.71945  -0.70605  -0.64963  -0.62942
 Alpha  occ. eigenvalues --   -0.59661  -0.59659  -0.53565  -0.50253  -0.50177
 Alpha  occ. eigenvalues --   -0.50176  -0.44030  -0.42353  -0.34553  -0.34515
 Alpha virt. eigenvalues --    0.03218   0.04153   0.04186   0.04758   0.05629
 Alpha virt. eigenvalues --    0.05678   0.07112   0.07361   0.07571   0.07654
 Alpha virt. eigenvalues --    0.09508   0.09757   0.11522   0.11655   0.11716

 Mulliken charges:
               1
     1  C    0.516355
     2  C    0.491443
     3  C    0.514851
     4  C    0.439952
     5  C    0.562305
     6  C    0.482253
     7  H   -0.501233
     8  H   -0.509677
     9  H   -0.496964
    10  H   -0.510071
    11  H   -0.506264
    12  H   -0.511244
    13  Si  -0.092816
    14  H    0.160250
    15  H    0.018376
    16  H   -0.005886
    17  H   -0.051630
 Sum of Mulliken charges =   0.00000

 Dipole moment (field-independent basis, Debye):
    X=             -0.5838    Y=              0.5511    Z=             -0.5234  Tot=              0.9584

 Test job not archived.
 1\1\GINC-SE292\SP\RHF\Aug-CC-pVDZ\C6H10Si1\OHZDE\09-Apr-2025\0\\#t hf
 aug-cc-pvdz iop(5/13=1,5/36=2,99/5=2) pseudo=read geom=check guess=(re
 ad,tcheck) scf=(maxcycle=1)\\title\\0,1\C,0,1.3915,0.,1.\C,0,0.69575,1
 .20507435,1.\C,0,-0.69575,1.20507435,1.\C,0,-1.3915,0.,1.\C,0,-0.69575
 ,-1.20507435,1.\C,0,0.69575,-1.20507435,1.\H,0,2.4715,0.,1.\H,0,1.2357
 5,2.14038179,1.\H,0,-1.23575,2.14038179,1.\H,0,-2.4715,0.,1.\H,0,-1.23
 575,-2.14038179,1.\H,0,1.23575,-2.14038179,1.\Si,0,0.,0.,4.6\H,0,0.,0.
 ,3.1266\H,0,1.20302606,0.69456742,5.09113333\H,0,-1.38913484,0.,5.0911

 Normal termination of Gaussian 16 at Wed Apr  9 02:09:38 2025.
