 Gaussian 16, Revision C.01,

 ----------------------------------------------------------------------
 #t hf aug-cc-pvdz symm=none int=(grid=ultrafine) guess=(read,tcheck) s
 table=(opt,rrhf)
 ----------------------------------------------------------------------
 -----
 title
 -----
 Symbolic Z-matrix:
 Charge =  0 Multiplicity = 1

 SCF Done:  E(RHF) =  -690.823052526     A.U. after   11 cycles

 1\1\GINC-SE345\Stability\RHF\Aug-CC-pVDZ\C6H7Cl1\OHZDE\09-Apr-2025\0\\
 #t hf aug-cc-pvdz symm=none int=(grid=ultrafine) guess=(read,tcheck) s
 table=(opt,rrhf)\\title\\0,1\C,0,1.3915,0.,1.\C,0,0.69575,1.20507435,1
 .\C,0,-0.69575,1.20507435,1.\C,0,-1.3915,0.,1.\C,0,-0.69575,-1.2050743
 5,1.\C,0,0.69575,-1.20507435,1.\H,0,2.4715,0.,1.\H,0,1.23575,2.1403817
 9,1.\H,0,-1.23575,2.14038179,1.\H,0,-2.4715,0.,1.\H,0,-1.23575,-2.1403
 8179,1.\H,0,1.23575,-2.14038179,1.\Cl,0,0.,0.,6.\H,0,0.,0.,4.7253\\Ver
 sion=ES64L-G16RevC.01\HF=-690.8230525\RMSD=8.798e-09\Dipole=0.,0.,-0.6

 Normal termination of Gaussian 16 at Wed Apr  9 02:03:12 2025.
 Gaussian 16:  ES64L-G16RevC.01  3-Jul-2019

 ----------------------------------------------------------------------
 #t hf aug-cc-pvdz iop(5/13=1,5/36=2,99/5=2) pseudo=read geom=check gue
 ss=(read,tcheck) scf=(maxcycle=1)
 ----------------------------------------------------------------------
 -----
 title
 -----
 Structure from the checkpoint file:  "BzDC215_104_mol1.chk"
 Charge =  0 Multiplicity = 1

                         Standard orientation:
 ---------------------------------------------------------------------
 Center     Atomic      Atomic             Coordinates (Angstroms)
 Number     Number       Type             X           Y           Z
 ---------------------------------------------------------------------
      1          6           0        0.000000    1.391500   -1.478755
      2          6           0       -1.205074    0.695750   -1.478755
      3          6           0       -1.205074   -0.695750   -1.478755
      4          6           0       -0.000000   -1.391500   -1.478755
      5          6           0        1.205074   -0.695750   -1.478755
      6          6           0        1.205074    0.695750   -1.478755
      7          1           0        0.000000    2.471500   -1.478755
      8          1           0       -2.140382    1.235750   -1.478755
      9          1           0       -2.140382   -1.235750   -1.478755
     10          1           0       -0.000000   -2.471500   -1.478755
     11          1           0        2.140382   -1.235750   -1.478755
     12          1           0        2.140382    1.235750   -1.478755
     13         17           0        0.000000    0.000000    3.521245
     14          1           0        0.000000    0.000000    2.246545
 ---------------------------------------------------------------------

 SCF Done:  E(RHF) =  -690.912094303     A.U. after    2 cycles

 The electronic state is 1-A1.
 Alpha  occ. eigenvalues -- -103.66951 -11.25219 -11.25169 -11.25169 -11.25048
 Alpha  occ. eigenvalues --  -11.25048 -11.25000 -10.70216  -8.35982  -8.35652
 Alpha  occ. eigenvalues --   -8.35652  -1.15527  -1.15051  -1.01813  -1.01813
 Alpha  occ. eigenvalues --   -0.83412  -0.83412  -0.72270  -0.65343  -0.63369
 Alpha  occ. eigenvalues --   -0.63128  -0.60057  -0.60057  -0.51448  -0.50576
 Alpha  occ. eigenvalues --   -0.50576  -0.48247  -0.48247  -0.34825  -0.34825
 Alpha virt. eigenvalues --    0.03185   0.04006   0.04006   0.05605   0.05605
 Alpha virt. eigenvalues --    0.06097   0.07492   0.09969   0.09969   0.12396
 Alpha virt. eigenvalues --    0.12783   0.12783   0.13558   0.14242   0.14395

 Mulliken charges:
               1
     1  C    0.452129
     2  C    0.452129
     3  C    0.452129
     4  C    0.452129
     5  C    0.452129
     6  C    0.452129
     7  H   -0.450831
     8  H   -0.450831
     9  H   -0.450831
    10  H   -0.450831
    11  H   -0.450831
    12  H   -0.450831
    13  Cl  -0.098774
    14  H    0.090984
 Sum of Mulliken charges =  -0.00000

 Dipole moment (field-independent basis, Debye):
    X=              0.0000    Y=              0.0000    Z=             -1.5301  Tot=              1.5301

 Test job not archived.
 1\1\GINC-SE345\SP\RHF\Aug-CC-pVDZ\C6H7Cl1\OHZDE\09-Apr-2025\0\\#t hf a
 ug-cc-pvdz iop(5/13=1,5/36=2,99/5=2) pseudo=read geom=check guess=(rea
 d,tcheck) scf=(maxcycle=1)\\title\\0,1\C,0,1.3915,0.,1.\C,0,0.69575,1.
 20507435,1.\C,0,-0.69575,1.20507435,1.\C,0,-1.3915,0.,1.\C,0,-0.69575,
 -1.20507435,1.\C,0,0.69575,-1.20507435,1.\H,0,2.4715,0.,1.\H,0,1.23575
 ,2.14038179,1.\H,0,-1.23575,2.14038179,1.\H,0,-2.4715,0.,1.\H,0,-1.235
 75,-2.14038179,1.\H,0,1.23575,-2.14038179,1.\Cl,0,0.,0.,6.\H,0,0.,0.,4
 .7253\\Version=ES64L-G16RevC.01\State=1-A1\HF=-690.9120943\RMSD=9.679e

 Normal termination of Gaussian 16 at Wed Apr  9 02:03:16 2025.
