 Gaussian 16, Revision C.01,

 ----------------------------------------------------------------------
 #t hf aug-cc-pvdz symm=none int=(grid=ultrafine) guess=(read,tcheck) s
 table=(opt,rrhf)
 ----------------------------------------------------------------------
 -----
 title
 -----
 Symbolic Z-matrix:
 Charge =  0 Multiplicity = 1

 SCF Done:  E(RHF) =  -690.814071630     A.U. after   11 cycles

 1\1\GINC-SE159\Stability\RHF\Aug-CC-pVDZ\C6H7Cl1\OHZDE\09-Apr-2025\0\\
 #t hf aug-cc-pvdz symm=none int=(grid=ultrafine) guess=(read,tcheck) s
 table=(opt,rrhf)\\title\\0,1\C,0,1.3915,0.,1.\C,0,0.69575,1.20507435,1
 .\C,0,-0.69575,1.20507435,1.\C,0,-1.3915,0.,1.\C,0,-0.69575,-1.2050743
 5,1.\C,0,0.69575,-1.20507435,1.\H,0,2.4715,0.,1.\H,0,1.23575,2.1403817
 9,1.\H,0,-1.23575,2.14038179,1.\H,0,-2.4715,0.,1.\H,0,-1.23575,-2.1403
 8179,1.\H,0,1.23575,-2.14038179,1.\Cl,0,0.,0.,4.2\H,0,0.,0.,2.9253\\Ve
 rsion=ES64L-G16RevC.01\HF=-690.8140716\RMSD=6.636e-09\Dipole=0.,0.,-0.

 Normal termination of Gaussian 16 at Wed Apr  9 02:11:31 2025.
 Gaussian 16:  ES64L-G16RevC.01  3-Jul-2019

 ----------------------------------------------------------------------
 #t hf aug-cc-pvdz iop(5/13=1,5/36=2,99/5=2) pseudo=read geom=check gue
 ss=(read,tcheck) scf=(maxcycle=1)
 ----------------------------------------------------------------------
 -----
 title
 -----
 Structure from the checkpoint file:  "BzDC215_90_mol1.chk"
 Charge =  0 Multiplicity = 1

                         Standard orientation:
 ---------------------------------------------------------------------
 Center     Atomic      Atomic             Coordinates (Angstroms)
 Number     Number       Type             X           Y           Z
 ---------------------------------------------------------------------
      1          6           0        0.000000    1.391500   -0.938755
      2          6           0       -1.205074    0.695750   -0.938755
      3          6           0       -1.205074   -0.695750   -0.938755
      4          6           0       -0.000000   -1.391500   -0.938755
      5          6           0        1.205074   -0.695750   -0.938755
      6          6           0        1.205074    0.695750   -0.938755
      7          1           0        0.000000    2.471500   -0.938755
      8          1           0       -2.140382    1.235750   -0.938755
      9          1           0       -2.140382   -1.235750   -0.938755
     10          1           0       -0.000000   -2.471500   -0.938755
     11          1           0        2.140382   -1.235750   -0.938755
     12          1           0        2.140382    1.235750   -0.938755
     13         17           0        0.000000    0.000000    2.261245
     14          1           0        0.000000    0.000000    0.986545
 ---------------------------------------------------------------------

 SCF Done:  E(RHF) =  -690.901989047     A.U. after    2 cycles

 The electronic state is 1-A1.
 Alpha  occ. eigenvalues -- -103.64407 -11.25944 -11.25897 -11.25897 -11.25775
 Alpha  occ. eigenvalues --  -11.25775 -11.25727 -10.67765  -8.33529  -8.33219
 Alpha  occ. eigenvalues --   -8.33219  -1.16392  -1.13329  -1.02661  -1.02661
 Alpha  occ. eigenvalues --   -0.84109  -0.84109  -0.73132  -0.65920  -0.64075
 Alpha  occ. eigenvalues --   -0.62728  -0.60786  -0.60786  -0.51225  -0.51225
 Alpha  occ. eigenvalues --   -0.50811  -0.46533  -0.46533  -0.35682  -0.35682
 Alpha virt. eigenvalues --    0.03248   0.04023   0.04023   0.05619   0.05619
 Alpha virt. eigenvalues --    0.07488   0.07582   0.09423   0.09423   0.11490
 Alpha virt. eigenvalues --    0.13289   0.13289   0.14183   0.14966   0.14966

 Mulliken charges:
               1
     1  C    0.443259
     2  C    0.443259
     3  C    0.443259
     4  C    0.443259
     5  C    0.443259
     6  C    0.443259
     7  H   -0.462074
     8  H   -0.462074
     9  H   -0.462074
    10  H   -0.462074
    11  H   -0.462074
    12  H   -0.462074
    13  Cl  -0.153756
    14  H    0.266645
 Sum of Mulliken charges =  -0.00000

 Dipole moment (field-independent basis, Debye):
    X=             -0.0000    Y=              0.0000    Z=             -2.1028  Tot=              2.1028

 Test job not archived.
 1\1\GINC-SE159\SP\RHF\Aug-CC-pVDZ\C6H7Cl1\OHZDE\09-Apr-2025\0\\#t hf a
 ug-cc-pvdz iop(5/13=1,5/36=2,99/5=2) pseudo=read geom=check guess=(rea
 d,tcheck) scf=(maxcycle=1)\\title\\0,1\C,0,1.3915,0.,1.\C,0,0.69575,1.
 20507435,1.\C,0,-0.69575,1.20507435,1.\C,0,-1.3915,0.,1.\C,0,-0.69575,
 -1.20507435,1.\C,0,0.69575,-1.20507435,1.\H,0,2.4715,0.,1.\H,0,1.23575
 ,2.14038179,1.\H,0,-1.23575,2.14038179,1.\H,0,-2.4715,0.,1.\H,0,-1.235
 75,-2.14038179,1.\H,0,1.23575,-2.14038179,1.\Cl,0,0.,0.,4.2\H,0,0.,0.,
 2.9253\\Version=ES64L-G16RevC.01\State=1-A1\HF=-690.901989\RMSD=9.837e

 Normal termination of Gaussian 16 at Wed Apr  9 02:11:37 2025.
