 Gaussian 16, Revision C.01,

 ----------------------------------------------------------------------
 #t hf aug-cc-pvdz symm=none int=(grid=ultrafine) guess=(read,tcheck) s
 table=(opt,rrhf)
 ----------------------------------------------------------------------
 -----
 title
 -----
 Symbolic Z-matrix:
 Charge =  0 Multiplicity = 1

 SCF Done:  E(RHF) =  -330.762382282     A.U. after   11 cycles
 Normal termination of Gaussian 16 at Wed Apr  9 02:11:19 2025.
 Gaussian 16:  ES64L-G16RevC.01  3-Jul-2019

 ----------------------------------------------------------------------
 #t hf aug-cc-pvdz iop(5/13=1,5/36=2,99/5=2) pseudo=read geom=check gue
 ss=(read,tcheck) scf=(maxcycle=1)
 ----------------------------------------------------------------------
 -----
 title
 -----
 Structure from the checkpoint file:  "BzDC215_2_mol1.chk"
 Charge =  0 Multiplicity = 1

                         Standard orientation:
 ---------------------------------------------------------------------
 Center     Atomic      Atomic             Coordinates (Angstroms)
 Number     Number       Type             X           Y           Z
 ---------------------------------------------------------------------
      1          6           0        0.000000    1.391500   -0.540059
      2          6           0       -1.205074    0.695750   -0.540059
      3          6           0       -1.205074   -0.695750   -0.540059
      4          6           0       -0.000000   -1.391500   -0.540059
      5          6           0        1.205074   -0.695750   -0.540059
      6          6           0        1.205074    0.695750   -0.540059
      7          1           0        0.000000    2.471500   -0.540059
      8          1           0       -2.140382    1.235750   -0.540059
      9          1           0       -2.140382   -1.235750   -0.540059
     10          1           0       -0.000000   -2.471500   -0.540059
     11          1           0        2.140382   -1.235750   -0.540059
     12          1           0        2.140382    1.235750   -0.540059
     13          9           0        0.000000    0.000000    2.359941
     14          1           0        0.000000    0.000000    1.442984
 ---------------------------------------------------------------------

 SCF Done:  E(RHF) =  -330.867746518     A.U. after    2 cycles

 The electronic state is 1-A1.
 Alpha  occ. eigenvalues --  -26.08537 -11.26158 -11.26108 -11.26108 -11.25986
 Alpha  occ. eigenvalues --  -11.25986 -11.25938  -1.62262  -1.16345  -1.02860
 Alpha  occ. eigenvalues --   -1.02860  -0.84297  -0.84297  -0.79806  -0.73181
 Alpha  occ. eigenvalues --   -0.67981  -0.67981  -0.66094  -0.64281  -0.60986
 Alpha  occ. eigenvalues --   -0.60986  -0.52630  -0.51417  -0.51417  -0.36007
 Alpha  occ. eigenvalues --   -0.36007
 Alpha virt. eigenvalues --    0.03209   0.03947   0.03947   0.05548   0.05548
 Alpha virt. eigenvalues --    0.07466   0.08862   0.09389   0.09389   0.11485
 Alpha virt. eigenvalues --    0.13123   0.13123   0.14129   0.14920   0.14920

 Mulliken charges:
               1
     1  C    0.436976
     2  C    0.436976
     3  C    0.436976
     4  C    0.436976
     5  C    0.436976
     6  C    0.436976
     7  H   -0.450323
     8  H   -0.450323
     9  H   -0.450323
    10  H   -0.450323
    11  H   -0.450323
    12  H   -0.450323
    13  F   -0.131025
    14  H    0.211106
 Sum of Mulliken charges =  -0.00000

 Dipole moment (field-independent basis, Debye):
    X=             -0.0000    Y=             -0.0000    Z=             -2.6585  Tot=              2.6585

 Test job not archived.
 1\1\GINC-SE127\SP\RHF\Aug-CC-pVDZ\C6H7F1\OHZDE\09-Apr-2025\0\\#t hf au
 g-cc-pvdz iop(5/13=1,5/36=2,99/5=2) pseudo=read geom=check guess=(read
 ,tcheck) scf=(maxcycle=1)\\title\\0,1\C,0,1.3915,0.,1.\C,0,0.69575,1.2
 0507435,1.\C,0,-0.69575,1.20507435,1.\C,0,-1.3915,0.,1.\C,0,-0.69575,-
 1.20507435,1.\C,0,0.69575,-1.20507435,1.\H,0,2.4715,0.,1.\H,0,1.23575,
 2.14038179,1.\H,0,-1.23575,2.14038179,1.\H,0,-2.4715,0.,1.\H,0,-1.2357
 5,-2.14038179,1.\H,0,1.23575,-2.14038179,1.\F,0,0.,0.,3.9\H,0,0.,0.,2.
 983042\\Version=ES64L-G16RevC.01\State=1-A1\HF=-330.8677465\RMSD=1.018

 Normal termination of Gaussian 16 at Wed Apr  9 02:11:23 2025.
