 Gaussian 16, Revision C.01,

 ----------------------------------------------------------------------
 #t hf aug-cc-pvdz symm=none int=(grid=ultrafine) guess=(read,tcheck) s
 table=(opt,rrhf)
 ----------------------------------------------------------------------
 -----
 title
 -----
 Symbolic Z-matrix:
 Charge =  0 Multiplicity = 1

 SCF Done:  E(RHF) =  -690.817403102     A.U. after   11 cycles

 1\1\GINC-SE041\Stability\RHF\Aug-CC-pVDZ\C6H7Cl1\OHZDE\09-Apr-2025\0\\
 #t hf aug-cc-pvdz symm=none int=(grid=ultrafine) guess=(read,tcheck) s
 table=(opt,rrhf)\\title\\0,1\C,0,1.3915,0.,1.\C,0,0.69575,1.20507435,1
 .\C,0,-0.69575,1.20507435,1.\C,0,-1.3915,0.,1.\C,0,-0.69575,-1.2050743
 5,1.\C,0,0.69575,-1.20507435,1.\H,0,2.4715,0.,1.\H,0,1.23575,2.1403817
 9,1.\H,0,-1.23575,2.14038179,1.\H,0,-2.4715,0.,1.\H,0,-1.23575,-2.1403
 8179,1.\H,0,1.23575,-2.14038179,1.\Cl,0,0.,0.,4.3\H,0,0.,0.,3.0253\\Ve
 rsion=ES64L-G16RevC.01\HF=-690.8174031\RMSD=6.868e-09\Dipole=0.,0.,-0.

 Normal termination of Gaussian 16 at Wed Apr  9 02:11:53 2025.
 Gaussian 16:  ES64L-G16RevC.01  3-Jul-2019

 ----------------------------------------------------------------------
 #t hf aug-cc-pvdz iop(5/13=1,5/36=2,99/5=2) pseudo=read geom=check gue
 ss=(read,tcheck) scf=(maxcycle=1)
 ----------------------------------------------------------------------
 -----
 title
 -----
 Structure from the checkpoint file:  "BzDC215_91_mol1.chk"
 Charge =  0 Multiplicity = 1

                         Standard orientation:
 ---------------------------------------------------------------------
 Center     Atomic      Atomic             Coordinates (Angstroms)
 Number     Number       Type             X           Y           Z
 ---------------------------------------------------------------------
      1          6           0        0.000000    1.391500   -0.968755
      2          6           0       -1.205074    0.695750   -0.968755
      3          6           0       -1.205074   -0.695750   -0.968755
      4          6           0       -0.000000   -1.391500   -0.968755
      5          6           0        1.205074   -0.695750   -0.968755
      6          6           0        1.205074    0.695750   -0.968755
      7          1           0        0.000000    2.471500   -0.968755
      8          1           0       -2.140382    1.235750   -0.968755
      9          1           0       -2.140382   -1.235750   -0.968755
     10          1           0       -0.000000   -2.471500   -0.968755
     11          1           0        2.140382   -1.235750   -0.968755
     12          1           0        2.140382    1.235750   -0.968755
     13         17           0        0.000000    0.000000    2.331245
     14          1           0        0.000000    0.000000    1.056545
 ---------------------------------------------------------------------

 SCF Done:  E(RHF) =  -690.905360297     A.U. after    2 cycles

 The electronic state is 1-A1.
 Alpha  occ. eigenvalues -- -103.64735 -11.25897 -11.25849 -11.25849 -11.25728
 Alpha  occ. eigenvalues --  -11.25728 -11.25680 -10.68073  -8.33837  -8.33525
 Alpha  occ. eigenvalues --   -8.33525  -1.16200  -1.13586  -1.02582  -1.02582
 Alpha  occ. eigenvalues --   -0.84055  -0.84055  -0.73028  -0.65879  -0.64023
 Alpha  occ. eigenvalues --   -0.62591  -0.60719  -0.60719  -0.51176  -0.51176
 Alpha  occ. eigenvalues --   -0.51119  -0.46681  -0.46681  -0.35643  -0.35643
 Alpha virt. eigenvalues --    0.03252   0.04026   0.04026   0.05620   0.05620
 Alpha virt. eigenvalues --    0.07490   0.07490   0.09469   0.09469   0.11632
 Alpha virt. eigenvalues --    0.13286   0.13286   0.14188   0.14975   0.14975

 Mulliken charges:
               1
     1  C    0.442747
     2  C    0.442747
     3  C    0.442747
     4  C    0.442747
     5  C    0.442747
     6  C    0.442747
     7  H   -0.460809
     8  H   -0.460809
     9  H   -0.460809
    10  H   -0.460809
    11  H   -0.460809
    12  H   -0.460809
    13  Cl  -0.145496
    14  H    0.253866
 Sum of Mulliken charges =   0.00000

 Dipole moment (field-independent basis, Debye):
    X=             -0.0000    Y=              0.0000    Z=             -2.0570  Tot=              2.0570

 Test job not archived.
 1\1\GINC-SE041\SP\RHF\Aug-CC-pVDZ\C6H7Cl1\OHZDE\09-Apr-2025\0\\#t hf a
 ug-cc-pvdz iop(5/13=1,5/36=2,99/5=2) pseudo=read geom=check guess=(rea
 d,tcheck) scf=(maxcycle=1)\\title\\0,1\C,0,1.3915,0.,1.\C,0,0.69575,1.
 20507435,1.\C,0,-0.69575,1.20507435,1.\C,0,-1.3915,0.,1.\C,0,-0.69575,
 -1.20507435,1.\C,0,0.69575,-1.20507435,1.\H,0,2.4715,0.,1.\H,0,1.23575
 ,2.14038179,1.\H,0,-1.23575,2.14038179,1.\H,0,-2.4715,0.,1.\H,0,-1.235
 75,-2.14038179,1.\H,0,1.23575,-2.14038179,1.\Cl,0,0.,0.,4.3\H,0,0.,0.,
 3.0253\\Version=ES64L-G16RevC.01\State=1-A1\HF=-690.9053603\RMSD=9.829

 Normal termination of Gaussian 16 at Wed Apr  9 02:11:58 2025.
