 Gaussian 16, Revision C.01,

 ----------------------------------------------------------------------
 #t hf aug-cc-pvdz symm=none int=(grid=ultrafine) guess=(read,tcheck) s
 table=(opt,rrhf)
 ----------------------------------------------------------------------
 -----
 title
 -----
 Symbolic Z-matrix:
 Charge =  0 Multiplicity = 1

 SCF Done:  E(RHF) =  -629.425303801     A.U. after   13 cycles
 Normal termination of Gaussian 16 at Wed Apr  9 02:06:23 2025.
 Gaussian 16:  ES64L-G16RevC.01  3-Jul-2019

 ----------------------------------------------------------------------
 #t hf aug-cc-pvdz iop(5/13=1,5/36=2,99/5=2) pseudo=read geom=check gue
 ss=(read,tcheck) scf=(maxcycle=1)
 ----------------------------------------------------------------------
 -----
 title
 -----
 Structure from the checkpoint file:  "BzDC215_115_mol1.chk"
 Charge =  0 Multiplicity = 1

                         Standard orientation:
 ---------------------------------------------------------------------
 Center     Atomic      Atomic             Coordinates (Angstroms)
 Number     Number       Type             X           Y           Z
 ---------------------------------------------------------------------
      1          6           0       -1.083246    1.406946    0.000000
      2          6           0       -1.083246    0.711196    1.205074
      3          6           0       -1.083246   -0.680304    1.205074
      4          6           0       -1.083246   -1.376054    0.000000
      5          6           0       -1.083246   -0.680304   -1.205074
      6          6           0       -1.083246    0.711196   -1.205074
      7          1           0       -1.083246    2.486946    0.000000
      8          1           0       -1.083246    1.251196    2.140382
      9          1           0       -1.083246   -1.220304    2.140382
     10          1           0       -1.083246   -2.456054    0.000000
     11          1           0       -1.083246   -1.220304   -2.140382
     12          1           0       -1.083246    1.251196   -2.140382
     13         16           0        2.616754    0.015446    0.000000
     14          1           0        2.295000   -1.280818    0.000000
     15          1           0        1.333279    0.384932    0.000000
 ---------------------------------------------------------------------

 SCF Done:  E(RHF) =  -629.515687226     A.U. after    2 cycles

 The electronic state is 1-A'.
 Alpha  occ. eigenvalues --  -93.52943 -11.25363 -11.25326 -11.25301 -11.25202
 Alpha  occ. eigenvalues --  -11.25180 -11.25143  -8.82763  -6.16963  -6.16756
 Alpha  occ. eigenvalues --   -6.16374  -1.15254  -1.02006  -1.01953  -0.95372
 Alpha  occ. eigenvalues --   -0.83550  -0.83541  -0.72412  -0.65451  -0.63498
 Alpha  occ. eigenvalues --   -0.60210  -0.60160  -0.57777  -0.52023  -0.50707
 Alpha  occ. eigenvalues --   -0.50679  -0.47355  -0.37087  -0.35112  -0.34594
 Alpha virt. eigenvalues --    0.03201   0.04003   0.04150   0.05571   0.05618
 Alpha virt. eigenvalues --    0.05942   0.07493   0.08294   0.09632   0.09808
 Alpha virt. eigenvalues --    0.11995   0.13162   0.13272   0.14015   0.14211

 Mulliken charges:
               1
     1  C    0.429722
     2  C    0.449561
     3  C    0.509763
     4  C    0.404865
     5  C    0.509763
     6  C    0.449561
     7  H   -0.456630
     8  H   -0.455653
     9  H   -0.473334
    10  H   -0.487453
    11  H   -0.473334
    12  H   -0.455653
    13  S   -0.005786
    14  H    0.024005
    15  H    0.030604
 Sum of Mulliken charges =  -0.00000

 Dipole moment (field-independent basis, Debye):
    X=             -1.5126    Y=             -0.4977    Z=              0.0000  Tot=              1.5923

 Test job not archived.
 1\1\GINC-SE024\SP\RHF\Aug-CC-pVDZ\C6H8S1\OHZDE\09-Apr-2025\0\\#t hf au
 g-cc-pvdz iop(5/13=1,5/36=2,99/5=2) pseudo=read geom=check guess=(read
 ,tcheck) scf=(maxcycle=1)\\title\\0,1\C,0,1.3915,0.,1.\C,0,0.69575,1.2
 0507435,1.\C,0,-0.69575,1.20507435,1.\C,0,-1.3915,0.,1.\C,0,-0.69575,-
 1.20507435,1.\C,0,0.69575,-1.20507435,1.\H,0,2.4715,0.,1.\H,0,1.23575,
 2.14038179,1.\H,0,-1.23575,2.14038179,1.\H,0,-2.4715,0.,1.\H,0,-1.2357
 5,-2.14038179,1.\H,0,1.23575,-2.14038179,1.\S,0,0.,0.,4.7\H,0,-1.29626
 462,0.,4.37824638\H,0,0.36948551,0.,3.4165251\\Version=ES64L-G16RevC.0

 Normal termination of Gaussian 16 at Wed Apr  9 02:06:27 2025.
