 Gaussian 16, Revision C.01,

 ----------------------------------------------------------------------
 #t hf aug-cc-pvdz symm=none int=(grid=ultrafine) guess=(read,tcheck) s
 table=(opt,rrhf)
 ----------------------------------------------------------------------
 -----
 title
 -----
 Symbolic Z-matrix:
 Charge =  0 Multiplicity = 1

 SCF Done:  E(RHF) =  -629.423880678     A.U. after   13 cycles
 Normal termination of Gaussian 16 at Wed Apr  9 02:05:53 2025.
 Gaussian 16:  ES64L-G16RevC.01  3-Jul-2019

 ----------------------------------------------------------------------
 #t hf aug-cc-pvdz iop(5/13=1,5/36=2,99/5=2) pseudo=read geom=check gue
 ss=(read,tcheck) scf=(maxcycle=1)
 ----------------------------------------------------------------------
 -----
 title
 -----
 Structure from the checkpoint file:  "BzDC215_113_mol1.chk"
 Charge =  0 Multiplicity = 1

                         Standard orientation:
 ---------------------------------------------------------------------
 Center     Atomic      Atomic             Coordinates (Angstroms)
 Number     Number       Type             X           Y           Z
 ---------------------------------------------------------------------
      1          6           0       -1.053246    1.406946    0.000000
      2          6           0       -1.053246    0.711196    1.205074
      3          6           0       -1.053246   -0.680304    1.205074
      4          6           0       -1.053246   -1.376054    0.000000
      5          6           0       -1.053246   -0.680304   -1.205074
      6          6           0       -1.053246    0.711196   -1.205074
      7          1           0       -1.053246    2.486946    0.000000
      8          1           0       -1.053246    1.251196    2.140382
      9          1           0       -1.053246   -1.220304    2.140382
     10          1           0       -1.053246   -2.456054    0.000000
     11          1           0       -1.053246   -1.220304   -2.140382
     12          1           0       -1.053246    1.251196   -2.140382
     13         16           0        2.546754    0.015446   -0.000000
     14          1           0        2.225000   -1.280818   -0.000000
     15          1           0        1.263279    0.384932   -0.000000
 ---------------------------------------------------------------------

 SCF Done:  E(RHF) =  -629.514142374     A.U. after    2 cycles

 The electronic state is 1-A'.
 Alpha  occ. eigenvalues --  -93.52750 -11.25406 -11.25371 -11.25343 -11.25246
 Alpha  occ. eigenvalues --  -11.25222 -11.25185  -8.82578  -6.16780  -6.16573
 Alpha  occ. eigenvalues --   -6.16192  -1.15324  -1.02065  -1.02003  -0.95247
 Alpha  occ. eigenvalues --   -0.83595  -0.83586  -0.72464  -0.65489  -0.63541
 Alpha  occ. eigenvalues --   -0.60259  -0.60203  -0.57820  -0.52099  -0.50749
 Alpha  occ. eigenvalues --   -0.50719  -0.47033  -0.37112  -0.35178  -0.34501
 Alpha virt. eigenvalues --    0.03201   0.04000   0.04150   0.05571   0.05615
 Alpha virt. eigenvalues --    0.05991   0.07490   0.08315   0.09568   0.09762
 Alpha virt. eigenvalues --    0.11918   0.13175   0.13285   0.13989   0.14195

 Mulliken charges:
               1
     1  C    0.422003
     2  C    0.447206
     3  C    0.513045
     4  C    0.403743
     5  C    0.513045
     6  C    0.447206
     7  H   -0.457807
     8  H   -0.455307
     9  H   -0.474800
    10  H   -0.487058
    11  H   -0.474800
    12  H   -0.455307
    13  S   -0.013862
    14  H    0.027959
    15  H    0.044734
 Sum of Mulliken charges =  -0.00000

 Dipole moment (field-independent basis, Debye):
    X=             -1.5594    Y=             -0.4940    Z=              0.0000  Tot=              1.6358

 Test job not archived.
 1\1\GINC-SE435\SP\RHF\Aug-CC-pVDZ\C6H8S1\OHZDE\09-Apr-2025\0\\#t hf au
 g-cc-pvdz iop(5/13=1,5/36=2,99/5=2) pseudo=read geom=check guess=(read
 ,tcheck) scf=(maxcycle=1)\\title\\0,1\C,0,1.3915,0.,1.\C,0,0.69575,1.2
 0507435,1.\C,0,-0.69575,1.20507435,1.\C,0,-1.3915,0.,1.\C,0,-0.69575,-
 1.20507435,1.\C,0,0.69575,-1.20507435,1.\H,0,2.4715,0.,1.\H,0,1.23575,
 2.14038179,1.\H,0,-1.23575,2.14038179,1.\H,0,-2.4715,0.,1.\H,0,-1.2357
 5,-2.14038179,1.\H,0,1.23575,-2.14038179,1.\S,0,0.,0.,4.6\H,0,-1.29626
 462,0.,4.27824638\H,0,0.36948551,0.,3.3165251\\Version=ES64L-G16RevC.0

 Normal termination of Gaussian 16 at Wed Apr  9 02:05:57 2025.
