 Gaussian 16, Revision C.01,

 ----------------------------------------------------------------------
 #t hf aug-cc-pvdz symm=none int=(grid=ultrafine) guess=(read,tcheck) s
 table=(opt,rrhf)
 ----------------------------------------------------------------------
 -----
 title
 -----
 Symbolic Z-matrix:
 Charge =  0 Multiplicity = 1

 SCF Done:  E(RHF) =  -629.415529788     A.U. after   13 cycles
 Normal termination of Gaussian 16 at Wed Apr  9 02:05:24 2025.
 Gaussian 16:  ES64L-G16RevC.01  3-Jul-2019

 ----------------------------------------------------------------------
 #t hf aug-cc-pvdz iop(5/13=1,5/36=2,99/5=2) pseudo=read geom=check gue
 ss=(read,tcheck) scf=(maxcycle=1)
 ----------------------------------------------------------------------
 -----
 title
 -----
 Structure from the checkpoint file:  "BzDC215_110_mol1.chk"
 Charge =  0 Multiplicity = 1

                         Standard orientation:
 ---------------------------------------------------------------------
 Center     Atomic      Atomic             Coordinates (Angstroms)
 Number     Number       Type             X           Y           Z
 ---------------------------------------------------------------------
      1          6           0       -0.963246    1.406946    0.000000
      2          6           0       -0.963246    0.711196    1.205074
      3          6           0       -0.963246   -0.680304    1.205074
      4          6           0       -0.963246   -1.376054    0.000000
      5          6           0       -0.963246   -0.680304   -1.205074
      6          6           0       -0.963246    0.711196   -1.205074
      7          1           0       -0.963246    2.486946    0.000000
      8          1           0       -0.963246    1.251196    2.140382
      9          1           0       -0.963246   -1.220304    2.140382
     10          1           0       -0.963246   -2.456054    0.000000
     11          1           0       -0.963246   -1.220304   -2.140382
     12          1           0       -0.963246    1.251196   -2.140382
     13         16           0        2.336754    0.015446   -0.000000
     14          1           0        2.015000   -1.280818   -0.000000
     15          1           0        1.053279    0.384932   -0.000000
 ---------------------------------------------------------------------

 SCF Done:  E(RHF) =  -629.505399215     A.U. after    2 cycles

 The electronic state is 1-A'.
 Alpha  occ. eigenvalues --  -93.51973 -11.25558 -11.25521 -11.25487 -11.25393
 Alpha  occ. eigenvalues --  -11.25364 -11.25330  -8.81841  -6.16050  -6.15844
 Alpha  occ. eigenvalues --   -6.15466  -1.15628  -1.02300  -1.02198  -0.94810
 Alpha  occ. eigenvalues --   -0.83764  -0.83752  -0.72677  -0.65629  -0.63700
 Alpha  occ. eigenvalues --   -0.60466  -0.60368  -0.58200  -0.52221  -0.50904
 Alpha  occ. eigenvalues --   -0.50867  -0.45746  -0.37396  -0.35391  -0.33963
 Alpha virt. eigenvalues --    0.03193   0.03987   0.04141   0.05566   0.05603
 Alpha virt. eigenvalues --    0.06153   0.07476   0.08387   0.09329   0.09589
 Alpha virt. eigenvalues --    0.11639   0.13271   0.13296   0.13949   0.14133

 Mulliken charges:
               1
     1  C    0.387087
     2  C    0.443047
     3  C    0.519529
     4  C    0.410605
     5  C    0.519529
     6  C    0.443047
     7  H   -0.460670
     8  H   -0.453101
     9  H   -0.474808
    10  H   -0.488842
    11  H   -0.474808
    12  H   -0.453101
    13  S   -0.048659
    14  H    0.043327
    15  H    0.087818
 Sum of Mulliken charges =  -0.00000

 Dipole moment (field-independent basis, Debye):
    X=             -1.7307    Y=             -0.4778    Z=             -0.0000  Tot=              1.7955

 Test job not archived.
 1\1\GINC-SE024\SP\RHF\Aug-CC-pVDZ\C6H8S1\OHZDE\09-Apr-2025\0\\#t hf au
 g-cc-pvdz iop(5/13=1,5/36=2,99/5=2) pseudo=read geom=check guess=(read
 ,tcheck) scf=(maxcycle=1)\\title\\0,1\C,0,1.3915,0.,1.\C,0,0.69575,1.2
 0507435,1.\C,0,-0.69575,1.20507435,1.\C,0,-1.3915,0.,1.\C,0,-0.69575,-
 1.20507435,1.\C,0,0.69575,-1.20507435,1.\H,0,2.4715,0.,1.\H,0,1.23575,
 2.14038179,1.\H,0,-1.23575,2.14038179,1.\H,0,-2.4715,0.,1.\H,0,-1.2357
 5,-2.14038179,1.\H,0,1.23575,-2.14038179,1.\S,0,0.,0.,4.3\H,0,-1.29626
 462,0.,3.97824638\H,0,0.36948551,0.,3.0165251\\Version=ES64L-G16RevC.0

 Normal termination of Gaussian 16 at Wed Apr  9 02:05:28 2025.
