 Gaussian 16, Revision C.01,

 ----------------------------------------------------------------------
 #t hf aug-cc-pvdz symm=none int=(grid=ultrafine) guess=(read,tcheck) s
 table=(opt,rrhf)
 ----------------------------------------------------------------------
 -----
 title
 -----
 Symbolic Z-matrix:
 Charge =  0 Multiplicity = 1

 SCF Done:  E(RHF) =  -330.759789904     A.U. after   11 cycles
 Normal termination of Gaussian 16 at Wed Apr  9 02:10:45 2025.
 Gaussian 16:  ES64L-G16RevC.01  3-Jul-2019

 ----------------------------------------------------------------------
 #t hf aug-cc-pvdz iop(5/13=1,5/36=2,99/5=2) pseudo=read geom=check gue
 ss=(read,tcheck) scf=(maxcycle=1)
 ----------------------------------------------------------------------
 -----
 title
 -----
 Structure from the checkpoint file:  "BzDC215_1_mol1.chk"
 Charge =  0 Multiplicity = 1

                         Standard orientation:
 ---------------------------------------------------------------------
 Center     Atomic      Atomic             Coordinates (Angstroms)
 Number     Number       Type             X           Y           Z
 ---------------------------------------------------------------------
      1          6           0        0.000000    1.391500   -0.520828
      2          6           0       -1.205074    0.695750   -0.520828
      3          6           0       -1.205074   -0.695750   -0.520828
      4          6           0       -0.000000   -1.391500   -0.520828
      5          6           0        1.205074   -0.695750   -0.520828
      6          6           0        1.205074    0.695750   -0.520828
      7          1           0        0.000000    2.471500   -0.520828
      8          1           0       -2.140382    1.235750   -0.520828
      9          1           0       -2.140382   -1.235750   -0.520828
     10          1           0       -0.000000   -2.471500   -0.520828
     11          1           0        2.140382   -1.235750   -0.520828
     12          1           0        2.140382    1.235750   -0.520828
     13          9           0        0.000000    0.000000    2.279172
     14          1           0        0.000000    0.000000    1.362214
 ---------------------------------------------------------------------

 SCF Done:  E(RHF) =  -330.864996040     A.U. after    2 cycles

 The electronic state is 1-A1.
 Alpha  occ. eigenvalues --  -26.08181 -11.26175 -11.26126 -11.26126 -11.26003
 Alpha  occ. eigenvalues --  -11.26003 -11.25955  -1.62010  -1.16447  -1.02911
 Alpha  occ. eigenvalues --   -1.02911  -0.84322  -0.84322  -0.79711  -0.73193
 Alpha  occ. eigenvalues --   -0.67731  -0.67731  -0.66107  -0.64304  -0.61028
 Alpha  occ. eigenvalues --   -0.61028  -0.52607  -0.51440  -0.51440  -0.36048
 Alpha  occ. eigenvalues --   -0.36048
 Alpha virt. eigenvalues --    0.03213   0.03954   0.03954   0.05552   0.05552
 Alpha virt. eigenvalues --    0.07469   0.08956   0.09384   0.09384   0.11363
 Alpha virt. eigenvalues --    0.13087   0.13087   0.14138   0.14924   0.14924

 Mulliken charges:
               1
     1  C    0.437332
     2  C    0.437332
     3  C    0.437332
     4  C    0.437332
     5  C    0.437332
     6  C    0.437332
     7  H   -0.451561
     8  H   -0.451561
     9  H   -0.451561
    10  H   -0.451561
    11  H   -0.451561
    12  H   -0.451561
    13  F   -0.139892
    14  H    0.225265
 Sum of Mulliken charges =   0.00000

 Dipole moment (field-independent basis, Debye):
    X=             -0.0000    Y=              0.0000    Z=             -2.6494  Tot=              2.6494

 Test job not archived.
 1\1\GINC-SE365\SP\RHF\Aug-CC-pVDZ\C6H7F1\OHZDE\09-Apr-2025\0\\#t hf au
 g-cc-pvdz iop(5/13=1,5/36=2,99/5=2) pseudo=read geom=check guess=(read
 ,tcheck) scf=(maxcycle=1)\\title\\0,1\C,0,1.3915,0.,1.\C,0,0.69575,1.2
 0507435,1.\C,0,-0.69575,1.20507435,1.\C,0,-1.3915,0.,1.\C,0,-0.69575,-
 1.20507435,1.\C,0,0.69575,-1.20507435,1.\H,0,2.4715,0.,1.\H,0,1.23575,
 2.14038179,1.\H,0,-1.23575,2.14038179,1.\H,0,-2.4715,0.,1.\H,0,-1.2357
 5,-2.14038179,1.\H,0,1.23575,-2.14038179,1.\F,0,0.,0.,3.8\H,0,0.,0.,2.
 883042\\Version=ES64L-G16RevC.01\State=1-A1\HF=-330.864996\RMSD=1.020e

 Normal termination of Gaussian 16 at Wed Apr  9 02:10:48 2025.
