 Gaussian 16, Revision C.01,

 ----------------------------------------------------------------------
 #t hf aug-cc-pvdz symm=none int=(grid=ultrafine) guess=(read,tcheck) s
 table=(opt,rrhf)
 ----------------------------------------------------------------------
 -----
 title
 -----
 Symbolic Z-matrix:
 Charge =  0 Multiplicity = 1

 SCF Done:  E(RHF) =  -629.427734161     A.U. after   13 cycles
 Normal termination of Gaussian 16 at Wed Apr  9 02:07:24 2025.
 Gaussian 16:  ES64L-G16RevC.01  3-Jul-2019

 ----------------------------------------------------------------------
 #t hf aug-cc-pvdz iop(5/13=1,5/36=2,99/5=2) pseudo=read geom=check gue
 ss=(read,tcheck) scf=(maxcycle=1)
 ----------------------------------------------------------------------
 -----
 title
 -----
 Structure from the checkpoint file:  "BzDC215_121_mol1.chk"
 Charge =  0 Multiplicity = 1

                         Standard orientation:
 ---------------------------------------------------------------------
 Center     Atomic      Atomic             Coordinates (Angstroms)
 Number     Number       Type             X           Y           Z
 ---------------------------------------------------------------------
      1          6           0       -1.203246    1.406946    0.000000
      2          6           0       -1.203246    0.711196    1.205074
      3          6           0       -1.203246   -0.680304    1.205074
      4          6           0       -1.203246   -1.376054    0.000000
      5          6           0       -1.203246   -0.680304   -1.205074
      6          6           0       -1.203246    0.711196   -1.205074
      7          1           0       -1.203246    2.486946    0.000000
      8          1           0       -1.203246    1.251196    2.140382
      9          1           0       -1.203246   -1.220304    2.140382
     10          1           0       -1.203246   -2.456054    0.000000
     11          1           0       -1.203246   -1.220304   -2.140382
     12          1           0       -1.203246    1.251196   -2.140382
     13         16           0        2.896754    0.015446    0.000000
     14          1           0        2.575000   -1.280818    0.000000
     15          1           0        1.613279    0.384932    0.000000
 ---------------------------------------------------------------------

 SCF Done:  E(RHF) =  -629.518574779     A.U. after    2 cycles

 The electronic state is 1-A'.
 Alpha  occ. eigenvalues --  -93.53500 -11.25215 -11.25175 -11.25157 -11.25053
 Alpha  occ. eigenvalues --  -11.25037 -11.24996  -8.83304  -6.17499  -6.17290
 Alpha  occ. eigenvalues --   -6.16905  -1.15054  -1.01828  -1.01796  -0.95783
 Alpha  occ. eigenvalues --   -0.83405  -0.83399  -0.72257  -0.65326  -0.63356
 Alpha  occ. eigenvalues --   -0.60059  -0.60027  -0.57835  -0.51685  -0.50571
 Alpha  occ. eigenvalues --   -0.50551  -0.48261  -0.37185  -0.34892  -0.34708
 Alpha virt. eigenvalues --    0.03188   0.04005   0.04146   0.05551   0.05626
 Alpha virt. eigenvalues --    0.05771   0.07504   0.08226   0.09833   0.09953
 Alpha virt. eigenvalues --    0.12166   0.13170   0.13229   0.14143   0.14259

 Mulliken charges:
               1
     1  C    0.441643
     2  C    0.461511
     3  C    0.488934
     4  C    0.429447
     5  C    0.488934
     6  C    0.461511
     7  H   -0.452386
     8  H   -0.457032
     9  H   -0.464956
    10  H   -0.488970
    11  H   -0.464956
    12  H   -0.457032
    13  S    0.006960
    14  H    0.013517
    15  H   -0.007126
 Sum of Mulliken charges =  -0.00000

 Dipole moment (field-independent basis, Debye):
    X=             -1.3636    Y=             -0.5072    Z=             -0.0000  Tot=              1.4549

 Test job not archived.
 1\1\GINC-SE024\SP\RHF\Aug-CC-pVDZ\C6H8S1\OHZDE\09-Apr-2025\0\\#t hf au
 g-cc-pvdz iop(5/13=1,5/36=2,99/5=2) pseudo=read geom=check guess=(read
 ,tcheck) scf=(maxcycle=1)\\title\\0,1\C,0,1.3915,0.,1.\C,0,0.69575,1.2
 0507435,1.\C,0,-0.69575,1.20507435,1.\C,0,-1.3915,0.,1.\C,0,-0.69575,-
 1.20507435,1.\C,0,0.69575,-1.20507435,1.\H,0,2.4715,0.,1.\H,0,1.23575,
 2.14038179,1.\H,0,-1.23575,2.14038179,1.\H,0,-2.4715,0.,1.\H,0,-1.2357
 5,-2.14038179,1.\H,0,1.23575,-2.14038179,1.\S,0,0.,0.,5.1\H,0,-1.29626
 462,0.,4.77824638\H,0,0.36948551,0.,3.8165251\\Version=ES64L-G16RevC.0

 Normal termination of Gaussian 16 at Wed Apr  9 02:07:27 2025.
