 Gaussian 16, Revision C.01,

 ----------------------------------------------------------------------
 #t hf aug-cc-pvdz symm=none int=(grid=ultrafine) guess=(read,tcheck) s
 table=(opt,rrhf)
 ----------------------------------------------------------------------
 -----
 title
 -----
 Symbolic Z-matrix:
 Charge =  0 Multiplicity = 1

 SCF Done:  E(RHF) =  -629.421901830     A.U. after   13 cycles
 Normal termination of Gaussian 16 at Wed Apr  9 02:05:36 2025.
 Gaussian 16:  ES64L-G16RevC.01  3-Jul-2019

 ----------------------------------------------------------------------
 #t hf aug-cc-pvdz iop(5/13=1,5/36=2,99/5=2) pseudo=read geom=check gue
 ss=(read,tcheck) scf=(maxcycle=1)
 ----------------------------------------------------------------------
 -----
 title
 -----
 Structure from the checkpoint file:  "BzDC215_112_mol1.chk"
 Charge =  0 Multiplicity = 1

                         Standard orientation:
 ---------------------------------------------------------------------
 Center     Atomic      Atomic             Coordinates (Angstroms)
 Number     Number       Type             X           Y           Z
 ---------------------------------------------------------------------
      1          6           0       -1.023246    1.406946    0.000000
      2          6           0       -1.023246    0.711196    1.205074
      3          6           0       -1.023246   -0.680304    1.205074
      4          6           0       -1.023246   -1.376054   -0.000000
      5          6           0       -1.023246   -0.680304   -1.205074
      6          6           0       -1.023246    0.711196   -1.205074
      7          1           0       -1.023246    2.486946    0.000000
      8          1           0       -1.023246    1.251196    2.140382
      9          1           0       -1.023246   -1.220304    2.140382
     10          1           0       -1.023246   -2.456054   -0.000000
     11          1           0       -1.023246   -1.220304   -2.140382
     12          1           0       -1.023246    1.251196   -2.140382
     13         16           0        2.476754    0.015446    0.000000
     14          1           0        2.155000   -1.280818   -0.000000
     15          1           0        1.193279    0.384932    0.000000
 ---------------------------------------------------------------------

 SCF Done:  E(RHF) =  -629.512037159     A.U. after    2 cycles

 The electronic state is 1-A'.
 Alpha  occ. eigenvalues --  -93.52527 -11.25452 -11.25418 -11.25387 -11.25292
 Alpha  occ. eigenvalues --  -11.25266 -11.25230  -8.82366  -6.16569  -6.16363
 Alpha  occ. eigenvalues --   -6.15982  -1.15407  -1.02132  -1.02060  -0.95111
 Alpha  occ. eigenvalues --   -0.83645  -0.83635  -0.72524  -0.65531  -0.63589
 Alpha  occ. eigenvalues --   -0.60317  -0.60251  -0.57901  -0.52161  -0.50795
 Alpha  occ. eigenvalues --   -0.50763  -0.46661  -0.37168  -0.35247  -0.34369
 Alpha virt. eigenvalues --    0.03200   0.03997   0.04148   0.05571   0.05612
 Alpha virt. eigenvalues --    0.06043   0.07486   0.08337   0.09497   0.09711
 Alpha virt. eigenvalues --    0.11831   0.13199   0.13293   0.13969   0.14177

 Mulliken charges:
               1
     1  C    0.412115
     2  C    0.445362
     3  C    0.515459
     4  C    0.404826
     5  C    0.515459
     6  C    0.445362
     7  H   -0.458864
     8  H   -0.454799
     9  H   -0.475624
    10  H   -0.487134
    11  H   -0.475624
    12  H   -0.454799
    13  S   -0.023934
    14  H    0.032514
    15  H    0.059683
 Sum of Mulliken charges =  -0.00000

 Dipole moment (field-independent basis, Debye):
    X=             -1.6110    Y=             -0.4896    Z=              0.0000  Tot=              1.6837

 Test job not archived.
 1\1\GINC-SE069\SP\RHF\Aug-CC-pVDZ\C6H8S1\OHZDE\09-Apr-2025\0\\#t hf au
 g-cc-pvdz iop(5/13=1,5/36=2,99/5=2) pseudo=read geom=check guess=(read
 ,tcheck) scf=(maxcycle=1)\\title\\0,1\C,0,1.3915,0.,1.\C,0,0.69575,1.2
 0507435,1.\C,0,-0.69575,1.20507435,1.\C,0,-1.3915,0.,1.\C,0,-0.69575,-
 1.20507435,1.\C,0,0.69575,-1.20507435,1.\H,0,2.4715,0.,1.\H,0,1.23575,
 2.14038179,1.\H,0,-1.23575,2.14038179,1.\H,0,-2.4715,0.,1.\H,0,-1.2357
 5,-2.14038179,1.\H,0,1.23575,-2.14038179,1.\S,0,0.,0.,4.5\H,0,-1.29626
 462,0.,4.17824638\H,0,0.36948551,0.,3.2165251\\Version=ES64L-G16RevC.0

 Normal termination of Gaussian 16 at Wed Apr  9 02:05:40 2025.
