 Gaussian 16, Revision C.01,

 ----------------------------------------------------------------------
 #t hf aug-cc-pvdz symm=none int=(grid=ultrafine) guess=(read,tcheck) s
 table=(opt,rrhf)
 ----------------------------------------------------------------------
 -----
 title
 -----
 Symbolic Z-matrix:
 Charge =  0 Multiplicity = 1

 SCF Done:  E(RHF) =  -573.178691742     A.U. after   13 cycles
 Normal termination of Gaussian 16 at Wed Apr  9 02:08:54 2025.
 Gaussian 16:  ES64L-G16RevC.01  3-Jul-2019

 ----------------------------------------------------------------------
 #t hf aug-cc-pvdz iop(5/13=1,5/36=2,99/5=2) pseudo=read geom=check gue
 ss=(read,tcheck) scf=(maxcycle=1)
 ----------------------------------------------------------------------
 -----
 title
 -----
 Structure from the checkpoint file:  "BzDC215_140_mol1.chk"
 Charge =  0 Multiplicity = 1

                         Standard orientation:
 ---------------------------------------------------------------------
 Center     Atomic      Atomic             Coordinates (Angstroms)
 Number     Number       Type             X           Y           Z
 ---------------------------------------------------------------------
      1          6           0        1.258856    0.019696   -1.376479
      2          6           0        1.240791   -1.196286   -0.700215
      3          6           0        1.189405   -1.218448    0.690159
      4          6           0        1.156084   -0.024627    1.404269
      5          6           0        1.174150    1.191355    0.728006
      6          6           0        1.225536    1.213517   -0.662369
      7          1           0        1.298739    0.036896   -2.455605
      8          1           0        1.266652   -2.122860   -1.254466
      9          1           0        1.175383   -2.162222    1.215035
     10          1           0        1.116202   -0.041827    2.483396
     11          1           0        1.148289    2.117928    1.282256
     12          1           0        1.239558    2.157290   -1.187245
     13         15           0       -2.889651   -0.026017   -0.137903
     14          1           0       -1.479592   -0.017912   -0.085661
     15          1           0       -3.381210   -0.640972    1.033106
     16          1           0       -2.508190    1.152695    0.537513
 ---------------------------------------------------------------------

 SCF Done:  E(RHF) =  -573.269217202     A.U. after    2 cycles

 The electronic state is 1-A.
 Alpha  occ. eigenvalues --  -81.24493 -11.24894 -11.24842 -11.24833 -11.24725
 Alpha  occ. eigenvalues --  -11.24717 -11.24663  -7.75040  -4.89028  -4.88844
 Alpha  occ. eigenvalues --   -4.88678  -1.14693  -1.01487  -1.01479  -0.83085
 Alpha  occ. eigenvalues --   -0.83083  -0.80122  -0.71934  -0.65028  -0.63026
 Alpha  occ. eigenvalues --   -0.59729  -0.59721  -0.54639  -0.50926  -0.50253
 Alpha  occ. eigenvalues --   -0.50248  -0.45352  -0.36429  -0.34513  -0.34418
 Alpha virt. eigenvalues --    0.03140   0.04153   0.04207   0.05235   0.05662
 Alpha virt. eigenvalues --    0.05685   0.07538   0.08428   0.09151   0.09591
 Alpha virt. eigenvalues --    0.10188   0.10501   0.12235   0.12654   0.14193

 Mulliken charges:
               1
     1  C    0.435876
     2  C    0.493164
     3  C    0.440397
     4  C    0.523799
     5  C    0.452085
     6  C    0.510052
     7  H   -0.465818
     8  H   -0.459449
     9  H   -0.469236
    10  H   -0.474519
    11  H   -0.503812
    12  H   -0.473435
    13  P   -0.049889
    14  H   -0.004549
    15  H    0.127202
    16  H   -0.081866
 Sum of Mulliken charges =   0.00000

 Dipole moment (field-independent basis, Debye):
    X=              0.6782    Y=             -0.2602    Z=              0.5686  Tot=              0.9225

 Test job not archived.
 1\1\GINC-SE366\SP\RHF\Aug-CC-pVDZ\C6H9P1\OHZDE\09-Apr-2025\0\\#t hf au
 g-cc-pvdz iop(5/13=1,5/36=2,99/5=2) pseudo=read geom=check guess=(read
 ,tcheck) scf=(maxcycle=1)\\title\\0,1\C,0,1.3915,0.,1.\C,0,0.69575,1.2
 0507435,1.\C,0,-0.69575,1.20507435,1.\C,0,-1.3915,0.,1.\C,0,-0.69575,-
 1.20507435,1.\C,0,0.69575,-1.20507435,1.\H,0,2.4715,0.,1.\H,0,1.23575,
 2.14038179,1.\H,0,-1.23575,2.14038179,1.\H,0,-2.4715,0.,1.\H,0,-1.2357
 5,-2.14038179,1.\H,0,1.23575,-2.14038179,1.\P,0,0.,0.,5.1\H,0,0.,0.,3.
 68895\H,0,-1.19800816,0.59336739,5.55139084\H,0,-0.64201064,-1.1867347

 Normal termination of Gaussian 16 at Wed Apr  9 02:08:59 2025.
