 Gaussian 16, Revision C.01,

 ----------------------------------------------------------------------
 #t hf aug-cc-pvdz symm=none int=(grid=ultrafine) guess=(read,tcheck) s
 table=(opt,rrhf)
 ----------------------------------------------------------------------
 -----
 title
 -----
 Symbolic Z-matrix:
 Charge =  0 Multiplicity = 1

 SCF Done:  E(RHF) =  -629.419192391     A.U. after   13 cycles
 Normal termination of Gaussian 16 at Wed Apr  9 02:05:24 2025.
 Gaussian 16:  ES64L-G16RevC.01  3-Jul-2019

 ----------------------------------------------------------------------
 #t hf aug-cc-pvdz iop(5/13=1,5/36=2,99/5=2) pseudo=read geom=check gue
 ss=(read,tcheck) scf=(maxcycle=1)
 ----------------------------------------------------------------------
 -----
 title
 -----
 Structure from the checkpoint file:  "BzDC215_111_mol1.chk"
 Charge =  0 Multiplicity = 1

                         Standard orientation:
 ---------------------------------------------------------------------
 Center     Atomic      Atomic             Coordinates (Angstroms)
 Number     Number       Type             X           Y           Z
 ---------------------------------------------------------------------
      1          6           0       -0.993246    1.406946   -0.000000
      2          6           0       -0.993246    0.711196    1.205074
      3          6           0       -0.993246   -0.680304    1.205074
      4          6           0       -0.993246   -1.376054    0.000000
      5          6           0       -0.993246   -0.680304   -1.205074
      6          6           0       -0.993246    0.711196   -1.205074
      7          1           0       -0.993246    2.486946   -0.000000
      8          1           0       -0.993246    1.251196    2.140382
      9          1           0       -0.993246   -1.220304    2.140382
     10          1           0       -0.993246   -2.456054    0.000000
     11          1           0       -0.993246   -1.220304   -2.140382
     12          1           0       -0.993246    1.251196   -2.140382
     13         16           0        2.406754    0.015446   -0.000000
     14          1           0        2.085000   -1.280818    0.000000
     15          1           0        1.123279    0.384932   -0.000000
 ---------------------------------------------------------------------

 SCF Done:  E(RHF) =  -629.509196361     A.U. after    2 cycles

 The electronic state is 1-A'.
 Alpha  occ. eigenvalues --  -93.52270 -11.25503 -11.25468 -11.25435 -11.25341
 Alpha  occ. eigenvalues --  -11.25314 -11.25278  -8.82122  -6.16327  -6.16121
 Alpha  occ. eigenvalues --   -6.15742  -1.15507  -1.02210  -1.02125  -0.94966
 Alpha  occ. eigenvalues --   -0.83701  -0.83690  -0.72594  -0.65577  -0.63641
 Alpha  occ. eigenvalues --   -0.60384  -0.60305  -0.58027  -0.52203  -0.50847
 Alpha  occ. eigenvalues --   -0.50812  -0.46234  -0.37261  -0.35319  -0.34191
 Alpha virt. eigenvalues --    0.03197   0.03993   0.04145   0.05569   0.05608
 Alpha virt. eigenvalues --    0.06096   0.07481   0.08361   0.09418   0.09653
 Alpha virt. eigenvalues --    0.11737   0.13231   0.13297   0.13955   0.14156

 Mulliken charges:
               1
     1  C    0.400293
     2  C    0.444027
     3  C    0.517428
     4  C    0.407426
     5  C    0.517428
     6  C    0.444027
     7  H   -0.459810
     8  H   -0.454075
     9  H   -0.475654
    10  H   -0.487754
    11  H   -0.475654
    12  H   -0.454075
    13  S   -0.035691
    14  H    0.037655
    15  H    0.074429
 Sum of Mulliken charges =  -0.00000

 Dipole moment (field-independent basis, Debye):
    X=             -1.6679    Y=             -0.4842    Z=             -0.0000  Tot=              1.7368

 Test job not archived.
 1\1\GINC-SE070\SP\RHF\Aug-CC-pVDZ\C6H8S1\OHZDE\09-Apr-2025\0\\#t hf au
 g-cc-pvdz iop(5/13=1,5/36=2,99/5=2) pseudo=read geom=check guess=(read
 ,tcheck) scf=(maxcycle=1)\\title\\0,1\C,0,1.3915,0.,1.\C,0,0.69575,1.2
 0507435,1.\C,0,-0.69575,1.20507435,1.\C,0,-1.3915,0.,1.\C,0,-0.69575,-
 1.20507435,1.\C,0,0.69575,-1.20507435,1.\H,0,2.4715,0.,1.\H,0,1.23575,
 2.14038179,1.\H,0,-1.23575,2.14038179,1.\H,0,-2.4715,0.,1.\H,0,-1.2357
 5,-2.14038179,1.\H,0,1.23575,-2.14038179,1.\S,0,0.,0.,4.4\H,0,-1.29626
 462,0.,4.07824638\H,0,0.36948551,0.,3.1165251\\Version=ES64L-G16RevC.0

 Normal termination of Gaussian 16 at Wed Apr  9 02:05:28 2025.
