 Gaussian 16, Revision C.01,

 ----------------------------------------------------------------------
 #t hf aug-cc-pvdz symm=none int=(grid=ultrafine) guess=(read,tcheck) s
 table=(opt,rrhf)
 ----------------------------------------------------------------------
 -----
 title
 -----
 Symbolic Z-matrix:
 Charge =  0 Multiplicity = 1

 SCF Done:  E(RHF) =  -629.410632549     A.U. after   13 cycles
 Normal termination of Gaussian 16 at Wed Apr  9 02:04:24 2025.
 Gaussian 16:  ES64L-G16RevC.01  3-Jul-2019

 ----------------------------------------------------------------------
 #t hf aug-cc-pvdz iop(5/13=1,5/36=2,99/5=2) pseudo=read geom=check gue
 ss=(read,tcheck) scf=(maxcycle=1)
 ----------------------------------------------------------------------
 -----
 title
 -----
 Structure from the checkpoint file:  "BzDC215_109_mol1.chk"
 Charge =  0 Multiplicity = 1

                         Standard orientation:
 ---------------------------------------------------------------------
 Center     Atomic      Atomic             Coordinates (Angstroms)
 Number     Number       Type             X           Y           Z
 ---------------------------------------------------------------------
      1          6           0       -0.933246    1.406946   -0.000000
      2          6           0       -0.933246    0.711196    1.205074
      3          6           0       -0.933246   -0.680304    1.205074
      4          6           0       -0.933246   -1.376054    0.000000
      5          6           0       -0.933246   -0.680304   -1.205074
      6          6           0       -0.933246    0.711196   -1.205074
      7          1           0       -0.933246    2.486946   -0.000000
      8          1           0       -0.933246    1.251196    2.140382
      9          1           0       -0.933246   -1.220304    2.140382
     10          1           0       -0.933246   -2.456054    0.000000
     11          1           0       -0.933246   -1.220304   -2.140382
     12          1           0       -0.933246    1.251196   -2.140382
     13         16           0        2.266754    0.015446   -0.000000
     14          1           0        1.945000   -1.280818    0.000000
     15          1           0        0.983279    0.384932   -0.000000
 ---------------------------------------------------------------------

 SCF Done:  E(RHF) =  -629.500369939     A.U. after    2 cycles

 The electronic state is 1-A'.
 Alpha  occ. eigenvalues --  -93.51629 -11.25621 -11.25578 -11.25543 -11.25448
 Alpha  occ. eigenvalues --  -11.25419 -11.25385  -8.81520  -6.15731  -6.15526
 Alpha  occ. eigenvalues --   -6.15148  -1.15777  -1.02406  -1.02283  -0.94646
 Alpha  occ. eigenvalues --   -0.83835  -0.83822  -0.72777  -0.65688  -0.63766
 Alpha  occ. eigenvalues --   -0.60568  -0.60440  -0.58420  -0.52213  -0.50970
 Alpha  occ. eigenvalues --   -0.50929  -0.45190  -0.37574  -0.35460  -0.33682
 Alpha virt. eigenvalues --    0.03187   0.03980   0.04136   0.05562   0.05597
 Alpha virt. eigenvalues --    0.06211   0.07470   0.08414   0.09230   0.09516
 Alpha virt. eigenvalues --    0.11539   0.13290   0.13317   0.13950   0.14107

 Mulliken charges:
               1
     1  C    0.373275
     2  C    0.442219
     3  C    0.522274
     4  C    0.413397
     5  C    0.522274
     6  C    0.442219
     7  H   -0.461435
     8  H   -0.451856
     9  H   -0.473082
    10  H   -0.490179
    11  H   -0.473082
    12  H   -0.451856
    13  S   -0.062204
    14  H    0.049458
    15  H    0.098577
 Sum of Mulliken charges =  -0.00000

 Dipole moment (field-independent basis, Debye):
    X=             -1.7999    Y=             -0.4703    Z=              0.0000  Tot=              1.8603

 Test job not archived.
 1\1\GINC-SE070\SP\RHF\Aug-CC-pVDZ\C6H8S1\OHZDE\09-Apr-2025\0\\#t hf au
 g-cc-pvdz iop(5/13=1,5/36=2,99/5=2) pseudo=read geom=check guess=(read
 ,tcheck) scf=(maxcycle=1)\\title\\0,1\C,0,1.3915,0.,1.\C,0,0.69575,1.2
 0507435,1.\C,0,-0.69575,1.20507435,1.\C,0,-1.3915,0.,1.\C,0,-0.69575,-
 1.20507435,1.\C,0,0.69575,-1.20507435,1.\H,0,2.4715,0.,1.\H,0,1.23575,
 2.14038179,1.\H,0,-1.23575,2.14038179,1.\H,0,-2.4715,0.,1.\H,0,-1.2357
 5,-2.14038179,1.\H,0,1.23575,-2.14038179,1.\S,0,0.,0.,4.2\H,0,-1.29626
 462,0.,3.87824638\H,0,0.36948551,0.,2.9165251\\Version=ES64L-G16RevC.0

 Normal termination of Gaussian 16 at Wed Apr  9 02:04:29 2025.
