 Gaussian 16, Revision C.01,

 ----------------------------------------------------------------------
 #t hf aug-cc-pvdz symm=none int=(grid=ultrafine) guess=(read,tcheck) s
 table=(opt,rrhf)
 ----------------------------------------------------------------------
 -----
 title
 -----
 Symbolic Z-matrix:
 Charge =  0 Multiplicity = 1

 SCF Done:  E(RHF) =  -629.425850795     A.U. after   13 cycles
 Normal termination of Gaussian 16 at Wed Apr  9 02:06:22 2025.
 Gaussian 16:  ES64L-G16RevC.01  3-Jul-2019

 ----------------------------------------------------------------------
 #t hf aug-cc-pvdz iop(5/13=1,5/36=2,99/5=2) pseudo=read geom=check gue
 ss=(read,tcheck) scf=(maxcycle=1)
 ----------------------------------------------------------------------
 -----
 title
 -----
 Structure from the checkpoint file:  "BzDC215_116_mol1.chk"
 Charge =  0 Multiplicity = 1

                         Standard orientation:
 ---------------------------------------------------------------------
 Center     Atomic      Atomic             Coordinates (Angstroms)
 Number     Number       Type             X           Y           Z
 ---------------------------------------------------------------------
      1          6           0       -1.098246    1.406946    0.000000
      2          6           0       -1.098246    0.711196    1.205074
      3          6           0       -1.098246   -0.680304    1.205074
      4          6           0       -1.098246   -1.376054   -0.000000
      5          6           0       -1.098246   -0.680304   -1.205074
      6          6           0       -1.098246    0.711196   -1.205074
      7          1           0       -1.098246    2.486946    0.000000
      8          1           0       -1.098246    1.251196    2.140382
      9          1           0       -1.098246   -1.220304    2.140382
     10          1           0       -1.098246   -2.456054   -0.000000
     11          1           0       -1.098246   -1.220304   -2.140382
     12          1           0       -1.098246    1.251196   -2.140382
     13         16           0        2.651754    0.015446    0.000000
     14          1           0        2.330000   -1.280818   -0.000000
     15          1           0        1.368279    0.384932    0.000000
 ---------------------------------------------------------------------

 SCF Done:  E(RHF) =  -629.516293698     A.U. after    2 cycles

 The electronic state is 1-A'.
 Alpha  occ. eigenvalues --  -93.53030 -11.25343 -11.25305 -11.25281 -11.25182
 Alpha  occ. eigenvalues --  -11.25161 -11.25122  -8.82847  -6.17046  -6.16839
 Alpha  occ. eigenvalues --   -6.16456  -1.15223  -1.01980  -1.01929  -0.95431
 Alpha  occ. eigenvalues --   -0.83529  -0.83521  -0.72389  -0.65433  -0.63478
 Alpha  occ. eigenvalues --   -0.60187  -0.60140  -0.57767  -0.51982  -0.50688
 Alpha  occ. eigenvalues --   -0.50661  -0.47500  -0.37085  -0.35081  -0.34628
 Alpha virt. eigenvalues --    0.03200   0.04003   0.04150   0.05570   0.05619
 Alpha virt. eigenvalues --    0.05918   0.07495   0.08284   0.09661   0.09829
 Alpha virt. eigenvalues --    0.12029   0.13160   0.13263   0.14030   0.14218

 Mulliken charges:
               1
     1  C    0.432768
     2  C    0.450895
     3  C    0.507739
     4  C    0.406349
     5  C    0.507739
     6  C    0.450895
     7  H   -0.456007
     8  H   -0.455788
     9  H   -0.472420
    10  H   -0.487768
    11  H   -0.472420
    12  H   -0.455788
    13  S   -0.002545
    14  H    0.022247
    15  H    0.024105
 Sum of Mulliken charges =  -0.00000

 Dipole moment (field-independent basis, Debye):
    X=             -1.4908    Y=             -0.4993    Z=              0.0000  Tot=              1.5722

 Test job not archived.
 1\1\GINC-SE461\SP\RHF\Aug-CC-pVDZ\C6H8S1\OHZDE\09-Apr-2025\0\\#t hf au
 g-cc-pvdz iop(5/13=1,5/36=2,99/5=2) pseudo=read geom=check guess=(read
 ,tcheck) scf=(maxcycle=1)\\title\\0,1\C,0,1.3915,0.,1.\C,0,0.69575,1.2
 0507435,1.\C,0,-0.69575,1.20507435,1.\C,0,-1.3915,0.,1.\C,0,-0.69575,-
 1.20507435,1.\C,0,0.69575,-1.20507435,1.\H,0,2.4715,0.,1.\H,0,1.23575,
 2.14038179,1.\H,0,-1.23575,2.14038179,1.\H,0,-2.4715,0.,1.\H,0,-1.2357
 5,-2.14038179,1.\H,0,1.23575,-2.14038179,1.\S,0,0.,0.,4.75\H,0,-1.2962
 6462,0.,4.42824638\H,0,0.36948551,0.,3.4665251\\Version=ES64L-G16RevC.

 Normal termination of Gaussian 16 at Wed Apr  9 02:06:26 2025.
