 Gaussian 16, Revision C.01,

 ----------------------------------------------------------------------
 #t hf aug-cc-pvdz symm=none int=(grid=ultrafine) guess=(read,tcheck) s
 table=(opt,rrhf)
 ----------------------------------------------------------------------
 -----
 title
 -----
 Symbolic Z-matrix:
 Charge =  0 Multiplicity = 1

 SCF Done:  E(RHF) =  -707.192816440     A.U. after   13 cycles
 Normal termination of Gaussian 16 at Wed Apr  9 02:19:54 2025.
 Gaussian 16:  ES64L-G16RevC.01  3-Jul-2019

 ----------------------------------------------------------------------
 #t hf aug-cc-pvdz iop(5/13=1,5/36=2,99/5=2) pseudo=read geom=check gue
 ss=(read,tcheck) scf=(maxcycle=1)
 ----------------------------------------------------------------------
 -----
 title
 -----
 Structure from the checkpoint file:  "CarbhydAroAA_21_mol3.chk"
 Charge =  0 Multiplicity = 1

                         Standard orientation:
 ---------------------------------------------------------------------
 Center     Atomic      Atomic             Coordinates (Angstroms)
 Number     Number       Type             X           Y           Z
 ---------------------------------------------------------------------
      1          6           0       -0.690475   -1.458234   -0.237535
      2          1           0       -0.728653   -1.470036   -1.206921
      3          8           0        0.719610   -1.249236   -0.152266
      4          6           0        1.284857    0.103839   -0.147314
      5          1           0        1.376595    0.302106   -1.092231
      6          6           0        0.387581    1.317549    0.161161
      7          8           0        0.788983    2.484573   -0.586901
      8          1           0        1.370006    2.909237   -0.153846
      9          1           0        0.534954    1.483335    1.105027
     10          6           0       -1.119483    1.072374    0.050100
     11          1           0       -1.116018    1.160894   -0.915635
     12          8           0       -1.979975    2.085792    0.421567
     13          1           0       -1.551446    2.803680    0.498434
     14          6           0        2.700281    0.112801    0.506358
     15          1           0        3.126890    0.974358    0.376454
     16          8           0        3.481279   -0.927741   -0.097979
     17          1           0        2.974247   -1.547593   -0.350728
     18          1           0        2.631664   -0.028869    1.463650
     19          6           0       -1.669896   -0.339647    0.130014
     20          9           0       -2.951111   -0.625119   -0.294922
     21          1           0       -1.787616   -0.328189    1.092935
     22          8           0       -1.138506   -2.669003    0.287743
     23          1           0       -0.598923   -3.280017    0.083130
 ---------------------------------------------------------------------

 SCF Done:  E(RHF) =  -707.415073612     A.U. after    2 cycles

 The electronic state is 1-A.
 Alpha  occ. eigenvalues --  -26.12269 -20.60682 -20.60651 -20.58784 -20.58189
 Alpha  occ. eigenvalues --  -20.56606 -11.36207 -11.32950 -11.32890 -11.31513
 Alpha  occ. eigenvalues --  -11.30306 -11.29268  -1.65417  -1.41142  -1.40546
 Alpha  occ. eigenvalues --   -1.38759  -1.36608  -1.33638  -1.11576  -1.08685
 Alpha  occ. eigenvalues --   -1.00306  -0.95007  -0.92374  -0.86131  -0.80783
 Alpha  occ. eigenvalues --   -0.79942  -0.78212  -0.76973  -0.74047  -0.73446
 Alpha  occ. eigenvalues --   -0.72632  -0.70922  -0.68760  -0.65789  -0.65424
 Alpha  occ. eigenvalues --   -0.64179  -0.63052  -0.60938  -0.59650  -0.58313
 Alpha  occ. eigenvalues --   -0.55635  -0.55329  -0.53499  -0.51686  -0.49764
 Alpha  occ. eigenvalues --   -0.48162  -0.45732  -0.44256
 Alpha virt. eigenvalues --    0.02334   0.03657   0.04064   0.04516   0.05692
 Alpha virt. eigenvalues --    0.06231   0.06529   0.06634   0.07063   0.08430
 Alpha virt. eigenvalues --    0.08874   0.10758   0.12165   0.12296   0.13131

 Mulliken charges:
               1
     1  C    1.820090
     2  H   -0.436435
     3  O   -1.009431
     4  C    0.418960
     5  H   -0.336444
     6  C    0.007792
     7  O   -0.508151
     8  H    0.060206
     9  H   -0.325032
    10  C    0.772941
    11  H   -0.141196
    12  O   -0.536246
    13  H    0.039410
    14  C    2.015388
    15  H   -0.467771
    16  O   -0.444032
    17  H    0.022241
    18  H   -0.415332
    19  C    0.363039
    20  F   -0.358796
    21  H   -0.126383
    22  O   -0.439184
    23  H    0.024367
 Sum of Mulliken charges =  -0.00000

 Dipole moment (field-independent basis, Debye):
    X=              3.0538    Y=              2.0935    Z=              1.1105  Tot=              3.8655

 Test job not archived.
 1\1\GINC-SE036\SP\RHF\Aug-CC-pVDZ\C6H11F1O5\OHZDE\09-Apr-2025\0\\#t hf
  aug-cc-pvdz iop(5/13=1,5/36=2,99/5=2) pseudo=read geom=check guess=(r
 ead,tcheck) scf=(maxcycle=1)\\title\\0,1\C,0,105.135,88.708,3.523\H,0,
 104.71,89.369,4.092\O,0,106.446,88.875,4.064\C,0,106.89,88.097,5.225\H
 ,0,106.582,88.632,5.973\C,0,106.128,86.825,5.643\O,0,106.129,86.646,7.
 075\H,0,106.811,86.212,7.303\H,0,106.634,86.105,5.236\C,0,104.72,86.67
 5,5.061\H,0,104.329,87.276,5.714\O,0,104.028,85.506,5.306\H,0,104.411,
 85.076,5.917\C,0,108.446,88.013,5.276\H,0,108.736,87.626,6.117\O,0,108

 Normal termination of Gaussian 16 at Wed Apr  9 02:20:12 2025.
