 Gaussian 16, Revision C.01,

 ----------------------------------------------------------------------
 #t hf aug-cc-pvdz symm=none int=(grid=ultrafine) guess=(read,tcheck) s
 table=(opt,rrhf)
 ----------------------------------------------------------------------
 -----
 title
 -----
 Symbolic Z-matrix:
 Charge =  0 Multiplicity = 1

 SCF Done:  E(RHF) =  -762.981501144     A.U. after   13 cycles
 Normal termination of Gaussian 16 at Wed Apr  9 02:13:12 2025.
 Gaussian 16:  ES64L-G16RevC.01  3-Jul-2019

 ----------------------------------------------------------------------
 #t hf aug-cc-pvdz iop(5/13=1,5/36=2,99/5=2) pseudo=read geom=check gue
 ss=(read,tcheck) scf=(maxcycle=1)
 ----------------------------------------------------------------------
 -----
 title
 -----
 Structure from the checkpoint file:  "CARBHB12_12_mol1.chk"
 Charge =  0 Multiplicity = 1

                         Standard orientation:
 ---------------------------------------------------------------------
 Center     Atomic      Atomic             Coordinates (Angstroms)
 Number     Number       Type             X           Y           Z
 ---------------------------------------------------------------------
      1          6           0        0.106058   -0.164759    0.105110
      2          6           0        1.894499    1.208926   -0.064649
      3          6           0        2.359268   -0.055536   -0.070191
      4          7           0        1.252348   -0.870772    0.019428
      5          7           0        0.525280    1.112995    0.027043
      6          1           0        2.420898    2.148569   -0.118414
      7          1           0        3.369586   -0.428921   -0.130789
      8          6           0        1.311881   -2.312352    0.028165
      9          6           0       -0.371028    2.244410    0.046245
     10          1           0        1.800988   -2.689786   -0.871072
     11          1           0        1.857982   -2.675587    0.899683
     12          1           0        0.296580   -2.696226    0.062017
     13          1           0       -0.185379    2.868965    0.919864
     14          1           0       -0.253194    2.846471   -0.854687
     15          1           0       -1.393632    1.877969    0.086485
     16         17           0       -2.972271   -0.473624   -0.043753
     17          1           0       -1.632692   -0.419536    0.157340
 ---------------------------------------------------------------------

 SCF Done:  E(RHF) =  -763.092776220     A.U. after    2 cycles

 The electronic state is 1-A.
 Alpha  occ. eigenvalues -- -103.59911 -15.68852 -15.68676 -11.28837 -11.28719
 Alpha  occ. eigenvalues --  -11.28681 -11.28125 -11.28113 -10.63301  -8.29013
 Alpha  occ. eigenvalues --   -8.28792  -8.28781  -1.34542  -1.20791  -1.08698
 Alpha  occ. eigenvalues --   -1.05419  -0.99661  -0.93826  -0.82809  -0.78960
 Alpha  occ. eigenvalues --   -0.72966  -0.67006  -0.64559  -0.62439  -0.62026
 Alpha  occ. eigenvalues --   -0.60888  -0.58342  -0.56385  -0.55298  -0.54656
 Alpha  occ. eigenvalues --   -0.42518  -0.42490  -0.41090  -0.38426  -0.34262
 Alpha virt. eigenvalues --    0.02425   0.03027   0.04314   0.04496   0.05988
 Alpha virt. eigenvalues --    0.06139   0.07437   0.08768   0.08967   0.10920
 Alpha virt. eigenvalues --    0.11133   0.11375   0.11874   0.13162   0.13260

 Mulliken charges:
               1
     1  C   -0.091126
     2  C    0.460629
     3  C    0.645800
     4  N   -0.602244
     5  N   -0.579389
     6  H   -0.340647
     7  H   -0.345518
     8  C    0.858408
     9  C    0.858280
    10  H   -0.090457
    11  H   -0.082620
    12  H   -0.230927
    13  H   -0.076270
    14  H   -0.098710
    15  H   -0.290259
    16  Cl  -0.351762
    17  H    0.356814
 Sum of Mulliken charges =  -0.00000

 Dipole moment (field-independent basis, Debye):
    X=              6.2035    Y=              1.1409    Z=              0.0066  Tot=              6.3075

 Test job not archived.
 1\1\GINC-SE366\SP\RHF\Aug-CC-pVDZ\C5H9Cl1N2\OHZDE\09-Apr-2025\0\\#t hf
  aug-cc-pvdz iop(5/13=1,5/36=2,99/5=2) pseudo=read geom=check guess=(r
 ead,tcheck) scf=(maxcycle=1)\\title\\0,1\C,0,-0.0923972,-0.090821,-0.5
 581819\C,0,0.0818928,0.6858239,1.5586069\C,0,0.0601558,-0.659471,1.626
 5329\N,0,-0.0316562,-1.1070769,0.326867\N,0,0.0035018,1.0028629,0.2223
 02\H,0,0.1463878,1.4253789,2.3407929\H,0,0.1031438,-1.3172889,2.480499
 9\C,0,-0.0663492,-2.5007778,-0.0448429\C,0,0.0139618,2.3496258,-0.2972
 709\H,0,0.8207238,-3.0243948,0.314651\H,0,-0.9500261,-2.9923398,0.3640

 Normal termination of Gaussian 16 at Wed Apr  9 02:13:18 2025.
