 Gaussian 16, Revision C.01,

 ----------------------------------------------------------------------
 #t hf aug-cc-pvdz symm=none int=(grid=ultrafine) guess=(read,tcheck) s
 table=(opt,rrhf)
 ----------------------------------------------------------------------
 -----
 title
 -----
 Symbolic Z-matrix:
 Charge =  0 Multiplicity = 1

 SCF Done:  E(RHF) =  -460.089016657     A.U. after    9 cycles
 Normal termination of Gaussian 16 at Wed Apr  9 02:12:05 2025.
 Gaussian 16:  ES64L-G16RevC.01  3-Jul-2019

 ----------------------------------------------------------------------
 #t hf aug-cc-pvdz iop(5/13=1,5/36=2,99/5=2) pseudo=read geom=check gue
 ss=(read,tcheck) scf=(maxcycle=1)
 ----------------------------------------------------------------------
 -----
 title
 -----
 Structure from the checkpoint file:  "CARBHB12_10_mol2.chk"
 Charge =  0 Multiplicity = 1

                         Standard orientation:
 ---------------------------------------------------------------------
 Center     Atomic      Atomic             Coordinates (Angstroms)
 Number     Number       Type             X           Y           Z
 ---------------------------------------------------------------------
      1         17           0        0.000000    0.000000    0.075395
      2          1           0        0.000000    0.000000   -1.281714
 ---------------------------------------------------------------------

 SCF Done:  E(RHF) =  -460.107476050     A.U. after    2 cycles

 The electronic state is 1-SG.
 Alpha  occ. eigenvalues -- -103.68133 -10.71196  -8.36930  -8.36632  -8.36632
 Alpha  occ. eigenvalues --   -1.14961  -0.62164  -0.48806  -0.48806
 Alpha virt. eigenvalues --    0.03234   0.12718   0.13895   0.13895   0.15392
 Alpha virt. eigenvalues --    0.21402   0.31032   0.31032   0.46261   0.46261
 Alpha virt. eigenvalues --    0.47860   0.57767   0.59676   0.59676   0.86056

 Mulliken charges:
               1
     1  Cl  -0.188221
     2  H    0.188221
 Sum of Mulliken charges =  -0.00000

 Dipole moment (field-independent basis, Debye):
    X=              0.0000    Y=             -0.0000    Z=             -1.3423  Tot=              1.3423

 Test job not archived.
 1\1\GINC-SE127\SP\RHF\Aug-CC-pVDZ\Cl1H1\OHZDE\09-Apr-2025\0\\#t hf aug
 -cc-pvdz iop(5/13=1,5/36=2,99/5=2) pseudo=read geom=check guess=(read,
 tcheck) scf=(maxcycle=1)\\title\\0,1\Cl,0,0.,0.,-0.6785546\H,0,0.,0.,0
 .6785546\\Version=ES64L-G16RevC.01\State=1-SG\HF=-460.1074761\RMSD=3.1
 67e-03\Dipole=0.,0.,0.5280857\Quadrupole=-1.0372057,-1.0372057,2.07441
 13,0.,0.,0.\PG=C*V [C*(H1Cl1)]\\@

 Normal termination of Gaussian 16 at Wed Apr  9 02:12:06 2025.
