 Gaussian 16, Revision C.01,

 ----------------------------------------------------------------------
 #t hf aug-cc-pvdz symm=none int=(grid=ultrafine) guess=(read,tcheck) s
 table=(opt,rrhf)
 ----------------------------------------------------------------------
 -----
 title
 -----
 Symbolic Z-matrix:
 Charge =  0 Multiplicity = 1

 SCF Done:  E(RHF) =  -460.090772818     A.U. after    9 cycles
 Normal termination of Gaussian 16 at Wed Apr  9 02:13:27 2025.
 Gaussian 16:  ES64L-G16RevC.01  3-Jul-2019

 ----------------------------------------------------------------------
 #t hf aug-cc-pvdz iop(5/13=1,5/36=2,99/5=2) pseudo=read geom=check gue
 ss=(read,tcheck) scf=(maxcycle=1)
 ----------------------------------------------------------------------
 -----
 title
 -----
 Structure from the checkpoint file:  "CARBHB12_9_mol2.chk"
 Charge =  0 Multiplicity = 1

                         Standard orientation:
 ---------------------------------------------------------------------
 Center     Atomic      Atomic             Coordinates (Angstroms)
 Number     Number       Type             X           Y           Z
 ---------------------------------------------------------------------
      1         17           0        0.000000    0.000000    0.074069
      2          1           0        0.000000    0.000000   -1.259180
 ---------------------------------------------------------------------

 SCF Done:  E(RHF) =  -460.109553195     A.U. after    2 cycles

 The electronic state is 1-SG.
 Alpha  occ. eigenvalues -- -103.68038 -10.71153  -8.36895  -8.36588  -8.36588
 Alpha  occ. eigenvalues --   -1.15332  -0.62693  -0.48869  -0.48869
 Alpha virt. eigenvalues --    0.03323   0.12694   0.13878   0.13878   0.16008
 Alpha virt. eigenvalues --    0.21376   0.31148   0.31148   0.46214   0.46214
 Alpha virt. eigenvalues --    0.48141   0.57548   0.59843   0.59843   0.86608

 Mulliken charges:
               1
     1  Cl  -0.168601
     2  H    0.168601
 Sum of Mulliken charges =  -0.00000

 Dipole moment (field-independent basis, Debye):
    X=              0.0000    Y=              0.0000    Z=             -1.3117  Tot=              1.3117

 Test job not archived.
 1\1\GINC-SE024\SP\RHF\Aug-CC-pVDZ\Cl1H1\OHZDE\09-Apr-2025\0\\#t hf aug
 -cc-pvdz iop(5/13=1,5/36=2,99/5=2) pseudo=read geom=check guess=(read,
 tcheck) scf=(maxcycle=1)\\title\\0,1\Cl,0,0.,0.,-0.6666246\H,0,0.,0.,0
 .6666246\\Version=ES64L-G16RevC.01\State=1-SG\HF=-460.1095532\RMSD=3.1
 80e-03\Dipole=0.,0.,0.5160521\Quadrupole=-1.0094897,-1.0094897,2.01897
 93,0.,0.,0.\PG=C*V [C*(H1Cl1)]\\@

 Normal termination of Gaussian 16 at Wed Apr  9 02:13:28 2025.
