 Gaussian 16, Revision C.01,

 ----------------------------------------------------------------------
 #t hf aug-cc-pvdz symm=none int=(grid=ultrafine) guess=(read,tcheck) s
 table=(opt,rrhf)
 ----------------------------------------------------------------------
 -----
 title
 -----
 Symbolic Z-matrix:
 Charge =  0 Multiplicity = 1

 SCF Done:  E(RHF) =  -612.932047801     A.U. after   15 cycles
 Normal termination of Gaussian 16 at Wed Apr  9 02:13:00 2025.
 Gaussian 16:  ES64L-G16RevC.01  3-Jul-2019

 ----------------------------------------------------------------------
 #t hf aug-cc-pvdz iop(5/13=1,5/36=2,99/5=2) pseudo=read geom=check gue
 ss=(read,tcheck) scf=(maxcycle=1)
 ----------------------------------------------------------------------
 -----
 title
 -----
 Structure from the checkpoint file:  "CARBHB12_2_mol1.chk"
 Charge =  0 Multiplicity = 1

                         Standard orientation:
 ---------------------------------------------------------------------
 Center     Atomic      Atomic             Coordinates (Angstroms)
 Number     Number       Type             X           Y           Z
 ---------------------------------------------------------------------
      1          8           0       -2.914213   -0.346243    0.103595
      2          1           0       -1.952256   -0.229013    0.088802
      3          1           0       -3.127822   -0.678094   -0.768472
      4          6           0        0.064975    0.266890   -0.060715
      5         17           0        1.363075   -0.825936    0.008858
      6          6           0        0.523076    1.662658   -0.011220
      7          1           0        1.589759    1.875461   -0.106600
      8          1           0       -0.063841    2.244273   -0.727214
      9          1           0        0.167289    2.020954    0.965745
 ---------------------------------------------------------------------

 SCF Done:  E(RHF) =  -613.001426537     A.U. after    2 cycles

 The electronic state is 1-A.
 Alpha  occ. eigenvalues -- -103.70062 -20.54045 -11.35819 -11.27080 -10.73460
 Alpha  occ. eigenvalues --   -8.39158  -8.38908  -8.38819  -1.27662  -1.22520
 Alpha  occ. eigenvalues --   -1.03849  -0.79065  -0.69921  -0.64242  -0.61036
 Alpha  occ. eigenvalues --   -0.60266  -0.56813  -0.51856  -0.50664  -0.49228
 Alpha  occ. eigenvalues --   -0.39503
 Alpha virt. eigenvalues --    0.03140   0.03806   0.04982   0.05631   0.06116
 Alpha virt. eigenvalues --    0.07687   0.09905   0.10838   0.13713   0.13894
 Alpha virt. eigenvalues --    0.14466   0.16487   0.16872   0.17522   0.18134

 Mulliken charges:
               1
     1  O   -0.313225
     2  H    0.227787
     3  H    0.107529
     4  C   -0.274197
     5  Cl  -0.101750
     6  C    0.372338
     7  H   -0.081602
     8  H    0.004165
     9  H    0.058956
 Sum of Mulliken charges =  -0.00000

 Dipole moment (field-independent basis, Debye):
    X=              2.9306    Y=              1.9085    Z=             -1.3834  Tot=              3.7609

 Test job not archived.
 1\1\GINC-SE051\SP\RHF\Aug-CC-pVDZ\C2H5Cl1O1\OHZDE\09-Apr-2025\0\\#t hf
  aug-cc-pvdz iop(5/13=1,5/36=2,99/5=2) pseudo=read geom=check guess=(r
 ead,tcheck) scf=(maxcycle=1)\\title\\0,1\O,0,-2.6230507,0.0983053,-0.2
 620611\H,0,-1.6716484,0.0200216,-0.4294782\H,0,-2.8369391,0.9964234,-0
 .5148255\C,0,0.4073302,-0.0340636,-0.5409216\Cl,0,1.3208633,-0.1895449
 ,-1.9641069\C,0,1.2421153,-0.1696644,0.6612515\H,0,2.3287649,-0.180474
 2,0.5550829\H,0,0.9214309,0.5791287,1.3905426\H,0,0.9111337,-1.1201319
 ,1.1045163\\Version=ES64L-G16RevC.01\State=1-A\HF=-613.0014265\RMSD=3.

 Normal termination of Gaussian 16 at Wed Apr  9 02:13:03 2025.
