 Gaussian 16, Revision C.01,

 ----------------------------------------------------------------------
 #t hf aug-cc-pvdz symm=none int=(grid=ultrafine) guess=(read,tcheck) s
 table=(opt,rrhf)
 ----------------------------------------------------------------------
 -----
 title
 -----
 Symbolic Z-matrix:
 Charge =  0 Multiplicity = 1

 SCF Done:  E(RHF) =  -366.062332736     A.U. after   12 cycles

 1\1\GINC-SE229\Stability\RHF\Aug-CC-pVDZ\H4O1Si1\OHZDE\09-Apr-2025\0\\
 #t hf aug-cc-pvdz symm=none int=(grid=ultrafine) guess=(read,tcheck) s
 table=(opt,rrhf)\\title\\0,1\O,0,-2.2315426,-0.0184865,0.\H,0,-1.31099
 47,0.2590669,0.\H,0,-2.735532,0.7954934,0.\Si,0,1.4665347,-0.0547721,0
 .\H,0,2.4057673,-0.4906509,-1.0901298\H,0,2.4057673,-0.4906509,1.09012
 98\\Version=ES64L-G16RevC.01\HF=-366.0623327\RMSD=2.294e-09\Dipole=0.5
 915891,0.6164733,0.\Quadrupole=-1.2549579,2.3819995,-1.1270416,-2.0510
 399,0.,0.\PG=Unknown\\@

 Normal termination of Gaussian 16 at Wed Apr  9 02:12:58 2025.
 Gaussian 16:  ES64L-G16RevC.01  3-Jul-2019

 ----------------------------------------------------------------------
 #t hf aug-cc-pvdz iop(5/13=1,5/36=2,99/5=2) pseudo=read geom=check gue
 ss=(read,tcheck) scf=(maxcycle=1)
 ----------------------------------------------------------------------
 -----
 title
 -----
 Structure from the checkpoint file:  "CARBHB12_3_mol1.chk"
 Charge =  0 Multiplicity = 1

                         Standard orientation:
 ---------------------------------------------------------------------
 Center     Atomic      Atomic             Coordinates (Angstroms)
 Number     Number       Type             X           Y           Z
 ---------------------------------------------------------------------
      1          8           0        0.009319    2.364032    0.000000
      2          1           0       -0.277253    1.446252    0.000000
      3          1           0       -0.799677    2.875984    0.000000
      4         14           0        0.009319   -1.334223   -0.000000
      5          1           0        0.435961   -2.277687    1.090130
      6          1           0        0.435961   -2.277687   -1.090130
 ---------------------------------------------------------------------

 SCF Done:  E(RHF) =  -366.104950494     A.U. after    2 cycles

 The electronic state is 1-A'.
 Alpha  occ. eigenvalues --  -69.09827 -20.56470  -6.84806  -3.95313  -3.95084
 Alpha  occ. eigenvalues --   -3.94958  -1.30003  -0.72160  -0.67427  -0.58715
 Alpha  occ. eigenvalues --   -0.51482  -0.47067  -0.34498
 Alpha virt. eigenvalues --   -0.00647   0.03805   0.05071   0.06160   0.07758
 Alpha virt. eigenvalues --    0.08882   0.09056   0.11334   0.14241   0.17145
 Alpha virt. eigenvalues --    0.17317   0.19836   0.20033   0.22233   0.23638

 Mulliken charges:
               1
     1  O   -0.261858
     2  H    0.120513
     3  H    0.139470
     4  Si   0.219590
     5  H   -0.108858
     6  H   -0.108858
 Sum of Mulliken charges =   0.00000

 Dipole moment (field-independent basis, Debye):
    X=             -1.6618    Y=             -1.4813    Z=             -0.0000  Tot=              2.2261

 Test job not archived.
 1\1\GINC-SE229\SP\RHF\Aug-CC-pVDZ\H4O1Si1\OHZDE\09-Apr-2025\0\\#t hf a
 ug-cc-pvdz iop(5/13=1,5/36=2,99/5=2) pseudo=read geom=check guess=(rea
 d,tcheck) scf=(maxcycle=1)\\title\\0,1\O,0,-2.2315426,-0.0184865,0.\H,
 0,-1.3109947,0.2590669,0.\H,0,-2.735532,0.7954934,0.\Si,0,1.4665347,-0
 .0547721,0.\H,0,2.4057673,-0.4906509,-1.0901298\H,0,2.4057673,-0.49065
 09,1.0901298\\Version=ES64L-G16RevC.01\State=1-A'\HF=-366.1049505\RMSD
 =4.363e-03\Dipole=0.5891701,0.6480367,0.\Quadrupole=-1.5924941,2.61511
 72,-1.0226231,-2.2306034,0.,0.\PG=CS [SG(H2O1Si1),X(H2)]\\@

 Normal termination of Gaussian 16 at Wed Apr  9 02:13:00 2025.
