 Gaussian 16, Revision C.01,

 ----------------------------------------------------------------------
 #t hf aug-cc-pvdz symm=none int=(grid=ultrafine) guess=(read,tcheck) s
 table=(opt,rrhf)
 ----------------------------------------------------------------------
 -----
 title
 -----
 Symbolic Z-matrix:
 Charge =  0 Multiplicity = 1

 SCF Done:  E(RHF) =  -750.114002699     A.U. after   10 cycles
 Normal termination of Gaussian 16 at Wed Apr  9 02:12:29 2025.
 Gaussian 16:  ES64L-G16RevC.01  3-Jul-2019

 ----------------------------------------------------------------------
 #t hf aug-cc-pvdz iop(5/13=1,5/36=2,99/5=2) pseudo=read geom=check gue
 ss=(read,tcheck) scf=(maxcycle=1)
 ----------------------------------------------------------------------
 -----
 title
 -----
 Structure from the checkpoint file:  "CARBHB12_11_mol1.chk"
 Charge =  0 Multiplicity = 1

                         Standard orientation:
 ---------------------------------------------------------------------
 Center     Atomic      Atomic             Coordinates (Angstroms)
 Number     Number       Type             X           Y           Z
 ---------------------------------------------------------------------
      1         17           0        0.000000    0.000000    1.974710
      2          1           0        0.000000    0.000000    0.682190
      3         14           0       -0.000000    0.000000   -2.012416
      4          1           0       -0.000000    1.094704   -3.039219
      5          1           0       -0.000000   -1.094704   -3.039219
 ---------------------------------------------------------------------

 SCF Done:  E(RHF) =  -750.149201824     A.U. after    2 cycles

 The electronic state is 1-A1.
 Alpha  occ. eigenvalues -- -103.65596 -69.10563 -10.68874  -8.34627  -8.34322
 Alpha  occ. eigenvalues --   -8.34322  -6.85562  -3.96076  -3.95846  -3.95720
 Alpha  occ. eigenvalues --   -1.14105  -0.68323  -0.61848  -0.47945  -0.47127
 Alpha  occ. eigenvalues --   -0.47110  -0.35161
 Alpha virt. eigenvalues --   -0.01320   0.03825   0.05988   0.06716   0.08074
 Alpha virt. eigenvalues --    0.08594   0.08756   0.13295   0.14965   0.15855
 Alpha virt. eigenvalues --    0.16581   0.16936   0.17486   0.20022   0.21251

 Mulliken charges:
               1
     1  Cl  -0.148335
     2  H    0.153759
     3  Si   0.217330
     4  H   -0.111377
     5  H   -0.111377
 Sum of Mulliken charges =   0.00000

 Dipole moment (field-independent basis, Debye):
    X=              0.0000    Y=             -0.0000    Z=             -2.5415  Tot=              2.5415

 Test job not archived.
 1\1\GINC-SE159\SP\RHF\Aug-CC-pVDZ\Cl1H3Si1\OHZDE\09-Apr-2025\0\\#t hf
 aug-cc-pvdz iop(5/13=1,5/36=2,99/5=2) pseudo=read geom=check guess=(re
 ad,tcheck) scf=(maxcycle=1)\\title\\0,1\Cl,0,0.,0.,-3.0615009\H,0,0.,0
 .,-1.7689806\Si,0,0.,0.,0.9256255\H,0,1.0947042,0.,1.9524281\H,0,-1.09
 47042,0.,1.9524281\\Version=ES64L-G16RevC.01\State=1-A1\HF=-750.149201
 8\RMSD=4.786e-03\Dipole=0.,0.,0.9999122\Quadrupole=-0.6286951,2.314068
 4,-1.6853733,0.,0.,0.\PG=C02V [C2(Si1H1Cl1),SGV(H2)]\\@

 Normal termination of Gaussian 16 at Wed Apr  9 02:12:32 2025.
