 Gaussian 16, Revision C.01,

 ----------------------------------------------------------------------
 #t hf aug-cc-pvdz symm=none int=(grid=ultrafine) guess=(read,tcheck) s
 table=(opt,rrhf)
 ----------------------------------------------------------------------
 -----
 title
 -----
 Symbolic Z-matrix:
 Charge =  0 Multiplicity = 1

 SCF Done:  E(RHF) =  -707.181384604     A.U. after   13 cycles
 Normal termination of Gaussian 16 at Wed Apr  9 02:19:53 2025.
 Gaussian 16:  ES64L-G16RevC.01  3-Jul-2019

 ----------------------------------------------------------------------
 #t hf aug-cc-pvdz iop(5/13=1,5/36=2,99/5=2) pseudo=read geom=check gue
 ss=(read,tcheck) scf=(maxcycle=1)
 ----------------------------------------------------------------------
 -----
 title
 -----
 Structure from the checkpoint file:  "CarbhydAroAA_20_mol3.chk"
 Charge =  0 Multiplicity = 1

                         Standard orientation:
 ---------------------------------------------------------------------
 Center     Atomic      Atomic             Coordinates (Angstroms)
 Number     Number       Type             X           Y           Z
 ---------------------------------------------------------------------
      1          6           0       -0.727947   -1.421871   -0.145655
      2          8           0       -1.238356   -2.682763    0.200387
      3          1           0       -1.106322   -3.221337   -0.431135
      4          8           0        0.706682   -1.243539    0.031845
      5          6           0        1.274972    0.043693   -0.067805
      6          6           0        2.739752    0.134225    0.382272
      7          8           0        3.391725   -1.065264   -0.062247
      8          1           0        2.813938   -1.643625   -0.253120
      9          1           0        2.797423    0.218203    1.346378
     10          1           0        3.167740    0.918193    0.003011
     11          1           0        1.302761    0.128007   -1.033864
     12          6           0        0.420282    1.262193    0.177832
     13          8           0        0.982306    2.271907   -0.637009
     14          1           0        1.526382    2.725520   -0.186182
     15          1           0        0.443769    1.479317    1.123268
     16          6           0       -1.092956    1.099966   -0.019651
     17          1           0       -1.214331    1.104078   -0.982405
     18          8           0       -1.810702    2.230346    0.433787
     19          1           0       -1.326982    2.913758    0.370611
     20          1           0       -0.695327   -1.372572   -1.113617
     21          6           0       -1.711941   -0.271216    0.125134
     22          1           0       -1.881054   -0.320971    1.078944
     23          9           0       -3.054912   -0.455112   -0.263194
 ---------------------------------------------------------------------

 SCF Done:  E(RHF) =  -707.403394109     A.U. after    2 cycles

 The electronic state is 1-A.
 Alpha  occ. eigenvalues --  -26.12621 -20.60595 -20.60433 -20.59762 -20.58256
 Alpha  occ. eigenvalues --  -20.55997 -11.37427 -11.33833 -11.32142 -11.31061
 Alpha  occ. eigenvalues --  -11.30042 -11.28561  -1.64877  -1.41577  -1.40855
 Alpha  occ. eigenvalues --   -1.38188  -1.36781  -1.34201  -1.11839  -1.09051
 Alpha  occ. eigenvalues --   -1.00294  -0.95242  -0.91978  -0.86660  -0.81063
 Alpha  occ. eigenvalues --   -0.80705  -0.77883  -0.76185  -0.74914  -0.73098
 Alpha  occ. eigenvalues --   -0.72750  -0.71209  -0.69281  -0.66296  -0.65111
 Alpha  occ. eigenvalues --   -0.63709  -0.62984  -0.61416  -0.59313  -0.57918
 Alpha  occ. eigenvalues --   -0.56177  -0.55110  -0.53551  -0.51734  -0.49609
 Alpha  occ. eigenvalues --   -0.48155  -0.46395  -0.44554
 Alpha virt. eigenvalues --    0.02438   0.03424   0.04220   0.04543   0.05636
 Alpha virt. eigenvalues --    0.06163   0.06450   0.06656   0.07498   0.08782
 Alpha virt. eigenvalues --    0.08900   0.10433   0.11876   0.12158   0.13118

 Mulliken charges:
               1
     1  C    1.691931
     2  O   -0.452113
     3  H    0.051073
     4  O   -0.959990
     5  C    0.340608
     6  C    2.062750
     7  O   -0.422101
     8  H    0.021197
     9  H   -0.358158
    10  H   -0.389396
    11  H   -0.465132
    12  C    0.086478
    13  O   -0.487891
    14  H    0.080536
    15  H   -0.347898
    16  C    1.019419
    17  H   -0.139298
    18  O   -0.530176
    19  H    0.016094
    20  H   -0.523840
    21  C    0.216268
    22  H   -0.136284
    23  F   -0.374077
 Sum of Mulliken charges =  -0.00000

 Dipole moment (field-independent basis, Debye):
    X=              2.1728    Y=              2.1493    Z=             -0.0988  Tot=              3.0579

 Test job not archived.
 1\1\GINC-SE024\SP\RHF\Aug-CC-pVDZ\C6H11F1O5\OHZDE\09-Apr-2025\0\\#t hf
  aug-cc-pvdz iop(5/13=1,5/36=2,99/5=2) pseudo=read geom=check guess=(r
 ead,tcheck) scf=(maxcycle=1)\\title\\0,1\C,0,134.77499,93.517,-20.046\
 O,0,134.518,92.335,-19.334\H,0,135.04201,92.283,-18.679\O,0,134.181,94
 .731,-19.503\C,0,134.188,95.92,-20.262\C,0,133.32001,97.05,-19.691\O,0
 ,133.464,97.011,-18.263\H,0,133.78301,96.269,-18.034\H,0,132.392,96.93
 1,-19.945\H,0,133.602,97.91,-20.041\H,0,135.103,96.201,-20.104\C,0,134
 .29601,95.85,-21.765\O,0,134.966,97.038,-22.138\H,0,134.40199,97.627,-

 Normal termination of Gaussian 16 at Wed Apr  9 02:20:11 2025.
