 Gaussian 16, Revision C.01,

 ----------------------------------------------------------------------
 #t hf aug-cc-pvdz symm=none int=(grid=ultrafine) guess=(read,tcheck) s
 table=(opt,rrhf)
 ----------------------------------------------------------------------
 -----
 title
 -----
 Symbolic Z-matrix:
 Charge =  0 Multiplicity = 1

 SCF Done:  E(RHF) =  -536.884664983     A.U. after   15 cycles

 1\1\GINC-SE024\Stability\RHF\Aug-CC-pVDZ\C2H3Cl1\OHZDE\09-Apr-2025\0\\
 #t hf aug-cc-pvdz symm=none int=(grid=ultrafine) guess=(read,tcheck) s
 table=(opt,rrhf)\\title\\0,1\C,0,-0.7375496,0.1931454,-0.7568952\Cl,0,
 0.1501291,0.0084722,-2.1749417\C,0,0.0490747,0.0027236,0.4636855\H,0,1
 .1320954,-0.0961517,0.3761685\H,0,-0.223446,0.795073,1.1676971\H,0,-0.
 3703035,-0.9032624,0.9242858\\Version=ES64L-G16RevC.01\HF=-536.884665\
 RMSD=3.909e-09\Dipole=0.5496124,-0.1496347,0.6493553\Quadrupole=-1.832
 5228,1.4684245,0.3640982,0.7589781,-1.2964751,0.259254\PG=Unknown\\@

 Normal termination of Gaussian 16 at Wed Apr  9 02:12:28 2025.
 Gaussian 16:  ES64L-G16RevC.01  3-Jul-2019

 ----------------------------------------------------------------------
 #t hf aug-cc-pvdz iop(5/13=1,5/36=2,99/5=2) pseudo=read geom=check gue
 ss=(read,tcheck) scf=(maxcycle=1)
 ----------------------------------------------------------------------
 -----
 title
 -----
 Structure from the checkpoint file:  "CARBHB12_10_mol3.chk"
 Charge =  0 Multiplicity = 1

                         Standard orientation:
 ---------------------------------------------------------------------
 Center     Atomic      Atomic             Coordinates (Angstroms)
 Number     Number       Type             X           Y           Z
 ---------------------------------------------------------------------
      1          6           0       -0.433671   -0.689690   -0.008249
      2         17           0        1.053237    0.098955    0.000444
      3          6           0       -1.584732    0.215801   -0.007471
      4          1           0       -1.408202    1.283994   -0.142270
      5          1           0       -2.312225   -0.162750   -0.732157
      6          1           0       -2.074187    0.039852    0.961197
 ---------------------------------------------------------------------

 SCF Done:  E(RHF) =  -536.928728840     A.U. after    2 cycles

 The electronic state is 1-A.
 Alpha  occ. eigenvalues -- -103.68720 -11.33515 -11.25826 -10.72152  -8.37853
 Alpha  occ. eigenvalues --   -8.37604  -8.37510  -1.21418  -1.02559  -0.77410
 Alpha  occ. eigenvalues --   -0.63010  -0.59769  -0.59085  -0.50737  -0.49633
 Alpha  occ. eigenvalues --   -0.36612
 Alpha virt. eigenvalues --    0.03547   0.05473   0.05655   0.05949   0.07844
 Alpha virt. eigenvalues --    0.09842   0.13164   0.13984   0.14552   0.14648
 Alpha virt. eigenvalues --    0.16885   0.17362   0.18590   0.18751   0.23208

 Mulliken charges:
               1
     1  C   -0.365864
     2  Cl  -0.069719
     3  C    0.486603
     4  H   -0.088223
     5  H   -0.003665
     6  H    0.040867
 Sum of Mulliken charges =   0.00000

 Dipole moment (field-independent basis, Debye):
    X=             -1.6323    Y=              1.5505    Z=              0.0507  Tot=              2.2518

 Test job not archived.
 1\1\GINC-SE024\SP\RHF\Aug-CC-pVDZ\C2H3Cl1\OHZDE\09-Apr-2025\0\\#t hf a
 ug-cc-pvdz iop(5/13=1,5/36=2,99/5=2) pseudo=read geom=check guess=(rea
 d,tcheck) scf=(maxcycle=1)\\title\\0,1\C,0,-0.7375496,0.1931454,-0.756
 8952\Cl,0,0.1501291,0.0084722,-2.1749417\C,0,0.0490747,0.0027236,0.463
 6855\H,0,1.1320954,-0.0961517,0.3761685\H,0,-0.223446,0.795073,1.16769
 71\H,0,-0.3703035,-0.9032624,0.9242858\\Version=ES64L-G16RevC.01\State
 =1-A\HF=-536.9287288\RMSD=3.976e-03\Dipole=0.5366879,-0.1478232,0.6892
 078\Quadrupole=-2.7084674,0.5091981,2.1992693,0.7066869,-0.1003363,-0.

 Normal termination of Gaussian 16 at Wed Apr  9 02:12:30 2025.
