 Gaussian 16, Revision C.01,

 ----------------------------------------------------------------------
 #t hf aug-cc-pvdz symm=none int=(grid=ultrafine) guess=(read,tcheck) s
 table=(opt,rrhf)
 ----------------------------------------------------------------------
 -----
 title
 -----
 Symbolic Z-matrix:
 Charge =  0 Multiplicity = 1

 SCF Done:  E(RHF) =  -536.885497831     A.U. after   15 cycles

 1\1\GINC-SE165\Stability\RHF\Aug-CC-pVDZ\C2H3Cl1\OHZDE\09-Apr-2025\0\\
 #t hf aug-cc-pvdz symm=none int=(grid=ultrafine) guess=(read,tcheck) s
 table=(opt,rrhf)\\title\\0,1\C,0,-0.7812762,0.1517281,-0.7419824\Cl,0,
 0.1322569,-0.0037532,-2.1651677\C,0,0.0535089,0.0161273,0.4601907\H,0,
 1.1401585,0.0053175,0.3540221\H,0,-0.2671755,0.7649204,1.1894818\H,0,-
 0.2774726,-0.9343402,0.9034555\\Version=ES64L-G16RevC.01\HF=-536.88549
 78\RMSD=4.484e-09\Dipole=0.5578732,-0.1127478,0.6680997\Quadrupole=-1.
 834272,1.5839882,0.2502838,0.5370869,-1.2621071,0.1570093\PG=Unknown\\

 Normal termination of Gaussian 16 at Wed Apr  9 02:12:59 2025.
 Gaussian 16:  ES64L-G16RevC.01  3-Jul-2019

 ----------------------------------------------------------------------
 #t hf aug-cc-pvdz iop(5/13=1,5/36=2,99/5=2) pseudo=read geom=check gue
 ss=(read,tcheck) scf=(maxcycle=1)
 ----------------------------------------------------------------------
 -----
 title
 -----
 Structure from the checkpoint file:  "CARBHB12_2_mol3.chk"
 Charge =  0 Multiplicity = 1

                         Standard orientation:
 ---------------------------------------------------------------------
 Center     Atomic      Atomic             Coordinates (Angstroms)
 Number     Number       Type             X           Y           Z
 ---------------------------------------------------------------------
      1          6           0       -0.440878   -0.712735   -0.010210
      2         17           0        1.049496    0.101419    0.000410
      3          6           0       -1.574278    0.223149   -0.009518
      4          1           0       -1.385408    1.286452   -0.170490
      5          1           0       -2.334215   -0.154399   -0.698972
      6          1           0       -2.030869    0.081337    0.980853
 ---------------------------------------------------------------------

 SCF Done:  E(RHF) =  -536.929154371     A.U. after    2 cycles

 The electronic state is 1-A.
 Alpha  occ. eigenvalues -- -103.68530 -11.33968 -11.25900 -10.71946  -8.37643
 Alpha  occ. eigenvalues --   -8.37397  -8.37307  -1.20997  -1.02506  -0.77427
 Alpha  occ. eigenvalues --   -0.62969  -0.59814  -0.58722  -0.50504  -0.49289
 Alpha  occ. eigenvalues --   -0.37185
 Alpha virt. eigenvalues --    0.03534   0.05378   0.05648   0.05854   0.07871
 Alpha virt. eigenvalues --    0.09815   0.13088   0.14016   0.14594   0.14695
 Alpha virt. eigenvalues --    0.16847   0.17368   0.18545   0.18761   0.22889

 Mulliken charges:
               1
     1  C   -0.351916
     2  Cl  -0.077426
     3  C    0.480974
     4  H   -0.084272
     5  H   -0.012175
     6  H    0.044816
 Sum of Mulliken charges =  -0.00000

 Dipole moment (field-independent basis, Debye):
    X=             -1.6855    Y=              1.5461    Z=              0.0586  Tot=              2.2880

 Test job not archived.
 1\1\GINC-SE165\SP\RHF\Aug-CC-pVDZ\C2H3Cl1\OHZDE\09-Apr-2025\0\\#t hf a
 ug-cc-pvdz iop(5/13=1,5/36=2,99/5=2) pseudo=read geom=check guess=(rea
 d,tcheck) scf=(maxcycle=1)\\title\\0,1\C,0,-0.7812762,0.1517281,-0.741
 9824\Cl,0,0.1322569,-0.0037532,-2.1651677\C,0,0.0535089,0.0161273,0.46
 01907\H,0,1.1401585,0.0053175,0.3540221\H,0,-0.2671755,0.7649204,1.189
 4818\H,0,-0.2774726,-0.9343402,0.9034555\\Version=ES64L-G16RevC.01\Sta
 te=1-A\HF=-536.9291544\RMSD=3.954e-03\Dipole=0.544624,-0.1112629,0.708
 0355\Quadrupole=-2.7059626,0.5857775,2.1201851,0.4962954,-0.0358339,-0

 Normal termination of Gaussian 16 at Wed Apr  9 02:13:03 2025.
