 Gaussian 16, Revision C.01,

 ----------------------------------------------------------------------
 #t hf aug-cc-pvdz symm=none int=(grid=ultrafine) guess=(read,tcheck) s
 table=(opt,rrhf)
 ----------------------------------------------------------------------
 -----
 title
 -----
 Symbolic Z-matrix:
 Charge =  0 Multiplicity = 1

 SCF Done:  E(RHF) =  -290.018977596     A.U. after    9 cycles
 Normal termination of Gaussian 16 at Wed Apr  9 02:12:28 2025.
 Gaussian 16:  ES64L-G16RevC.01  3-Jul-2019

 ----------------------------------------------------------------------
 #t hf aug-cc-pvdz iop(5/13=1,5/36=2,99/5=2) pseudo=read geom=check gue
 ss=(read,tcheck) scf=(maxcycle=1)
 ----------------------------------------------------------------------
 -----
 title
 -----
 Structure from the checkpoint file:  "CARBHB12_11_mol3.chk"
 Charge =  0 Multiplicity = 1

                         Standard orientation:
 ---------------------------------------------------------------------
 Center     Atomic      Atomic             Coordinates (Angstroms)
 Number     Number       Type             X           Y           Z
 ---------------------------------------------------------------------
      1         14           0        0.000000    0.000000    0.128351
      2          1           0        0.000000    1.094704   -0.898455
      3          1           0       -0.000000   -1.094704   -0.898455
 ---------------------------------------------------------------------

 SCF Done:  E(RHF) =  -290.035482711     A.U. after    2 cycles

 The electronic state is 1-A1.
 Alpha  occ. eigenvalues --  -69.08775  -6.83746  -3.94235  -3.94017  -3.93890
 Alpha  occ. eigenvalues --   -0.66581  -0.46406  -0.32943
 Alpha virt. eigenvalues --   -0.00017   0.04230   0.06279   0.07307   0.09134
 Alpha virt. eigenvalues --    0.09464   0.14442   0.18424   0.20314   0.21299
 Alpha virt. eigenvalues --    0.21313   0.21560   0.35588   0.35800   0.36840

 Mulliken charges:
               1
     1  Si   0.211130
     2  H   -0.105565
     3  H   -0.105565
 Sum of Mulliken charges =  -0.00000

 Dipole moment (field-independent basis, Debye):
    X=              0.0000    Y=             -0.0000    Z=             -0.3944  Tot=              0.3944

 Test job not archived.
 1\1\GINC-SE403\SP\RHF\Aug-CC-pVDZ\H2Si1\OHZDE\09-Apr-2025\0\\#t hf aug
 -cc-pvdz iop(5/13=1,5/36=2,99/5=2) pseudo=read geom=check guess=(read,
 tcheck) scf=(maxcycle=1)\\title\\0,1\Si,0,0.,0.,-0.684537\H,0,1.094704
 2,0.,0.3422685\H,0,-1.0947042,0.,0.3422685\\Version=ES64L-G16RevC.01\S
 tate=1-A1\HF=-290.0354827\RMSD=7.830e-03\Dipole=0.,0.,0.155164\Quadrup
 ole=-0.3758023,2.6393199,-2.2635176,0.,0.,0.\PG=C02V [C2(Si1),SGV(H2)]
 \\@

 Normal termination of Gaussian 16 at Wed Apr  9 02:12:29 2025.
