 Gaussian 16, Revision C.01,

 ----------------------------------------------------------------------
 #t hf aug-cc-pvdz symm=none int=(grid=ultrafine) guess=(read,tcheck) s
 table=(opt,rrhf)
 ----------------------------------------------------------------------
 -----
 title
 -----
 Symbolic Z-matrix:
 Charge =  0 Multiplicity = 1

 SCF Done:  E(RHF) =  -931.085717267     A.U. after   13 cycles
 Normal termination of Gaussian 16 at Wed Apr  9 02:19:24 2025.
 Gaussian 16:  ES64L-G16RevC.01  3-Jul-2019

 ----------------------------------------------------------------------
 #t hf aug-cc-pvdz iop(5/13=1,5/36=2,99/5=2) pseudo=read geom=check gue
 ss=(read,tcheck) scf=(maxcycle=1)
 ----------------------------------------------------------------------
 -----
 title
 -----
 Structure from the checkpoint file:  "CarbhydAroAA_42_mol3.chk"
 Charge =  0 Multiplicity = 1

                         Standard orientation:
 ---------------------------------------------------------------------
 Center     Atomic      Atomic             Coordinates (Angstroms)
 Number     Number       Type             X           Y           Z
 ---------------------------------------------------------------------
      1          6           0       -1.204582   -1.753413   -0.480968
      2          6           0       -1.823676   -0.610174    0.300427
      3          6           0       -1.120948    0.703125   -0.048523
      4          8           0       -1.657611    1.760491    0.775687
      5          1           0       -1.339931    1.699984    1.551042
      6          1           0       -1.279547    0.902632   -0.984540
      7          6           0        0.391989    0.592522    0.154781
      8         16           0        1.184582    2.063744   -0.487697
      9          1           0        1.413589    2.844848    0.398632
     10          1           0        0.599035    0.515055    1.098868
     11          6           0        0.905395   -0.657402   -0.570359
     12          1           0        0.778993   -0.488290   -1.517076
     13          6           0        2.385280   -0.926496   -0.267220
     14          1           0        2.914901   -0.142871   -0.481482
     15          8           0        2.546493   -1.262364    1.114389
     16          1           0        3.305991   -1.016611    1.375652
     17          1           0        2.711574   -1.650820   -0.824626
     18          8           0       -3.223464   -0.511316   -0.016051
     19          1           0       -3.326095   -0.004149   -0.678000
     20          1           0       -1.719886   -0.780757    1.249262
     21          1           0       -1.309330   -1.558106   -1.569633
     22          8           0        0.185315   -1.827079   -0.139740
     23          1           0       -1.709229   -2.707635   -0.218067
 ---------------------------------------------------------------------

 SCF Done:  E(RHF) =  -931.271492714     A.U. after    2 cycles

 The electronic state is 1-A.
 Alpha  occ. eigenvalues --  -93.53003 -20.58645 -20.56686 -20.56222 -20.56106
 Alpha  occ. eigenvalues --  -11.30198 -11.29909 -11.29837 -11.28661 -11.27488
 Alpha  occ. eigenvalues --  -11.27047  -8.83378  -6.17769  -6.17351  -6.17071
 Alpha  occ. eigenvalues --   -1.37429  -1.36202  -1.35121  -1.33991  -1.12210
 Alpha  occ. eigenvalues --   -1.06840  -1.00468  -0.95888  -0.90438  -0.87310
 Alpha  occ. eigenvalues --   -0.85143  -0.75880  -0.74858  -0.71804  -0.69772
 Alpha  occ. eigenvalues --   -0.69435  -0.66777  -0.65557  -0.64533  -0.61303
 Alpha  occ. eigenvalues --   -0.59881  -0.59514  -0.58013  -0.54875  -0.54442
 Alpha  occ. eigenvalues --   -0.52604  -0.51275  -0.50116  -0.48076  -0.46852
 Alpha  occ. eigenvalues --   -0.44957  -0.43155  -0.36674
 Alpha virt. eigenvalues --    0.03102   0.03709   0.04238   0.04823   0.05439
 Alpha virt. eigenvalues --    0.05788   0.06202   0.06628   0.07370   0.08452
 Alpha virt. eigenvalues --    0.08682   0.09057   0.10561   0.11259   0.12913

 Mulliken charges:
               1
     1  C    0.778162
     2  C    0.775544
     3  C    0.882521
     4  O   -0.341099
     5  H   -0.065459
     6  H   -0.668400
     7  C   -0.102226
     8  S    0.786029
     9  H   -0.378021
    10  H   -0.642556
    11  C    0.837871
    12  H   -0.676840
    13  C    1.928050
    14  H   -0.469229
    15  O   -0.427320
    16  H   -0.001528
    17  H   -0.406294
    18  O   -0.411139
    19  H   -0.021054
    20  H   -0.458765
    21  H    0.051846
    22  O   -0.819068
    23  H   -0.151025
 Sum of Mulliken charges =  -0.00000

 Dipole moment (field-independent basis, Debye):
    X=              2.6999    Y=              0.6510    Z=             -0.8885  Tot=              2.9159

 Test job not archived.
 1\1\GINC-SE143\SP\RHF\Aug-CC-pVDZ\C6H12O4S1\OHZDE\09-Apr-2025\0\\#t hf
  aug-cc-pvdz iop(5/13=1,5/36=2,99/5=2) pseudo=read geom=check guess=(r
 ead,tcheck) scf=(maxcycle=1)\\title\\0,1\C,0,16.648,9.354,77.806\C,0,1
 6.955,9.993,79.147\C,0,16.11,9.341,80.243\O,0,16.344,10.027,81.492\H,0
 ,15.93,10.758,81.492\H,0,16.37,8.41,80.325\C,0,14.621,9.38,79.891\S,0,
 13.706,8.403,81.08\H,0,13.22766,9.10707,81.93066\H,0,14.293,10.292,79.
 92\C,0,14.426,8.827,78.474\H,0,14.661,7.887,78.519\C,0,12.98,8.995,77.
 989\H,0,12.369,8.587,78.622\O,0,12.674,10.385,77.841\H,0,11.855,10.508

 Normal termination of Gaussian 16 at Wed Apr  9 02:19:42 2025.
