 Gaussian 16, Revision C.01,

 ----------------------------------------------------------------------
 #t hf aug-cc-pvdz symm=none int=(grid=ultrafine) guess=(read,tcheck) s
 table=(opt,rrhf)
 ----------------------------------------------------------------------
 -----
 title
 -----
 Symbolic Z-matrix:
 Charge =  0 Multiplicity = 1

 SCF Done:  E(RHF) =  -996.982429430     A.U. after   15 cycles

 1\1\GINC-SE159\Stability\RHF\Aug-CC-pVDZ\C2H4Cl2\OHZDE\09-Apr-2025\0\\
 #t hf aug-cc-pvdz symm=none int=(grid=ultrafine) guess=(read,tcheck) s
 table=(opt,rrhf)\\title\\0,1\Cl,0,-3.0055463,0.0778996,-0.2213256\H,0,
 -1.6873101,0.2145761,-0.5134177\C,0,0.0445931,0.1443994,-0.634438\Cl,0
 ,0.9322718,-0.0402738,-2.0524845\C,0,0.8312174,-0.0460224,0.5861427\H,
 0,1.9142382,-0.1448977,0.4986257\H,0,0.5586967,0.746327,1.2901543\H,0,
 0.4118392,-0.9520083,1.046743\\Version=ES64L-G16RevC.01\HF=-996.982429
 4\RMSD=4.288e-09\Dipole=1.9463244,-0.077664,0.3635012\Quadrupole=-6.34

 Normal termination of Gaussian 16 at Wed Apr  9 02:12:01 2025.
 Gaussian 16:  ES64L-G16RevC.01  3-Jul-2019

 ----------------------------------------------------------------------
 #t hf aug-cc-pvdz iop(5/13=1,5/36=2,99/5=2) pseudo=read geom=check gue
 ss=(read,tcheck) scf=(maxcycle=1)
 ----------------------------------------------------------------------
 -----
 title
 -----
 Structure from the checkpoint file:  "CARBHB12_10_mol1.chk"
 Charge =  0 Multiplicity = 1

                         Standard orientation:
 ---------------------------------------------------------------------
 Center     Atomic      Atomic             Coordinates (Angstroms)
 Number     Number       Type             X           Y           Z
 ---------------------------------------------------------------------
      1         17           0       -2.474061   -0.215604    0.016286
      2          1           0       -1.132181   -0.114610   -0.159510
      3          6           0        0.561649    0.272264   -0.141458
      4         17           0        1.827274   -0.825546    0.019602
      5          6           0        0.965542    1.670453    0.022232
      6          1           0        2.029743    1.901655    0.088514
      7          1           0        0.478283    2.256506   -0.763158
      8          1           0        0.456391    1.999691    0.939406
 ---------------------------------------------------------------------

 SCF Done:  E(RHF) =  -997.044394738     A.U. after    2 cycles

 The electronic state is 1-A.
 Alpha  occ. eigenvalues -- -103.71856-103.61478 -11.37591 -11.28301 -10.75246
 Alpha  occ. eigenvalues --  -10.64828  -8.40951  -8.40692  -8.40599  -8.30541
 Alpha  occ. eigenvalues --   -8.30307  -8.30305  -1.24546  -1.10069  -1.05374
 Alpha  occ. eigenvalues --   -0.80862  -0.66748  -0.62844  -0.62231  -0.58671
 Alpha  occ. eigenvalues --   -0.53458  -0.51939  -0.43866  -0.43831  -0.39892
 Alpha virt. eigenvalues --    0.02194   0.02918   0.05194   0.05568   0.06277
 Alpha virt. eigenvalues --    0.08486   0.10383   0.13081   0.13136   0.13415
 Alpha virt. eigenvalues --    0.15430   0.16017   0.16936   0.17579   0.17985

 Mulliken charges:
               1
     1  Cl  -0.338374
     2  H    0.374474
     3  C   -0.305501
     4  Cl  -0.095561
     5  C    0.331715
     6  H   -0.080318
     7  H    0.038838
     8  H    0.074727
 Sum of Mulliken charges =   0.00000

 Dipole moment (field-independent basis, Debye):
    X=              4.4466    Y=              2.4116    Z=              0.0404  Tot=              5.0587

 Test job not archived.
 1\1\GINC-SE159\SP\RHF\Aug-CC-pVDZ\C2H4Cl2\OHZDE\09-Apr-2025\0\\#t hf a
 ug-cc-pvdz iop(5/13=1,5/36=2,99/5=2) pseudo=read geom=check guess=(rea
 d,tcheck) scf=(maxcycle=1)\\title\\0,1\Cl,0,-3.0055463,0.0778996,-0.22
 13256\H,0,-1.6873101,0.2145761,-0.5134177\C,0,0.0445931,0.1443994,-0.6
 34438\Cl,0,0.9322718,-0.0402738,-2.0524845\C,0,0.8312174,-0.0460224,0.
 5861427\H,0,1.9142382,-0.1448977,0.4986257\H,0,0.5586967,0.746327,1.29
 01543\H,0,0.4118392,-0.9520083,1.046743\\Version=ES64L-G16RevC.01\Stat
 e=1-A\HF=-997.0443947\RMSD=3.638e-03\Dipole=1.9480106,-0.0757701,0.400

 Normal termination of Gaussian 16 at Wed Apr  9 02:12:04 2025.
