 Gaussian 16, Revision C.01,

 ----------------------------------------------------------------------
 #t hf aug-cc-pvdz symm=none int=(grid=ultrafine) guess=(read,tcheck) s
 table=(opt,rrhf)
 ----------------------------------------------------------------------
 -----
 title
 -----
 Symbolic Z-matrix:
 Charge =  0 Multiplicity = 1

 SCF Done:  E(RHF) =  -498.983597315     A.U. after   10 cycles

 1\1\GINC-SE229\Stability\RHF\Aug-CC-pVDZ\C1H3Cl1\OHZDE\09-Apr-2025\0\\
 #t hf aug-cc-pvdz symm=none int=(grid=ultrafine) guess=(read,tcheck) s
 table=(opt,rrhf)\\title\\0,1\Cl,0,0.,0.,-2.4361129\H,0,0.,0.,-1.102863
 8\C,0,0.,0.,0.7376197\H,0,0.8765006,0.,1.4006785\H,0,-0.8765006,0.,1.4
 006785\\Version=ES64L-G16RevC.01\HF=-498.9835973\RMSD=8.256e-09\Dipole
 =0.,0.,1.9499507\Quadrupole=1.2150186,1.5890282,-2.8040468,0.,0.,0.\PG
 =Unknown\\@
 The archive entry for this job was punched.

 Normal termination of Gaussian 16 at Wed Apr  9 02:13:06 2025.
 Gaussian 16:  ES64L-G16RevC.01  3-Jul-2019

 ----------------------------------------------------------------------
 #t hf aug-cc-pvdz iop(5/13=1,5/36=2,99/5=2) pseudo=read geom=check gue
 ss=(read,tcheck) scf=(maxcycle=1)
 ----------------------------------------------------------------------
 -----
 title
 -----
 Structure from the checkpoint file:  "CARBHB12_9_mol1.chk"
 Charge =  0 Multiplicity = 1

                         Standard orientation:
 ---------------------------------------------------------------------
 Center     Atomic      Atomic             Coordinates (Angstroms)
 Number     Number       Type             X           Y           Z
 ---------------------------------------------------------------------
      1         17           0       -0.000000   -0.000000    1.078816
      2          1           0        0.000000    0.000000   -0.254433
      3          6           0        0.000000    0.000000   -2.094916
      4          1           0        0.000000    0.876501   -2.757975
      5          1           0       -0.000000   -0.876501   -2.757975
 ---------------------------------------------------------------------

 SCF Done:  E(RHF) =  -499.013598024     A.U. after    2 cycles

 The electronic state is 1-A1.
 Alpha  occ. eigenvalues -- -103.61982 -11.34286 -10.65327  -8.31050  -8.30800
 Alpha  occ. eigenvalues --   -8.30799  -1.10636  -0.93320  -0.61726  -0.60521
 Alpha  occ. eigenvalues --   -0.44194  -0.44176  -0.42783
 Alpha virt. eigenvalues --   -0.00674   0.02491   0.04914   0.06931   0.13095
 Alpha virt. eigenvalues --    0.13644   0.14641   0.15350   0.17039   0.17952
 Alpha virt. eigenvalues --    0.18204   0.25190   0.25725   0.27532   0.30424

 Mulliken charges:
               1
     1  Cl  -0.300924
     2  H    0.364743
     3  C    0.162716
     4  H   -0.113268
     5  H   -0.113268
 Sum of Mulliken charges =  -0.00000

 Dipole moment (field-independent basis, Debye):
    X=              0.0000    Y=              0.0000    Z=             -4.9920  Tot=              4.9920

 Test job not archived.
 1\1\GINC-SE229\SP\RHF\Aug-CC-pVDZ\C1H3Cl1\OHZDE\09-Apr-2025\0\\#t hf a
 ug-cc-pvdz iop(5/13=1,5/36=2,99/5=2) pseudo=read geom=check guess=(rea
 d,tcheck) scf=(maxcycle=1)\\title\\0,1\Cl,0,0.,0.,-2.4361129\H,0,0.,0.
 ,-1.1028638\C,0,0.,0.,0.7376197\H,0,0.8765006,0.,1.4006785\H,0,-0.8765
 006,0.,1.4006785\\Version=ES64L-G16RevC.01\State=1-A1\HF=-499.013598\R
 MSD=2.649e-03\Dipole=0.,0.,1.9639851\Quadrupole=-2.1370528,-1.7728825,
 3.9099353,0.,0.,0.\PG=C02V [C2(C1H1Cl1),SGV(H2)]\\@

 Normal termination of Gaussian 16 at Wed Apr  9 02:13:08 2025.
