 Gaussian 16, Revision C.01,

 ----------------------------------------------------------------------
 #t hf aug-cc-pvdz symm=none int=(grid=ultrafine) guess=(read,tcheck) s
 table=(opt,rrhf)
 ----------------------------------------------------------------------
 -----
 title
 -----
 Symbolic Z-matrix:
 Charge =  0 Multiplicity = 1

 SCF Done:  E(RHF) =  -918.966082412     A.U. after    9 cycles
 Normal termination of Gaussian 16 at Wed Apr  9 02:15:59 2025.
 Gaussian 16:  ES64L-G16RevC.01  3-Jul-2019

 ----------------------------------------------------------------------
 #t hf aug-cc-pvdz iop(5/13=1,5/36=2,99/5=2) pseudo=read geom=check gue
 ss=(read,tcheck) scf=(maxcycle=1)
 ----------------------------------------------------------------------
 -----
 title
 -----
 Structure from the checkpoint file:  "Cl-set_ch4_cl2_090_dimer_mol3.chk"
 Charge =  0 Multiplicity = 1

                         Standard orientation:
 ---------------------------------------------------------------------
 Center     Atomic      Atomic             Coordinates (Angstroms)
 Number     Number       Type             X           Y           Z
 ---------------------------------------------------------------------
      1         17           0        0.000000    0.000000    0.996860
      2         17           0        0.000000    0.000000   -0.996860
 ---------------------------------------------------------------------

 SCF Done:  E(RHF) =  -919.009294828     A.U. after    2 cycles

 The electronic state is 1-SGG.
 Alpha  occ. eigenvalues -- -103.72600-103.72597 -10.75658 -10.75654  -8.41426
 Alpha  occ. eigenvalues --   -8.41411  -8.40947  -8.40947  -8.40945  -8.40945
 Alpha  occ. eigenvalues --   -1.26691  -1.07019  -0.61653  -0.58403  -0.58403
 Alpha  occ. eigenvalues --   -0.46170  -0.46170
 Alpha virt. eigenvalues --    0.00490   0.11419   0.12419   0.13378   0.13378
 Alpha virt. eigenvalues --    0.15805   0.16255   0.16255   0.29625   0.38332
 Alpha virt. eigenvalues --    0.38332   0.38628   0.38628   0.51359   0.52559

 Mulliken charges:
               1
     1  Cl   0.000000
     2  Cl  -0.000000
 Sum of Mulliken charges =  -0.00000

 Dipole moment (field-independent basis, Debye):
    X=              0.0000    Y=             -0.0000    Z=             -0.0000  Tot=              0.0000

 Test job not archived.
 1\1\GINC-SE459\SP\RHF\Aug-CC-pVDZ\Cl2\OHZDE\09-Apr-2025\0\\#t hf aug-c
 c-pvdz iop(5/13=1,5/36=2,99/5=2) pseudo=read geom=check guess=(read,tc
 heck) scf=(maxcycle=1)\\title\\0,1\Cl,0,0.,0.,0.99686\Cl,0,0.,0.,-0.99
 686\\Version=ES64L-G16RevC.01\State=1-SGG\HF=-919.0092948\RMSD=2.824e-
 03\Dipole=0.,0.,0.\Quadrupole=-0.9556612,-0.9556612,1.9113224,0.,0.,0.
 \PG=D*H [C*(Cl1.Cl1)]\\@

 Normal termination of Gaussian 16 at Wed Apr  9 02:16:00 2025.
