 Gaussian 16, Revision C.01,

 ----------------------------------------------------------------------
 #t hf aug-cc-pvdz symm=none int=(grid=ultrafine) guess=(read,tcheck) s
 table=(opt,rrhf)
 ----------------------------------------------------------------------
 -----
 title
 -----
 Symbolic Z-matrix:
 Charge =  0 Multiplicity = 1

 SCF Done:  E(RHF) =  -1491.82019233     A.U. after   12 cycles
 Normal termination of Gaussian 16 at Wed Apr  9 02:16:01 2025.
 Gaussian 16:  ES64L-G16RevC.01  3-Jul-2019

 ----------------------------------------------------------------------
 #t hf aug-cc-pvdz iop(5/13=1,5/36=2,99/5=2) pseudo=read geom=check gue
 ss=(read,tcheck) scf=(maxcycle=1)
 ----------------------------------------------------------------------
 -----
 title
 -----
 Structure from the checkpoint file:  "Cl-set_ccl3oh_ccl3oh_090_dimer_mol2.chk"
 Charge =  0 Multiplicity = 1

                         Standard orientation:
 ---------------------------------------------------------------------
 Center     Atomic      Atomic             Coordinates (Angstroms)
 Number     Number       Type             X           Y           Z
 ---------------------------------------------------------------------
      1          6           0       -0.025299   -0.000149    0.284450
      2          8           0       -0.084819   -0.001278    1.630350
      3          1           0        0.806691    0.009247    1.989580
      4         17           0        0.862677   -1.438824   -0.333550
      5         17           0       -1.682050   -0.023862   -0.317780
      6         17           0        0.820765    1.462796   -0.333320
 ---------------------------------------------------------------------

 SCF Done:  E(RHF) =  -1491.91311158     A.U. after    2 cycles

 The electronic state is 1-A.
 Alpha  occ. eigenvalues -- -103.69399-103.69148-103.69145 -20.65273 -11.50849
 Alpha  occ. eigenvalues --  -10.72794 -10.72534 -10.72516  -8.38518  -8.38240
 Alpha  occ. eigenvalues --   -8.38232  -8.38159  -8.38158  -8.37906  -8.37902
 Alpha  occ. eigenvalues --   -8.37897  -8.37893  -1.44584  -1.24200  -1.16891
 Alpha  occ. eigenvalues --   -1.16300  -0.90502  -0.77169  -0.70713  -0.70613
 Alpha  occ. eigenvalues --   -0.60096  -0.56396  -0.52257  -0.51550  -0.50333
 Alpha  occ. eigenvalues --   -0.48134  -0.47809  -0.46739
 Alpha virt. eigenvalues --    0.03553   0.06529   0.08485   0.08507   0.09654
 Alpha virt. eigenvalues --    0.11935   0.12539   0.14300   0.14681   0.14730
 Alpha virt. eigenvalues --    0.15466   0.18627   0.18919   0.19083   0.20710

 Mulliken charges:
               1
     1  C   -0.265426
     2  O   -0.322079
     3  H    0.199235
     4  Cl   0.122368
     5  Cl   0.143153
     6  Cl   0.122749
 Sum of Mulliken charges =   0.00000

 Dipole moment (field-independent basis, Debye):
    X=              1.2222    Y=              0.0161    Z=              1.0003  Tot=              1.5794

 Test job not archived.
 1\1\GINC-SE365\SP\RHF\Aug-CC-pVDZ\C1H1Cl3O1\OHZDE\09-Apr-2025\0\\#t hf
  aug-cc-pvdz iop(5/13=1,5/36=2,99/5=2) pseudo=read geom=check guess=(r
 ead,tcheck) scf=(maxcycle=1)\\title\\0,1\C,0,-0.0253,-0.00015,0.28445\
 O,0,-0.08482,-0.00128,1.63035\H,0,0.80669,0.00926,1.98958\Cl,0,0.8627,
 -1.43881,-0.33355\Cl,0,-1.68205,-0.02389,-0.31778\Cl,0,0.82074,1.46281
 ,-0.33332\\Version=ES64L-G16RevC.01\State=1-A\HF=-1491.9131116\RMSD=2.
 765e-03\Dipole=0.4808331,0.0063387,0.3935526\Quadrupole=0.4594476,-1.1
 46023,0.6865753,0.0212588,2.8024751,0.0330958\PG=C01 [X(C1H1Cl3O1)]\\@

 Normal termination of Gaussian 16 at Wed Apr  9 02:16:03 2025.
