 Gaussian 16, Revision C.01,

 ----------------------------------------------------------------------
 #t hf aug-cc-pvdz symm=none int=(grid=ultrafine) guess=(read,tcheck) s
 table=(opt,rrhf)
 ----------------------------------------------------------------------
 -----
 title
 -----
 Symbolic Z-matrix:
 Charge =  0 Multiplicity = 1

 SCF Done:  E(RHF) =  -1604.57865239     A.U. after   14 cycles
 Normal termination of Gaussian 16 at Wed Apr  9 02:16:09 2025.
 Gaussian 16:  ES64L-G16RevC.01  3-Jul-2019

 ----------------------------------------------------------------------
 #t hf aug-cc-pvdz iop(5/13=1,5/36=2,99/5=2) pseudo=read geom=check gue
 ss=(read,tcheck) scf=(maxcycle=1)
 ----------------------------------------------------------------------
 -----
 title
 -----
 Structure from the checkpoint file:  "Cl-set_ccl3co2h_ccl3co2h_090_dimer_mol2.chk"
 Charge =  0 Multiplicity = 1

                         Standard orientation:
 ---------------------------------------------------------------------
 Center     Atomic      Atomic             Coordinates (Angstroms)
 Number     Number       Type             X           Y           Z
 ---------------------------------------------------------------------
      1          6           0        1.261500    0.459936   -0.000350
      2          8           0        2.090865   -0.577950   -0.000180
      3          8           0        1.589444    1.602798   -0.000590
      4          1           0        2.989483   -0.233325   -0.000320
      5          6           0       -0.216088   -0.018571   -0.000010
      6         17           0       -0.490493   -0.998573   -1.456110
      7         17           0       -0.490833   -0.994753    1.458570
      8         17           0       -1.295405    1.368993   -0.001950
 ---------------------------------------------------------------------

 SCF Done:  E(RHF) =  -1604.70653638     A.U. after    2 cycles

 The electronic state is 1-A.
 Alpha  occ. eigenvalues -- -103.70228-103.70226-103.69624 -20.66137 -20.60748
 Alpha  occ. eigenvalues --  -11.46658 -11.44946 -10.73560 -10.73545 -10.72968
 Alpha  occ. eigenvalues --   -8.39278  -8.39273  -8.38929  -8.38927  -8.38921
 Alpha  occ. eigenvalues --   -8.38919  -8.38696  -8.38340  -8.38336  -1.47651
 Alpha  occ. eigenvalues --   -1.37863  -1.28350  -1.17358  -1.16989  -0.98417
 Alpha  occ. eigenvalues --   -0.84730  -0.75989  -0.74575  -0.70516  -0.65420
 Alpha  occ. eigenvalues --   -0.64610  -0.64197  -0.55290  -0.54238  -0.52359
 Alpha  occ. eigenvalues --   -0.52066  -0.48839  -0.48579  -0.47808  -0.47191
 Alpha virt. eigenvalues --    0.03191   0.06324   0.07345   0.08265   0.09394
 Alpha virt. eigenvalues --    0.09406   0.10043   0.11963   0.13191   0.13736
 Alpha virt. eigenvalues --    0.14454   0.14941   0.16783   0.16906   0.17992

 Mulliken charges:
               1
     1  C    0.964196
     2  O   -0.397602
     3  O   -0.336290
     4  H    0.193481
     5  C   -0.700375
     6  Cl   0.089177
     7  Cl   0.089321
     8  Cl   0.098092
 Sum of Mulliken charges =   0.00000

 Dipole moment (field-independent basis, Debye):
    X=              1.3583    Y=             -1.2749    Z=              0.0002  Tot=              1.8629

 Test job not archived.
 1\1\GINC-SE252\SP\RHF\Aug-CC-pVDZ\C2H1Cl3O2\OHZDE\09-Apr-2025\0\\#t hf
  aug-cc-pvdz iop(5/13=1,5/36=2,99/5=2) pseudo=read geom=check guess=(r
 ead,tcheck) scf=(maxcycle=1)\\title\\0,1\C,0,-1.2615,0.45993,0.00035\O
 ,0,-2.09086,-0.57796,0.00018\O,0,-1.58945,1.60279,0.00059\H,0,-2.98948
 ,-0.23334,0.00032\C,0,0.21609,-0.01857,0.00001\Cl,0,0.4905,-0.99857,1.
 45611\Cl,0,0.49084,-0.99475,-1.45857\Cl,0,1.2954,1.369,0.00195\\Versio
 n=ES64L-G16RevC.01\State=1-A\HF=-1604.7065364\RMSD=5.156e-03\Dipole=-0
 .5343963,-0.5015707,-0.0000615\Quadrupole=4.4436739,-4.5671424,0.12346

 Normal termination of Gaussian 16 at Wed Apr  9 02:16:12 2025.
