 Gaussian 16, Revision C.01,

 ----------------------------------------------------------------------
 #t hf aug-cc-pvdz symm=none int=(grid=ultrafine) guess=(read,tcheck) s
 table=(opt,rrhf)
 ----------------------------------------------------------------------
 -----
 title
 -----
 Symbolic Z-matrix:
 Charge =  0 Multiplicity = 1

 SCF Done:  E(RHF) =  -1913.70569261     A.U. after   11 cycles
 Normal termination of Gaussian 16 at Wed Apr  9 02:16:05 2025.
 Gaussian 16:  ES64L-G16RevC.01  3-Jul-2019

 ----------------------------------------------------------------------
 #t hf aug-cc-pvdz iop(5/13=1,5/36=2,99/5=2) pseudo=read geom=check gue
 ss=(read,tcheck) scf=(maxcycle=1)
 ----------------------------------------------------------------------
 -----
 title
 -----
 Structure from the checkpoint file:  "Cl-set_c2cl4_c2cl4_090_dimer_mol2.chk"
 Charge =  0 Multiplicity = 1

                         Standard orientation:
 ---------------------------------------------------------------------
 Center     Atomic      Atomic             Coordinates (Angstroms)
 Number     Number       Type             X           Y           Z
 ---------------------------------------------------------------------
      1          6           0        0.000000    0.667040   -0.000157
      2          6           0       -0.000000   -0.667040   -0.000157
      3         17           0        0.000000   -1.585100    1.446413
      4         17           0        0.000000    1.585100    1.446413
      5         17           0        0.000000    1.585730   -1.446357
      6         17           0       -0.000000   -1.585730   -1.446357
 ---------------------------------------------------------------------

 SCF Done:  E(RHF) =  -1913.80802263     A.U. after    2 cycles

 The electronic state is 1-A1.
 Alpha  occ. eigenvalues -- -103.70468-103.70466-103.70465-103.70464 -11.39767
 Alpha  occ. eigenvalues --  -11.39599 -10.73804 -10.73798 -10.73794 -10.73787
 Alpha  occ. eigenvalues --   -8.39542  -8.39540  -8.39539  -8.39529  -8.39189
 Alpha  occ. eigenvalues --   -8.39187  -8.39182  -8.39179  -8.39173  -8.39172
 Alpha  occ. eigenvalues --   -8.39171  -8.39168  -1.29123  -1.23598  -1.19164
 Alpha  occ. eigenvalues --   -1.16736  -1.01258  -0.77317  -0.69849  -0.68634
 Alpha  occ. eigenvalues --   -0.63052  -0.59366  -0.54903  -0.52741  -0.51891
 Alpha  occ. eigenvalues --   -0.51464  -0.50689  -0.49984  -0.46780  -0.37800
 Alpha virt. eigenvalues --    0.05721   0.07135   0.07151   0.08884   0.09586
 Alpha virt. eigenvalues --    0.11424   0.11661   0.12240   0.13286   0.14664
 Alpha virt. eigenvalues --    0.15073   0.15203   0.17004   0.17313   0.17886

 Mulliken charges:
               1
     1  C    0.262421
     2  C    0.262421
     3  Cl  -0.131268
     4  Cl  -0.131268
     5  Cl  -0.131153
     6  Cl  -0.131153
 Sum of Mulliken charges =  -0.00000

 Dipole moment (field-independent basis, Debye):
    X=             -0.0000    Y=             -0.0000    Z=             -0.0004  Tot=              0.0004

 Test job not archived.
 1\1\GINC-SE229\SP\RHF\Aug-CC-pVDZ\C2Cl4\OHZDE\09-Apr-2025\0\\#t hf aug
 -cc-pvdz iop(5/13=1,5/36=2,99/5=2) pseudo=read geom=check guess=(read,
 tcheck) scf=(maxcycle=1)\\title\\0,1\C,0,0.,0.66704,0.00016\C,0,0.,-0.
 66704,0.00016\Cl,0,0.,-1.5851,-1.44641\Cl,0,0.,1.5851,-1.44641\Cl,0,0.
 ,1.58573,1.44636\Cl,0,0.,-1.58573,1.44636\\Version=ES64L-G16RevC.01\St
 ate=1-A1\HF=-1913.8080226\RMSD=5.892e-03\Dipole=0.,0.,0.0001603\Quadru
 pole=-1.0391532,-0.3094946,1.3486477,0.,0.,0.\PG=C02V [SGV(C2Cl4)]\\@

 Normal termination of Gaussian 16 at Wed Apr  9 02:16:09 2025.
