 Gaussian 16, Revision C.01,

 ----------------------------------------------------------------------
 #t hf aug-cc-pvdz symm=none int=(grid=ultrafine) guess=(read,tcheck) s
 table=(opt,rrhf)
 ----------------------------------------------------------------------
 -----
 title
 -----
 Symbolic Z-matrix:
 Charge =  0 Multiplicity = 1

 SCF Done:  E(RHF) =  -1875.85073382     A.U. after   10 cycles
 Normal termination of Gaussian 16 at Wed Apr  9 02:16:03 2025.
 Gaussian 16:  ES64L-G16RevC.01  3-Jul-2019

 ----------------------------------------------------------------------
 #t hf aug-cc-pvdz iop(5/13=1,5/36=2,99/5=2) pseudo=read geom=check gue
 ss=(read,tcheck) scf=(maxcycle=1)
 ----------------------------------------------------------------------
 -----
 title
 -----
 Structure from the checkpoint file:  "Cl-set_c6h6_ccl4_090_dimer_mol3.chk"
 Charge =  0 Multiplicity = 1

                         Standard orientation:
 ---------------------------------------------------------------------
 Center     Atomic      Atomic             Coordinates (Angstroms)
 Number     Number       Type             X           Y           Z
 ---------------------------------------------------------------------
      1          6           0        0.000000    0.000000    0.000000
      2         17           0        1.022350    1.022350    1.022350
      3         17           0       -1.022350   -1.022350    1.022350
      4         17           0        1.022350   -1.022350   -1.022350
      5         17           0       -1.022350    1.022350   -1.022350
 ---------------------------------------------------------------------

 SCF Done:  E(RHF) =  -1875.93839928     A.U. after    2 cycles

 The electronic state is 1-A1.
 Alpha  occ. eigenvalues -- -103.70429-103.70429-103.70429-103.70427 -11.50603
 Alpha  occ. eigenvalues --  -10.73809 -10.73809 -10.73809 -10.73755  -8.39518
 Alpha  occ. eigenvalues --   -8.39518  -8.39518  -8.39502  -8.39153  -8.39153
 Alpha  occ. eigenvalues --   -8.39153  -8.39150  -8.39150  -8.39150  -8.39150
 Alpha  occ. eigenvalues --   -8.39150  -1.30853  -1.17708  -1.17708  -1.17708
 Alpha  occ. eigenvalues --   -0.86080  -0.67488  -0.67488  -0.67488  -0.54657
 Alpha  occ. eigenvalues --   -0.54657  -0.50306  -0.50306  -0.50306  -0.47628
 Alpha  occ. eigenvalues --   -0.47628  -0.47628
 Alpha virt. eigenvalues --    0.05034   0.07969   0.08248   0.08248   0.08248
 Alpha virt. eigenvalues --    0.12037   0.12037   0.12037   0.15368   0.15368
 Alpha virt. eigenvalues --    0.18645   0.18645   0.18645   0.19295   0.19295

 Mulliken charges:
               1
     1  C   -1.108136
     2  Cl   0.277034
     3  Cl   0.277034
     4  Cl   0.277034
     5  Cl   0.277034
 Sum of Mulliken charges =  -0.00000

 Dipole moment (field-independent basis, Debye):
    X=              0.0000    Y=             -0.0000    Z=              0.0000  Tot=              0.0000

 Test job not archived.
 1\1\GINC-SE292\SP\RHF\Aug-CC-pVDZ\C1Cl4\OHZDE\09-Apr-2025\0\\#t hf aug
 -cc-pvdz iop(5/13=1,5/36=2,99/5=2) pseudo=read geom=check guess=(read,
 tcheck) scf=(maxcycle=1)\\title\\0,1\C,0,0.,0.,0.\Cl,0,1.02235,1.02235
 ,1.02235\Cl,0,-1.02235,-1.02235,1.02235\Cl,0,1.02235,-1.02235,-1.02235
 \Cl,0,-1.02235,1.02235,-1.02235\\Version=ES64L-G16RevC.01\State=1-A1\H
 F=-1875.9383993\RMSD=2.978e-03\Dipole=0.,0.,0.\Quadrupole=0.,0.,0.,0.,
 0.,0.\PG=TD [O(C1),4C3(Cl1)]\\@

 Normal termination of Gaussian 16 at Wed Apr  9 02:16:05 2025.
