 Gaussian 16, Revision C.01,

 ----------------------------------------------------------------------
 #t hf aug-cc-pvdz symm=none int=(grid=ultrafine) guess=(read,tcheck) s
 table=(opt,rrhf)
 ----------------------------------------------------------------------
 -----
 title
 -----
 Symbolic Z-matrix:
 Charge =  0 Multiplicity = 1

 SCF Done:  E(RHF) =  -770.038610947     A.U. after   15 cycles
 Normal termination of Gaussian 16 at Wed Apr  9 02:15:57 2025.
 Gaussian 16:  ES64L-G16RevC.01  3-Jul-2019

 ----------------------------------------------------------------------
 #t hf aug-cc-pvdz iop(5/13=1,5/36=2,99/5=2) pseudo=read geom=check gue
 ss=(read,tcheck) scf=(maxcycle=1)
 ----------------------------------------------------------------------
 -----
 title
 -----
 Structure from the checkpoint file:  "CO2MOF_26_pycf3-2+CO2_dimer_mol1.chk"
 Charge =  0 Multiplicity = 1

                         Standard orientation:
 ---------------------------------------------------------------------
 Center     Atomic      Atomic             Coordinates (Angstroms)
 Number     Number       Type             X           Y           Z
 ---------------------------------------------------------------------
      1          6           0        0.582239    0.581693    0.125015
      2          6           0        0.206450    1.428644   -0.917287
      3          6           0       -0.977045    2.157060   -0.780251
      4          7           0       -1.774332    2.088090    0.295448
      5          6           0       -1.395203    1.269605    1.288607
      6          6           0       -0.232561    0.497193    1.255862
      7          6           0        1.816530   -0.280356    0.013597
      8          9           0        2.421499   -0.460622    1.215550
      9          9           0        1.500558   -1.521175   -0.461942
     10          9           0        2.736916    0.246243   -0.832072
     11          1           0        0.816054    1.519855   -1.813975
     12          1           0       -1.301867    2.828282   -1.578059
     13          1           0        0.028127   -0.151295    2.090161
     14          1           0       -2.055516    1.227626    2.157537
     15          6           0       -2.043338   -1.740473   -0.368584
     16          8           0       -2.022106   -1.197051   -1.405346
     17          8           0       -2.070352   -2.290613    0.665424
 ---------------------------------------------------------------------

 SCF Done:  E(RHF) =  -770.289355669     A.U. after    2 cycles

 The electronic state is 1-A.
 Alpha  occ. eigenvalues --  -26.17897 -26.17797 -26.17478 -20.66880 -20.66846
 Alpha  occ. eigenvalues --  -15.66009 -11.54795 -11.48417 -11.31215 -11.31148
 Alpha  occ. eigenvalues --  -11.31092 -11.28465 -11.28399  -1.76594  -1.70007
 Alpha  occ. eigenvalues --   -1.69562  -1.48789  -1.44048  -1.25572  -1.13886
 Alpha  occ. eigenvalues --   -1.05493  -1.03267  -0.91826  -0.90161  -0.88404
 Alpha  occ. eigenvalues --   -0.86910  -0.82916  -0.81285  -0.78201  -0.78175
 Alpha  occ. eigenvalues --   -0.75670  -0.74009  -0.73735  -0.72760  -0.72723
 Alpha  occ. eigenvalues --   -0.72570  -0.72034  -0.68971  -0.68007  -0.62588
 Alpha  occ. eigenvalues --   -0.60753  -0.57021  -0.56253  -0.56073  -0.54932
 Alpha  occ. eigenvalues --   -0.44118  -0.41755  -0.37444
 Alpha virt. eigenvalues --    0.03333   0.03616   0.04946   0.05667   0.06010
 Alpha virt. eigenvalues --    0.06608   0.08075   0.08434   0.09293   0.09737
 Alpha virt. eigenvalues --    0.10285   0.10939   0.12043   0.12444   0.12749

 Mulliken charges:
               1
     1  C   -0.104003
     2  C    0.757238
     3  C    0.463814
     4  N   -0.491383
     5  C    0.282257
     6  C    0.847335
     7  C    0.956982
     8  F   -0.328985
     9  F   -0.395681
    10  F   -0.322326
    11  H   -0.504003
    12  H   -0.325540
    13  H   -0.514916
    14  H   -0.323271
    15  C    0.270818
    16  O   -0.118110
    17  O   -0.150226
 Sum of Mulliken charges =  -0.00000

 Dipole moment (field-independent basis, Debye):
    X=             -0.7249    Y=              0.8624    Z=             -0.0129  Tot=              1.1267

 Test job not archived.
 1\1\GINC-SE041\SP\RHF\Aug-CC-pVDZ\C7H4F3N1O2\OHZDE\09-Apr-2025\0\\#t h
 f aug-cc-pvdz iop(5/13=1,5/36=2,99/5=2) pseudo=read geom=check guess=(
 read,tcheck) scf=(maxcycle=1)\\title\\0,1\C,0,2.7034238,-0.1588363,1.2
 600439\C,0,1.5434792,-0.0086743,2.0195935\C,0,0.3918996,0.4537787,1.37
 92561\N,0,0.3372191,0.7634771,0.0759346\C,0,1.4623579,0.6105625,-0.638
 6993\C,0,2.6673952,0.1554289,-0.1000278\C,0,3.9976847,-0.5943505,1.903
 6534\F,0,4.7580237,-1.3413205,1.0627644\F,0,4.749345,0.4880493,2.26285
 32\F,0,3.7926042,-1.3256553,3.0273566\H,0,1.5339936,-0.2432441,3.08207

 Normal termination of Gaussian 16 at Wed Apr  9 02:16:09 2025.
