 Gaussian 16, Revision C.01,

 ----------------------------------------------------------------------
 #t hf aug-cc-pvdz symm=none int=(grid=ultrafine) guess=(read,tcheck) s
 table=(opt,rrhf)
 ----------------------------------------------------------------------
 -----
 title
 -----
 Symbolic Z-matrix:
 Charge =  0 Multiplicity = 1

 SCF Done:  E(RHF) =  -582.378880029     A.U. after   14 cycles
 Normal termination of Gaussian 16 at Wed Apr  9 02:14:17 2025.
 Gaussian 16:  ES64L-G16RevC.01  3-Jul-2019

 ----------------------------------------------------------------------
 #t hf aug-cc-pvdz iop(5/13=1,5/36=2,99/5=2) pseudo=read geom=check gue
 ss=(read,tcheck) scf=(maxcycle=1)
 ----------------------------------------------------------------------
 -----
 title
 -----
 Structure from the checkpoint file:  "CO2MOF_25_pycf3-1+CO2_dimer_mol2.chk"
 Charge =  0 Multiplicity = 1

                         Standard orientation:
 ---------------------------------------------------------------------
 Center     Atomic      Atomic             Coordinates (Angstroms)
 Number     Number       Type             X           Y           Z
 ---------------------------------------------------------------------
      1          6           0        0.767213    1.202821   -0.017963
      2          6           0        2.162217    1.144253    0.001412
      3          7           0        2.860300   -0.000804    0.011281
      4          6           0        2.160445   -1.145009    0.001360
      5          6           0        0.765573   -1.201406   -0.018127
      6          6           0        0.057762    0.001354   -0.029305
      7          6           0       -1.452049    0.000650   -0.004456
      8          9           0       -1.920731   -0.030343    1.275664
      9          9           0       -1.972672    1.109046   -0.591346
     10          9           0       -1.971093   -1.079902   -0.642938
     11          1           0        0.249950    2.160335   -0.031257
     12          1           0        2.748736    2.065672    0.007048
     13          1           0        0.247020   -2.158327   -0.031695
     14          1           0        2.745691   -2.067232    0.006995
 ---------------------------------------------------------------------

 SCF Done:  E(RHF) =  -582.568652630     A.U. after    2 cycles

 The electronic state is 1-A.
 Alpha  occ. eigenvalues --  -26.17596 -26.17568 -26.17112 -15.65732 -11.54513
 Alpha  occ. eigenvalues --  -11.30975 -11.30963 -11.30851 -11.28196 -11.28191
 Alpha  occ. eigenvalues --   -1.76303  -1.69725  -1.69255  -1.25288  -1.13597
 Alpha  occ. eigenvalues --   -1.05235  -1.02988  -0.91547  -0.89897  -0.88105
 Alpha  occ. eigenvalues --   -0.86656  -0.82669  -0.77904  -0.77880  -0.73727
 Alpha  occ. eigenvalues --   -0.73349  -0.72424  -0.71791  -0.68728  -0.67800
 Alpha  occ. eigenvalues --   -0.62364  -0.60495  -0.56518  -0.54719  -0.43880
 Alpha  occ. eigenvalues --   -0.41424  -0.37174
 Alpha virt. eigenvalues --    0.03295   0.03471   0.04937   0.05899   0.06010
 Alpha virt. eigenvalues --    0.08196   0.08658   0.08698   0.10447   0.11094
 Alpha virt. eigenvalues --    0.11399   0.12004   0.13314   0.13473   0.14542

 Mulliken charges:
               1
     1  C    0.768506
     2  C    0.266348
     3  N   -0.424544
     4  C    0.267624
     5  C    0.737779
     6  C   -0.117442
     7  C    1.036955
     8  F   -0.344751
     9  F   -0.337111
    10  F   -0.338627
    11  H   -0.451442
    12  H   -0.305353
    13  H   -0.452765
    14  H   -0.305175
 Sum of Mulliken charges =   0.00000

 Dipole moment (field-independent basis, Debye):
    X=              1.0666    Y=              0.0078    Z=             -0.1093  Tot=              1.0722

 Test job not archived.
 1\1\GINC-SE080\SP\RHF\Aug-CC-pVDZ\C6H4F3N1\OHZDE\09-Apr-2025\0\\#t hf
 aug-cc-pvdz iop(5/13=1,5/36=2,99/5=2) pseudo=read geom=check guess=(re
 ad,tcheck) scf=(maxcycle=1)\\title\\0,1\C,0,1.3498885,0.0283893,1.8089
 114\C,0,0.151214,0.0485684,1.0929406\N,0,0.0818715,0.0158807,-0.245975
 5\C,0,1.2412168,-0.0396283,-0.9182373\C,0,2.4944347,-0.0643441,-0.3033
 682\C,0,2.544871,-0.0307655,1.0909342\C,0,3.8735968,-0.0092876,1.80799
 51\F,0,4.3264734,1.2676545,1.9617856\F,0,3.7926037,-0.5542128,3.049173
 7\F,0,4.8309208,-0.6900404,1.1262577\H,0,1.3492989,0.0508323,2.8970592

 Normal termination of Gaussian 16 at Wed Apr  9 02:14:23 2025.
