 Gaussian 16, Revision C.01,

 ----------------------------------------------------------------------
 #t hf aug-cc-pvdz symm=none int=(grid=ultrafine) guess=(read,tcheck) s
 table=(opt,rrhf)
 ----------------------------------------------------------------------
 -----
 title
 -----
 Symbolic Z-matrix:
 Charge =  0 Multiplicity = 1

 SCF Done:  E(RHF) =  -836.441445805     A.U. after   17 cycles
 Normal termination of Gaussian 16 at Wed Apr  9 02:14:46 2025.
 Gaussian 16:  ES64L-G16RevC.01  3-Jul-2019

 ----------------------------------------------------------------------
 #t hf aug-cc-pvdz iop(5/13=1,5/36=2,99/5=2) pseudo=read geom=check gue
 ss=(read,tcheck) scf=(maxcycle=1)
 ----------------------------------------------------------------------
 -----
 title
 -----
 Structure from the checkpoint file:  "CO2MOF_22_cbIm-1+CO2_dimer_mol2.chk"
 Charge =  0 Multiplicity = 1

                         Standard orientation:
 ---------------------------------------------------------------------
 Center     Atomic      Atomic             Coordinates (Angstroms)
 Number     Number       Type             X           Y           Z
 ---------------------------------------------------------------------
      1          7           0       -2.003423   -1.483235    0.000001
      2          6           0       -0.873960   -0.671728   -0.000014
      3          6           0       -1.249688    0.699474   -0.000012
      4          7           0       -2.635114    0.678363    0.000005
      5          6           0       -3.018545   -0.647110    0.000012
      6          6           0       -0.309799    1.731273   -0.000003
      7          6           0        1.034312    1.364906   -0.000000
      8          6           0        1.408230    0.006155   -0.000003
      9          6           0        0.480368   -1.029594   -0.000011
     10         17           0        3.115289   -0.380612    0.000007
     11          1           0        0.788532   -2.072599   -0.000011
     12          1           0        1.810882    2.126747    0.000006
     13          1           0       -4.066543   -0.933393    0.000026
     14          1           0       -3.251444    1.481384    0.000006
     15          1           0       -0.597093    2.782111    0.000005
 ---------------------------------------------------------------------

 SCF Done:  E(RHF) =  -836.566665641     A.U. after    2 cycles

 The electronic state is 1-A.
 Alpha  occ. eigenvalues -- -103.66016 -15.69857 -15.63047 -11.34265 -11.30904
 Alpha  occ. eigenvalues --  -11.29828 -11.28226 -11.26867 -11.26267 -11.26085
 Alpha  occ. eigenvalues --  -10.69300  -8.35038  -8.34735  -8.34713  -1.32192
 Alpha  occ. eigenvalues --   -1.19166  -1.15642  -1.12064  -1.01792  -0.99530
 Alpha  occ. eigenvalues --   -0.86875  -0.84351  -0.81706  -0.75691  -0.69671
 Alpha  occ. eigenvalues --   -0.66745  -0.63367  -0.62268  -0.62105  -0.59872
 Alpha  occ. eigenvalues --   -0.54627  -0.53412  -0.53337  -0.46351  -0.45659
 Alpha  occ. eigenvalues --   -0.44462  -0.43974  -0.32644  -0.31667
 Alpha virt. eigenvalues --    0.01919   0.03204   0.04690   0.05587   0.06474
 Alpha virt. eigenvalues --    0.06761   0.09729   0.10254   0.10338   0.10825
 Alpha virt. eigenvalues --    0.11015   0.12514   0.12812   0.13474   0.13971

 Mulliken charges:
               1
     1  N   -0.765994
     2  C   -0.649819
     3  C   -0.220964
     4  N   -0.592201
     5  C    0.797988
     6  C    1.362024
     7  C    0.698401
     8  C   -0.205242
     9  C    1.636506
    10  Cl  -0.381447
    11  H   -0.432014
    12  H   -0.430415
    13  H   -0.223621
    14  H   -0.079826
    15  H   -0.513377
 Sum of Mulliken charges =  -0.00000

 Dipole moment (field-independent basis, Debye):
    X=             -4.1633    Y=              3.5254    Z=              0.0000  Tot=              5.4554

 Test job not archived.
 1\1\GINC-SE229\SP\RHF\Aug-CC-pVDZ\C7H5Cl1N2\OHZDE\09-Apr-2025\0\\#t hf
  aug-cc-pvdz iop(5/13=1,5/36=2,99/5=2) pseudo=read geom=check guess=(r
 ead,tcheck) scf=(maxcycle=1)\\title\\0,1\N,0,-1.0127732,0.0002714,-1.1
 230068\C,0,0.0655517,-0.0020189,-0.2446909\C,0,1.2910329,-0.0002233,-0
 .9654944\N,0,0.9088213,0.0032014,-2.2973178\C,0,-0.4707897,0.0033177,-
 2.3212647\C,0,2.5324931,-0.0018825,-0.3277059\C,0,2.5298853,-0.00543,1
 .0654343\C,0,1.3159503,-0.007214,1.7812402\C,0,0.0738184,-0.0055863,1.
 1560923\Cl,0,1.3884422,-0.0116636,3.5300578\H,0,-0.8525026,-0.0070058,

 Normal termination of Gaussian 16 at Wed Apr  9 02:14:55 2025.
