 Gaussian 16, Revision C.01,

 ----------------------------------------------------------------------
 #t hf aug-cc-pvdz symm=none int=(grid=ultrafine) guess=(read,tcheck) s
 table=(opt,rrhf)
 ----------------------------------------------------------------------
 -----
 title
 -----
 Symbolic Z-matrix:
 Charge =  0 Multiplicity = 1

 SCF Done:  E(RHF) =  -1024.10256905     A.U. after   17 cycles
 Normal termination of Gaussian 16 at Wed Apr  9 02:16:24 2025.
 Gaussian 16:  ES64L-G16RevC.01  3-Jul-2019

 ----------------------------------------------------------------------
 #t hf aug-cc-pvdz iop(5/13=1,5/36=2,99/5=2) pseudo=read geom=check gue
 ss=(read,tcheck) scf=(maxcycle=1)
 ----------------------------------------------------------------------
 -----
 title
 -----
 Structure from the checkpoint file:  "CO2MOF_22_cbIm-1+CO2_dimer_mol1.chk"
 Charge =  0 Multiplicity = 1

                         Standard orientation:
 ---------------------------------------------------------------------
 Center     Atomic      Atomic             Coordinates (Angstroms)
 Number     Number       Type             X           Y           Z
 ---------------------------------------------------------------------
      1          6           0       -0.793319    0.160900   -0.947100
      2          6           0        0.457061   -0.449731   -0.784398
      3          6           0        0.654407   -1.413221    0.242207
      4          6           0       -0.364882   -1.789292    1.117930
      5          6           0       -1.604267   -1.176301    0.948898
      6          6           0       -1.801131   -0.220343   -0.067953
      7          7           0        1.982407   -1.785474    0.116621
      8          6           0        2.511129   -1.055269   -0.925485
      9          7           0        1.638293   -0.249808   -1.492864
     10         17           0       -3.382348    0.513091   -0.217583
     11          1           0       -0.961207    0.905767   -1.721240
     12          1           0       -2.435202   -1.428873    1.604078
     13          1           0        3.551375   -1.159077   -1.220325
     14          1           0        2.484833   -2.435935    0.707554
     15          1           0       -0.213770   -2.524648    1.907209
     16          6           0        1.605907    2.167781    0.654810
     17          8           0        1.035963    2.930495   -0.024894
     18          8           0        2.181482    1.422011    1.352630
 ---------------------------------------------------------------------

 SCF Done:  E(RHF) =  -1024.28869921     A.U. after    2 cycles

 The electronic state is 1-A.
 Alpha  occ. eigenvalues -- -103.66187 -20.65824 -20.65785 -15.70070 -15.63319
 Alpha  occ. eigenvalues --  -11.47403 -11.34595 -11.31146 -11.30091 -11.28481
 Alpha  occ. eigenvalues --  -11.27066 -11.26533 -11.26354 -10.69470  -8.35208
 Alpha  occ. eigenvalues --   -8.34904  -8.34883  -1.47735  -1.43001  -1.32492
 Alpha  occ. eigenvalues --   -1.19399  -1.15909  -1.12311  -1.02064  -0.99780
 Alpha  occ. eigenvalues --   -0.87122  -0.84590  -0.81976  -0.80299  -0.75934
 Alpha  occ. eigenvalues --   -0.74686  -0.71816  -0.71587  -0.69925  -0.66969
 Alpha  occ. eigenvalues --   -0.63615  -0.62507  -0.62268  -0.60116  -0.55302
 Alpha  occ. eigenvalues --   -0.55247  -0.54844  -0.53640  -0.53524  -0.46514
 Alpha  occ. eigenvalues --   -0.45880  -0.44793  -0.44336  -0.32946  -0.31957
 Alpha virt. eigenvalues --    0.01970   0.03145   0.04555   0.05687   0.06230
 Alpha virt. eigenvalues --    0.06372   0.07952   0.09535   0.09686   0.10223
 Alpha virt. eigenvalues --    0.10701   0.10955   0.11651   0.11971   0.12693

 Mulliken charges:
               1
     1  C    1.670816
     2  C   -0.471748
     3  C   -0.256726
     4  C    1.333595
     5  C    0.878483
     6  C   -0.398821
     7  N   -0.559027
     8  C    0.804182
     9  N   -0.822595
    10  Cl  -0.371194
    11  H   -0.462899
    12  H   -0.445967
    13  H   -0.266376
    14  H   -0.095562
    15  H   -0.520112
    16  C    0.253948
    17  O   -0.136950
    18  O   -0.133048
 Sum of Mulliken charges =  -0.00000

 Dipole moment (field-independent basis, Debye):
    X=              3.4754    Y=             -3.5429    Z=              2.3390  Tot=              5.4865

 Test job not archived.
 1\1\GINC-SE092\SP\RHF\Aug-CC-pVDZ\C8H5Cl1N2O2\OHZDE\09-Apr-2025\0\\#t
 hf aug-cc-pvdz iop(5/13=1,5/36=2,99/5=2) pseudo=read geom=check guess=
 (read,tcheck) scf=(maxcycle=1)\\title\\0,1\C,0,0.4293805,-0.5304066,1.
 609173\C,0,0.3055493,-0.0096559,0.3144614\C,0,1.436631,0.0469328,-0.54
 49732\C,0,2.6968366,-0.4035409,-0.1497198\C,0,2.8103374,-0.9189185,1.1
 394307\C,0,1.6899971,-0.9749035,1.9928372\N,0,0.9564237,0.6181706,-1.7
 115993\C,0,-0.3812921,0.8821831,-1.5127347\N,0,-0.8120824,0.5220317,-0
 .3222563\Cl,0,1.9079644,-1.6290424,3.600679\H,0,-0.4223595,-0.574483,2

 Normal termination of Gaussian 16 at Wed Apr  9 02:16:39 2025.
