 Gaussian 16, Revision C.01,

 ----------------------------------------------------------------------
 #t hf aug-cc-pvdz symm=none int=(grid=ultrafine) guess=(read,tcheck) s
 table=(opt,rrhf)
 ----------------------------------------------------------------------
 -----
 title
 -----
 Symbolic Z-matrix:
 Charge =  0 Multiplicity = 1

 SCF Done:  E(RHF) =  -1024.10264794     A.U. after   17 cycles
 Normal termination of Gaussian 16 at Wed Apr  9 02:15:29 2025.
 Gaussian 16:  ES64L-G16RevC.01  3-Jul-2019

 ----------------------------------------------------------------------
 #t hf aug-cc-pvdz iop(5/13=1,5/36=2,99/5=2) pseudo=read geom=check gue
 ss=(read,tcheck) scf=(maxcycle=1)
 ----------------------------------------------------------------------
 -----
 title
 -----
 Structure from the checkpoint file:  "CO2MOF_23_cbIm-2+CO2_dimer_mol1.chk"
 Charge =  0 Multiplicity = 1

                         Standard orientation:
 ---------------------------------------------------------------------
 Center     Atomic      Atomic             Coordinates (Angstroms)
 Number     Number       Type             X           Y           Z
 ---------------------------------------------------------------------
      1          6           0        0.195279   -0.361732   -0.024181
      2          6           0        1.558902   -0.682827   -0.007584
      3          6           0        2.536540    0.349528    0.014415
      4          6           0        2.194218    1.702546    0.020260
      5          6           0        0.836178    2.012647    0.003934
      6          6           0       -0.131856    0.989255   -0.017585
      7          7           0        3.748356   -0.321730    0.026425
      8          6           0        3.461942   -1.671638    0.011863
      9          7           0        2.172904   -1.930640   -0.008576
     10         17           0       -1.820705    1.460335   -0.035531
     11          1           0       -0.567632   -1.136458   -0.041529
     12          1           0        0.509807    3.050417    0.007803
     13          1           0        4.251422   -2.417959    0.017446
     14          1           0        4.670204    0.096184    0.042892
     15          1           0        2.942577    2.494037    0.036899
     16          6           0       -3.914129   -1.138600    0.018543
     17          8           0       -4.788950   -0.365034    0.100489
     18          8           0       -3.051757   -1.927517   -0.063292
 ---------------------------------------------------------------------

 SCF Done:  E(RHF) =  -1024.28914013     A.U. after    2 cycles

 The electronic state is 1-A.
 Alpha  occ. eigenvalues -- -103.66482 -20.66032 -20.65988 -15.69883 -15.63047
 Alpha  occ. eigenvalues --  -11.47603 -11.34265 -11.31035 -11.29898 -11.28247
 Alpha  occ. eigenvalues --  -11.26930 -11.26393 -11.26056 -10.69772  -8.35508
 Alpha  occ. eigenvalues --   -8.35216  -8.35186  -1.47917  -1.43203  -1.32217
 Alpha  occ. eigenvalues --   -1.19462  -1.15669  -1.12246  -1.01866  -0.99651
 Alpha  occ. eigenvalues --   -0.86961  -0.84383  -0.81777  -0.80480  -0.75786
 Alpha  occ. eigenvalues --   -0.74836  -0.71883  -0.71772  -0.69700  -0.66855
 Alpha  occ. eigenvalues --   -0.63426  -0.62354  -0.62134  -0.59929  -0.55587
 Alpha  occ. eigenvalues --   -0.55412  -0.54659  -0.53598  -0.53465  -0.46933
 Alpha  occ. eigenvalues --   -0.45926  -0.44453  -0.43996  -0.32715  -0.31785
 Alpha virt. eigenvalues --    0.01891   0.03172   0.04713   0.05649   0.06399
 Alpha virt. eigenvalues --    0.06718   0.08152   0.09649   0.09746   0.10172
 Alpha virt. eigenvalues --    0.10652   0.11237   0.11302   0.12431   0.12905

 Mulliken charges:
               1
     1  C    1.970490
     2  C   -0.883581
     3  C   -0.160465
     4  C    1.362913
     5  C    0.820770
     6  C   -0.446403
     7  N   -0.593344
     8  C    0.800497
     9  N   -0.727301
    10  Cl  -0.394205
    11  H   -0.397363
    12  H   -0.470228
    13  H   -0.253776
    14  H   -0.078050
    15  H   -0.527317
    16  C    0.238574
    17  O   -0.150480
    18  O   -0.110732
 Sum of Mulliken charges =  -0.00000

 Dipole moment (field-independent basis, Debye):
    X=              5.4772    Y=              1.1776    Z=              0.0800  Tot=              5.6029

 Test job not archived.
 1\1\GINC-SE365\SP\RHF\Aug-CC-pVDZ\C8H5Cl1N2O2\OHZDE\09-Apr-2025\0\\#t
 hf aug-cc-pvdz iop(5/13=1,5/36=2,99/5=2) pseudo=read geom=check guess=
 (read,tcheck) scf=(maxcycle=1)\\title\\0,1\C,0,0.3640001,0.0213539,1.2
 139623\C,0,0.1995157,0.0090632,-0.1773096\C,0,1.3360602,-0.0041833,-1.
 0317733\C,0,2.6416077,-0.005399,-0.5383974\C,0,2.7958029,0.0065953,0.8
 460816\C,0,1.6692538,0.0194419,1.6920172\N,0,0.8064529,-0.0140988,-2.3
 118705\C,0,-0.5672653,-0.0068008,-2.1801782\N,0,-0.9707082,0.0070431,-
 0.9287151\Cl,0,1.9459106,0.0323843,3.4234163\H,0,-0.4922312,0.0320109,

 Normal termination of Gaussian 16 at Wed Apr  9 02:15:40 2025.
