 Gaussian 16, Revision C.01,

 ----------------------------------------------------------------------
 #t hf aug-cc-pvdz symm=none int=(grid=ultrafine) guess=(read,tcheck) s
 table=(opt,rrhf)
 ----------------------------------------------------------------------
 -----
 title
 -----
 Symbolic Z-matrix:
 Charge =  0 Multiplicity = 1

 SCF Done:  E(RHF) =  -212.778117174     A.U. after   12 cycles
 Normal termination of Gaussian 16 at Wed Apr  9 02:14:59 2025.
 Gaussian 16:  ES64L-G16RevC.01  3-Jul-2019

 ----------------------------------------------------------------------
 #t hf aug-cc-pvdz iop(5/13=1,5/36=2,99/5=2) pseudo=read geom=check gue
 ss=(read,tcheck) scf=(maxcycle=1)
 ----------------------------------------------------------------------
 -----
 title
 -----
 Structure from the checkpoint file:  "CR20_18_mol2.chk"
 Charge =  0 Multiplicity = 1

                         Standard orientation:
 ---------------------------------------------------------------------
 Center     Atomic      Atomic             Coordinates (Angstroms)
 Number     Number       Type             X           Y           Z
 ---------------------------------------------------------------------
      1          6           0        0.000000    0.400214   -0.000000
      2          1           0       -0.464362    1.390354    0.000000
      3          8           0        1.146369    0.135415   -0.000000
      4          9           0       -0.967399   -0.541663    0.000000
 ---------------------------------------------------------------------

 SCF Done:  E(RHF) =  -212.854025367     A.U. after    2 cycles

 The electronic state is 1-A'.
 Alpha  occ. eigenvalues --  -26.16996 -20.62116 -11.45552  -1.71408  -1.42337
 Alpha  occ. eigenvalues --   -0.94690  -0.83167  -0.78381  -0.76212  -0.68003
 Alpha  occ. eigenvalues --   -0.58510  -0.53834
 Alpha virt. eigenvalues --    0.03250   0.07283   0.08731   0.08910   0.13506
 Alpha virt. eigenvalues --    0.15181   0.21498   0.22893   0.24806   0.25019
 Alpha virt. eigenvalues --    0.29184   0.30431   0.32451   0.33344   0.39035

 Mulliken charges:
               1
     1  C    0.723372
     2  H   -0.102974
     3  O   -0.305974
     4  F   -0.314425
 Sum of Mulliken charges =  -0.00000

 Dipole moment (field-independent basis, Debye):
    X=             -1.4848    Y=              2.1528    Z=              0.0000  Tot=              2.6152

 Test job not archived.
 1\1\GINC-SE195\SP\RHF\Aug-CC-pVDZ\C1H1F1O1\OHZDE\09-Apr-2025\0\\#t hf
 aug-cc-pvdz iop(5/13=1,5/36=2,99/5=2) pseudo=read geom=check guess=(re
 ad,tcheck) scf=(maxcycle=1)\\title\\0,1\C,0,0.,0.400214,0.\H,0,-0.4643
 62,1.390354,0.\O,0,1.146369,0.135415,0.\F,0,-0.967399,-0.541663,0.\\Ve
 rsion=ES64L-G16RevC.01\State=1-A'\HF=-212.8540254\RMSD=5.283e-03\Dipol
 e=-0.5841712,0.8469776,0.\Quadrupole=-2.4236202,1.4403239,0.9832964,-1
 .1937068,0.,0.\PG=CS [SG(C1H1F1O1)]\\@

 Normal termination of Gaussian 16 at Wed Apr  9 02:15:01 2025.
