 Gaussian 16, Revision C.01,

 ----------------------------------------------------------------------
 #t hf aug-cc-pvdz symm=none int=(grid=ultrafine) guess=(read,tcheck) s
 table=(opt,rrhf)
 ----------------------------------------------------------------------
 -----
 title
 -----
 Symbolic Z-matrix:
 Charge =  0 Multiplicity = 1

 SCF Done:  E(RHF) =  -717.052020752     A.U. after   15 cycles
 Normal termination of Gaussian 16 at Wed Apr  9 02:15:10 2025.
 Gaussian 16:  ES64L-G16RevC.01  3-Jul-2019

 ----------------------------------------------------------------------
 #t hf aug-cc-pvdz iop(5/13=1,5/36=2,99/5=2) pseudo=read geom=check gue
 ss=(read,tcheck) scf=(maxcycle=1)
 ----------------------------------------------------------------------
 -----
 title
 -----
 Structure from the checkpoint file:  "CR20_20_mol3.chk"
 Charge =  0 Multiplicity = 1

                         Standard orientation:
 ---------------------------------------------------------------------
 Center     Atomic      Atomic             Coordinates (Angstroms)
 Number     Number       Type             X           Y           Z
 ---------------------------------------------------------------------
      1          6           0        0.000000    1.121289    0.000000
      2          6           0       -0.218304   -1.340504    0.000000
      3          8           0       -1.383087   -0.619211    0.000000
      4          7           0       -1.232135    0.773731    0.000000
      5         16           0        1.158472   -0.188411    0.000000
      6          6           0        0.398898    2.556510    0.000000
      7          1           0        0.996347    2.789860    0.881949
      8          1           0        0.996347    2.789860   -0.881949
      9          1           0       -0.495456    3.175668    0.000000
     10          8           0       -0.178338   -2.528377    0.000000
 ---------------------------------------------------------------------

 SCF Done:  E(RHF) =  -717.170887352     A.U. after    2 cycles

 The electronic state is 1-A'.
 Alpha  occ. eigenvalues --  -93.60673 -20.67873 -20.59446 -15.72926 -11.45057
 Alpha  occ. eigenvalues --  -11.36526 -11.28530  -8.90626  -6.24717  -6.24588
 Alpha  occ. eigenvalues --   -6.24183  -1.47641  -1.38966  -1.20747  -1.07311
 Alpha  occ. eigenvalues --   -1.01985  -0.86934  -0.79594  -0.71945  -0.71034
 Alpha  occ. eigenvalues --   -0.66888  -0.63699  -0.63014  -0.58897  -0.58354
 Alpha  occ. eigenvalues --   -0.56570  -0.50114  -0.48483  -0.46609  -0.39680
 Alpha virt. eigenvalues --    0.02516   0.04643   0.05115   0.06390   0.08261
 Alpha virt. eigenvalues --    0.08769   0.10180   0.10624   0.10822   0.11896
 Alpha virt. eigenvalues --    0.12444   0.13492   0.14299   0.14316   0.15288

 Mulliken charges:
               1
     1  C   -0.124629
     2  C    0.357661
     3  O   -0.581621
     4  N   -0.176964
     5  S    0.451832
     6  C    0.428350
     7  H    0.051163
     8  H    0.051163
     9  H   -0.050483
    10  O   -0.406471
 Sum of Mulliken charges =  -0.00000

 Dipole moment (field-independent basis, Debye):
    X=              2.8898    Y=              4.8271    Z=              0.0000  Tot=              5.6260

 Test job not archived.
 1\1\GINC-SE070\SP\RHF\Aug-CC-pVDZ\C3H3N1O2S1\OHZDE\09-Apr-2025\0\\#t h
 f aug-cc-pvdz iop(5/13=1,5/36=2,99/5=2) pseudo=read geom=check guess=(
 read,tcheck) scf=(maxcycle=1)\\title\\0,1\C,0,0.,1.121289,0.\C,0,-0.21
 8304,-1.340504,0.\O,0,-1.383087,-0.619211,0.\N,0,-1.232135,0.773731,0.
 \S,0,1.158472,-0.188411,0.\C,0,0.398898,2.55651,0.\H,0,0.996347,2.7898
 6,0.881949\H,0,0.996347,2.78986,-0.881949\H,0,-0.495456,3.175668,0.\O,
 0,-0.178338,-2.528377,0.\\Version=ES64L-G16RevC.01\State=1-A'\HF=-717.
 1708874\RMSD=5.011e-03\Dipole=1.1369474,1.8991373,0.\Quadrupole=-1.030

 Normal termination of Gaussian 16 at Wed Apr  9 02:15:14 2025.
