 Gaussian 16, Revision C.01,

 ----------------------------------------------------------------------
 #t hf aug-cc-pvdz symm=none int=(grid=ultrafine) guess=(read,tcheck) s
 table=(opt,rrhf)
 ----------------------------------------------------------------------
 -----
 title
 -----
 Symbolic Z-matrix:
 Charge =  0 Multiplicity = 1

 SCF Done:  E(RHF) =  -721.405036570     A.U. after   15 cycles
 Normal termination of Gaussian 16 at Wed Apr  9 02:15:57 2025.
 Gaussian 16:  ES64L-G16RevC.01  3-Jul-2019

 ----------------------------------------------------------------------
 #t hf aug-cc-pvdz iop(5/13=1,5/36=2,99/5=2) pseudo=read geom=check gue
 ss=(read,tcheck) scf=(maxcycle=1)
 ----------------------------------------------------------------------
 -----
 title
 -----
 Structure from the checkpoint file:  "CR20_19_mol3.chk"
 Charge =  0 Multiplicity = 1

                         Standard orientation:
 ---------------------------------------------------------------------
 Center     Atomic      Atomic             Coordinates (Angstroms)
 Number     Number       Type             X           Y           Z
 ---------------------------------------------------------------------
      1          6           0        1.398503    0.145372   -0.070837
      2          6           0       -1.101738    0.050284    0.029240
      3          8           0       -0.486532    1.243956   -0.498891
      4          7           0        0.898466    1.298696   -0.284384
      5         16           0        0.267995   -1.208165   -0.034131
      6          6           0        2.865728   -0.050966    0.109629
      7          1           0        3.086660   -0.448741    1.100772
      8          1           0        3.248177   -0.761886   -0.624853
      9          1           0        3.376802    0.900595   -0.017489
     10          6           0       -1.537457    0.289765    1.469856
     11          1           0       -2.293680    1.076153    1.493205
     12          1           0       -1.960439   -0.618668    1.898732
     13          1           0       -0.692873    0.602078    2.081264
     14          6           0       -2.257911   -0.313384   -0.885008
     15          1           0       -2.760995   -1.212935   -0.531147
     16          1           0       -2.982195    0.502088   -0.887967
     17          1           0       -1.909137   -0.476982   -1.901876
 ---------------------------------------------------------------------

 SCF Done:  E(RHF) =  -721.522934724     A.U. after    2 cycles

 The electronic state is 1-A.
 Alpha  occ. eigenvalues --  -93.55164 -20.61530 -15.68736 -11.34703 -11.32524
 Alpha  occ. eigenvalues --  -11.25796 -11.24274 -11.23872  -8.85078  -6.19224
 Alpha  occ. eigenvalues --   -6.19066  -6.18695  -1.39566  -1.16599  -1.08949
 Alpha  occ. eigenvalues --   -0.98690  -0.96109  -0.95571  -0.80614  -0.74795
 Alpha  occ. eigenvalues --   -0.66725  -0.66458  -0.62619  -0.60778  -0.59942
 Alpha  occ. eigenvalues --   -0.58196  -0.56482  -0.55933  -0.54414  -0.52072
 Alpha  occ. eigenvalues --   -0.50529  -0.46309  -0.43855  -0.43273  -0.34265
 Alpha virt. eigenvalues --    0.03438   0.03816   0.04658   0.05465   0.06261
 Alpha virt. eigenvalues --    0.06409   0.06696   0.07719   0.08626   0.09447
 Alpha virt. eigenvalues --    0.10627   0.10910   0.12684   0.13244   0.13609

 Mulliken charges:
               1
     1  C   -0.468153
     2  C   -0.914687
     3  O   -0.733176
     4  N   -0.230959
     5  S    0.422273
     6  C    0.571382
     7  H    0.055236
     8  H    0.030073
     9  H   -0.059798
    10  C    0.604973
    11  H    0.025344
    12  H    0.000815
    13  H   -0.069420
    14  C    0.774873
    15  H    0.021996
    16  H    0.027187
    17  H   -0.057958
 Sum of Mulliken charges =  -0.00000

 Dipole moment (field-independent basis, Debye):
    X=             -0.1185    Y=             -2.1013    Z=              1.1119  Tot=              2.3803

 Test job not archived.
 1\1\GINC-SE345\SP\RHF\Aug-CC-pVDZ\C5H9N1O1S1\OHZDE\09-Apr-2025\0\\#t h
 f aug-cc-pvdz iop(5/13=1,5/36=2,99/5=2) pseudo=read geom=check guess=(
 read,tcheck) scf=(maxcycle=1)\\title\\0,1\C,0,1.398503,0.145372,-0.070
 837\C,0,-1.101738,0.050284,0.02924\O,0,-0.486532,1.243956,-0.498891\N,
 0,0.898466,1.298696,-0.284384\S,0,0.267995,-1.208165,-0.034131\C,0,2.8
 65728,-0.050966,0.109629\H,0,3.08666,-0.448741,1.100772\H,0,3.248177,-
 0.761886,-0.624853\H,0,3.376802,0.900595,-0.017489\C,0,-1.537457,0.289
 765,1.469856\H,0,-2.29368,1.076153,1.493205\H,0,-1.960439,-0.618668,1.

 Normal termination of Gaussian 16 at Wed Apr  9 02:16:05 2025.
