 Gaussian 16, Revision C.01,

 ----------------------------------------------------------------------
 #t hf aug-cc-pvdz symm=none int=(grid=ultrafine) guess=(read,tcheck) s
 table=(opt,rrhf)
 ----------------------------------------------------------------------
 -----
 title
 -----
 Symbolic Z-matrix:
 Charge =  0 Multiplicity = 1

 SCF Done:  E(RHF) =  -604.267078641     A.U. after   14 cycles
 Normal termination of Gaussian 16 at Wed Apr  9 02:14:04 2025.
 Gaussian 16:  ES64L-G16RevC.01  3-Jul-2019

 ----------------------------------------------------------------------
 #t hf aug-cc-pvdz iop(5/13=1,5/36=2,99/5=2) pseudo=read geom=check gue
 ss=(read,tcheck) scf=(maxcycle=1)
 ----------------------------------------------------------------------
 -----
 title
 -----
 Structure from the checkpoint file:  "CR20_11_mol3.chk"
 Charge =  0 Multiplicity = 1

                         Standard orientation:
 ---------------------------------------------------------------------
 Center     Atomic      Atomic             Coordinates (Angstroms)
 Number     Number       Type             X           Y           Z
 ---------------------------------------------------------------------
      1          6           0       -0.021128    1.214372    0.086140
      2          6           0       -0.108628   -1.221844    0.170446
      3          8           0       -1.315493   -0.557579   -0.189681
      4          7           0       -1.231577    0.832938    0.032442
      5         16           0        1.239609    0.001101   -0.073611
      6          1           0       -0.137086   -1.527435    1.219029
      7          1           0        0.017096   -2.078554   -0.485332
      8          1           0        0.209766    2.263270    0.194920
 ---------------------------------------------------------------------

 SCF Done:  E(RHF) =  -604.350117183     A.U. after    2 cycles

 The electronic state is 1-A.
 Alpha  occ. eigenvalues --  -93.56906 -20.63242 -15.70792 -11.34655 -11.33307
 Alpha  occ. eigenvalues --   -8.86813  -6.20913  -6.20778  -6.20369  -1.41107
 Alpha  occ. eigenvalues --   -1.16540  -1.05935  -0.87952  -0.81755  -0.71549
 Alpha  occ. eigenvalues --   -0.70172  -0.61518  -0.57476  -0.55877  -0.50742
 Alpha  occ. eigenvalues --   -0.46217  -0.46159  -0.35446
 Alpha virt. eigenvalues --    0.03568   0.03862   0.05285   0.07337   0.09365
 Alpha virt. eigenvalues --    0.09837   0.10492   0.12090   0.12825   0.13551
 Alpha virt. eigenvalues --    0.14873   0.15827   0.16341   0.17999   0.18830

 Mulliken charges:
               1
     1  C    0.289264
     2  C    0.511786
     3  O   -0.671717
     4  N   -0.043009
     5  S    0.400456
     6  H   -0.102297
     7  H   -0.187362
     8  H   -0.197122
 Sum of Mulliken charges =  -0.00000

 Dipole moment (field-independent basis, Debye):
    X=              2.3542    Y=             -0.4220    Z=              0.6962  Tot=              2.4909

 Test job not archived.
 1\1\GINC-SE165\SP\RHF\Aug-CC-pVDZ\C2H3N1O1S1\OHZDE\09-Apr-2025\0\\#t h
 f aug-cc-pvdz iop(5/13=1,5/36=2,99/5=2) pseudo=read geom=check guess=(
 read,tcheck) scf=(maxcycle=1)\\title\\0,1\C,0,-0.021126,1.214372,0.086
 14\C,0,-0.10863,-1.221844,0.170446\O,0,-1.315494,-0.557577,-0.189681\N
 ,0,-1.231576,0.83294,0.032442\S,0,1.239609,0.001099,-0.073611\H,0,-0.1
 37088,-1.527435,1.219029\H,0,0.017093,-2.078554,-0.485332\H,0,0.209769
 ,2.26327,0.19492\\Version=ES64L-G16RevC.01\State=1-A\HF=-604.3501172\R
 MSD=4.449e-03\Dipole=0.9261967,-0.1660454,0.2738874\Quadrupole=-4.8003

 Normal termination of Gaussian 16 at Wed Apr  9 02:14:10 2025.
