 Gaussian 16, Revision C.01,

 ----------------------------------------------------------------------
 #t hf aug-cc-pvdz symm=none int=(grid=ultrafine) guess=(read,tcheck) s
 table=(opt,rrhf)
 ----------------------------------------------------------------------
 -----
 title
 -----
 Symbolic Z-matrix:
 Charge =  0 Multiplicity = 1

 SCF Done:  E(RHF) =  -628.327139500     A.U. after   15 cycles
 Normal termination of Gaussian 16 at Wed Apr  9 02:14:32 2025.
 Gaussian 16:  ES64L-G16RevC.01  3-Jul-2019

 ----------------------------------------------------------------------
 #t hf aug-cc-pvdz iop(5/13=1,5/36=2,99/5=2) pseudo=read geom=check gue
 ss=(read,tcheck) scf=(maxcycle=1)
 ----------------------------------------------------------------------
 -----
 title
 -----
 Structure from the checkpoint file:  "CR20_14_mol1.chk"
 Charge =  0 Multiplicity = 1

                         Standard orientation:
 ---------------------------------------------------------------------
 Center     Atomic      Atomic             Coordinates (Angstroms)
 Number     Number       Type             X           Y           Z
 ---------------------------------------------------------------------
      1          6           0        0.000000    0.692790    0.000000
      2         16           0        1.117939    1.794394    0.000000
      3          7           0       -0.912034   -0.080099    0.000000
      4          6           0       -1.217522   -1.459795    0.000000
      5          1           0       -1.787283   -1.709159    0.895651
      6          9           0       -0.069233   -2.236585    0.000000
      7          1           0       -1.787283   -1.709159   -0.895651
 ---------------------------------------------------------------------

 SCF Done:  E(RHF) =  -628.424369404     A.U. after    2 cycles

 The electronic state is 1-A'.
 Alpha  occ. eigenvalues --  -93.54636 -26.13773 -15.68418 -11.40790 -11.40599
 Alpha  occ. eigenvalues --   -8.84595  -6.18899  -6.18234  -6.18168  -1.67263
 Alpha  occ. eigenvalues --   -1.27835  -1.07021  -1.00130  -0.81665  -0.78646
 Alpha  occ. eigenvalues --   -0.77819  -0.66427  -0.63739  -0.60409  -0.57298
 Alpha  occ. eigenvalues --   -0.53973  -0.38622  -0.36676
 Alpha virt. eigenvalues --    0.03001   0.04768   0.06549   0.07068   0.09261
 Alpha virt. eigenvalues --    0.09388   0.11400   0.12206   0.12574   0.14641
 Alpha virt. eigenvalues --    0.14827   0.16415   0.16914   0.17395   0.20673

 Mulliken charges:
               1
     1  C   -0.456638
     2  S    0.264410
     3  N   -0.227533
     4  C    1.090620
     5  H   -0.139529
     6  F   -0.391801
     7  H   -0.139529
 Sum of Mulliken charges =  -0.00000

 Dipole moment (field-independent basis, Debye):
    X=             -2.6094    Y=             -1.0369    Z=              0.0000  Tot=              2.8078

 Test job not archived.
 1\1\GINC-SE051\SP\RHF\Aug-CC-pVDZ\C2H2F1N1S1\OHZDE\09-Apr-2025\0\\#t h
 f aug-cc-pvdz iop(5/13=1,5/36=2,99/5=2) pseudo=read geom=check guess=(
 read,tcheck) scf=(maxcycle=1)\\title\\0,1\C,0,0.,0.69279,0.\S,0,1.1179
 39,1.794394,0.\N,0,-0.912034,-0.080099,0.\C,0,-1.217521,-1.459795,0.\H
 ,0,-1.787282,-1.70916,0.895651\F,0,-0.069232,-2.236585,0.\H,0,-1.78728
 2,-1.70916,-0.895651\\Version=ES64L-G16RevC.01\State=1-A'\HF=-628.4243
 694\RMSD=5.647e-03\Dipole=-1.0266059,-0.4079502,0.\Quadrupole=2.128220
 4,-2.3259252,0.1977048,3.4348801,0.,0.\PG=CS [SG(C2F1N1S1),X(H2)]\\@

 Normal termination of Gaussian 16 at Wed Apr  9 02:14:35 2025.
