 Gaussian 16, Revision C.01,

 ----------------------------------------------------------------------
 #t hf aug-cc-pvdz symm=none int=(grid=ultrafine) guess=(read,tcheck) s
 table=(opt,rrhf)
 ----------------------------------------------------------------------
 -----
 title
 -----
 Symbolic Z-matrix:
 Charge =  0 Multiplicity = 1

 SCF Done:  E(RHF) =  -682.354654921     A.U. after   14 cycles
 Normal termination of Gaussian 16 at Wed Apr  9 02:14:34 2025.
 Gaussian 16:  ES64L-G16RevC.01  3-Jul-2019

 ----------------------------------------------------------------------
 #t hf aug-cc-pvdz iop(5/13=1,5/36=2,99/5=2) pseudo=read geom=check gue
 ss=(read,tcheck) scf=(maxcycle=1)
 ----------------------------------------------------------------------
 -----
 title
 -----
 Structure from the checkpoint file:  "CR20_13_mol3.chk"
 Charge =  0 Multiplicity = 1

                         Standard orientation:
 ---------------------------------------------------------------------
 Center     Atomic      Atomic             Coordinates (Angstroms)
 Number     Number       Type             X           Y           Z
 ---------------------------------------------------------------------
      1          6           0        0.326292    0.357313    0.208725
      2          6           0       -2.042568   -0.278709    0.065325
      3          8           0       -1.715471    1.029909   -0.380937
      4          7           0       -0.399820    1.381272   -0.006945
      5         16           0       -0.473962   -1.220509    0.043145
      6          6           0        1.780303    0.479862    0.541354
      7          1           0        1.949556    0.052326    1.532440
      8          1           0       -2.438330   -0.250978    1.083946
      9          1           0       -2.767427   -0.702966   -0.623847
     10          6           0        2.695656   -0.206573   -0.479171
     11          1           0        3.738560   -0.072638   -0.193033
     12          1           0        2.501003   -1.277813   -0.538442
     13          1           0        2.557795    0.216713   -1.473858
     14          1           0        2.006646    1.543976    0.601183
 ---------------------------------------------------------------------

 SCF Done:  E(RHF) =  -682.461606689     A.U. after    2 cycles

 The electronic state is 1-A.
 Alpha  occ. eigenvalues --  -93.55908 -20.62312 -15.69264 -11.33870 -11.32864
 Alpha  occ. eigenvalues --  -11.26398 -11.24447  -8.85813  -6.19937  -6.19793
 Alpha  occ. eigenvalues --   -6.19384  -1.40123  -1.17001  -1.06018  -1.03162
 Alpha  occ. eigenvalues --   -0.89068  -0.87071  -0.75911  -0.69687  -0.68627
 Alpha  occ. eigenvalues --   -0.63980  -0.61907  -0.57535  -0.55722  -0.54756
 Alpha  occ. eigenvalues --   -0.52411  -0.51007  -0.48907  -0.44629  -0.43978
 Alpha  occ. eigenvalues --   -0.34834
 Alpha virt. eigenvalues --    0.03405   0.03856   0.04546   0.05484   0.06358
 Alpha virt. eigenvalues --    0.06639   0.07568   0.08633   0.10982   0.11627
 Alpha virt. eigenvalues --    0.12177   0.12545   0.13223   0.13827   0.14623

 Mulliken charges:
               1
     1  C   -0.015903
     2  C    0.598812
     3  O   -0.699657
     4  N   -0.193117
     5  S    0.330397
     6  C    0.188362
     7  H    0.009682
     8  H   -0.094380
     9  H   -0.217336
    10  C    0.381680
    11  H   -0.079010
    12  H   -0.082626
    13  H   -0.077696
    14  H   -0.049208
 Sum of Mulliken charges =  -0.00000

 Dipole moment (field-independent basis, Debye):
    X=              1.0798    Y=             -2.1360    Z=              0.9739  Tot=              2.5840

 Test job not archived.
 1\1\GINC-SE252\SP\RHF\Aug-CC-pVDZ\C4H7N1O1S1\OHZDE\09-Apr-2025\0\\#t h
 f aug-cc-pvdz iop(5/13=1,5/36=2,99/5=2) pseudo=read geom=check guess=(
 read,tcheck) scf=(maxcycle=1)\\title\\0,1\C,0,0.326292,0.357313,0.2087
 25\C,0,-2.042568,-0.278709,0.065325\O,0,-1.715471,1.029909,-0.380937\N
 ,0,-0.39982,1.381272,-0.006945\S,0,-0.473962,-1.220509,0.043145\C,0,1.
 780303,0.479862,0.541354\H,0,1.949556,0.052326,1.53244\H,0,-2.43833,-0
 .250978,1.083946\H,0,-2.767427,-0.702966,-0.623847\C,0,2.695656,-0.206
 573,-0.479171\H,0,3.73856,-0.072638,-0.193033\H,0,2.501003,-1.277813,-

 Normal termination of Gaussian 16 at Wed Apr  9 02:14:39 2025.
