 Gaussian 16, Revision C.01,

 ----------------------------------------------------------------------
 #t hf aug-cc-pvdz symm=none int=(grid=ultrafine) guess=(read,tcheck) s
 table=(opt,rrhf)
 ----------------------------------------------------------------------
 -----
 title
 -----
 Symbolic Z-matrix:
 Charge =  0 Multiplicity = 1

 SCF Done:  E(RHF) =  -698.365193961     A.U. after   15 cycles
 Normal termination of Gaussian 16 at Wed Apr  9 02:15:29 2025.
 Gaussian 16:  ES64L-G16RevC.01  3-Jul-2019

 ----------------------------------------------------------------------
 #t hf aug-cc-pvdz iop(5/13=1,5/36=2,99/5=2) pseudo=read geom=check gue
 ss=(read,tcheck) scf=(maxcycle=1)
 ----------------------------------------------------------------------
 -----
 title
 -----
 Structure from the checkpoint file:  "CR20_17_mol3.chk"
 Charge =  0 Multiplicity = 1

                         Standard orientation:
 ---------------------------------------------------------------------
 Center     Atomic      Atomic             Coordinates (Angstroms)
 Number     Number       Type             X           Y           Z
 ---------------------------------------------------------------------
      1          6           0        1.118374    0.180849    0.031049
      2          6           0       -1.355935   -0.030421   -0.323650
      3          1           0       -1.959444   -0.169976   -1.217080
      4          8           0       -0.745731    1.281209   -0.470859
      5          7           0        0.589785    1.337209   -0.057925
      6         16           0        0.065703   -1.191641   -0.318419
      7          7           0       -2.171696   -0.202282    0.825734
      8          1           0       -1.666434   -0.054547    1.689879
      9          1           0       -2.989326    0.394467    0.798860
     10          6           0        2.548825   -0.006195    0.410049
     11          1           0        2.636457   -0.573600    1.337349
     12          1           0        3.082175   -0.556434   -0.366859
     13          1           0        3.016967    0.966774    0.540074
 ---------------------------------------------------------------------

 SCF Done:  E(RHF) =  -698.475866511     A.U. after    2 cycles

 The electronic state is 1-A.
 Alpha  occ. eigenvalues --  -93.56002 -20.61883 -15.69110 -15.63214 -11.37250
 Alpha  occ. eigenvalues --  -11.32839 -11.26131  -8.85921  -6.20056  -6.19900
 Alpha  occ. eigenvalues --   -6.19507  -1.39977  -1.19376  -1.15370  -1.02551
 Alpha  occ. eigenvalues --   -0.98532  -0.85746  -0.77042  -0.71835  -0.68299
 Alpha  occ. eigenvalues --   -0.65418  -0.62863  -0.60676  -0.57386  -0.56784
 Alpha  occ. eigenvalues --   -0.52856  -0.49813  -0.45683  -0.44410  -0.41414
 Alpha  occ. eigenvalues --   -0.35093
 Alpha virt. eigenvalues --    0.03432   0.03821   0.04383   0.05986   0.06301
 Alpha virt. eigenvalues --    0.07201   0.09052   0.09891   0.11557   0.11867
 Alpha virt. eigenvalues --    0.13170   0.13244   0.13870   0.14002   0.15969

 Mulliken charges:
               1
     1  C   -0.271916
     2  C    0.836253
     3  H   -0.282829
     4  O   -0.754782
     5  N   -0.157050
     6  S    0.416696
     7  N   -0.310513
     8  H    0.035537
     9  H    0.004933
    10  C    0.457445
    11  H    0.053814
    12  H    0.029100
    13  H   -0.056687
 Sum of Mulliken charges =  -0.00000

 Dipole moment (field-independent basis, Debye):
    X=              0.3632    Y=             -1.3537    Z=              0.9561  Tot=              1.6966

 Test job not archived.
 1\1\GINC-SE143\SP\RHF\Aug-CC-pVDZ\C3H6N2O1S1\OHZDE\09-Apr-2025\0\\#t h
 f aug-cc-pvdz iop(5/13=1,5/36=2,99/5=2) pseudo=read geom=check guess=(
 read,tcheck) scf=(maxcycle=1)\\title\\0,1\C,0,1.118374,0.180849,0.0310
 49\C,0,-1.355935,-0.030421,-0.32365\H,0,-1.959444,-0.169976,-1.21708\O
 ,0,-0.745731,1.281209,-0.470859\N,0,0.589785,1.337209,-0.057925\S,0,0.
 065703,-1.191641,-0.318419\N,0,-2.171696,-0.202282,0.825734\H,0,-1.666
 434,-0.054547,1.689879\H,0,-2.989326,0.394466,0.79886\C,0,2.548825,-0.
 006195,0.410049\H,0,2.636457,-0.5736,1.337349\H,0,3.082175,-0.556434,-

 Normal termination of Gaussian 16 at Wed Apr  9 02:15:34 2025.
