 Gaussian 16, Revision C.01,

 ----------------------------------------------------------------------
 #t hf aug-cc-pvdz symm=none int=(grid=ultrafine) guess=(read,tcheck) s
 table=(opt,rrhf)
 ----------------------------------------------------------------------
 -----
 title
 -----
 Symbolic Z-matrix:
 Charge =  0 Multiplicity = 1

 SCF Done:  E(RHF) =  -419.517542103     A.U. after   14 cycles
 Normal termination of Gaussian 16 at Wed Apr  9 02:15:20 2025.
 Gaussian 16:  ES64L-G16RevC.01  3-Jul-2019

 ----------------------------------------------------------------------
 #t hf aug-cc-pvdz iop(5/13=1,5/36=2,99/5=2) pseudo=read geom=check gue
 ss=(read,tcheck) scf=(maxcycle=1)
 ----------------------------------------------------------------------
 -----
 title
 -----
 Structure from the checkpoint file:  "CR20_4_mol3.chk"
 Charge =  0 Multiplicity = 1

                         Standard orientation:
 ---------------------------------------------------------------------
 Center     Atomic      Atomic             Coordinates (Angstroms)
 Number     Number       Type             X           Y           Z
 ---------------------------------------------------------------------
      1          6           0       -0.207115    0.229680    0.172018
      2          6           0        1.712361   -0.775656   -0.126341
      3          1           0        2.431287   -1.228899    0.552574
      4          8           0        1.878909    0.637338   -0.137104
      5          7           0        0.567195    1.191435   -0.136864
      6          6           0       -1.666524    0.372142    0.402478
      7          1           0       -1.927058    0.021528    1.402501
      8          1           0       -1.948421    1.415408    0.279480
      9          9           0       -2.379299   -0.399009   -0.512954
     10          1           0        1.786715   -1.186986   -1.139663
     11          8           0        0.379650   -0.978215    0.360956
 ---------------------------------------------------------------------

 SCF Done:  E(RHF) =  -419.652677624     A.U. after    2 cycles

 The electronic state is 1-A.
 Alpha  occ. eigenvalues --  -26.13048 -20.64374 -20.63422 -15.70578 -11.37794
 Alpha  occ. eigenvalues --  -11.37507 -11.36303  -1.66116  -1.47649  -1.35118
 Alpha  occ. eigenvalues --   -1.17664  -1.02395  -0.94610  -0.84390  -0.77651
 Alpha  occ. eigenvalues --   -0.76887  -0.76672  -0.73932  -0.70063  -0.66287
 Alpha  occ. eigenvalues --   -0.61384  -0.58668  -0.57967  -0.57109  -0.55761
 Alpha  occ. eigenvalues --   -0.50252  -0.39967
 Alpha virt. eigenvalues --    0.03312   0.03982   0.04944   0.05899   0.08353
 Alpha virt. eigenvalues --    0.08853   0.09803   0.12643   0.13510   0.13876
 Alpha virt. eigenvalues --    0.14339   0.15652   0.15821   0.16160   0.17306

 Mulliken charges:
               1
     1  C    0.341810
     2  C    1.097187
     3  H   -0.216524
     4  O   -0.700369
     5  N   -0.105743
     6  C    0.907883
     7  H   -0.052543
     8  H   -0.077382
     9  F   -0.419231
    10  H   -0.140297
    11  O   -0.634793
 Sum of Mulliken charges =  -0.00000

 Dipole moment (field-independent basis, Debye):
    X=              0.1499    Y=             -1.0132    Z=              1.4770  Tot=              1.7973

 Test job not archived.
 1\1\GINC-SE273\SP\RHF\Aug-CC-pVDZ\C3H4F1N1O2\OHZDE\09-Apr-2025\0\\#t h
 f aug-cc-pvdz iop(5/13=1,5/36=2,99/5=2) pseudo=read geom=check guess=(
 read,tcheck) scf=(maxcycle=1)\\title\\0,1\C,0,-0.207115,0.22968,0.1720
 18\C,0,1.712361,-0.775656,-0.126341\H,0,2.431287,-1.228899,0.552574\O,
 0,1.878909,0.637338,-0.137104\N,0,0.567195,1.191435,-0.136864\C,0,-1.6
 66524,0.372142,0.402478\H,0,-1.927058,0.021528,1.402501\H,0,-1.948421,
 1.415408,0.27948\F,0,-2.379299,-0.399009,-0.512954\H,0,1.786715,-1.186
 986,-1.139663\O,0,0.37965,-0.978215,0.360956\\Version=ES64L-G16RevC.01

 Normal termination of Gaussian 16 at Wed Apr  9 02:15:25 2025.
