 Gaussian 16, Revision C.01,

 ----------------------------------------------------------------------
 #t hf aug-cc-pvdz symm=none int=(grid=ultrafine) guess=(read,tcheck) s
 table=(opt,rrhf)
 ----------------------------------------------------------------------
 -----
 title
 -----
 Symbolic Z-matrix:
 Charge =  0 Multiplicity = 1

 SCF Done:  E(RHF) =  -682.361687980     A.U. after   14 cycles
 Normal termination of Gaussian 16 at Wed Apr  9 02:14:59 2025.
 Gaussian 16:  ES64L-G16RevC.01  3-Jul-2019

 ----------------------------------------------------------------------
 #t hf aug-cc-pvdz iop(5/13=1,5/36=2,99/5=2) pseudo=read geom=check gue
 ss=(read,tcheck) scf=(maxcycle=1)
 ----------------------------------------------------------------------
 -----
 title
 -----
 Structure from the checkpoint file:  "CR20_15_mol3.chk"
 Charge =  0 Multiplicity = 1

                         Standard orientation:
 ---------------------------------------------------------------------
 Center     Atomic      Atomic             Coordinates (Angstroms)
 Number     Number       Type             X           Y           Z
 ---------------------------------------------------------------------
      1          6           0        1.108469    0.183920    0.043193
      2          6           0       -1.335764   -0.035548   -0.358232
      3          1           0       -1.949808   -0.235740   -1.234395
      4          8           0       -0.744744    1.256382   -0.563267
      5          7           0        0.574338    1.333023   -0.084047
      6         16           0        0.087905   -1.205626   -0.349914
      7          6           0        2.526192    0.017154    0.474385
      8          1           0        2.584244   -0.527079    1.417643
      9          1           0        3.086448   -0.550501   -0.270487
     10          1           0        2.985805    0.995217    0.595362
     11          6           0       -2.149973   -0.082120    0.920649
     12          1           0       -2.944628    0.663795    0.871893
     13          1           0       -2.601186   -1.066658    1.046850
     14          1           0       -1.523320    0.128326    1.786248
 ---------------------------------------------------------------------

 SCF Done:  E(RHF) =  -682.468327781     A.U. after    2 cycles

 The electronic state is 1-A.
 Alpha  occ. eigenvalues --  -93.55649 -20.61950 -15.69048 -11.34262 -11.32830
 Alpha  occ. eigenvalues --  -11.26040 -11.24242  -8.85560  -6.19692  -6.19542
 Alpha  occ. eigenvalues --   -6.19155  -1.39833  -1.16687  -1.07419  -0.98880
 Alpha  occ. eigenvalues --   -0.96179  -0.83624  -0.75779  -0.69493  -0.66092
 Alpha  occ. eigenvalues --   -0.62649  -0.60475  -0.59732  -0.56382  -0.56148
 Alpha  occ. eigenvalues --   -0.53807  -0.51644  -0.47407  -0.44382  -0.43993
 Alpha  occ. eigenvalues --   -0.34558
 Alpha virt. eigenvalues --    0.03431   0.03868   0.04755   0.05664   0.06317
 Alpha virt. eigenvalues --    0.06525   0.07378   0.09361   0.10403   0.11110
 Alpha virt. eigenvalues --    0.12028   0.12803   0.13779   0.13853   0.14488

 Mulliken charges:
               1
     1  C   -0.218936
     2  C    0.357611
     3  H   -0.257218
     4  O   -0.736928
     5  N   -0.198848
     6  S    0.377729
     7  C    0.446085
     8  H    0.056692
     9  H    0.028971
    10  H   -0.054516
    11  C    0.313138
    12  H   -0.014686
    13  H   -0.030892
    14  H   -0.068203
 Sum of Mulliken charges =  -0.00000

 Dipole moment (field-independent basis, Debye):
    X=              0.1062    Y=             -2.3084    Z=              0.9788  Tot=              2.5095

 Test job not archived.
 1\1\GINC-SE292\SP\RHF\Aug-CC-pVDZ\C4H7N1O1S1\OHZDE\09-Apr-2025\0\\#t h
 f aug-cc-pvdz iop(5/13=1,5/36=2,99/5=2) pseudo=read geom=check guess=(
 read,tcheck) scf=(maxcycle=1)\\title\\0,1\C,0,1.108469,0.18392,0.04319
 3\C,0,-1.335764,-0.035548,-0.358232\H,0,-1.949808,-0.23574,-1.234395\O
 ,0,-0.744744,1.256382,-0.563267\N,0,0.574338,1.333023,-0.084047\S,0,0.
 087905,-1.205626,-0.349914\C,0,2.526192,0.017154,0.474385\H,0,2.584244
 ,-0.527079,1.417643\H,0,3.086448,-0.550501,-0.270487\H,0,2.985805,0.99
 5217,0.595362\C,0,-2.149973,-0.08212,0.920649\H,0,-2.944628,0.663795,0

 Normal termination of Gaussian 16 at Wed Apr  9 02:15:04 2025.
