 Gaussian 16, Revision C.01,

 ----------------------------------------------------------------------
 #t hf aug-cc-pvdz symm=none int=(grid=ultrafine) guess=(read,tcheck) s
 table=(opt,rrhf)
 ----------------------------------------------------------------------
 -----
 title
 -----
 Symbolic Z-matrix:
 Charge =  0 Multiplicity = 1

 SCF Done:  E(RHF) =  -742.191778942     A.U. after   15 cycles
 Normal termination of Gaussian 16 at Wed Apr  9 02:15:10 2025.
 Gaussian 16:  ES64L-G16RevC.01  3-Jul-2019

 ----------------------------------------------------------------------
 #t hf aug-cc-pvdz iop(5/13=1,5/36=2,99/5=2) pseudo=read geom=check gue
 ss=(read,tcheck) scf=(maxcycle=1)
 ----------------------------------------------------------------------
 -----
 title
 -----
 Structure from the checkpoint file:  "CR20_18_mol3.chk"
 Charge =  0 Multiplicity = 1

                         Standard orientation:
 ---------------------------------------------------------------------
 Center     Atomic      Atomic             Coordinates (Angstroms)
 Number     Number       Type             X           Y           Z
 ---------------------------------------------------------------------
      1          6           0        1.086160    0.183157    0.016115
      2          6           0       -1.349736   -0.024343   -0.290771
      3          8           0       -0.808878    1.236630   -0.478626
      4          7           0        0.547912    1.333859   -0.080917
      5         16           0        0.037138   -1.197151   -0.308965
      6          6           0        2.522072    0.014714    0.380915
      7          1           0        2.618615   -0.520582    1.325809
      8          1           0        3.046605   -0.559291   -0.384130
      9          1           0        2.987581    0.992780    0.474378
     10          1           0       -2.087944   -0.220132   -1.063697
     11          9           0       -2.008267   -0.089953    0.927661
 ---------------------------------------------------------------------

 SCF Done:  E(RHF) =  -742.322808651     A.U. after    2 cycles

 The electronic state is 1-A.
 Alpha  occ. eigenvalues --  -93.58032 -26.12986 -20.64742 -15.70938 -11.43359
 Alpha  occ. eigenvalues --  -11.34737 -11.27319  -8.88004  -6.22121  -6.21977
 Alpha  occ. eigenvalues --   -6.21564  -1.66811  -1.42971  -1.19220  -1.07504
 Alpha  occ. eigenvalues --   -1.00364  -0.90898  -0.81608  -0.79242  -0.75651
 Alpha  occ. eigenvalues --   -0.71714  -0.67694  -0.64681  -0.62553  -0.59992
 Alpha  occ. eigenvalues --   -0.58800  -0.55142  -0.51092  -0.46702  -0.46279
 Alpha  occ. eigenvalues --   -0.37985
 Alpha virt. eigenvalues --    0.03186   0.04008   0.05398   0.05748   0.08125
 Alpha virt. eigenvalues --    0.08947   0.09890   0.10557   0.11483   0.12391
 Alpha virt. eigenvalues --    0.13167   0.13584   0.14587   0.15414   0.16019

 Mulliken charges:
               1
     1  C   -0.251998
     2  C    0.879818
     3  O   -0.659361
     4  N   -0.161672
     5  S    0.380260
     6  C    0.429927
     7  H    0.065312
     8  H    0.033748
     9  H   -0.049010
    10  H   -0.253599
    11  F   -0.413424
 Sum of Mulliken charges =  -0.00000

 Dipole moment (field-independent basis, Debye):
    X=              2.3011    Y=             -2.3975    Z=             -1.0884  Tot=              3.4968

 Test job not archived.
 1\1\GINC-SE334\SP\RHF\Aug-CC-pVDZ\C3H4F1N1O1S1\OHZDE\09-Apr-2025\0\\#t
  hf aug-cc-pvdz iop(5/13=1,5/36=2,99/5=2) pseudo=read geom=check guess
 =(read,tcheck) scf=(maxcycle=1)\\title\\0,1\C,0,1.08616,0.183157,0.016
 115\C,0,-1.349736,-0.024343,-0.290771\O,0,-0.808878,1.23663,-0.478626\
 N,0,0.547912,1.333859,-0.080917\S,0,0.037138,-1.197151,-0.308965\C,0,2
 .522072,0.014714,0.380915\H,0,2.618615,-0.520582,1.325809\H,0,3.046605
 ,-0.559291,-0.38413\H,0,2.987581,0.99278,0.474378\H,0,-2.087944,-0.220
 132,-1.063697\F,0,-2.008267,-0.089953,0.927661\\Version=ES64L-G16RevC.

 Normal termination of Gaussian 16 at Wed Apr  9 02:15:15 2025.
