 Gaussian 16, Revision C.01,

 ----------------------------------------------------------------------
 #t hf aug-cc-pvdz symm=none int=(grid=ultrafine) guess=(read,tcheck) s
 table=(opt,rrhf)
 ----------------------------------------------------------------------
 -----
 title
 -----
 Symbolic Z-matrix:
 Charge =  0 Multiplicity = 1

 SCF Done:  E(RHF) =  -568.507456044     A.U. after   14 cycles
 Normal termination of Gaussian 16 at Wed Apr  9 02:14:04 2025.
 Gaussian 16:  ES64L-G16RevC.01  3-Jul-2019

 ----------------------------------------------------------------------
 #t hf aug-cc-pvdz iop(5/13=1,5/36=2,99/5=2) pseudo=read geom=check gue
 ss=(read,tcheck) scf=(maxcycle=1)
 ----------------------------------------------------------------------
 -----
 title
 -----
 Structure from the checkpoint file:  "CR20_13_mol1.chk"
 Charge =  0 Multiplicity = 1

                         Standard orientation:
 ---------------------------------------------------------------------
 Center     Atomic      Atomic             Coordinates (Angstroms)
 Number     Number       Type             X           Y           Z
 ---------------------------------------------------------------------
      1          6           0       -0.114333   -0.777314    0.000000
      2         16           0       -0.367106   -2.340737    0.000000
      3          7           0        0.000000    0.401172    0.000000
      4          6           0        0.799810    1.591603    0.000000
      5          1           0        1.445951    1.570224    0.881049
      6          1           0        1.445951    1.570224   -0.881049
      7          6           0       -0.055734    2.851447    0.000000
      8          1           0        0.587127    3.731737    0.000000
      9          1           0       -0.691895    2.888497   -0.883504
     10          1           0       -0.691895    2.888497    0.883504
 ---------------------------------------------------------------------

 SCF Done:  E(RHF) =  -568.581959734     A.U. after    2 cycles

 The electronic state is 1-A'.
 Alpha  occ. eigenvalues --  -93.52223 -15.67304 -11.38191 -11.31948 -11.25139
 Alpha  occ. eigenvalues --   -8.82167  -6.16497  -6.15792  -6.15762  -1.26148
 Alpha  occ. eigenvalues --   -1.07855  -1.00282  -0.90480  -0.73650  -0.67500
 Alpha  occ. eigenvalues --   -0.61255  -0.58547  -0.56472  -0.56060  -0.51721
 Alpha  occ. eigenvalues --   -0.51000  -0.35480  -0.34826
 Alpha virt. eigenvalues --    0.02736   0.04288   0.04421   0.05376   0.07399
 Alpha virt. eigenvalues --    0.07786   0.10068   0.10934   0.11132   0.12079
 Alpha virt. eigenvalues --    0.12474   0.12822   0.14425   0.15302   0.15952

 Mulliken charges:
               1
     1  C   -0.653403
     2  S    0.135755
     3  N   -0.136139
     4  C    0.682692
     5  H   -0.149474
     6  H   -0.149474
     7  C    0.390397
     8  H   -0.030111
     9  H   -0.045121
    10  H   -0.045121
 Sum of Mulliken charges =  -0.00000

 Dipole moment (field-independent basis, Debye):
    X=              1.4257    Y=              3.8855    Z=              0.0000  Tot=              4.1388

 Test job not archived.
 1\1\GINC-SE364\SP\RHF\Aug-CC-pVDZ\C3H5N1S1\OHZDE\09-Apr-2025\0\\#t hf
 aug-cc-pvdz iop(5/13=1,5/36=2,99/5=2) pseudo=read geom=check guess=(re
 ad,tcheck) scf=(maxcycle=1)\\title\\0,1\C,0,-0.114333,-0.777314,0.\S,0
 ,-0.367107,-2.340737,0.\N,0,0.,0.401172,0.\C,0,0.79981,1.591603,0.\H,0
 ,1.445951,1.570224,0.881049\H,0,1.445951,1.570224,-0.881049\C,0,-0.055
 733,2.851447,0.\H,0,0.587128,3.731737,0.\H,0,-0.691894,2.888497,-0.883
 504\H,0,-0.691894,2.888497,0.883504\\Version=ES64L-G16RevC.01\State=1-
 A'\HF=-568.5819597\RMSD=6.702e-03\Dipole=0.5608958,1.5286754,0.\Quadru

 Normal termination of Gaussian 16 at Wed Apr  9 02:14:07 2025.
