 Gaussian 16, Revision C.01,

 ----------------------------------------------------------------------
 #t hf aug-cc-pvdz symm=none int=(grid=ultrafine) guess=(read,tcheck) s
 table=(opt,rrhf)
 ----------------------------------------------------------------------
 -----
 title
 -----
 Symbolic Z-matrix:
 Charge =  0 Multiplicity = 1

 SCF Done:  E(RHF) =  -643.316347292     A.U. after   15 cycles
 Normal termination of Gaussian 16 at Wed Apr  9 02:14:07 2025.
 Gaussian 16:  ES64L-G16RevC.01  3-Jul-2019

 ----------------------------------------------------------------------
 #t hf aug-cc-pvdz iop(5/13=1,5/36=2,99/5=2) pseudo=read geom=check gue
 ss=(read,tcheck) scf=(maxcycle=1)
 ----------------------------------------------------------------------
 -----
 title
 -----
 Structure from the checkpoint file:  "CR20_12_mol3.chk"
 Charge =  0 Multiplicity = 1

                         Standard orientation:
 ---------------------------------------------------------------------
 Center     Atomic      Atomic             Coordinates (Angstroms)
 Number     Number       Type             X           Y           Z
 ---------------------------------------------------------------------
      1          6           0        0.790003    0.200556    0.006695
      2          6           0       -1.637824   -0.091242    0.238937
      3          8           0       -1.194990    1.192583   -0.180143
      4          7           0        0.200804    1.329096   -0.022581
      5         16           0       -0.248623   -1.233470   -0.101001
      6          6           0        2.274396    0.086528    0.080712
      7          1           0        2.579330   -0.425247    0.993949
      8          1           0        2.652228   -0.491065   -0.764745
      9          1           0        2.717057    1.079453    0.059406
     10          1           0       -1.857763   -0.092771    1.309601
     11          1           0       -2.518051   -0.354242   -0.341038
 ---------------------------------------------------------------------

 SCF Done:  E(RHF) =  -643.411408686     A.U. after    2 cycles

 The electronic state is 1-A.
 Alpha  occ. eigenvalues --  -93.56088 -20.62458 -15.69402 -11.34011 -11.33285
 Alpha  occ. eigenvalues --  -11.26291  -8.86000  -6.20115  -6.19976  -6.19566
 Alpha  occ. eigenvalues --   -1.40299  -1.16993  -1.05530  -0.98873  -0.87416
 Alpha  occ. eigenvalues --   -0.76509  -0.69806  -0.68410  -0.62747  -0.60793
 Alpha  occ. eigenvalues --   -0.57634  -0.55579  -0.53467  -0.49204  -0.44923
 Alpha  occ. eigenvalues --   -0.44284  -0.34997
 Alpha virt. eigenvalues --    0.03474   0.03971   0.04940   0.06083   0.06663
 Alpha virt. eigenvalues --    0.08251   0.09333   0.11182   0.11449   0.12533
 Alpha virt. eigenvalues --    0.13400   0.13777   0.14097   0.15863   0.16318

 Mulliken charges:
               1
     1  C   -0.213698
     2  C    0.584315
     3  O   -0.693997
     4  N   -0.153221
     5  S    0.320053
     6  C    0.429985
     7  H    0.050951
     8  H    0.031160
     9  H   -0.055558
    10  H   -0.093521
    11  H   -0.206470
 Sum of Mulliken charges =  -0.00000

 Dipole moment (field-independent basis, Debye):
    X=              0.7194    Y=             -2.3122    Z=              0.7916  Tot=              2.5477

 Test job not archived.
 1\1\GINC-SE334\SP\RHF\Aug-CC-pVDZ\C3H5N1O1S1\OHZDE\09-Apr-2025\0\\#t h
 f aug-cc-pvdz iop(5/13=1,5/36=2,99/5=2) pseudo=read geom=check guess=(
 read,tcheck) scf=(maxcycle=1)\\title\\0,1\C,0,0.790003,0.200556,0.0066
 95\C,0,-1.637824,-0.091241,0.238937\O,0,-1.194989,1.192583,-0.180143\N
 ,0,0.200805,1.329096,-0.022581\S,0,-0.248623,-1.23347,-0.101001\C,0,2.
 274396,0.086527,0.080712\H,0,2.57933,-0.425248,0.993949\H,0,2.652228,-
 0.491066,-0.764745\H,0,2.717058,1.079452,0.059406\H,0,-1.857763,-0.092
 77,1.309601\H,0,-2.518051,-0.354241,-0.341038\\Version=ES64L-G16RevC.0

 Normal termination of Gaussian 16 at Wed Apr  9 02:14:11 2025.
