 Gaussian 16, Revision C.01,

 ----------------------------------------------------------------------
 #t hf aug-cc-pvdz symm=none int=(grid=ultrafine) guess=(read,tcheck) s
 table=(opt,rrhf)
 ----------------------------------------------------------------------
 -----
 title
 -----
 Symbolic Z-matrix:
 Charge =  0 Multiplicity = 1

 SCF Done:  E(RHF) =  -305.686875245     A.U. after   14 cycles
 Normal termination of Gaussian 16 at Wed Apr  9 02:15:08 2025.
 Gaussian 16:  ES64L-G16RevC.01  3-Jul-2019

 ----------------------------------------------------------------------
 #t hf aug-cc-pvdz iop(5/13=1,5/36=2,99/5=2) pseudo=read geom=check gue
 ss=(read,tcheck) scf=(maxcycle=1)
 ----------------------------------------------------------------------
 -----
 title
 -----
 Structure from the checkpoint file:  "CR20_4_mol1.chk"
 Charge =  0 Multiplicity = 1

                         Standard orientation:
 ---------------------------------------------------------------------
 Center     Atomic      Atomic             Coordinates (Angstroms)
 Number     Number       Type             X           Y           Z
 ---------------------------------------------------------------------
      1          6           0        1.093623    0.287751    0.000000
      2          7           0        0.000000    0.790900    0.000000
      3          6           0       -1.335492    0.308292    0.000000
      4          1           0       -1.851762    0.653957    0.895519
      5          9           0       -1.380418   -1.079591    0.000000
      6          1           0       -1.851762    0.653957   -0.895519
      7          8           0        2.197313   -0.088019    0.000000
 ---------------------------------------------------------------------

 SCF Done:  E(RHF) =  -305.789911503     A.U. after    2 cycles

 The electronic state is 1-A'.
 Alpha  occ. eigenvalues --  -26.13513 -20.63985 -15.66944 -11.43683 -11.40176
 Alpha  occ. eigenvalues --   -1.67000  -1.44354  -1.26370  -1.02077  -0.81303
 Alpha  occ. eigenvalues --   -0.78358  -0.77629  -0.75282  -0.67997  -0.66521
 Alpha  occ. eigenvalues --   -0.64771  -0.60786  -0.48775  -0.44238
 Alpha virt. eigenvalues --    0.03119   0.04636   0.06862   0.07748   0.10525
 Alpha virt. eigenvalues --    0.10644   0.11319   0.13614   0.15650   0.16840
 Alpha virt. eigenvalues --    0.17210   0.19772   0.20519   0.21883   0.24691

 Mulliken charges:
               1
     1  C   -0.077798
     2  N   -0.166723
     3  C    1.095700
     4  H   -0.127111
     5  F   -0.398501
     6  H   -0.127111
     7  O   -0.198457
 Sum of Mulliken charges =  -0.00000

 Dipole moment (field-independent basis, Debye):
    X=             -2.5561    Y=              1.7855    Z=              0.0000  Tot=              3.1180

 Test job not archived.
 1\1\GINC-SE195\SP\RHF\Aug-CC-pVDZ\C2H2F1N1O1\OHZDE\09-Apr-2025\0\\#t h
 f aug-cc-pvdz iop(5/13=1,5/36=2,99/5=2) pseudo=read geom=check guess=(
 read,tcheck) scf=(maxcycle=1)\\title\\0,1\C,0,1.093623,0.287751,0.\N,0
 ,0.,0.7909,0.\C,0,-1.335492,0.308292,0.\H,0,-1.851762,0.653957,0.89551
 9\F,0,-1.380418,-1.079591,0.\H,0,-1.851762,0.653957,-0.895519\O,0,2.19
 7313,-0.088019,0.\\Version=ES64L-G16RevC.01\State=1-A'\HF=-305.7899115
 \RMSD=3.846e-03\Dipole=-1.0056591,0.7024591,0.\Quadrupole=-1.3756924,-
 0.748021,2.1237134,-1.8303115,0.,0.\PG=CS [SG(C2F1N1O1),X(H2)]\\@

 Normal termination of Gaussian 16 at Wed Apr  9 02:15:11 2025.
