 Gaussian 16, Revision C.01,

 ----------------------------------------------------------------------
 #t hf aug-cc-pvdz symm=none int=(grid=ultrafine) guess=(read,tcheck) s
 table=(opt,rrhf)
 ----------------------------------------------------------------------
 -----
 title
 -----
 Symbolic Z-matrix:
 Charge =  0 Multiplicity = 1

 SCF Done:  E(RHF) =  -419.550041433     A.U. after   14 cycles
 Normal termination of Gaussian 16 at Wed Apr  9 02:15:44 2025.
 Gaussian 16:  ES64L-G16RevC.01  3-Jul-2019

 ----------------------------------------------------------------------
 #t hf aug-cc-pvdz iop(5/13=1,5/36=2,99/5=2) pseudo=read geom=check gue
 ss=(read,tcheck) scf=(maxcycle=1)
 ----------------------------------------------------------------------
 -----
 title
 -----
 Structure from the checkpoint file:  "CR20_8_mol3.chk"
 Charge =  0 Multiplicity = 1

                         Standard orientation:
 ---------------------------------------------------------------------
 Center     Atomic      Atomic             Coordinates (Angstroms)
 Number     Number       Type             X           Y           Z
 ---------------------------------------------------------------------
      1          6           0       -0.974099    0.057056    0.015822
      2          6           0        1.167452   -0.155390    0.408144
      3          8           0        0.860903    1.167341    0.154306
      4          7           0       -0.518163    1.214244   -0.249727
      5          6           0       -2.363034   -0.410581   -0.177932
      6          1           0       -2.384499   -1.247824   -0.875922
      7          1           0       -2.777798   -0.752720    0.770857
      8          1           0       -2.969559    0.402312   -0.566469
      9          1           0        1.796767   -0.273739    1.286054
     10          9           0        1.842002   -0.712317   -0.659535
     11          8           0       -0.060616   -0.812766    0.544843
 ---------------------------------------------------------------------

 SCF Done:  E(RHF) =  -419.686999667     A.U. after    2 cycles

 The electronic state is 1-A.
 Alpha  occ. eigenvalues --  -26.13177 -20.65711 -20.64481 -15.70294 -11.46258
 Alpha  occ. eigenvalues --  -11.38196 -11.27839  -1.67583  -1.49182  -1.36677
 Alpha  occ. eigenvalues --   -1.18535  -1.02654  -0.96057  -0.85753  -0.81585
 Alpha  occ. eigenvalues --   -0.80001  -0.73249  -0.71660  -0.67872  -0.63542
 Alpha  occ. eigenvalues --   -0.61780  -0.60602  -0.58805  -0.58731  -0.57442
 Alpha  occ. eigenvalues --   -0.50698  -0.41604
 Alpha virt. eigenvalues --    0.02971   0.04023   0.05333   0.05739   0.08771
 Alpha virt. eigenvalues --    0.09564   0.09916   0.13356   0.13788   0.14129
 Alpha virt. eigenvalues --    0.14275   0.14436   0.15100   0.15750   0.16842

 Mulliken charges:
               1
     1  C    0.173282
     2  C    1.308926
     3  O   -0.692807
     4  N   -0.111262
     5  C    0.423859
     6  H    0.065221
     7  H    0.045245
     8  H   -0.008321
     9  H   -0.247077
    10  F   -0.338750
    11  O   -0.618316
 Sum of Mulliken charges =  -0.00000

 Dipole moment (field-independent basis, Debye):
    X=             -2.5694    Y=             -1.6806    Z=              1.6602  Tot=              3.4903

 Test job not archived.
 1\1\GINC-SE036\SP\RHF\Aug-CC-pVDZ\C3H4F1N1O2\OHZDE\09-Apr-2025\0\\#t h
 f aug-cc-pvdz iop(5/13=1,5/36=2,99/5=2) pseudo=read geom=check guess=(
 read,tcheck) scf=(maxcycle=1)\\title\\0,1\C,0,-0.974099,0.057056,0.015
 822\C,0,1.167452,-0.15539,0.408144\O,0,0.860903,1.167341,0.154306\N,0,
 -0.518163,1.214244,-0.249727\C,0,-2.363034,-0.410581,-0.177932\H,0,-2.
 384499,-1.247824,-0.875922\H,0,-2.777798,-0.75272,0.770857\H,0,-2.9695
 59,0.402312,-0.566469\H,0,1.796767,-0.273739,1.286054\F,0,1.842002,-0.
 712317,-0.659535\O,0,-0.060616,-0.812766,0.544843\\Version=ES64L-G16Re

 Normal termination of Gaussian 16 at Wed Apr  9 02:15:49 2025.
