 Gaussian 16, Revision C.01,

 ----------------------------------------------------------------------
 #t hf aug-cc-pvdz symm=none int=(grid=ultrafine) guess=(read,tcheck) s
 table=(opt,rrhf)
 ----------------------------------------------------------------------
 -----
 title
 -----
 Symbolic Z-matrix:
 Charge =  0 Multiplicity = 1

 SCF Done:  E(RHF) =  -718.198977892     A.U. after   15 cycles
 Normal termination of Gaussian 16 at Wed Apr  9 02:15:15 2025.
 Gaussian 16:  ES64L-G16RevC.01  3-Jul-2019

 ----------------------------------------------------------------------
 #t hf aug-cc-pvdz iop(5/13=1,5/36=2,99/5=2) pseudo=read geom=check gue
 ss=(read,tcheck) scf=(maxcycle=1)
 ----------------------------------------------------------------------
 -----
 title
 -----
 Structure from the checkpoint file:  "CR20_16_mol3.chk"
 Charge =  0 Multiplicity = 1

                         Standard orientation:
 ---------------------------------------------------------------------
 Center     Atomic      Atomic             Coordinates (Angstroms)
 Number     Number       Type             X           Y           Z
 ---------------------------------------------------------------------
      1          6           0        1.105588    0.176772    0.020028
      2          6           0       -1.370052   -0.020513   -0.301969
      3          8           0       -0.776248    1.262344   -0.464806
      4          7           0        0.572241    1.331147   -0.073172
      5         16           0        0.052835   -1.198294   -0.303378
      6          6           0        2.541756    0.003884    0.384919
      7          1           0        2.642505   -0.555043    1.315873
      8          1           0        3.069888   -0.549250   -0.393112
      9          1           0        3.004160    0.981153    0.501928
     10          1           0       -2.017914   -0.198988   -1.154737
     11          8           0       -2.170824   -0.111947    0.822503
     12          1           0       -1.636860    0.012758    1.616862
 ---------------------------------------------------------------------

 SCF Done:  E(RHF) =  -718.317431269     A.U. after    2 cycles

 The electronic state is 1-A.
 Alpha  occ. eigenvalues --  -93.56874 -20.63251 -20.60751 -15.70158 -11.40372
 Alpha  occ. eigenvalues --  -11.33887 -11.26855  -8.86823  -6.20943  -6.20794
 Alpha  occ. eigenvalues --   -6.20403  -1.42739  -1.35537  -1.17683  -1.05008
 Alpha  occ. eigenvalues --   -0.99444  -0.89089  -0.79248  -0.73716  -0.71728
 Alpha  occ. eigenvalues --   -0.65574  -0.62548  -0.61979  -0.59958  -0.57646
 Alpha  occ. eigenvalues --   -0.56368  -0.53742  -0.47092  -0.45608  -0.45340
 Alpha  occ. eigenvalues --   -0.36518
 Alpha virt. eigenvalues --    0.03106   0.04382   0.04515   0.05801   0.06429
 Alpha virt. eigenvalues --    0.08488   0.09380   0.10591   0.11731   0.12185
 Alpha virt. eigenvalues --    0.12714   0.13340   0.13722   0.15288   0.15528

 Mulliken charges:
               1
     1  C   -0.263662
     2  C    0.947070
     3  O   -0.717413
     4  N   -0.140971
     5  S    0.364367
     6  C    0.422165
     7  H    0.055835
     8  H    0.032898
     9  H   -0.050969
    10  H   -0.279632
    11  O   -0.542294
    12  H    0.172604
 Sum of Mulliken charges =  -0.00000

 Dipole moment (field-independent basis, Debye):
    X=              2.2543    Y=             -2.1578    Z=              0.7956  Tot=              3.2205

 Test job not archived.
 1\1\GINC-SE036\SP\RHF\Aug-CC-pVDZ\C3H5N1O2S1\OHZDE\09-Apr-2025\0\\#t h
 f aug-cc-pvdz iop(5/13=1,5/36=2,99/5=2) pseudo=read geom=check guess=(
 read,tcheck) scf=(maxcycle=1)\\title\\0,1\C,0,1.105588,0.176772,0.0200
 28\C,0,-1.370052,-0.020513,-0.301969\O,0,-0.776248,1.262344,-0.464806\
 N,0,0.572241,1.331147,-0.073172\S,0,0.052835,-1.198294,-0.303378\C,0,2
 .541756,0.003884,0.384919\H,0,2.642505,-0.555043,1.315873\H,0,3.069888
 ,-0.54925,-0.393112\H,0,3.00416,0.981153,0.501928\H,0,-2.017914,-0.198
 988,-1.154737\O,0,-2.170824,-0.111947,0.822503\H,0,-1.63686,0.012758,1

 Normal termination of Gaussian 16 at Wed Apr  9 02:15:22 2025.
