 Gaussian 16, Revision C.01,

 ----------------------------------------------------------------------
 #t hf aug-cc-pvdz symm=none int=(grid=ultrafine) guess=(read,tcheck) s
 table=(opt,rrhf)
 ----------------------------------------------------------------------
 -----
 title
 -----
 Symbolic Z-matrix:
 Charge =  0 Multiplicity = 1

 SCF Done:  E(RHF) =  -742.172361537     A.U. after   14 cycles
 Normal termination of Gaussian 16 at Wed Apr  9 02:14:40 2025.
 Gaussian 16:  ES64L-G16RevC.01  3-Jul-2019

 ----------------------------------------------------------------------
 #t hf aug-cc-pvdz iop(5/13=1,5/36=2,99/5=2) pseudo=read geom=check gue
 ss=(read,tcheck) scf=(maxcycle=1)
 ----------------------------------------------------------------------
 -----
 title
 -----
 Structure from the checkpoint file:  "CR20_14_mol3.chk"
 Charge =  0 Multiplicity = 1

                         Standard orientation:
 ---------------------------------------------------------------------
 Center     Atomic      Atomic             Coordinates (Angstroms)
 Number     Number       Type             X           Y           Z
 ---------------------------------------------------------------------
      1          6           0        0.366341    0.331324   -0.178300
      2          6           0       -1.932772   -0.281797    0.381738
      3          1           0       -2.852294   -0.616603   -0.089387
      4          8           0       -1.712426    1.077620    0.012420
      5          7           0       -0.345051    1.378985   -0.031050
      6         16           0       -0.482917   -1.214603   -0.240472
      7          6           0        1.839962    0.451015   -0.382400
      8          1           0        2.127804    0.042402   -1.353008
      9          1           0        2.127237    1.498607   -0.316430
     10          9           0        2.531704   -0.265649    0.592199
     11          1           0       -1.987839   -0.377014    1.468359
 ---------------------------------------------------------------------

 SCF Done:  E(RHF) =  -742.301915343     A.U. after    2 cycles

 The electronic state is 1-A.
 Alpha  occ. eigenvalues --  -93.57173 -26.12645 -20.63985 -15.71587 -11.35816
 Alpha  occ. eigenvalues --  -11.35039 -11.34270  -8.87069  -6.21190  -6.21042
 Alpha  occ. eigenvalues --   -6.20624  -1.65744  -1.42113  -1.18547  -1.06799
 Alpha  occ. eigenvalues --   -1.00554  -0.88832  -0.80977  -0.76603  -0.75845
 Alpha  occ. eigenvalues --   -0.73679  -0.70598  -0.66872  -0.62946  -0.57885
 Alpha  occ. eigenvalues --   -0.56952  -0.54977  -0.50747  -0.46716  -0.46328
 Alpha  occ. eigenvalues --   -0.35960
 Alpha virt. eigenvalues --    0.03503   0.03901   0.05020   0.05946   0.07733
 Alpha virt. eigenvalues --    0.08910   0.09264   0.10730   0.11743   0.12466
 Alpha virt. eigenvalues --    0.12957   0.13756   0.14174   0.15707   0.16392

 Mulliken charges:
               1
     1  C   -0.154030
     2  C    0.579977
     3  H   -0.203999
     4  O   -0.691290
     5  N   -0.123069
     6  S    0.347497
     7  C    0.894168
     8  H   -0.050874
     9  H   -0.098725
    10  F   -0.412059
    11  H   -0.087596
 Sum of Mulliken charges =  -0.00000

 Dipole moment (field-independent basis, Debye):
    X=             -0.7176    Y=             -1.1970    Z=             -0.9466  Tot=              1.6863

 Test job not archived.
 1\1\GINC-SE366\SP\RHF\Aug-CC-pVDZ\C3H4F1N1O1S1\OHZDE\09-Apr-2025\0\\#t
  hf aug-cc-pvdz iop(5/13=1,5/36=2,99/5=2) pseudo=read geom=check guess
 =(read,tcheck) scf=(maxcycle=1)\\title\\0,1\C,0,0.366341,0.331324,-0.1
 783\C,0,-1.932772,-0.281797,0.381738\H,0,-2.852294,-0.616603,-0.089387
 \O,0,-1.712426,1.07762,0.01242\N,0,-0.345051,1.378985,-0.03105\S,0,-0.
 482917,-1.214603,-0.240472\C,0,1.839962,0.451015,-0.3824\H,0,2.127804,
 0.042402,-1.353008\H,0,2.127237,1.498607,-0.31643\F,0,2.531704,-0.2656
 49,0.592199\H,0,-1.987839,-0.377014,1.468359\\Version=ES64L-G16RevC.01

 Normal termination of Gaussian 16 at Wed Apr  9 02:14:44 2025.
