 Gaussian 16, Revision C.01,

 ----------------------------------------------------------------------
 #t hf aug-cc-pvdz symm=none int=(grid=ultrafine) guess=(read,tcheck) s
 table=(opt,rrhf)
 ----------------------------------------------------------------------
 -----
 title
 -----
 Symbolic Z-matrix:
 Charge =  0 Multiplicity = 1

 SCF Done:  E(RHF) =  -698.327566258     A.U. after   17 cycles
 Normal termination of Gaussian 16 at Wed Apr  9 02:15:59 2025.
 Gaussian 16:  ES64L-G16RevC.01  3-Jul-2019

 ----------------------------------------------------------------------
 #t hf aug-cc-pvdz iop(5/13=1,5/36=2,99/5=2) pseudo=read geom=check gue
 ss=(read,tcheck) scf=(maxcycle=1)
 ----------------------------------------------------------------------
 -----
 title
 -----
 Structure from the checkpoint file:  "CRBH20_17_mol1.chk"
 Charge =  0 Multiplicity = 1

                         Standard orientation:
 ---------------------------------------------------------------------
 Center     Atomic      Atomic             Coordinates (Angstroms)
 Number     Number       Type             X           Y           Z
 ---------------------------------------------------------------------
      1          6           0        1.186682   -0.155656   -0.036925
      2          6           0       -1.881065   -0.202354    0.301269
      3          8           0       -1.350246   -0.951306   -0.513911
      4          7           0        0.652258   -1.279304   -0.078969
      5         16           0        1.016781    1.493697   -0.137678
      6          6           0        2.640539   -0.844929    0.270911
      7          1           0        3.249870   -0.486447   -0.552529
      8          1           0        2.922921   -0.410839    1.224233
      9          1           0        2.668315   -1.929363    0.319121
     10          1           0       -1.359577    0.149742    1.195280
     11          7           0       -3.142812    0.235833    0.182404
     12          1           0       -3.673946    0.009188   -0.642796
     13          1           0       -3.517190    0.900942    0.835248
 ---------------------------------------------------------------------

 SCF Done:  E(RHF) =  -698.437825871     A.U. after    2 cycles

 The electronic state is 1-A.
 Alpha  occ. eigenvalues --  -93.48552 -20.56933 -15.73496 -15.67625 -11.38851
 Alpha  occ. eigenvalues --  -11.35472 -11.29283  -8.78408  -6.12702  -6.12075
 Alpha  occ. eigenvalues --   -6.12011  -1.37208  -1.25007  -1.20506  -0.98080
 Alpha  occ. eigenvalues --   -0.94701  -0.86945  -0.77598  -0.70506  -0.68536
 Alpha  occ. eigenvalues --   -0.63731  -0.63427  -0.60771  -0.58465  -0.57340
 Alpha  occ. eigenvalues --   -0.53145  -0.51650  -0.45959  -0.44453  -0.33270
 Alpha  occ. eigenvalues --   -0.32304
 Alpha virt. eigenvalues --    0.02573   0.03665   0.04358   0.05809   0.06277
 Alpha virt. eigenvalues --    0.06878   0.08322   0.10189   0.10830   0.11650
 Alpha virt. eigenvalues --    0.12971   0.13107   0.13540   0.14325   0.14843

 Mulliken charges:
               1
     1  C   -0.288445
     2  C    0.980860
     3  O   -0.498332
     4  N   -0.167706
     5  S   -0.081428
     6  C    0.296725
     7  H    0.078193
     8  H    0.063184
     9  H   -0.070241
    10  H   -0.208586
    11  N   -0.101898
    12  H   -0.009441
    13  H    0.007114
 Sum of Mulliken charges =  -0.00000

 Dipole moment (field-independent basis, Debye):
    X=             -2.3787    Y=             -0.7049    Z=              2.4481  Tot=              3.4854

 Test job not archived.
 1\1\GINC-SE334\SP\RHF\Aug-CC-pVDZ\C3H6N2O1S1\OHZDE\09-Apr-2025\0\\#t h
 f aug-cc-pvdz iop(5/13=1,5/36=2,99/5=2) pseudo=read geom=check guess=(
 read,tcheck) scf=(maxcycle=1)\\title\\0,1\C,0,1.186682,-0.155656,-0.03
 6925\C,0,-1.881065,-0.202354,0.301269\O,0,-1.350246,-0.951306,-0.51391
 1\N,0,0.652258,-1.279304,-0.078969\S,0,1.016781,1.493697,-0.137678\C,0
 ,2.640539,-0.844929,0.270911\H,0,3.24987,-0.486447,-0.552529\H,0,2.922
 921,-0.410839,1.224233\H,0,2.668315,-1.929363,0.319121\H,0,-1.359577,0
 .149742,1.19528\N,0,-3.142812,0.235833,0.182404\H,0,-3.673946,0.009188

 Normal termination of Gaussian 16 at Wed Apr  9 02:16:03 2025.
