 Gaussian 16, Revision C.01,

 ----------------------------------------------------------------------
 #t hf aug-cc-pvdz symm=none int=(grid=ultrafine) guess=(read,tcheck) s
 table=(opt,rrhf)
 ----------------------------------------------------------------------
 -----
 title
 -----
 Symbolic Z-matrix:
 Charge =  0 Multiplicity = 1

 SCF Done:  E(RHF) =  -419.478282607     A.U. after   17 cycles
 Normal termination of Gaussian 16 at Wed Apr  9 02:15:41 2025.
 Gaussian 16:  ES64L-G16RevC.01  3-Jul-2019

 ----------------------------------------------------------------------
 #t hf aug-cc-pvdz iop(5/13=1,5/36=2,99/5=2) pseudo=read geom=check gue
 ss=(read,tcheck) scf=(maxcycle=1)
 ----------------------------------------------------------------------
 -----
 title
 -----
 Structure from the checkpoint file:  "CRBH20_8_mol1.chk"
 Charge =  0 Multiplicity = 1

                         Standard orientation:
 ---------------------------------------------------------------------
 Center     Atomic      Atomic             Coordinates (Angstroms)
 Number     Number       Type             X           Y           Z
 ---------------------------------------------------------------------
      1          6           0        1.179210    0.191454   -0.041007
      2          6           0       -1.572502   -0.031066    0.321914
      3          8           0       -1.047661   -0.969874   -0.215689
      4          7           0        0.837804   -1.049190    0.050219
      5          6           0        2.743131   -0.012823    0.047978
      6          1           0        3.056507    0.579077    0.904999
      7          1           0        3.076466   -1.040335    0.161728
      8          1           0        3.127237    0.398913   -0.882915
      9          1           0       -1.211695    0.535200    1.173465
     10          9           0       -2.761455    0.375981   -0.085654
     11          8           0        0.652776    1.295156   -0.148216
 ---------------------------------------------------------------------

 SCF Done:  E(RHF) =  -419.615798858     A.U. after    2 cycles

 The electronic state is 1-A.
 Alpha  occ. eigenvalues --  -26.19639 -20.64820 -20.55563 -15.72925 -11.48248
 Alpha  occ. eigenvalues --  -11.37949 -11.27392  -1.74756  -1.44305  -1.35635
 Alpha  occ. eigenvalues --   -1.19307  -0.98462  -0.97203  -0.86042  -0.81004
 Alpha  occ. eigenvalues --   -0.79869  -0.73670  -0.69531  -0.65533  -0.64468
 Alpha  occ. eigenvalues --   -0.62150  -0.60442  -0.58218  -0.55420  -0.53590
 Alpha  occ. eigenvalues --   -0.44699  -0.43657
 Alpha virt. eigenvalues --    0.03300   0.03832   0.05691   0.05813   0.07997
 Alpha virt. eigenvalues --    0.08694   0.09028   0.09542   0.11572   0.12850
 Alpha virt. eigenvalues --    0.13610   0.14300   0.14843   0.15375   0.15856

 Mulliken charges:
               1
     1  C    0.016065
     2  C    0.893982
     3  O   -0.399574
     4  N   -0.138749
     5  C    0.418060
     6  H    0.043733
     7  H   -0.008539
     8  H    0.066060
     9  H   -0.106458
    10  F   -0.250530
    11  O   -0.534050
 Sum of Mulliken charges =  -0.00000

 Dipole moment (field-independent basis, Debye):
    X=              1.3260    Y=             -0.4950    Z=              2.2405  Tot=              2.6501

 Test job not archived.
 1\1\GINC-SE292\SP\RHF\Aug-CC-pVDZ\C3H4F1N1O2\OHZDE\09-Apr-2025\0\\#t h
 f aug-cc-pvdz iop(5/13=1,5/36=2,99/5=2) pseudo=read geom=check guess=(
 read,tcheck) scf=(maxcycle=1)\\title\\0,1\C,0,-1.17921,-0.191454,-0.04
 1007\C,0,1.572502,0.031066,0.321914\O,0,1.047661,0.969874,-0.215689\N,
 0,-0.837804,1.04919,0.050219\C,0,-2.743131,0.012823,0.047978\H,0,-3.05
 6507,-0.579077,0.904999\H,0,-3.076466,1.040335,0.161728\H,0,-3.127237,
 -0.398913,-0.882915\H,0,1.211695,-0.5352,1.173465\F,0,2.761455,-0.3759
 81,-0.085654\O,0,-0.652776,-1.295156,-0.148216\\Version=ES64L-G16RevC.

 Normal termination of Gaussian 16 at Wed Apr  9 02:15:45 2025.
