 Gaussian 16, Revision C.01,

 ----------------------------------------------------------------------
 #t hf aug-cc-pvdz symm=none int=(grid=ultrafine) guess=(read,tcheck) s
 table=(opt,rrhf)
 ----------------------------------------------------------------------
 -----
 title
 -----
 Symbolic Z-matrix:
 Charge =  0 Multiplicity = 1

 SCF Done:  E(RHF) =  -682.300639371     A.U. after   17 cycles
 Normal termination of Gaussian 16 at Wed Apr  9 02:16:06 2025.
 Gaussian 16:  ES64L-G16RevC.01  3-Jul-2019

 ----------------------------------------------------------------------
 #t hf aug-cc-pvdz iop(5/13=1,5/36=2,99/5=2) pseudo=read geom=check gue
 ss=(read,tcheck) scf=(maxcycle=1)
 ----------------------------------------------------------------------
 -----
 title
 -----
 Structure from the checkpoint file:  "CRBH20_15_mol1.chk"
 Charge =  0 Multiplicity = 1

                         Standard orientation:
 ---------------------------------------------------------------------
 Center     Atomic      Atomic             Coordinates (Angstroms)
 Number     Number       Type             X           Y           Z
 ---------------------------------------------------------------------
      1          6           0        1.198022   -0.139358   -0.033561
      2          6           0       -1.813149   -0.299587    0.327282
      3          8           0       -1.279483   -1.060943   -0.457368
      4          7           0        0.749291   -1.300306   -0.068345
      5         16           0        0.886121    1.491250   -0.117284
      6          6           0        2.711154   -0.705362    0.220093
      7          1           0        3.262081   -0.295739   -0.620507
      8          1           0        2.989383   -0.255310    1.167252
      9          1           0        2.825828   -1.784400    0.258963
     10          1           0       -1.301313   -0.018558    1.256912
     11          6           0       -3.171284    0.275461    0.107082
     12          1           0       -3.820256   -0.007400    0.939797
     13          1           0       -3.095366    1.365004    0.121022
     14          1           0       -3.595914   -0.060839   -0.834909
 ---------------------------------------------------------------------

 SCF Done:  E(RHF) =  -682.406125942     A.U. after    2 cycles

 The electronic state is 1-A.
 Alpha  occ. eigenvalues --  -93.49147 -20.59626 -15.74189 -11.36535 -11.36085
 Alpha  occ. eigenvalues --  -11.29856 -11.25773  -8.79003  -6.13298  -6.12670
 Alpha  occ. eigenvalues --   -6.12611  -1.38187  -1.25548  -1.02886  -0.98646
 Alpha  occ. eigenvalues --   -0.95279  -0.82206  -0.73090  -0.66528  -0.65380
 Alpha  occ. eigenvalues --   -0.63911  -0.62383  -0.59833  -0.58753  -0.56879
 Alpha  occ. eigenvalues --   -0.53800  -0.53012  -0.51941  -0.45051  -0.33848
 Alpha  occ. eigenvalues --   -0.32918
 Alpha virt. eigenvalues --    0.03326   0.03535   0.04817   0.05638   0.06120
 Alpha virt. eigenvalues --    0.06476   0.06824   0.08464   0.09992   0.10234
 Alpha virt. eigenvalues --    0.10626   0.11851   0.12709   0.13304   0.13652

 Mulliken charges:
               1
     1  C   -0.260022
     2  C    0.663030
     3  O   -0.476250
     4  N   -0.181457
     5  S   -0.107512
     6  C    0.317951
     7  H    0.085390
     8  H    0.065785
     9  H   -0.063299
    10  H   -0.215653
    11  C    0.097464
    12  H    0.058840
    13  H    0.069902
    14  H   -0.054169
 Sum of Mulliken charges =  -0.00000

 Dipole moment (field-independent basis, Debye):
    X=             -0.8191    Y=             -1.1444    Z=              2.2383  Tot=              2.6439

 Test job not archived.
 1\1\GINC-SE195\SP\RHF\Aug-CC-pVDZ\C4H7N1O1S1\OHZDE\09-Apr-2025\0\\#t h
 f aug-cc-pvdz iop(5/13=1,5/36=2,99/5=2) pseudo=read geom=check guess=(
 read,tcheck) scf=(maxcycle=1)\\title\\0,1\C,0,1.198022,-0.139358,-0.03
 3561\C,0,-1.813149,-0.299587,0.327282\O,0,-1.279483,-1.060943,-0.45736
 8\N,0,0.749291,-1.300306,-0.068345\S,0,0.886121,1.49125,-0.117284\C,0,
 2.711154,-0.705362,0.220093\H,0,3.262081,-0.295739,-0.620507\H,0,2.989
 383,-0.25531,1.167252\H,0,2.825828,-1.7844,0.258963\H,0,-1.301313,-0.0
 18558,1.256912\C,0,-3.171284,0.275461,0.107082\H,0,-3.820256,-0.0074,0

 Normal termination of Gaussian 16 at Wed Apr  9 02:16:11 2025.
