 Gaussian 16, Revision C.01,

 ----------------------------------------------------------------------
 #t hf aug-cc-pvdz symm=none int=(grid=ultrafine) guess=(read,tcheck) s
 table=(opt,rrhf)
 ----------------------------------------------------------------------
 -----
 title
 -----
 Symbolic Z-matrix:
 Charge = -1 Multiplicity = 1

 SCF Done:  E(RHF) =  -598.570027708     A.U. after   13 cycles
 Normal termination of Gaussian 16 at Wed Apr  9 02:16:31 2025.
 Gaussian 16:  ES64L-G16RevC.01  3-Jul-2019

 ----------------------------------------------------------------------
 #t hf aug-cc-pvdz iop(5/13=1,5/36=2,99/5=2) pseudo=read geom=check gue
 ss=(read,tcheck) scf=(maxcycle=1)
 ----------------------------------------------------------------------
 -----
 title
 -----
 Structure from the checkpoint file:  "DBH24_17_mol2.chk"
 Charge = -1 Multiplicity = 1

                         Standard orientation:
 ---------------------------------------------------------------------
 Center     Atomic      Atomic             Coordinates (Angstroms)
 Number     Number       Type             X           Y           Z
 ---------------------------------------------------------------------
      1          9           0        0.000000    0.000000   -2.537928
      2          6           0        0.000000    0.000000   -0.488372
      3          1           0       -0.000000    1.062085   -0.614972
      4          1           0       -0.919793   -0.531043   -0.614972
      5          1           0        0.919793   -0.531043   -0.614972
      6         17           0        0.000000    0.000000    1.624500
 ---------------------------------------------------------------------

 SCF Done:  E(RHF) =  -598.631005547     A.U. after    2 cycles

 The electronic state is 1-A1.
 Alpha  occ. eigenvalues -- -103.43496 -25.74603 -11.15521 -10.46752  -8.12403
 Alpha  occ. eigenvalues --   -8.12246  -8.12246  -1.23150  -0.91547  -0.75959
 Alpha  occ. eigenvalues --   -0.46000  -0.46000  -0.36008  -0.33091  -0.33091
 Alpha  occ. eigenvalues --   -0.25962  -0.25788  -0.25788
 Alpha virt. eigenvalues --    0.16150   0.17436   0.17436   0.21564   0.28592
 Alpha virt. eigenvalues --    0.28592   0.28674   0.29949   0.29949   0.31346
 Alpha virt. eigenvalues --    0.35949   0.42570   0.42570   0.43038   0.48892

 Mulliken charges:
               1
     1  F   -0.888581
     2  C    0.428237
     3  H    0.025141
     4  H    0.025141
     5  H    0.025141
     6  Cl  -0.615079
 Sum of Mulliken charges =  -1.00000

 Dipole moment (field-independent basis, Debye):
    X=             -0.0000    Y=             -0.0000    Z=              3.8833  Tot=              3.8833

 Test job not archived.
 1\1\GINC-SE041\SP\RHF\Aug-CC-pVDZ\C1H3Cl1F1(1-)\OHZDE\09-Apr-2025\0\\#
 t hf aug-cc-pvdz iop(5/13=1,5/36=2,99/5=2) pseudo=read geom=check gues
 s=(read,tcheck) scf=(maxcycle=1)\\title\\-1,1\F,0,0.,0.,-1.99680875\C,
 0,0.,0.,0.0527475\H,0,-0.53104256,0.9197927,-0.07385285\H,0,-0.5310425
 6,-0.9197927,-0.07385285\H,0,1.06208512,0.,-0.07385285\Cl,0,0.,0.,2.16
 561981\\Version=ES64L-G16RevC.01\State=1-A1\HF=-598.6310055\RMSD=3.393
 e-03\Dipole=0.,0.,1.5277995\Quadrupole=8.7480188,8.7480188,-17.4960377
 ,0.,0.,0.\PG=C03V [C3(F1C1Cl1),3SGV(H1)]\\@

 Normal termination of Gaussian 16 at Wed Apr  9 02:16:34 2025.
