 Gaussian 16, Revision C.01,

 ----------------------------------------------------------------------
 #t hf aug-cc-pvdz symm=none int=(grid=ultrafine) guess=(read,tcheck) s
 table=(opt,rrhf)
 ----------------------------------------------------------------------
 -----
 title
 -----
 Symbolic Z-matrix:
 Charge = -1 Multiplicity = 1

 SCF Done:  E(RHF) =  -958.676712470     A.U. after   11 cycles

 1\1\GINC-SE070\Stability\RHF\Aug-CC-pVDZ\C1H3Cl2\OHZDE\09-Apr-2025\0\\
 #t hf aug-cc-pvdz symm=none int=(grid=ultrafine) guess=(read,tcheck) s
 table=(opt,rrhf)\\title\\-1,1\Cl,0,0.000025,0.019526,2.32250057\C,0,0.
 000513,0.000486,-0.000089\H,0,0.76127963,-0.75073313,0.00637701\H,0,-1
 .03045091,-0.28272404,0.002147\H,0,0.27072812,1.03492775,-0.00869703\C
 l,0,-0.000297,-0.01978403,-2.32245823\\Version=ES64L-G16RevC.01\HF=-95
 8.6767125\RMSD=7.699e-09\Dipole=0.0006926,0.0006502,-0.0007218\Quadrup
 ole=9.962072,9.9598278,-19.9218998,-0.0000124,-0.0016601,-0.2527885\PG

 Normal termination of Gaussian 16 at Wed Apr  9 02:16:06 2025.
 Gaussian 16:  ES64L-G16RevC.01  3-Jul-2019

 ----------------------------------------------------------------------
 #t hf aug-cc-pvdz iop(5/13=1,5/36=2,99/5=2) pseudo=read geom=check gue
 ss=(read,tcheck) scf=(maxcycle=1)
 ----------------------------------------------------------------------
 -----
 title
 -----
 Structure from the checkpoint file:  "DBH24_16_mol2.chk"
 Charge = -1 Multiplicity = 1

                         Standard orientation:
 ---------------------------------------------------------------------
 Center     Atomic      Atomic             Coordinates (Angstroms)
 Number     Number       Type             X           Y           Z
 ---------------------------------------------------------------------
      1         17           0        2.322582   -0.000129    0.000143
      2          6           0       -0.000085    0.000479   -0.000520
      3          1           0        0.000077   -0.762122   -0.749905
      4          1           0       -0.000320   -0.267206    1.034586
      5          1           0        0.000081    1.030777   -0.286259
      6         17           0       -2.322543   -0.000126    0.000133
 ---------------------------------------------------------------------

 SCF Done:  E(RHF) =  -958.720415421     A.U. after    2 cycles

 The electronic state is 1-A.
 Alpha  occ. eigenvalues -- -103.41733-103.41729 -11.18859 -10.44903 -10.44897
 Alpha  occ. eigenvalues --   -8.10531  -8.10526  -8.10418  -8.10418  -8.10415
 Alpha  occ. eigenvalues --   -8.10415  -0.90031  -0.87620  -0.78181  -0.48963
 Alpha  occ. eigenvalues --   -0.48963  -0.30804  -0.25028  -0.25027  -0.24057
 Alpha  occ. eigenvalues --   -0.24056  -0.21459
 Alpha virt. eigenvalues --    0.15685   0.17041   0.17043   0.20322   0.25356
 Alpha virt. eigenvalues --    0.27975   0.27980   0.28463   0.29547   0.29547
 Alpha virt. eigenvalues --    0.30725   0.32119   0.32123   0.32617   0.40645

 Mulliken charges:
               1
     1  Cl  -0.737898
     2  C    0.305680
     3  H    0.056665
     4  H    0.056747
     5  H    0.056579
     6  Cl  -0.737772
 Sum of Mulliken charges =  -1.00000

 Dipole moment (field-independent basis, Debye):
    X=             -0.0018    Y=              0.0017    Z=             -0.0018  Tot=              0.0030

 Test job not archived.
 1\1\GINC-SE070\SP\RHF\Aug-CC-pVDZ\C1H3Cl2(1-)\OHZDE\09-Apr-2025\0\\#t
 hf aug-cc-pvdz iop(5/13=1,5/36=2,99/5=2) pseudo=read geom=check guess=
 (read,tcheck) scf=(maxcycle=1)\\title\\-1,1\Cl,0,0.000025,0.019526,2.3
 2250057\C,0,0.000513,0.000486,-0.000089\H,0,0.76127963,-0.75073313,0.0
 0637701\H,0,-1.03045091,-0.28272404,0.002147\H,0,0.27072812,1.03492775
 ,-0.00869703\Cl,0,-0.000297,-0.01978403,-2.32245823\\Version=ES64L-G16
 RevC.01\State=1-A\HF=-958.7204154\RMSD=2.645e-03\Dipole=0.0007014,0.00
 06585,-0.0007143\Quadrupole=9.977904,9.9756666,-19.9535706,-0.0000127,

 Normal termination of Gaussian 16 at Wed Apr  9 02:16:07 2025.
