 Gaussian 16, Revision C.01,

 ----------------------------------------------------------------------
 #t hf aug-cc-pvdz symm=none int=(grid=ultrafine) guess=(read,tcheck) s
 table=opt
 ----------------------------------------------------------------------
 -----
 title
 -----
 Symbolic Z-matrix:
 Charge =  0 Multiplicity = 2

 SCF Done:  E(UHF) =  -399.179558468     A.U. after   15 cycles
 Normal termination of Gaussian 16 at Wed Apr  9 02:15:59 2025.
 Gaussian 16:  ES64L-G16RevC.01  3-Jul-2019

 ----------------------------------------------------------------------
 #t hf aug-cc-pvdz iop(5/13=1,5/36=2,99/5=2) pseudo=read geom=check gue
 ss=(read,tcheck) scf=(maxcycle=1)
 ----------------------------------------------------------------------
 -----
 title
 -----
 Structure from the checkpoint file:  "DBH24_12_mol3.chk"
 Charge =  0 Multiplicity = 2

                         Standard orientation:
 ---------------------------------------------------------------------
 Center     Atomic      Atomic             Coordinates (Angstroms)
 Number     Number       Type             X           Y           Z
 ---------------------------------------------------------------------
      1          1           0        1.262098   -0.220096    0.000000
      2         16           0        0.000000    0.223154    0.000000
      3          1           0       -0.500576   -1.115447    0.000000
      4          1           0       -0.761522   -2.234916    0.000000
 ---------------------------------------------------------------------

 SCF Done:  E(UHF) =  -399.201625079     A.U. after    2 cycles

 The electronic state is 2-A'.
 Alpha  occ. eigenvalues --  -93.55256  -8.85020  -6.19680  -6.18932  -6.18474
 Alpha  occ. eigenvalues --   -0.97951  -0.65315  -0.53328  -0.42517  -0.38711
 Alpha virt. eigenvalues --    0.04249   0.06461   0.07164   0.12014   0.12345
 Alpha virt. eigenvalues --    0.14791   0.19180   0.22736   0.24095   0.25588
 Alpha virt. eigenvalues --    0.27166   0.31197   0.36963   0.41237   0.41762

  Beta  occ. eigenvalues --  -93.54882  -8.84603  -6.18763  -6.18236  -6.18017
  Beta  occ. eigenvalues --   -0.94757  -0.58693  -0.49950  -0.37922
  Beta virt. eigenvalues --    0.00434   0.05170   0.07098   0.08188   0.12519
  Beta virt. eigenvalues --    0.12668   0.15500   0.19613   0.24106   0.25607
  Beta virt. eigenvalues --    0.27550   0.30065   0.31179   0.39486   0.42945

 Mulliken charges and spin densities:
               1          2
     1  H    0.020190  -0.029148
     2  S    0.030627   0.399280
     3  H   -0.083228  -0.071420
     4  H    0.032412   0.701288
 Sum of Mulliken charges =  -0.00000   1.00000

 Dipole moment (field-independent basis, Debye):
    X=              0.4593    Y=             -0.9737    Z=              0.0000  Tot=              1.0766
                          Isotropic Fermi Contact Couplings
        Atom                 a.u.       MegaHertz       Gauss      10(-4) cm-1
     1  H(1)              -0.00425     -18.97536      -6.77088      -6.32950
     2  S(33)              0.08318      28.56949      10.19430       9.52976
     3  H(1)              -0.06076    -271.60654     -96.91597     -90.59819
     4  H(1)               0.24913    1113.57882     397.35261     371.44991
 --------------------------------------------------------
       Center         ----  Spin Dipole Couplings  ----
                      3XX-RR        3YY-RR        3ZZ-RR
 --------------------------------------------------------

 Normal termination of Gaussian 16 at Wed Apr  9 02:16:00 2025.
