 Gaussian 16, Revision C.01,

 ----------------------------------------------------------------------
 #t hf aug-cc-pvdz symm=none int=(grid=ultrafine) guess=(read,tcheck) s
 table=(opt,rrhf)
 ----------------------------------------------------------------------
 -----
 title
 -----
 Symbolic Z-matrix:
 Charge = -1 Multiplicity = 1

 SCF Done:  E(RHF) =  -214.446336283     A.U. after   13 cycles
 Normal termination of Gaussian 16 at Wed Apr  9 02:16:31 2025.
 Gaussian 16:  ES64L-G16RevC.01  3-Jul-2019

 ----------------------------------------------------------------------
 #t hf aug-cc-pvdz iop(5/13=1,5/36=2,99/5=2) pseudo=read geom=check gue
 ss=(read,tcheck) scf=(maxcycle=1)
 ----------------------------------------------------------------------
 -----
 title
 -----
 Structure from the checkpoint file:  "DBH24_18_mol3.chk"
 Charge = -1 Multiplicity = 1

                         Standard orientation:
 ---------------------------------------------------------------------
 Center     Atomic      Atomic             Coordinates (Angstroms)
 Number     Number       Type             X           Y           Z
 ---------------------------------------------------------------------
      1          9           0        1.850617   -0.013179   -0.000128
      2          6           0        0.090857    0.010586    0.000269
      3          1           0        0.040907    1.079548   -0.011749
      4          1           0        0.037163   -0.528013   -0.922943
      5          1           0        0.037486   -0.507463    0.935130
      6          8           0       -1.892804    0.103266   -0.000118
      7          1           0       -2.173823   -0.815113    0.000039
 ---------------------------------------------------------------------

 SCF Done:  E(RHF) =  -214.515404221     A.U. after    2 cycles

 The electronic state is 1-A.
 Alpha  occ. eigenvalues --  -25.79285 -20.27640 -11.12865  -1.28815  -0.96634
 Alpha  occ. eigenvalues --   -0.73971  -0.45000  -0.44929  -0.39888  -0.36767
 Alpha  occ. eigenvalues --   -0.36091  -0.32927  -0.21232  -0.20243
 Alpha virt. eigenvalues --    0.16036   0.17397   0.17417   0.18436   0.26473
 Alpha virt. eigenvalues --    0.28324   0.29219   0.32302   0.36346   0.38483
 Alpha virt. eigenvalues --    0.40249   0.43973   0.43984   0.44035   0.47117

 Mulliken charges:
               1
     1  F   -0.777494
     2  C    0.793500
     3  H   -0.081130
     4  H   -0.053937
     5  H   -0.052626
     6  O   -0.798165
     7  H   -0.030147
 Sum of Mulliken charges =  -1.00000

 Dipole moment (field-independent basis, Debye):
    X=              0.4708    Y=             -1.4610    Z=              0.0016  Tot=              1.5349

 Test job not archived.
 1\1\GINC-SE127\SP\RHF\Aug-CC-pVDZ\C1H4F1O1(1-)\OHZDE\09-Apr-2025\0\\#t
  hf aug-cc-pvdz iop(5/13=1,5/36=2,99/5=2) pseudo=read geom=check guess
 =(read,tcheck) scf=(maxcycle=1)\\title\\-1,1\F,0,1.85061737,-0.013179,
 -0.000128\C,0,0.09085708,0.01058598,0.000269\H,0,0.04090704,1.07954797
 ,-0.011749\H,0,0.037163,-0.52801302,-0.92294327\H,0,0.03748601,-0.5074
 6295,0.93513022\O,0,-1.89280338,0.10326629,-0.000118\H,0,-2.17382294,-
 0.81511282,0.000039\\Version=ES64L-G16RevC.01\State=1-A\HF=-214.515404
 2\RMSD=3.199e-03\Dipole=0.1852125,-0.574788,0.00064\Quadrupole=-13.399

 Normal termination of Gaussian 16 at Wed Apr  9 02:16:33 2025.
