 Gaussian 16, Revision C.01,

 ----------------------------------------------------------------------
 #t hf aug-cc-pvdz symm=none int=(grid=ultrafine) guess=(read,tcheck) s
 table=(opt,rrhf)
 ----------------------------------------------------------------------
 -----
 title
 -----
 Symbolic Z-matrix:
 Charge = -1 Multiplicity = 1

 SCF Done:  E(RHF) =  -958.700327124     A.U. after   11 cycles

 1\1\GINC-SE364\Stability\RHF\Aug-CC-pVDZ\C1H3Cl2\OHZDE\09-Apr-2025\0\\
 #t hf aug-cc-pvdz symm=none int=(grid=ultrafine) guess=(read,tcheck) s
 table=(opt,rrhf)\\title\\-1,1\Cl,0,0.,0.,-2.2180723\C,0,0.,0.,-0.39966
 594\H,0,-0.51253194,0.88773136,-0.05771427\H,0,-0.51253194,-0.88773136
 ,-0.05771427\H,0,1.02506388,0.,-0.05771427\Cl,0,0.,0.,2.79088105\\Vers
 ion=ES64L-G16RevC.01\HF=-958.7003271\RMSD=7.202e-09\Dipole=0.,0.,-3.36
 5306\Quadrupole=11.1220226,11.1220226,-22.2440451,0.,0.,0.\PG=Unknown\
 \@

 Normal termination of Gaussian 16 at Wed Apr  9 02:16:06 2025.
 Gaussian 16:  ES64L-G16RevC.01  3-Jul-2019

 ----------------------------------------------------------------------
 #t hf aug-cc-pvdz iop(5/13=1,5/36=2,99/5=2) pseudo=read geom=check gue
 ss=(read,tcheck) scf=(maxcycle=1)
 ----------------------------------------------------------------------
 -----
 title
 -----
 Structure from the checkpoint file:  "DBH24_16_mol1.chk"
 Charge = -1 Multiplicity = 1

                         Standard orientation:
 ---------------------------------------------------------------------
 Center     Atomic      Atomic             Coordinates (Angstroms)
 Number     Number       Type             X           Y           Z
 ---------------------------------------------------------------------
      1         17           0        0.000000    0.000000   -2.384738
      2          6           0        0.000000    0.000000   -0.566331
      3          1           0       -0.000000    1.025064   -0.224380
      4          1           0       -0.887731   -0.512532   -0.224380
      5          1           0        0.887731   -0.512532   -0.224380
      6         17           0        0.000000    0.000000    2.624216
 ---------------------------------------------------------------------

 SCF Done:  E(RHF) =  -958.746778221     A.U. after    2 cycles

 The electronic state is 1-A1.
 Alpha  occ. eigenvalues -- -103.52316-103.35452 -11.15624 -10.55628 -10.38454
 Alpha  occ. eigenvalues --   -8.21343  -8.21081  -8.21081  -8.04034  -8.04022
 Alpha  occ. eigenvalues --   -8.04022  -1.02530  -0.80476  -0.78179  -0.47638
 Alpha  occ. eigenvalues --   -0.47638  -0.41744  -0.32221  -0.32221  -0.18497
 Alpha  occ. eigenvalues --   -0.18312  -0.18312
 Alpha virt. eigenvalues --    0.15083   0.16932   0.16932   0.18597   0.25682
 Alpha virt. eigenvalues --    0.26932   0.26932   0.27718   0.27718   0.29885
 Alpha virt. eigenvalues --    0.32881   0.33576   0.33576   0.35026   0.40965

 Mulliken charges:
               1
     1  Cl  -0.322352
     2  C    0.340934
     3  H   -0.013826
     4  H   -0.013826
     5  H   -0.013826
     6  Cl  -0.977105
 Sum of Mulliken charges =  -1.00000

 Dipole moment (field-independent basis, Debye):
    X=             -0.0000    Y=              0.0000    Z=             -8.5112  Tot=              8.5112

 Test job not archived.
 1\1\GINC-SE364\SP\RHF\Aug-CC-pVDZ\C1H3Cl2(1-)\OHZDE\09-Apr-2025\0\\#t
 hf aug-cc-pvdz iop(5/13=1,5/36=2,99/5=2) pseudo=read geom=check guess=
 (read,tcheck) scf=(maxcycle=1)\\title\\-1,1\Cl,0,0.,0.,-2.2180723\C,0,
 0.,0.,-0.39966594\H,0,-0.51253194,0.88773136,-0.05771427\H,0,-0.512531
 94,-0.88773136,-0.05771427\H,0,1.02506388,0.,-0.05771427\Cl,0,0.,0.,2.
 79088105\\Version=ES64L-G16RevC.01\State=1-A1\HF=-958.7467782\RMSD=2.6
 07e-03\Dipole=0.,0.,-3.3485498\Quadrupole=10.4056079,10.4056079,-20.81
 12157,0.,0.,0.\PG=C03V [C3(Cl1C1Cl1),3SGV(H1)]\\@

 Normal termination of Gaussian 16 at Wed Apr  9 02:16:07 2025.
