 Gaussian 16, Revision C.01,

 ----------------------------------------------------------------------
 #t hf aug-cc-pvdz symm=none int=(grid=ultrafine) guess=(read,tcheck) s
 table=(opt,rrhf)
 ----------------------------------------------------------------------
 -----
 title
 -----
 Symbolic Z-matrix:
 Charge =  0 Multiplicity = 1

 SCF Done:  E(RHF) =  -911.020952599     A.U. after   15 cycles
 Normal termination of Gaussian 16 at Wed Apr  9 02:23:15 2025.
 Gaussian 16:  ES64L-G16RevC.01  3-Jul-2019

 ----------------------------------------------------------------------
 #t hf aug-cc-pvdz iop(5/13=1,5/36=2,99/5=2) pseudo=read geom=check gue
 ss=(read,tcheck) scf=(maxcycle=1)
 ----------------------------------------------------------------------
 -----
 title
 -----
 Structure from the checkpoint file:  "DCONF_30_0_mol2.chk"
 Charge =  0 Multiplicity = 1

                         Standard orientation:
 ---------------------------------------------------------------------
 Center     Atomic      Atomic             Coordinates (Angstroms)
 Number     Number       Type             X           Y           Z
 ---------------------------------------------------------------------
      1          6           0        2.661686   -1.197191    0.235712
      2          1           0        3.195725   -2.128952    0.401429
      3          6           0        1.313934   -1.229095   -0.139077
      4          1           0        0.791396   -2.169880   -0.285599
      5          6           0        0.643278   -0.019676   -0.361115
      6         16           0       -1.093482   -0.045665   -0.757502
      7          7           0       -1.876222    0.037140    0.720537
      8          6           0       -1.700387   -1.132725    1.585527
      9          1           0       -1.855541   -2.043449    1.006784
     10          1           0       -0.704770   -1.151963    2.055099
     11          1           0       -2.459561   -1.079977    2.370010
     12          6           0       -1.716248    1.300683    1.444842
     13          1           0       -1.876204    2.136667    0.763951
     14          1           0       -2.480013    1.331671    2.226124
     15          1           0       -0.724035    1.383861    1.914497
     16          6           0        1.297059    1.213041   -0.232421
     17          1           0        0.763158    2.132844   -0.452686
     18          6           0        2.644672    1.228561    0.143244
     19          1           0        3.165621    2.177464    0.237380
     20          6           0        3.325398    0.027657    0.381274
     21          1           0        4.373136    0.045908    0.668603
     22          8           0       -1.401285    1.188653   -1.458369
     23          8           0       -1.395716   -1.352537   -1.313784
 ---------------------------------------------------------------------

 SCF Done:  E(RHF) =  -911.252167188     A.U. after    2 cycles

 The electronic state is 1-A.
 Alpha  occ. eigenvalues --  -93.79977 -20.55810 -20.55797 -15.66550 -11.28939
 Alpha  occ. eigenvalues --  -11.28087 -11.28080 -11.27961 -11.27937 -11.27702
 Alpha  occ. eigenvalues --  -11.27145 -11.27133  -9.06297  -6.40969  -6.40811
 Alpha  occ. eigenvalues --   -6.40689  -1.42586  -1.30647  -1.21957  -1.16956
 Alpha  occ. eigenvalues --   -1.05062  -1.03650  -0.97617  -0.94563  -0.87185
 Alpha  occ. eigenvalues --   -0.85664  -0.79327  -0.73881  -0.71596  -0.68807
 Alpha  occ. eigenvalues --   -0.67671  -0.65204  -0.65198  -0.64040  -0.61971
 Alpha  occ. eigenvalues --   -0.61739  -0.58493  -0.57100  -0.55427  -0.54168
 Alpha  occ. eigenvalues --   -0.53287  -0.52632  -0.51827  -0.51536  -0.49212
 Alpha  occ. eigenvalues --   -0.47359  -0.41045  -0.36842  -0.36442
 Alpha virt. eigenvalues --    0.02587   0.03476   0.03529   0.04840   0.05139
 Alpha virt. eigenvalues --    0.05774   0.06819   0.07020   0.07107   0.07948
 Alpha virt. eigenvalues --    0.08192   0.08956   0.09336   0.10202   0.11737

 Mulliken charges:
               1
     1  C    0.588738
     2  H   -0.440187
     3  C    0.024369
     4  H   -0.585528
     5  C    0.439575
     6  S    2.799223
     7  N   -1.232750
     8  C    0.748494
     9  H   -0.155422
    10  H   -0.002426
    11  H   -0.171882
    12  C    0.753796
    13  H   -0.157501
    14  H   -0.174059
    15  H    0.000716
    16  C    0.009304
    17  H   -0.586508
    18  C    0.585709
    19  H   -0.440966
    20  C    0.523677
    21  H   -0.433325
    22  O   -1.046701
    23  O   -1.046344
 Sum of Mulliken charges =   0.00000

 Dipole moment (field-independent basis, Debye):
    X=              3.6828    Y=              0.3051    Z=              5.2833  Tot=              6.4474

 Test job not archived.
 1\1\GINC-SE115\SP\RHF\Aug-CC-pVDZ\C8H11N1O2S1\OHZDE\09-Apr-2025\0\\#t
 hf aug-cc-pvdz iop(5/13=1,5/36=2,99/5=2) pseudo=read geom=check guess=
 (read,tcheck) scf=(maxcycle=1)\\title\\0,1\C,0,3.4972,-2.787,-1.96\H,0
 ,3.9524,-3.0537,-2.91\C,0,2.3517,-1.9836,-1.9427\H,0,1.9149,-1.6043,-2
 .8619\C,0,1.7844,-1.6384,-0.7095\S,0,0.2793,-0.6856,-0.6782\N,0,-0.951
 9,-1.8206,-0.6861\C,0,-1.0657,-2.6084,-1.9166\H,0,-1.0123,-1.9472,-2.7
 817\H,0,-0.2834,-3.38,-1.9856\H,0,-2.0433,-3.097,-1.9062\C,0,-1.0519,-
 2.6456,0.5206\H,0,-0.982,-2.0122,1.4049\H,0,-2.0326,-3.1281,0.5096\H,0

 Normal termination of Gaussian 16 at Wed Apr  9 02:23:35 2025.
