 Gaussian 16, Revision C.01,

 ----------------------------------------------------------------------
 #t hf aug-cc-pvdz symm=none int=(grid=ultrafine) guess=(read,tcheck) s
 table=(opt,rrhf)
 ----------------------------------------------------------------------
 -----
 title
 -----
 Symbolic Z-matrix:
 Charge =  0 Multiplicity = 1

 SCF Done:  E(RHF) =  -774.176930270     A.U. after   16 cycles
 Normal termination of Gaussian 16 at Wed Apr  9 02:21:04 2025.
 Gaussian 16:  ES64L-G16RevC.01  3-Jul-2019

 ----------------------------------------------------------------------
 #t hf aug-cc-pvdz iop(5/13=1,5/36=2,99/5=2) pseudo=read geom=check gue
 ss=(read,tcheck) scf=(maxcycle=1)
 ----------------------------------------------------------------------
 -----
 title
 -----
 Structure from the checkpoint file:  "DCONF_42_-20_mol1.chk"
 Charge =  0 Multiplicity = 1

                         Standard orientation:
 ---------------------------------------------------------------------
 Center     Atomic      Atomic             Coordinates (Angstroms)
 Number     Number       Type             X           Y           Z
 ---------------------------------------------------------------------
      1          6           0       -2.197889   -0.129237   -0.012106
      2          7           0       -0.951342   -0.753380   -0.149149
      3          1           0       -1.025713   -1.690784   -0.528004
      4          7           0        0.548621    1.107378   -0.392526
      5          6           0        1.894204    1.360364   -0.270501
      6          1           0        2.262527    2.363025   -0.452048
      7          6           0        2.683542    0.279637    0.043439
      8          1           0        3.759658    0.236761    0.141454
      9         16           0        1.705501   -1.116231    0.254188
     10          6           0        0.307620   -0.160525   -0.151336
     11          8           0       -3.200390   -0.755084   -0.313528
     12          6           0       -2.218739    1.265404    0.557882
     13          1           0       -1.922897    1.983514   -0.209054
     14          1           0       -3.236902    1.468441    0.889792
     15          1           0       -1.514954    1.367562    1.386532
 ---------------------------------------------------------------------

 SCF Done:  E(RHF) =  -774.312119148     A.U. after    2 cycles

 The electronic state is 1-A.
 Alpha  occ. eigenvalues --  -93.59146 -20.55572 -15.68341 -15.64566 -11.38574
 Alpha  occ. eigenvalues --  -11.38218 -11.29778 -11.28505 -11.24656  -8.89042
 Alpha  occ. eigenvalues --   -6.23158  -6.23033  -6.22659  -1.36490  -1.28888
 Alpha  occ. eigenvalues --   -1.20524  -1.06908  -1.01419  -0.99019  -0.84680
 Alpha  occ. eigenvalues --   -0.82155  -0.75948  -0.71641  -0.68827  -0.65153
 Alpha  occ. eigenvalues --   -0.63722  -0.60856  -0.58898  -0.58044  -0.56627
 Alpha  occ. eigenvalues --   -0.53419  -0.51846  -0.46468  -0.45544  -0.44247
 Alpha  occ. eigenvalues --   -0.40451  -0.33225
 Alpha virt. eigenvalues --    0.02926   0.03904   0.04211   0.04950   0.06148
 Alpha virt. eigenvalues --    0.07236   0.08361   0.08653   0.09840   0.10171
 Alpha virt. eigenvalues --    0.10864   0.11977   0.12186   0.13013   0.13029

 Mulliken charges:
               1
     1  C    0.444463
     2  N   -0.409663
     3  H   -0.066598
     4  N   -0.363653
     5  C    0.644116
     6  H   -0.280737
     7  C    0.163951
     8  H   -0.371359
     9  S    0.556694
    10  C   -0.142880
    11  O   -0.536818
    12  C    0.303945
    13  H    0.127989
    14  H   -0.106534
    15  H    0.037085
 Sum of Mulliken charges =  -0.00000

 Dipole moment (field-independent basis, Debye):
    X=              4.0343    Y=              0.8221    Z=              0.8699  Tot=              4.2081

 Test job not archived.
 1\1\GINC-SE131\SP\RHF\Aug-CC-pVDZ\C5H6N2O1S1\OHZDE\09-Apr-2025\0\\#t h
 f aug-cc-pvdz iop(5/13=1,5/36=2,99/5=2) pseudo=read geom=check guess=(
 read,tcheck) scf=(maxcycle=1)\\title\\0,1\C,0,28.0914,-17.3623,-0.4207
 \N,0,29.3238,-16.8402,-0.0074\H,0,29.2222,-16.0015,0.553\N,0,30.7431,-
 18.7785,0.0037\C,0,32.0879,-19.0627,-0.0114\H,0,32.41,-20.0972,-0.0081
 \C,0,32.9323,-17.9782,0.0094\H,0,34.0129,-17.966,0.0497\S,0,32.0171,-1
 6.5251,-0.009\C,0,30.5602,-17.4784,0.0146\O,0,27.0723,-16.768,-0.1112\
 C,0,28.1129,-18.6026,-1.276\H,0,28.2961,-19.4795,-0.6524\H,0,27.14,-18

 Normal termination of Gaussian 16 at Wed Apr  9 02:21:24 2025.
