 Gaussian 16, Revision C.01,

 ----------------------------------------------------------------------
 #t hf aug-cc-pvdz symm=none int=(grid=ultrafine) guess=(read,tcheck) s
 table=(opt,rrhf)
 ----------------------------------------------------------------------
 -----
 title
 -----
 Symbolic Z-matrix:
 Charge =  0 Multiplicity = 1

 SCF Done:  E(RHF) =  -812.895461258     A.U. after   17 cycles
 Normal termination of Gaussian 16 at Wed Apr  9 02:25:23 2025.
 Gaussian 16:  ES64L-G16RevC.01  3-Jul-2019

 ----------------------------------------------------------------------
 #t hf aug-cc-pvdz iop(5/13=1,5/36=2,99/5=2) pseudo=read geom=check gue
 ss=(read,tcheck) scf=(maxcycle=1)
 ----------------------------------------------------------------------
 -----
 title
 -----
 Structure from the checkpoint file:  "DCONF_56_-10_mol1.chk"
 Charge =  0 Multiplicity = 1

                         Standard orientation:
 ---------------------------------------------------------------------
 Center     Atomic      Atomic             Coordinates (Angstroms)
 Number     Number       Type             X           Y           Z
 ---------------------------------------------------------------------
      1          6           0        1.327224   -1.135381    0.174157
      2          1           0        0.743709   -2.039743    0.324871
      3          6           0        2.719443   -1.198941    0.127447
      4          1           0        3.230813   -2.151627    0.235570
      5          6           0        3.438079   -0.010540   -0.029914
      6          1           0        4.523495   -0.004631   -0.062272
      7          6           0        2.718998    1.185031   -0.144098
      8          1           0        3.242176    2.132481   -0.260100
      9          7           0        1.380063    1.264865   -0.124658
     10          6           0        0.695180    0.111820    0.014779
     11          7           0       -1.434386    1.365361    0.173326
     12          6           0       -2.779946    1.148627    0.122731
     13          1           0       -3.459918    1.987677    0.218405
     14          6           0       -3.173533   -0.165347   -0.044620
     15          1           0       -4.175748   -0.568034   -0.105583
     16         16           0       -1.796796   -1.170386   -0.150329
     17          6           0       -0.774702    0.224477    0.065134
 ---------------------------------------------------------------------

 SCF Done:  E(RHF) =  -813.033945251     A.U. after    2 cycles

 The electronic state is 1-A.
 Alpha  occ. eigenvalues --  -93.58012 -15.64007 -15.63855 -11.32680 -11.31109
 Alpha  occ. eigenvalues --  -11.29489 -11.28393 -11.27974 -11.27938 -11.26612
 Alpha  occ. eigenvalues --  -11.26236  -8.87903  -6.22023  -6.21904  -6.21543
 Alpha  occ. eigenvalues --   -1.26098  -1.23108  -1.08578  -1.06239  -1.05319
 Alpha  occ. eigenvalues --   -0.98267  -0.87640  -0.86895  -0.79299  -0.76847
 Alpha  occ. eigenvalues --   -0.71162  -0.68520  -0.67364  -0.64790  -0.60093
 Alpha  occ. eigenvalues --   -0.58390  -0.58147  -0.56883  -0.53802  -0.53504
 Alpha  occ. eigenvalues --   -0.50412  -0.43114  -0.41836  -0.40221  -0.38520
 Alpha  occ. eigenvalues --   -0.37981  -0.31289
 Alpha virt. eigenvalues --    0.02912   0.03349   0.04165   0.05142   0.05231
 Alpha virt. eigenvalues --    0.05454   0.06708   0.08243   0.09315   0.10053
 Alpha virt. eigenvalues --    0.10168   0.11236   0.11616   0.12064   0.12467

 Mulliken charges:
               1
     1  C    0.979297
     2  H   -0.527124
     3  C   -0.380832
     4  H   -0.388204
     5  C    0.876921
     6  H   -0.400429
     7  C    0.370029
     8  H   -0.386471
     9  N   -0.467887
    10  C    0.336663
    11  N   -0.563806
    12  C    0.826760
    13  H   -0.295920
    14  C    0.058152
    15  H   -0.382995
    16  S    0.546336
    17  C   -0.200489
 Sum of Mulliken charges =  -0.00000

 Dipole moment (field-independent basis, Debye):
    X=              0.7488    Y=             -2.8057    Z=              0.0377  Tot=              2.9041

 Test job not archived.
 1\1\GINC-SE021\SP\RHF\Aug-CC-pVDZ\C8H6N2S1\OHZDE\09-Apr-2025\0\\#t hf
 aug-cc-pvdz iop(5/13=1,5/36=2,99/5=2) pseudo=read geom=check guess=(re
 ad,tcheck) scf=(maxcycle=1)\\title\\0,1\C,0,30.1206,-21.0948,0.0111\H,
 0,30.6754,-20.1607,0.0381\C,0,28.7263,-21.0819,-0.0049\H,0,28.1845,-20
 .14,0.0039\C,0,28.0463,-22.303,-0.0013\H,0,26.9613,-22.3475,-0.0032\C,
 0,28.804,-23.48,0.0069\H,0,28.3118,-24.4508,0.0178\N,0,30.145,-23.514,
 -0.0008\C,0,30.7921,-22.3312,-0.0171\N,0,32.9674,-23.4881,0.2303\C,0,3
 4.303,-23.2359,0.1179\H,0,35.014,-24.0354,0.2934\C,0,34.6463,-21.9392,

 Normal termination of Gaussian 16 at Wed Apr  9 02:25:34 2025.
