 Gaussian 16, Revision C.01,

 ----------------------------------------------------------------------
 #t hf aug-cc-pvdz symm=none int=(grid=ultrafine) guess=(read,tcheck) s
 table=(opt,rrhf)
 ----------------------------------------------------------------------
 -----
 title
 -----
 Symbolic Z-matrix:
 Charge =  0 Multiplicity = 1

 SCF Done:  E(RHF) =  -774.179822446     A.U. after   16 cycles
 Normal termination of Gaussian 16 at Wed Apr  9 02:21:00 2025.
 Gaussian 16:  ES64L-G16RevC.01  3-Jul-2019

 ----------------------------------------------------------------------
 #t hf aug-cc-pvdz iop(5/13=1,5/36=2,99/5=2) pseudo=read geom=check gue
 ss=(read,tcheck) scf=(maxcycle=1)
 ----------------------------------------------------------------------
 -----
 title
 -----
 Structure from the checkpoint file:  "DCONF_42_-140_mol1.chk"
 Charge =  0 Multiplicity = 1

                         Standard orientation:
 ---------------------------------------------------------------------
 Center     Atomic      Atomic             Coordinates (Angstroms)
 Number     Number       Type             X           Y           Z
 ---------------------------------------------------------------------
      1          6           0       -1.991329   -0.133567    0.048386
      2          7           0       -0.975569    0.693937   -0.421215
      3          1           0       -1.181872    1.684162   -0.493062
      4          7           0        1.195652    1.456262    0.109907
      5          6           0        2.470727    0.974211    0.267718
      6          1           0        3.272581    1.662455    0.507004
      7          6           0        2.612581   -0.387017    0.124842
      8          1           0        3.504519   -0.986661    0.245533
      9         16           0        1.093025   -1.110003   -0.220867
     10          6           0        0.379706    0.460526   -0.166750
     11          8           0       -1.782477   -1.287848    0.382439
     12          6           0       -3.354249    0.521478    0.075835
     13          1           0       -3.481932    1.226549   -0.749128
     14          1           0       -4.118828   -0.253058    0.023363
     15          1           0       -3.468252    1.064206    1.019621
 ---------------------------------------------------------------------

 SCF Done:  E(RHF) =  -774.315031011     A.U. after    2 cycles

 The electronic state is 1-A.
 Alpha  occ. eigenvalues --  -93.57754 -20.56273 -15.68570 -15.63495 -11.39249
 Alpha  occ. eigenvalues --  -11.36581 -11.28259 -11.26924 -11.26655  -8.87571
 Alpha  occ. eigenvalues --   -6.21681  -6.21548  -6.21178  -1.37235  -1.27951
 Alpha  occ. eigenvalues --   -1.20556  -1.05345  -1.03403  -0.97298  -0.84726
 Alpha  occ. eigenvalues --   -0.79711  -0.76919  -0.70087  -0.69703  -0.64927
 Alpha  occ. eigenvalues --   -0.64200  -0.61609  -0.58832  -0.57741  -0.56633
 Alpha  occ. eigenvalues --   -0.53803  -0.50764  -0.46277  -0.46012  -0.43814
 Alpha  occ. eigenvalues --   -0.38573  -0.32127
 Alpha virt. eigenvalues --    0.02871   0.03667   0.04593   0.05019   0.05730
 Alpha virt. eigenvalues --    0.07255   0.08790   0.09617   0.09805   0.11114
 Alpha virt. eigenvalues --    0.11462   0.12526   0.12978   0.13371   0.13454

 Mulliken charges:
               1
     1  C    0.298805
     2  N   -0.535106
     3  H   -0.028208
     4  N   -0.457422
     5  C    0.662296
     6  H   -0.278725
     7  C    0.168158
     8  H   -0.381335
     9  S    0.597109
    10  C    0.069930
    11  O   -0.481958
    12  C    0.344473
    13  H   -0.035189
    14  H   -0.005491
    15  H    0.062663
 Sum of Mulliken charges =  -0.00000

 Dipole moment (field-independent basis, Debye):
    X=             -1.0164    Y=              2.3044    Z=             -0.6139  Tot=              2.5923

 Test job not archived.
 1\1\GINC-SE334\SP\RHF\Aug-CC-pVDZ\C5H6N2O1S1\OHZDE\09-Apr-2025\0\\#t h
 f aug-cc-pvdz iop(5/13=1,5/36=2,99/5=2) pseudo=read geom=check guess=(
 read,tcheck) scf=(maxcycle=1)\\title\\0,1\C,0,28.9599,-15.7561,-0.7246
 \N,0,29.3066,-16.881,0.018\H,0,28.5841,-17.5764,0.1686\N,0,30.7368,-18
 .7601,-0.0127\C,0,32.0747,-19.0645,0.0087\H,0,32.3829,-20.1032,0.0038\
 C,0,32.9289,-17.9857,0.0116\H,0,34.0101,-17.9838,-0.0148\S,0,32.0345,-
 16.5192,-0.0149\C,0,30.5828,-17.4524,-0.0106\O,0,29.7979,-14.9788,-1.1
 502\C,0,27.4702,-15.5854,-0.9222\H,0,26.9035,-15.9362,-0.0563\H,0,27.2

 Normal termination of Gaussian 16 at Wed Apr  9 02:21:24 2025.
