 Gaussian 16, Revision C.01,

 ----------------------------------------------------------------------
 #t hf aug-cc-pvdz symm=none int=(grid=ultrafine) guess=(read,tcheck) s
 table=(opt,rrhf)
 ----------------------------------------------------------------------
 -----
 title
 -----
 Symbolic Z-matrix:
 Charge =  0 Multiplicity = 1

 SCF Done:  E(RHF) =  -256.172946014     A.U. after   12 cycles
 Normal termination of Gaussian 16 at Wed Apr  9 02:25:51 2025.
 Gaussian 16:  ES64L-G16RevC.01  3-Jul-2019

 ----------------------------------------------------------------------
 #t hf aug-cc-pvdz iop(5/13=1,5/36=2,99/5=2) pseudo=read geom=check gue
 ss=(read,tcheck) scf=(maxcycle=1)
 ----------------------------------------------------------------------
 -----
 title
 -----
 Structure from the checkpoint file:  "DCONF_8_0_mol1.chk"
 Charge =  0 Multiplicity = 1

                         Standard orientation:
 ---------------------------------------------------------------------
 Center     Atomic      Atomic             Coordinates (Angstroms)
 Number     Number       Type             X           Y           Z
 ---------------------------------------------------------------------
      1          6           0       -0.003453    0.815382    0.000107
      2          1           0        0.256039    1.416382   -0.878569
      3          1           0        0.255978    1.416525    0.878718
      4          6           0        0.864618   -0.447119    0.000027
      5          1           0        0.624695   -1.056938   -0.876063
      6          1           0        0.624845   -1.056687    0.876421
      7          6           0        2.352347   -0.096415   -0.000010
      8          1           0        2.614151    0.493483   -0.884792
      9          1           0        2.971267   -0.998215   -0.000970
     10          1           0        2.614811    0.492129    0.885191
     11          6           0       -1.518333    0.540281   -0.000100
     12          1           0       -2.000656    0.952441   -0.889308
     13          1           0       -2.000838    0.952314    0.889181
     14          9           0       -1.792374   -0.831579    0.000006
 ---------------------------------------------------------------------

 SCF Done:  E(RHF) =  -256.259768132     A.U. after    2 cycles

 The electronic state is 1-A.
 Alpha  occ. eigenvalues --  -26.09414 -11.31705 -11.23812 -11.22973 -11.22427
 Alpha  occ. eigenvalues --   -1.62561  -1.06952  -0.98787  -0.88387  -0.80176
 Alpha  occ. eigenvalues --   -0.73827  -0.72772  -0.68922  -0.63815  -0.57709
 Alpha  occ. eigenvalues --   -0.57492  -0.54649  -0.50887  -0.48650  -0.47428
 Alpha  occ. eigenvalues --   -0.46639
 Alpha virt. eigenvalues --    0.03537   0.04452   0.04703   0.05181   0.06794
 Alpha virt. eigenvalues --    0.06855   0.07470   0.07585   0.09746   0.11786
 Alpha virt. eigenvalues --    0.12382   0.13081   0.14560   0.16575   0.16944

 Mulliken charges:
               1
     1  C   -0.114974
     2  H   -0.122393
     3  H   -0.122333
     4  C    0.138860
     5  H   -0.106423
     6  H   -0.105928
     7  C    0.384595
     8  H   -0.063949
     9  H   -0.059792
    10  H   -0.064706
    11  C    0.859349
    12  H   -0.095473
    13  H   -0.095313
    14  F   -0.431521
 Sum of Mulliken charges =  -0.00000

 Dipole moment (field-independent basis, Debye):
    X=              0.6878    Y=              2.0132    Z=             -0.0001  Tot=              2.1275

 Test job not archived.
 1\1\GINC-SE115\SP\RHF\Aug-CC-pVDZ\C4H9F1\OHZDE\09-Apr-2025\0\\#t hf au
 g-cc-pvdz iop(5/13=1,5/36=2,99/5=2) pseudo=read geom=check guess=(read
 ,tcheck) scf=(maxcycle=1)\\title\\0,1\C,0,0.0239,-0.0376,-0.0059\H,0,-
 0.0099,-0.696,-0.8811\H,0,0.0054,-0.6875,0.8761\C,0,-1.2398,0.8287,0.0
 007\H,0,-1.2426,1.4797,-0.8786\H,0,-1.2275,1.488,0.8738\C,0,-2.5021,-0
 .0331,0.0158\H,0,-2.5421,-0.682,-0.8655\H,0,-3.4037,0.5861,0.0196\H,0,
 -2.5279,-0.6723,0.9044\C,0,1.3387,0.7634,-0.0214\H,0,1.9292,0.5477,-0.
 9147\H,0,1.9447,0.5566,0.8637\F,0,1.1015,2.1421,-0.026\\Version=ES64L-

 Normal termination of Gaussian 16 at Wed Apr  9 02:25:55 2025.
