 Gaussian 16, Revision C.01,

 ----------------------------------------------------------------------
 #t hf aug-cc-pvdz symm=none int=(grid=ultrafine) guess=(read,tcheck) s
 table=(opt,rrhf)
 ----------------------------------------------------------------------
 -----
 title
 -----
 Symbolic Z-matrix:
 Charge =  0 Multiplicity = 1

 SCF Done:  E(RHF) =  -796.896755434     A.U. after   15 cycles
 Normal termination of Gaussian 16 at Wed Apr  9 02:23:52 2025.
 Gaussian 16:  ES64L-G16RevC.01  3-Jul-2019

 ----------------------------------------------------------------------
 #t hf aug-cc-pvdz iop(5/13=1,5/36=2,99/5=2) pseudo=read geom=check gue
 ss=(read,tcheck) scf=(maxcycle=1)
 ----------------------------------------------------------------------
 -----
 title
 -----
 Structure from the checkpoint file:  "DCONF_52_-140_mol1.chk"
 Charge =  0 Multiplicity = 1

                         Standard orientation:
 ---------------------------------------------------------------------
 Center     Atomic      Atomic             Coordinates (Angstroms)
 Number     Number       Type             X           Y           Z
 ---------------------------------------------------------------------
      1          6           0       -1.498483    1.204775   -0.394562
      2          1           0       -1.025392    2.121113   -0.736183
      3          6           0       -2.887268    1.083647   -0.344312
      4          1           0       -3.524869    1.914368   -0.634929
      5          6           0       -3.438461   -0.135921    0.061449
      6          1           0       -4.513204   -0.282934    0.109586
      7          6           0       -2.568843   -1.177368    0.402158
      8          1           0       -2.960821   -2.144101    0.712796
      9          7           0       -1.229770   -1.071713    0.385881
     10          6           0       -0.704704    0.110834   -0.004080
     11          6           0        1.522054    1.314625    0.407780
     12          1           0        1.082293    2.251077    0.736016
     13          6           0        2.913398    1.052076    0.358552
     14          1           0        3.684908    1.764269    0.629901
     15          6           0        3.184364   -0.242248   -0.052903
     16          1           0        4.151917   -0.709845   -0.184976
     17         16           0        1.752594   -1.126261   -0.374451
     18          6           0        0.756617    0.224284    0.008891
 ---------------------------------------------------------------------

 SCF Done:  E(RHF) =  -797.032443802     A.U. after    2 cycles

 The electronic state is 1-A.
 Alpha  occ. eigenvalues --  -93.56380 -15.63578 -11.30570 -11.29237 -11.27667
 Alpha  occ. eigenvalues --  -11.27574 -11.27374 -11.25695 -11.25562 -11.25310
 Alpha  occ. eigenvalues --  -11.25001  -8.86189  -6.20316  -6.20182  -6.19829
 Alpha  occ. eigenvalues --   -1.23568  -1.16153  -1.07913  -1.05129  -0.98038
 Alpha  occ. eigenvalues --   -0.96836  -0.86277  -0.86222  -0.76396  -0.75642
 Alpha  occ. eigenvalues --   -0.71288  -0.68028  -0.66909  -0.63690  -0.59151
 Alpha  occ. eigenvalues --   -0.57923  -0.56807  -0.55670  -0.52904  -0.52155
 Alpha  occ. eigenvalues --   -0.51618  -0.47561  -0.41999  -0.39064  -0.37120
 Alpha  occ. eigenvalues --   -0.34589  -0.30303
 Alpha virt. eigenvalues --    0.03031   0.03511   0.04168   0.04951   0.05417
 Alpha virt. eigenvalues --    0.05950   0.06554   0.07259   0.08706   0.09351
 Alpha virt. eigenvalues --    0.10378   0.10647   0.11490   0.11637   0.12628

 Mulliken charges:
               1
     1  C    1.093175
     2  H   -0.515224
     3  C   -0.453794
     4  H   -0.393440
     5  C    0.898511
     6  H   -0.411183
     7  C    0.462448
     8  H   -0.376043
     9  N   -0.416840
    10  C   -0.374042
    11  C    0.508808
    12  H   -0.475049
    13  C    0.284532
    14  H   -0.322784
    15  C   -0.055774
    16  H   -0.355970
    17  S    0.661587
    18  C    0.241081
 Sum of Mulliken charges =  -0.00000

 Dipole moment (field-independent basis, Debye):
    X=             -1.0939    Y=              2.0065    Z=             -0.2496  Tot=              2.2989

 Test job not archived.
 1\1\GINC-SE412\SP\RHF\Aug-CC-pVDZ\C9H7N1S1\OHZDE\09-Apr-2025\0\\#t hf
 aug-cc-pvdz iop(5/13=1,5/36=2,99/5=2) pseudo=read geom=check guess=(re
 ad,tcheck) scf=(maxcycle=1)\\title\\0,1\C,0,30.1869,-8.3577,-0.0205\H,
 0,30.7583,-7.4346,-0.0603\C,0,28.7923,-8.3438,0.0081\H,0,28.2493,-7.40
 24,0.005\C,0,28.1108,-9.565,0.0136\H,0,27.0259,-9.6074,0.0276\C,0,28.8
 619,-10.745,-0.0059\H,0,28.3666,-11.7142,-0.0126\N,0,30.2048,-10.7791,
 -0.0065\C,0,30.8562,-9.5951,-0.0084\C,0,33.1863,-8.8217,0.733\H,0,32.8
 387,-7.9973,1.3475\C,0,34.544,-9.1979,0.5836\H,0,35.3791,-8.6925,1.056

 Normal termination of Gaussian 16 at Wed Apr  9 02:24:02 2025.
