 Gaussian 16, Revision C.01,

 ----------------------------------------------------------------------
 #t hf aug-cc-pvdz symm=none int=(grid=ultrafine) guess=(read,tcheck) s
 table=(opt,rrhf)
 ----------------------------------------------------------------------
 -----
 title
 -----
 Symbolic Z-matrix:
 Charge =  0 Multiplicity = 1

 SCF Done:  E(RHF) =  -796.895589883     A.U. after   16 cycles
 Normal termination of Gaussian 16 at Wed Apr  9 02:24:10 2025.
 Gaussian 16:  ES64L-G16RevC.01  3-Jul-2019

 ----------------------------------------------------------------------
 #t hf aug-cc-pvdz iop(5/13=1,5/36=2,99/5=2) pseudo=read geom=check gue
 ss=(read,tcheck) scf=(maxcycle=1)
 ----------------------------------------------------------------------
 -----
 title
 -----
 Structure from the checkpoint file:  "DCONF_52_-130_mol1.chk"
 Charge =  0 Multiplicity = 1

                         Standard orientation:
 ---------------------------------------------------------------------
 Center     Atomic      Atomic             Coordinates (Angstroms)
 Number     Number       Type             X           Y           Z
 ---------------------------------------------------------------------
      1          6           0       -1.495335    1.164743   -0.481576
      2          1           0       -1.015872    2.050905   -0.887771
      3          6           0       -2.885302    1.053579   -0.423637
      4          1           0       -3.519921    1.862895   -0.774571
      5          6           0       -3.439999   -0.129111    0.075003
      6          1           0       -4.515218   -0.268181    0.135113
      7          6           0       -2.574231   -1.144424    0.495893
      8          1           0       -2.970571   -2.081238    0.883073
      9          7           0       -1.234513   -1.046901    0.470852
     10          6           0       -0.706416    0.098637   -0.013474
     11          6           0        1.509431    1.280199    0.494306
     12          1           0        1.056779    2.187035    0.882868
     13          6           0        2.903179    1.028223    0.446991
     14          1           0        3.666749    1.722521    0.780145
     15          6           0        3.188059   -0.230635   -0.054444
     16          1           0        4.160052   -0.681463   -0.209632
     17         16           0        1.765366   -1.094631   -0.459743
     18          6           0        0.756239    0.220446    0.002722
 ---------------------------------------------------------------------

 SCF Done:  E(RHF) =  -797.031281107     A.U. after    2 cycles

 The electronic state is 1-A.
 Alpha  occ. eigenvalues --  -93.56384 -15.63639 -11.30539 -11.29240 -11.27659
 Alpha  occ. eigenvalues --  -11.27586 -11.27341 -11.25714 -11.25633 -11.25240
 Alpha  occ. eigenvalues --  -11.24982  -8.86200  -6.20326  -6.20194  -6.19842
 Alpha  occ. eigenvalues --   -1.23565  -1.16139  -1.07925  -1.05112  -0.97993
 Alpha  occ. eigenvalues --   -0.96845  -0.86266  -0.86209  -0.76400  -0.75633
 Alpha  occ. eigenvalues --   -0.71173  -0.68095  -0.66988  -0.63655  -0.59139
 Alpha  occ. eigenvalues --   -0.57891  -0.56878  -0.55662  -0.52900  -0.52020
 Alpha  occ. eigenvalues --   -0.51668  -0.47500  -0.42044  -0.38965  -0.36780
 Alpha  occ. eigenvalues --   -0.34569  -0.30669
 Alpha virt. eigenvalues --    0.03033   0.03533   0.04179   0.04911   0.05410
 Alpha virt. eigenvalues --    0.06015   0.06520   0.07477   0.08650   0.09290
 Alpha virt. eigenvalues --    0.10478   0.10607   0.11356   0.11692   0.12470

 Mulliken charges:
               1
     1  C    1.064573
     2  H   -0.510362
     3  C   -0.474448
     4  H   -0.393263
     5  C    0.908711
     6  H   -0.410948
     7  C    0.471029
     8  H   -0.376292
     9  N   -0.425365
    10  C   -0.325141
    11  C    0.494183
    12  H   -0.461732
    13  C    0.289898
    14  H   -0.323026
    15  C   -0.055832
    16  H   -0.351930
    17  S    0.661363
    18  C    0.218582
 Sum of Mulliken charges =  -0.00000

 Dipole moment (field-independent basis, Debye):
    X=             -1.1433    Y=              1.9671    Z=             -0.2978  Tot=              2.2947

 Test job not archived.
 1\1\GINC-SE328\SP\RHF\Aug-CC-pVDZ\C9H7N1S1\OHZDE\09-Apr-2025\0\\#t hf
 aug-cc-pvdz iop(5/13=1,5/36=2,99/5=2) pseudo=read geom=check guess=(re
 ad,tcheck) scf=(maxcycle=1)\\title\\0,1\C,0,30.1878,-8.3592,-0.0211\H,
 0,30.7628,-7.4382,-0.0571\C,0,28.7926,-8.3431,0.0086\H,0,28.2503,-7.40
 14,0.0093\C,0,28.1111,-9.564,0.0154\H,0,27.0262,-9.6061,0.0318\C,0,28.
 8612,-10.7449,-0.0043\H,0,28.3644,-11.7133,-0.0067\N,0,30.2042,-10.781
 2,-0.0083\C,0,30.8552,-9.5972,-0.016\C,0,33.1625,-8.9362,0.8803\H,0,32
 .7913,-8.2109,1.5975\C,0,34.5254,-9.2894,0.719\H,0,35.3446,-8.8601,1.2

 Normal termination of Gaussian 16 at Wed Apr  9 02:24:22 2025.
