 Gaussian 16, Revision C.01,

 ----------------------------------------------------------------------
 #t hf aug-cc-pvdz symm=none int=(grid=ultrafine) guess=(read,tcheck) s
 table=(opt,rrhf)
 ----------------------------------------------------------------------
 -----
 title
 -----
 Symbolic Z-matrix:
 Charge =  0 Multiplicity = 1

 SCF Done:  E(RHF) =  -681.459884639     A.U. after   13 cycles
 Normal termination of Gaussian 16 at Wed Apr  9 02:17:21 2025.
 Gaussian 16:  ES64L-G16RevC.01  3-Jul-2019

 ----------------------------------------------------------------------
 #t hf aug-cc-pvdz iop(5/13=1,5/36=2,99/5=2) pseudo=read geom=check gue
 ss=(read,tcheck) scf=(maxcycle=1)
 ----------------------------------------------------------------------
 -----
 title
 -----
 Structure from the checkpoint file:  "DCONF_16_20_mol1.chk"
 Charge =  0 Multiplicity = 1

                         Standard orientation:
 ---------------------------------------------------------------------
 Center     Atomic      Atomic             Coordinates (Angstroms)
 Number     Number       Type             X           Y           Z
 ---------------------------------------------------------------------
      1          6           0       -0.320895    1.592370   -0.399622
      2          1           0        0.330619    2.085465    0.320347
      3          1           0        0.058221    1.682363   -1.418307
      4          1           0       -1.324922    2.015005   -0.335738
      5         16           0       -0.515896   -0.125754    0.046893
      6          8           0       -0.934601   -0.111310    1.436145
      7          7           0        1.020669   -0.808761   -0.026421
      8          1           0        1.035635   -1.391272   -0.859639
      9          8           0       -1.300878   -0.806677   -0.971061
     10          6           0        2.206684    0.052030    0.033424
     11          1           0        2.283225    0.760827   -0.799084
     12          1           0        2.213539    0.597757    0.979558
     13          1           0        3.082434   -0.599256    0.024045
 ---------------------------------------------------------------------

 SCF Done:  E(RHF) =  -681.627498345     A.U. after    2 cycles

 The electronic state is 1-A.
 Alpha  occ. eigenvalues --  -93.80348 -20.56265 -20.55461 -15.67043 -11.30211
 Alpha  occ. eigenvalues --  -11.29275  -9.06724  -6.41352  -6.41219  -6.41083
 Alpha  occ. eigenvalues --   -1.42683  -1.30546  -1.20846  -1.03849  -0.96221
 Alpha  occ. eigenvalues --   -0.82648  -0.72737  -0.69587  -0.68447  -0.65121
 Alpha  occ. eigenvalues --   -0.62987  -0.61702  -0.60176  -0.57743  -0.52442
 Alpha  occ. eigenvalues --   -0.51868  -0.49558  -0.47766  -0.43118
 Alpha virt. eigenvalues --    0.02300   0.03718   0.04462   0.05104   0.06623
 Alpha virt. eigenvalues --    0.07001   0.08017   0.10930   0.11208   0.11802
 Alpha virt. eigenvalues --    0.13789   0.14691   0.15310   0.15586   0.16068

 Mulliken charges:
               1
     1  C   -0.050996
     2  H    0.020305
     3  H    0.037719
     4  H   -0.036044
     5  S    2.650547
     6  O   -1.033633
     7  N   -0.919847
     8  H    0.023325
     9  O   -1.033045
    10  C    0.766043
    11  H   -0.062787
    12  H   -0.144331
    13  H   -0.217254
 Sum of Mulliken charges =  -0.00000

 Dipole moment (field-independent basis, Debye):
    X=              4.7853    Y=              3.2777    Z=             -2.2959  Tot=              6.2381

 Test job not archived.
 1\1\GINC-SE073\SP\RHF\Aug-CC-pVDZ\C2H7N1O2S1\OHZDE\09-Apr-2025\0\\#t h
 f aug-cc-pvdz iop(5/13=1,5/36=2,99/5=2) pseudo=read geom=check guess=(
 read,tcheck) scf=(maxcycle=1)\\title\\0,1\C,0,-1.1703,-1.3742,-0.6072\
 H,0,-0.9506,-0.755,0.2613\H,0,-0.5357,-1.1209,-1.4573\H,0,-2.2213,-1.2
 648,-0.8796\S,0,-0.9836,-3.0975,-0.1774\O,0,-1.8003,-3.2834,1.0075\N,0
 ,0.6278,-3.3009,0.2641\H,0,1.072,-3.8061,-0.4983\O,0,-1.1759,-3.918,-1
 .3631\C,0,1.4293,-2.1383,0.6605\H,0,1.5513,-1.3919,-0.1328\H,0,0.9803,
 -1.6683,1.5383\H,0,2.4142,-2.5064,0.9532\\Version=ES64L-G16RevC.01\Sta

 Normal termination of Gaussian 16 at Wed Apr  9 02:17:25 2025.
