 Gaussian 16, Revision C.01,

 ----------------------------------------------------------------------
 #t hf aug-cc-pvdz symm=none int=(grid=ultrafine) guess=(read,tcheck) s
 table=(opt,rrhf)
 ----------------------------------------------------------------------
 -----
 title
 -----
 Symbolic Z-matrix:
 Charge =  0 Multiplicity = 1

 SCF Done:  E(RHF) =  -681.466082049     A.U. after   13 cycles
 Normal termination of Gaussian 16 at Wed Apr  9 02:17:20 2025.
 Gaussian 16:  ES64L-G16RevC.01  3-Jul-2019

 ----------------------------------------------------------------------
 #t hf aug-cc-pvdz iop(5/13=1,5/36=2,99/5=2) pseudo=read geom=check gue
 ss=(read,tcheck) scf=(maxcycle=1)
 ----------------------------------------------------------------------
 -----
 title
 -----
 Structure from the checkpoint file:  "DCONF_16_180_mol1.chk"
 Charge =  0 Multiplicity = 1

                         Standard orientation:
 ---------------------------------------------------------------------
 Center     Atomic      Atomic             Coordinates (Angstroms)
 Number     Number       Type             X           Y           Z
 ---------------------------------------------------------------------
      1          6           0       -1.706566    0.967322   -0.207793
      2          1           0       -1.621116    1.419352   -1.194998
      3          1           0       -1.670543    1.714402    0.585703
      4          1           0       -2.626537    0.386167   -0.126772
      5         16           0       -0.378583   -0.191478    0.020558
      6          8           0       -0.326899   -1.123794   -1.091654
      7          7           0        0.942387    0.847141   -0.162646
      8          1           0        0.867063    1.553291    0.569241
      9          8           0       -0.467291   -0.696641    1.386751
     10          6           0        2.235710    0.145931   -0.020446
     11          1           0        2.319862   -0.591416   -0.819257
     12          1           0        2.345474   -0.352226    0.948561
     13          1           0        3.025067    0.888038   -0.144230
 ---------------------------------------------------------------------

 SCF Done:  E(RHF) =  -681.632587941     A.U. after    2 cycles

 The electronic state is 1-A.
 Alpha  occ. eigenvalues --  -93.80071 -20.56002 -20.55937 -15.67263 -11.29237
 Alpha  occ. eigenvalues --  -11.28484  -9.06531  -6.41140  -6.41014  -6.40896
 Alpha  occ. eigenvalues --   -1.42580  -1.30322  -1.20595  -1.04673  -0.93889
 Alpha  occ. eigenvalues --   -0.82564  -0.73079  -0.68640  -0.68208  -0.64784
 Alpha  occ. eigenvalues --   -0.62344  -0.61166  -0.58276  -0.57491  -0.52776
 Alpha  occ. eigenvalues --   -0.51736  -0.49728  -0.47673  -0.43336
 Alpha virt. eigenvalues --    0.02676   0.03755   0.04767   0.05301   0.06676
 Alpha virt. eigenvalues --    0.06984   0.07869   0.11029   0.12262   0.12511
 Alpha virt. eigenvalues --    0.13815   0.14352   0.15114   0.15986   0.16118

 Mulliken charges:
               1
     1  C    0.037521
     2  H    0.042052
     3  H   -0.019408
     4  H    0.039902
     5  S    2.677707
     6  O   -1.084664
     7  N   -1.031178
     8  H    0.077099
     9  O   -1.089530
    10  C    0.683325
    11  H   -0.089049
    12  H   -0.046907
    13  H   -0.196870
 Sum of Mulliken charges =   0.00000

 Dipole moment (field-independent basis, Debye):
    X=              0.4576    Y=              4.7366    Z=              0.1821  Tot=              4.7621

 Test job not archived.
 1\1\GINC-SE364\SP\RHF\Aug-CC-pVDZ\C2H7N1O2S1\OHZDE\09-Apr-2025\0\\#t h
 f aug-cc-pvdz iop(5/13=1,5/36=2,99/5=2) pseudo=read geom=check guess=(
 read,tcheck) scf=(maxcycle=1)\\title\\0,1\C,0,-1.093,-1.3883,-0.5933\H
 ,0,-0.4133,-1.188,-1.4204\H,0,-0.8515,-0.7893,0.2853\H,0,-2.1274,-1.20
 83,-0.8904\S,0,-1.0029,-3.1115,-0.1679\O,0,-1.1971,-3.9328,-1.3497\N,0
 ,0.6363,-3.223,0.2294\H,0,0.7954,-2.5861,1.0098\O,0,-1.8456,-3.3183,1.
 0054\C,0,1.0263,-4.5887,0.6385\H,0,0.8755,-5.2602,-0.2072\H,0,0.4572,-
 4.9538,1.4999\H,0,2.0889,-4.5658,0.8824\\Version=ES64L-G16RevC.01\Stat

 Normal termination of Gaussian 16 at Wed Apr  9 02:17:24 2025.
