 Gaussian 16, Revision C.01,

 ----------------------------------------------------------------------
 #t hf aug-cc-pvdz symm=none int=(grid=ultrafine) guess=(read,tcheck) s
 table=(opt,rrhf)
 ----------------------------------------------------------------------
 -----
 title
 -----
 Symbolic Z-matrix:
 Charge =  0 Multiplicity = 1

 SCF Done:  E(RHF) =  -559.153361992     A.U. after   17 cycles

 1\1\GINC-SE398\Stability\RHF\Aug-CC-pVDZ\C12H9F1\OHZDE\09-Apr-2025\0\\
 #t hf aug-cc-pvdz symm=none int=(grid=ultrafine) guess=(read,tcheck) s
 table=(opt,rrhf)\\title\\0,1\C,0,12.8361,-32.1209,0.303\H,0,13.3928,-3
 1.2089,0.4872\C,0,11.4425,-32.0529,0.3676\H,0,10.9661,-31.1025,0.5941\
 C,0,10.6656,-33.1825,0.0898\H,0,9.581,-33.1309,0.1304\C,0,11.3106,-34.
 3817,-0.2238\H,0,10.7283,-35.2702,-0.4545\C,0,12.7066,-34.4513,-0.286\
 H,0,13.161,-35.4015,-0.5256\C,0,13.5101,-33.3336,0.0333\C,0,17.1478,-3
 2.2357,0.4521\H,0,17.6666,-31.3692,0.8518\C,0,15.7527,-32.2637,0.4576\

 Normal termination of Gaussian 16 at Wed Apr  9 02:24:59 2025.
 Gaussian 16:  ES64L-G16RevC.01  3-Jul-2019

 ----------------------------------------------------------------------
 #t hf aug-cc-pvdz iop(5/13=1,5/36=2,99/5=2) pseudo=read geom=check gue
 ss=(read,tcheck) scf=(maxcycle=1)
 ----------------------------------------------------------------------
 -----
 title
 -----
 Structure from the checkpoint file:  "DCONF_47_0_mol1.chk"
 Charge =  0 Multiplicity = 1

                         Standard orientation:
 ---------------------------------------------------------------------
 Center     Atomic      Atomic             Coordinates (Angstroms)
 Number     Number       Type             X           Y           Z
 ---------------------------------------------------------------------
      1          6           0       -1.608962   -1.312278    0.132420
      2          1           0       -1.120071   -2.270389    0.268797
      3          6           0       -3.005380   -1.295911    0.106577
      4          1           0       -3.550701   -2.228725    0.224912
      5          6           0       -3.696420   -0.085777   -0.015008
      6          1           0       -4.782807   -0.068484   -0.026491
      7          6           0       -2.963661    1.097543   -0.138573
      8          1           0       -3.478104    2.051456   -0.222996
      9          6           0       -1.564823    1.081676   -0.115555
     10          1           0       -1.041024    2.020405   -0.221341
     11          6           0       -0.847835   -0.133484   -0.037246
     12          6           0        2.693661   -1.572028   -0.082366
     13          1           0        3.140669   -2.558593   -0.163665
     14          6           0        1.304032   -1.445386   -0.085748
     15          1           0        0.716371   -2.352510   -0.163936
     16          6           0        0.640270   -0.201274    0.038555
     17          6           0        1.500660    0.914524    0.041353
     18          6           0        2.890361    0.821721    0.043565
     19          1           0        3.466168    1.741487    0.079211
     20          6           0        3.500252   -0.430261   -0.037527
     21          1           0        4.583338   -0.509543   -0.043990
     22          9           0        1.001471    2.171169    0.129645
 ---------------------------------------------------------------------

 SCF Done:  E(RHF) =  -559.319544937     A.U. after    2 cycles

 The electronic state is 1-A.
 Alpha  occ. eigenvalues --  -26.13818 -11.34657 -11.27491 -11.26732 -11.26247
 Alpha  occ. eigenvalues --  -11.26121 -11.25779 -11.25430 -11.25111 -11.24982
 Alpha  occ. eigenvalues --  -11.24882 -11.24742 -11.24554  -1.67783  -1.16672
 Alpha  occ. eigenvalues --   -1.13835  -1.05694  -1.02623  -1.00984  -0.98979
 Alpha  occ. eigenvalues --   -0.87679  -0.87058  -0.83065  -0.81518  -0.76510
 Alpha  occ. eigenvalues --   -0.75360  -0.74444  -0.71508  -0.67938  -0.65093
 Alpha  occ. eigenvalues --   -0.64206  -0.61451  -0.60798  -0.60010  -0.58709
 Alpha  occ. eigenvalues --   -0.54506  -0.53354  -0.52600  -0.50232  -0.49744
 Alpha  occ. eigenvalues --   -0.48934  -0.39118  -0.34990  -0.34058  -0.30422
 Alpha virt. eigenvalues --    0.03201   0.03464   0.03927   0.04815   0.05042
 Alpha virt. eigenvalues --    0.06185   0.06330   0.07034   0.07800   0.08188
 Alpha virt. eigenvalues --    0.09542   0.10444   0.10800   0.11181   0.11722

 Mulliken charges:
               1
     1  C    0.576374
     2  H   -0.552289
     3  C    0.353211
     4  H   -0.475927
     5  C    0.556898
     6  H   -0.428489
     7  C    0.345418
     8  H   -0.457066
     9  C    0.673277
    10  H   -0.636515
    11  C    0.049166
    12  C    0.419830
    13  H   -0.473711
    14  C    0.454964
    15  H   -0.543648
    16  C    0.465913
    17  C   -0.522353
    18  C    0.956294
    19  H   -0.502013
    20  C    0.457909
    21  H   -0.413747
    22  F   -0.303494
 Sum of Mulliken charges =   0.00000

 Dipole moment (field-independent basis, Debye):
    X=              0.6231    Y=             -1.6508    Z=             -0.1315  Tot=              1.7694

 Test job not archived.
 1\1\GINC-SE398\SP\RHF\Aug-CC-pVDZ\C12H9F1\OHZDE\09-Apr-2025\0\\#t hf a
 ug-cc-pvdz iop(5/13=1,5/36=2,99/5=2) pseudo=read geom=check guess=(rea
 d,tcheck) scf=(maxcycle=1)\\title\\0,1\C,0,12.8361,-32.1209,0.303\H,0,
 13.3928,-31.2089,0.4872\C,0,11.4425,-32.0529,0.3676\H,0,10.9661,-31.10
 25,0.5941\C,0,10.6656,-33.1825,0.0898\H,0,9.581,-33.1309,0.1304\C,0,11
 .3106,-34.3817,-0.2238\H,0,10.7283,-35.2702,-0.4545\C,0,12.7066,-34.45
 13,-0.286\H,0,13.161,-35.4015,-0.5256\C,0,13.5101,-33.3336,0.0333\C,0,
 17.1478,-32.2357,0.4521\H,0,17.6666,-31.3692,0.8518\C,0,15.7527,-32.26

 Normal termination of Gaussian 16 at Wed Apr  9 02:25:16 2025.
