 Gaussian 16, Revision C.01,

 ----------------------------------------------------------------------
 #t hf aug-cc-pvdz symm=none int=(grid=ultrafine) guess=(read,tcheck) s
 table=(opt,rrhf)
 ----------------------------------------------------------------------
 -----
 title
 -----
 Symbolic Z-matrix:
 Charge =  0 Multiplicity = 1

 SCF Done:  E(RHF) =  -355.056673208     A.U. after   12 cycles
 Normal termination of Gaussian 16 at Wed Apr  9 02:26:24 2025.
 Gaussian 16:  ES64L-G16RevC.01  3-Jul-2019

 ----------------------------------------------------------------------
 #t hf aug-cc-pvdz iop(5/13=1,5/36=2,99/5=2) pseudo=read geom=check gue
 ss=(read,tcheck) scf=(maxcycle=1)
 ----------------------------------------------------------------------
 -----
 title
 -----
 Structure from the checkpoint file:  "DCONF_9_-150_mol1.chk"
 Charge =  0 Multiplicity = 1

                         Standard orientation:
 ---------------------------------------------------------------------
 Center     Atomic      Atomic             Coordinates (Angstroms)
 Number     Number       Type             X           Y           Z
 ---------------------------------------------------------------------
      1          6           0       -0.242853   -0.603160    0.099547
      2          1           0       -0.196800   -1.100977   -0.875631
      3          1           0       -0.450746   -1.375169    0.848360
      4          6           0       -1.355895    0.446550    0.074009
      5          1           0       -1.156632    1.157295   -0.731515
      6          1           0       -1.349234    1.019528    1.009027
      7          6           0       -2.725905   -0.202194   -0.122313
      8          1           0       -2.754220   -0.771106   -1.057155
      9          1           0       -3.516794    0.551894   -0.161746
     10          1           0       -2.954951   -0.890275    0.697615
     11          6           0        1.135975   -0.036130    0.372273
     12          1           0        1.399203    0.039778    1.429496
     13          9           0        1.258318    1.219795   -0.165931
     14          9           0        2.087487   -0.804390   -0.245130
 ---------------------------------------------------------------------

 SCF Done:  E(RHF) =  -355.179333690     A.U. after    2 cycles

 The electronic state is 1-A.
 Alpha  occ. eigenvalues --  -26.12659 -26.12531 -11.41568 -11.25114 -11.24346
 Alpha  occ. eigenvalues --  -11.23395  -1.68929  -1.64363  -1.09005  -1.00844
 Alpha  occ. eigenvalues --   -0.91532  -0.83097  -0.81110  -0.79515  -0.76539
 Alpha  occ. eigenvalues --   -0.71966  -0.68440  -0.66248  -0.63126  -0.58945
 Alpha  occ. eigenvalues --   -0.56308  -0.54174  -0.50033  -0.49506  -0.48581
 Alpha virt. eigenvalues --    0.03322   0.04231   0.04649   0.05344   0.06666
 Alpha virt. eigenvalues --    0.07034   0.07681   0.08288   0.11008   0.12146
 Alpha virt. eigenvalues --    0.13115   0.13414   0.15025   0.15813   0.16047

 Mulliken charges:
               1
     1  C   -0.142976
     2  H   -0.082695
     3  H   -0.055751
     4  C    0.147872
     5  H   -0.087860
     6  H   -0.115757
     7  C    0.362499
     8  H   -0.049705
     9  H   -0.060231
    10  H   -0.069695
    11  C    1.113399
    12  H   -0.205035
    13  F   -0.394337
    14  F   -0.359726
 Sum of Mulliken charges =   0.00000

 Dipole moment (field-independent basis, Debye):
    X=             -2.2356    Y=             -0.7091    Z=              1.5866  Tot=              2.8316

 Test job not archived.
 1\1\GINC-SE131\SP\RHF\Aug-CC-pVDZ\C4H8F2\OHZDE\09-Apr-2025\0\\#t hf au
 g-cc-pvdz iop(5/13=1,5/36=2,99/5=2) pseudo=read geom=check guess=(read
 ,tcheck) scf=(maxcycle=1)\\title\\0,1\C,0,-0.1221,-0.0957,-0.0906\H,0,
 -0.1972,0.3656,-1.0818\H,0,-0.212,0.7076,0.6487\C,0,1.2298,-0.8019,0.0
 321\H,0,1.3174,-1.5442,-0.7648\H,0,1.2791,-1.3501,0.9806\C,0,2.3857,0.
 1951,-0.0468\H,0,2.3582,0.7453,-0.9928\H,0,3.3508,-0.3147,0.0195\H,0,2
 .3312,0.9238,0.7682\C,0,-1.3167,-1.0161,0.0606\H,0,-1.6605,-1.1555,1.0
 878\F,0,-1.0363,-2.2605,-0.4442\F,0,-2.3694,-0.5399,-0.6755\\Version=E

 Normal termination of Gaussian 16 at Wed Apr  9 02:26:28 2025.
