 Gaussian 16, Revision C.01,

 ----------------------------------------------------------------------
 #t hf aug-cc-pvdz symm=none int=(grid=ultrafine) guess=(read,tcheck) s
 table=(opt,rrhf)
 ----------------------------------------------------------------------
 -----
 title
 -----
 Symbolic Z-matrix:
 Charge =  0 Multiplicity = 1

 SCF Done:  E(RHF) =  -703.113059978     A.U. after   16 cycles
 Normal termination of Gaussian 16 at Wed Apr  9 02:18:12 2025.
 Gaussian 16:  ES64L-G16RevC.01  3-Jul-2019

 ----------------------------------------------------------------------
 #t hf aug-cc-pvdz iop(5/13=1,5/36=2,99/5=2) pseudo=read geom=check gue
 ss=(read,tcheck) scf=(maxcycle=1)
 ----------------------------------------------------------------------
 -----
 title
 -----
 Structure from the checkpoint file:  "DCONF_24_-130_mol1.chk"
 Charge =  0 Multiplicity = 1

                         Standard orientation:
 ---------------------------------------------------------------------
 Center     Atomic      Atomic             Coordinates (Angstroms)
 Number     Number       Type             X           Y           Z
 ---------------------------------------------------------------------
      1          8           0       -2.270999    1.146755   -0.534793
      2          6           0       -2.258858   -0.970476    0.602425
      3          1           0       -1.936737   -0.968518    1.648335
      4          1           0       -3.344708   -0.888114    0.542106
      5          1           0       -1.932826   -1.919736    0.163839
      6          6           0       -1.619994    0.204989   -0.105123
      7          6           0        0.630741    1.352557    0.230410
      8          1           0        0.181705    2.322792    0.413835
      9          6           0        2.013019    1.060081    0.306071
     10          1           0        2.783378    1.782348    0.552098
     11          6           0        2.282787   -0.271413    0.037911
     12          1           0        3.246853   -0.760961   -0.013698
     13         16           0        0.854980   -1.155226   -0.293020
     14          6           0       -0.132588    0.247888   -0.128337
 ---------------------------------------------------------------------

 SCF Done:  E(RHF) =  -703.227290848     A.U. after    2 cycles

 The electronic state is 1-A.
 Alpha  occ. eigenvalues --  -93.58254 -20.56661 -11.35905 -11.29296 -11.28498
 Alpha  occ. eigenvalues --  -11.26940 -11.26455 -11.25237  -8.88100  -6.22230
 Alpha  occ. eigenvalues --   -6.22096  -6.21745  -1.35156  -1.17810  -1.03759
 Alpha  occ. eigenvalues --   -0.99702  -0.98152  -0.83875  -0.77540  -0.72748
 Alpha  occ. eigenvalues --   -0.70235  -0.63927  -0.62777  -0.61518  -0.58013
 Alpha  occ. eigenvalues --   -0.56311  -0.55034  -0.53483  -0.51146  -0.48859
 Alpha  occ. eigenvalues --   -0.44147  -0.36258  -0.34201
 Alpha virt. eigenvalues --    0.03105   0.04016   0.04323   0.05403   0.06072
 Alpha virt. eigenvalues --    0.06414   0.06839   0.09291   0.09758   0.10849
 Alpha virt. eigenvalues --    0.11658   0.12544   0.12764   0.13503   0.13851

 Mulliken charges:
               1
     1  O   -0.551077
     2  C    0.336231
     3  H    0.087111
     4  H   -0.093040
     5  H    0.025006
     6  C   -0.162099
     7  C    0.275151
     8  H   -0.386400
     9  C    0.333393
    10  H   -0.290555
    11  C   -0.068301
    12  H   -0.347190
    13  S    0.792180
    14  C    0.049590
 Sum of Mulliken charges =  -0.00000

 Dipole moment (field-independent basis, Debye):
    X=              2.5697    Y=             -1.9124    Z=              1.7433  Tot=              3.6468

 Test job not archived.
 1\1\GINC-SE398\SP\RHF\Aug-CC-pVDZ\C6H6O1S1\OHZDE\09-Apr-2025\0\\#t hf
 aug-cc-pvdz iop(5/13=1,5/36=2,99/5=2) pseudo=read geom=check guess=(re
 ad,tcheck) scf=(maxcycle=1)\\title\\0,1\O,0,21.0496,-5.8826,0.5087\C,0
 ,21.5738,-4.1242,-1.0435\H,0,21.9097,-4.4276,-2.0399\H,0,20.4971,-3.95
 04,-1.0452\H,0,22.0999,-3.1971,-0.7916\C,0,21.9092,-5.2256,-0.0612\C,0
 ,23.8421,-6.885,0.0136\H,0,23.1859,-7.7487,0.0061\C,0,25.2559,-6.9277,
 -0.0225\H,0,25.8445,-7.8377,-0.0557\C,0,25.819,-5.6626,-0.021\H,0,26.8
 685,-5.398,-0.0043\S,0,24.6261,-4.4358,0.014\C,0,23.3459,-5.5883,0.077

 Normal termination of Gaussian 16 at Wed Apr  9 02:18:17 2025.
