 Gaussian 16, Revision C.01,

 ----------------------------------------------------------------------
 #t hf aug-cc-pvdz symm=none int=(grid=ultrafine) guess=(read,tcheck) s
 table=(opt,rrhf)
 ----------------------------------------------------------------------
 -----
 title
 -----
 Symbolic Z-matrix:
 Charge =  0 Multiplicity = 1

 SCF Done:  E(RHF) =  -575.156130255     A.U. after   15 cycles
 Normal termination of Gaussian 16 at Wed Apr  9 02:25:38 2025.
 Gaussian 16:  ES64L-G16RevC.01  3-Jul-2019

 ----------------------------------------------------------------------
 #t hf aug-cc-pvdz iop(5/13=1,5/36=2,99/5=2) pseudo=read geom=check gue
 ss=(read,tcheck) scf=(maxcycle=1)
 ----------------------------------------------------------------------
 -----
 title
 -----
 Structure from the checkpoint file:  "DCONF_48_100_mol1.chk"
 Charge =  0 Multiplicity = 1

                         Standard orientation:
 ---------------------------------------------------------------------
 Center     Atomic      Atomic             Coordinates (Angstroms)
 Number     Number       Type             X           Y           Z
 ---------------------------------------------------------------------
      1          6           0       -1.555494    0.331396    1.147449
      2          1           0       -1.017390    0.699389    2.016804
      3          6           0       -2.950521    0.369787    1.085082
      4          1           0       -3.531789    0.771228    1.910772
      5          6           0       -3.576638   -0.115097   -0.066119
      6          1           0       -4.657867   -0.104952   -0.167266
      7          6           0       -2.779359   -0.618463   -1.099820
      8          1           0       -3.234200   -1.001641   -2.011148
      9          7           0       -1.435572   -0.663262   -1.056112
     10          6           0       -0.842059   -0.197308    0.061781
     11          6           0        2.737179   -1.467394    0.298556
     12          1           0        3.260610   -2.401629    0.480208
     13          6           0        1.338934   -1.435895    0.312726
     14          1           0        0.766396   -2.341632    0.496965
     15          6           0        0.642536   -0.238178    0.087685
     16          6           0        1.393888    0.908836   -0.180576
     17          6           0        2.785302    0.906569   -0.205867
     18          1           0        3.316031    1.828463   -0.422048
     19          6           0        3.458819   -0.295964    0.036426
     20          1           0        4.544843   -0.313780    0.019429
     21          9           0        0.742982    2.068629   -0.421653
 ---------------------------------------------------------------------

 SCF Done:  E(RHF) =  -575.326399199     A.U. after    2 cycles

 The electronic state is 1-A.
 Alpha  occ. eigenvalues --  -26.13411 -15.63601 -11.34317 -11.30032 -11.29034
 Alpha  occ. eigenvalues --  -11.27397 -11.26306 -11.26192 -11.26078 -11.25678
 Alpha  occ. eigenvalues --  -11.25571 -11.25549 -11.25260  -1.67242  -1.23382
 Alpha  occ. eigenvalues --   -1.15697  -1.07786  -1.06216  -1.02367  -1.00019
 Alpha  occ. eigenvalues --   -0.88499  -0.86643  -0.85859  -0.82943  -0.76620
 Alpha  occ. eigenvalues --   -0.74846  -0.74300  -0.72023  -0.68025  -0.66921
 Alpha  occ. eigenvalues --   -0.64689  -0.62533  -0.62025  -0.60011  -0.58283
 Alpha  occ. eigenvalues --   -0.55180  -0.54108  -0.52526  -0.51057  -0.50677
 Alpha  occ. eigenvalues --   -0.41880  -0.38523  -0.35808  -0.34684  -0.34058
 Alpha virt. eigenvalues --    0.03138   0.03393   0.04139   0.04384   0.05132
 Alpha virt. eigenvalues --    0.06070   0.06403   0.06492   0.08615   0.09257
 Alpha virt. eigenvalues --    0.09637   0.10277   0.10829   0.11257   0.11677

 Mulliken charges:
               1
     1  C    1.063176
     2  H   -0.536824
     3  C   -0.554275
     4  H   -0.404189
     5  C    1.017148
     6  H   -0.416664
     7  C    0.356385
     8  H   -0.392691
     9  N   -0.497072
    10  C   -0.274736
    11  C    0.248300
    12  H   -0.431091
    13  C    0.182829
    14  H   -0.532340
    15  C    1.497573
    16  C   -0.159935
    17  C    0.505970
    18  H   -0.427670
    19  C    0.503709
    20  H   -0.426732
    21  F   -0.320872
 Sum of Mulliken charges =  -0.00000

 Dipole moment (field-independent basis, Debye):
    X=             -0.2954    Y=             -0.8927    Z=              1.8568  Tot=              2.0813

 Test job not archived.
 1\1\GINC-SE080\SP\RHF\Aug-CC-pVDZ\C11H8F1N1\OHZDE\09-Apr-2025\0\\#t hf
  aug-cc-pvdz iop(5/13=1,5/36=2,99/5=2) pseudo=read geom=check guess=(r
 ead,tcheck) scf=(maxcycle=1)\\title\\0,1\C,0,21.7914,-33.5375,-1.1508\
 H,0,22.308,-33.7449,-2.084\C,0,20.3964,-33.514,-1.0809\H,0,19.7935,-33
 .7038,-1.9648\C,0,19.7985,-33.2463,0.1533\H,0,18.7184,-33.2199,0.2632\
 C,0,20.6228,-33.0116,1.2592\H,0,20.1902,-32.8025,2.2356\N,0,21.967,-33
 .03,1.2095\C,0,22.5334,-33.2844,0.0122\C,0,26.1762,-32.1844,0.0007\H,0
 ,26.7495,-31.2619,0.0104\C,0,24.7783,-32.1381,-0.0028\H,0,24.2557,-31.

 Normal termination of Gaussian 16 at Wed Apr  9 02:25:55 2025.
