 Gaussian 16, Revision C.01,

 ----------------------------------------------------------------------
 #t hf aug-cc-pvdz symm=none int=(grid=ultrafine) guess=(read,tcheck) s
 table=(opt,rrhf)
 ----------------------------------------------------------------------
 -----
 title
 -----
 Symbolic Z-matrix:
 Charge =  0 Multiplicity = 1

 SCF Done:  E(RHF) =  -217.136328749     A.U. after   12 cycles
 Normal termination of Gaussian 16 at Wed Apr  9 02:24:40 2025.
 Gaussian 16:  ES64L-G16RevC.01  3-Jul-2019

 ----------------------------------------------------------------------
 #t hf aug-cc-pvdz iop(5/13=1,5/36=2,99/5=2) pseudo=read geom=check gue
 ss=(read,tcheck) scf=(maxcycle=1)
 ----------------------------------------------------------------------
 -----
 title
 -----
 Structure from the checkpoint file:  "DCONF_7_-120_mol1.chk"
 Charge =  0 Multiplicity = 1

                         Standard orientation:
 ---------------------------------------------------------------------
 Center     Atomic      Atomic             Coordinates (Angstroms)
 Number     Number       Type             X           Y           Z
 ---------------------------------------------------------------------
      1          9           0       -1.728401    0.024999   -0.411849
      2          6           0       -0.683089   -0.298426    0.460896
      3          1           0       -1.064142   -0.157253    1.475553
      4          1           0       -0.462238   -1.359043    0.307367
      5          6           0        0.540495    0.574592    0.171072
      6          1           0        0.267728    1.251004   -0.644471
      7          1           0        0.767098    1.201981    1.038629
      8          6           0        1.773447   -0.242974   -0.218100
      9          1           0        1.570107   -0.845420   -1.108638
     10          1           0        2.066019   -0.921791    0.589142
     11          1           0        2.625919    0.406378   -0.434145
 ---------------------------------------------------------------------

 SCF Done:  E(RHF) =  -217.211282246     A.U. after    2 cycles

 The electronic state is 1-A.
 Alpha  occ. eigenvalues --  -26.09422 -11.31698 -11.24029 -11.23458  -1.62496
 Alpha  occ. eigenvalues --   -1.06168  -0.94221  -0.83443  -0.73657  -0.72772
 Alpha  occ. eigenvalues --   -0.69125  -0.61699  -0.58759  -0.55294  -0.50684
 Alpha  occ. eigenvalues --   -0.49380  -0.48589
 Alpha virt. eigenvalues --    0.03472   0.04609   0.04759   0.05581   0.07128
 Alpha virt. eigenvalues --    0.07624   0.07724   0.11096   0.12346   0.14269
 Alpha virt. eigenvalues --    0.15070   0.15665   0.16641   0.17141   0.17289

 Mulliken charges:
               1
     1  F   -0.415354
     2  C    0.720266
     3  H   -0.142365
     4  H   -0.198374
     5  C   -0.009630
     6  H   -0.024983
     7  H   -0.053925
     8  C    0.323962
     9  H   -0.045298
    10  H   -0.047749
    11  H   -0.106549
 Sum of Mulliken charges =  -0.00000

 Dipole moment (field-independent basis, Debye):
    X=              1.9596    Y=             -0.3282    Z=              1.3058  Tot=              2.3775

 Test job not archived.
 1\1\GINC-SE328\SP\RHF\Aug-CC-pVDZ\C3H7F1\OHZDE\09-Apr-2025\0\\#t hf au
 g-cc-pvdz iop(5/13=1,5/36=2,99/5=2) pseudo=read geom=check guess=(read
 ,tcheck) scf=(maxcycle=1)\\title\\0,1\F,0,13.2525,-26.4749,0.005\C,0,1
 4.4013,-25.6754,0.0001\H,0,14.3376,-25.037,-0.8848\H,0,14.3521,-25.049
 ,0.8959\C,0,15.6575,-26.5502,-0.0015\H,0,15.3244,-27.5922,-0.0195\H,0,
 16.2276,-26.3855,-0.921\C,0,16.5504,-26.3078,1.2167\H,0,16.0013,-26.50
 74,2.1419\H,0,16.8995,-25.2709,1.2483\H,0,17.4303,-26.9562,1.1968\\Ver
 sion=ES64L-G16RevC.01\State=1-A\HF=-217.2112822\RMSD=4.727e-03\Dipole=

 Normal termination of Gaussian 16 at Wed Apr  9 02:24:43 2025.
