 Gaussian 16, Revision C.01,

 ----------------------------------------------------------------------
 #t hf aug-cc-pvdz symm=none int=(grid=ultrafine) guess=(read,tcheck) s
 table=(opt,rrhf)
 ----------------------------------------------------------------------
 -----
 title
 -----
 Symbolic Z-matrix:
 Charge =  0 Multiplicity = 1

 SCF Done:  E(RHF) =  -453.941743800     A.U. after   11 cycles
 Normal termination of Gaussian 16 at Wed Apr  9 02:16:52 2025.
 Gaussian 16:  ES64L-G16RevC.01  3-Jul-2019

 ----------------------------------------------------------------------
 #t hf aug-cc-pvdz iop(5/13=1,5/36=2,99/5=2) pseudo=read geom=check gue
 ss=(read,tcheck) scf=(maxcycle=1)
 ----------------------------------------------------------------------
 -----
 title
 -----
 Structure from the checkpoint file:  "DCONF_10_-150_mol1.chk"
 Charge =  0 Multiplicity = 1

                         Standard orientation:
 ---------------------------------------------------------------------
 Center     Atomic      Atomic             Coordinates (Angstroms)
 Number     Number       Type             X           Y           Z
 ---------------------------------------------------------------------
      1          6           0       -0.461329   -0.614346   -0.036952
      2          1           0       -0.537637   -1.207019   -0.953804
      3          1           0       -0.564417   -1.299261    0.809501
      4          6           0       -1.559189    0.450484   -0.029666
      5          1           0       -1.425400    1.111962    0.833196
      6          1           0       -1.463386    1.069698   -0.925395
      7          6           0       -2.944974   -0.192562    0.019158
      8          1           0       -3.068258   -0.787943    0.929237
      9          1           0       -3.097516   -0.853530   -0.840108
     10          1           0       -3.730007    0.568072    0.003469
     11          6           0        0.940499   -0.049008    0.006796
     12          9           0        1.024963    1.152868   -0.601964
     13          9           0        1.378866    0.123497    1.269377
     14          9           0        1.822458   -0.850741   -0.624314
 ---------------------------------------------------------------------

 SCF Done:  E(RHF) =  -454.101360277     A.U. after    2 cycles

 The electronic state is 1-A.
 Alpha  occ. eigenvalues --  -26.15709 -26.15558 -26.15472 -11.51537 -11.26671
 Alpha  occ. eigenvalues --  -11.25212 -11.24029  -1.75229  -1.68201  -1.67965
 Alpha  occ. eigenvalues --   -1.10762  -1.02733  -0.95036  -0.87418  -0.87161
 Alpha  occ. eigenvalues --   -0.84435  -0.79960  -0.76709  -0.76143  -0.72098
 Alpha  occ. eigenvalues --   -0.71750  -0.70727  -0.65385  -0.61936  -0.58078
 Alpha  occ. eigenvalues --   -0.56346  -0.51611  -0.50680  -0.49706
 Alpha virt. eigenvalues --    0.03267   0.04512   0.04730   0.05437   0.07068
 Alpha virt. eigenvalues --    0.07367   0.08000   0.09097   0.11207   0.12942
 Alpha virt. eigenvalues --    0.13339   0.13452   0.15222   0.15541   0.16489

 Mulliken charges:
               1
     1  C   -0.005655
     2  H   -0.064571
     3  H   -0.076870
     4  C    0.115755
     5  H   -0.111209
     6  H   -0.094377
     7  C    0.355376
     8  H   -0.060706
     9  H   -0.044826
    10  H   -0.058459
    11  C    1.027341
    12  F   -0.340796
    13  F   -0.327061
    14  F   -0.313942
 Sum of Mulliken charges =  -0.00000

 Dipole moment (field-independent basis, Debye):
    X=             -2.9103    Y=             -0.8349    Z=             -0.0674  Tot=              3.0284

 Test job not archived.
 1\1\GINC-SE398\SP\RHF\Aug-CC-pVDZ\C4H7F3\OHZDE\09-Apr-2025\0\\#t hf au
 g-cc-pvdz iop(5/13=1,5/36=2,99/5=2) pseudo=read geom=check guess=(read
 ,tcheck) scf=(maxcycle=1)\\title\\0,1\C,0,-0.1425,0.0055,0.188\H,0,0.0
 032,-0.5106,1.142\H,0,0.2391,-0.6466,-0.6028\C,0,0.6013,1.3416,0.2165\
 H,0,0.3756,1.9086,-0.6932\H,0,0.2402,1.9345,1.0609\C,0,2.11,1.1257,0.3
 327\H,0,2.492,0.5631,-0.5249\H,0,2.3538,0.5645,1.2405\H,0,2.6399,2.081
 ,0.3739\C,0,-1.6347,0.1395,-0.017\F,0,-2.1209,1.2841,0.5081\F,0,-1.969
 7,0.138,-1.3223\F,0,-2.3128,-0.8628,0.5784\\Version=ES64L-G16RevC.01\S

 Normal termination of Gaussian 16 at Wed Apr  9 02:16:56 2025.
