 Gaussian 16, Revision C.01,

 ----------------------------------------------------------------------
 #t hf aug-cc-pvdz symm=none int=(grid=ultrafine) guess=(read,tcheck) s
 table=(opt,rrhf)
 ----------------------------------------------------------------------
 -----
 title
 -----
 Symbolic Z-matrix:
 Charge =  0 Multiplicity = 1

 SCF Done:  E(RHF) =  -217.140909697     A.U. after   12 cycles
 Normal termination of Gaussian 16 at Wed Apr  9 02:25:10 2025.
 Gaussian 16:  ES64L-G16RevC.01  3-Jul-2019

 ----------------------------------------------------------------------
 #t hf aug-cc-pvdz iop(5/13=1,5/36=2,99/5=2) pseudo=read geom=check gue
 ss=(read,tcheck) scf=(maxcycle=1)
 ----------------------------------------------------------------------
 -----
 title
 -----
 Structure from the checkpoint file:  "DCONF_7_160_mol1.chk"
 Charge =  0 Multiplicity = 1

                         Standard orientation:
 ---------------------------------------------------------------------
 Center     Atomic      Atomic             Coordinates (Angstroms)
 Number     Number       Type             X           Y           Z
 ---------------------------------------------------------------------
      1          9           0       -1.846711   -0.152676   -0.130954
      2          6           0       -0.627138    0.479536    0.125631
      3          1           0       -0.482330    1.221297   -0.666500
      4          1           0       -0.715153    0.993972    1.086921
      5          6           0        0.502897   -0.533213    0.117932
      6          1           0        0.495759   -1.108867    1.048233
      7          1           0        0.310737   -1.233955   -0.700771
      8          6           0        1.857338    0.144899   -0.098043
      9          1           0        2.054895    0.895363    0.674495
     10          1           0        1.888825    0.644803   -1.070647
     11          1           0        2.669079   -0.585860   -0.066261
 ---------------------------------------------------------------------

 SCF Done:  E(RHF) =  -217.215924574     A.U. after    2 cycles

 The electronic state is 1-A.
 Alpha  occ. eigenvalues --  -26.09499 -11.31670 -11.24046 -11.23746  -1.62579
 Alpha  occ. eigenvalues --   -1.06584  -0.94219  -0.83460  -0.73895  -0.72471
 Alpha  occ. eigenvalues --   -0.69543  -0.62865  -0.57945  -0.54399  -0.51916
 Alpha  occ. eigenvalues --   -0.49478  -0.48790
 Alpha virt. eigenvalues --    0.03440   0.04619   0.04776   0.05402   0.07332
 Alpha virt. eigenvalues --    0.07502   0.07870   0.11028   0.12190   0.14971
 Alpha virt. eigenvalues --    0.15312   0.15573   0.16657   0.16955   0.17170

 Mulliken charges:
               1
     1  F   -0.418417
     2  C    0.712556
     3  H   -0.166143
     4  H   -0.130693
     5  C   -0.069921
     6  H   -0.040525
     7  H   -0.033278
     8  C    0.337015
     9  H   -0.040156
    10  H   -0.062899
    11  H   -0.087540
 Sum of Mulliken charges =  -0.00000

 Dipole moment (field-independent basis, Debye):
    X=              2.2759    Y=              0.8091    Z=              0.3859  Tot=              2.4460

 Test job not archived.
 1\1\GINC-SE273\SP\RHF\Aug-CC-pVDZ\C3H7F1\OHZDE\09-Apr-2025\0\\#t hf au
 g-cc-pvdz iop(5/13=1,5/36=2,99/5=2) pseudo=read geom=check guess=(read
 ,tcheck) scf=(maxcycle=1)\\title\\0,1\F,0,13.257,-26.475,0.005\C,0,14.
 4051,-25.6783,0.0001\H,0,14.3629,-25.0679,-0.9078\H,0,14.359,-25.0234,
 0.875\C,0,15.6491,-26.5473,-0.0015\H,0,15.8208,-26.9567,0.9984\H,0,15.
 4593,-27.3918,-0.6716\C,0,16.8713,-25.7697,-0.494\H,0,17.0548,-24.8836
 ,0.1226\H,0,16.7287,-25.4389,-1.527\H,0,17.7695,-26.3909,-0.4581\\Vers
 ion=ES64L-G16RevC.01\State=1-A\HF=-217.2159246\RMSD=4.897e-03\Dipole=0

 Normal termination of Gaussian 16 at Wed Apr  9 02:25:13 2025.
