 Gaussian 16, Revision C.01,

 ----------------------------------------------------------------------
 #t hf aug-cc-pvdz symm=none int=(grid=ultrafine) guess=(read,tcheck) s
 table=(opt,rrhf)
 ----------------------------------------------------------------------
 -----
 title
 -----
 Symbolic Z-matrix:
 Charge =  0 Multiplicity = 1

 SCF Done:  E(RHF) =  -355.060293242     A.U. after   12 cycles
 Normal termination of Gaussian 16 at Wed Apr  9 02:26:24 2025.
 Gaussian 16:  ES64L-G16RevC.01  3-Jul-2019

 ----------------------------------------------------------------------
 #t hf aug-cc-pvdz iop(5/13=1,5/36=2,99/5=2) pseudo=read geom=check gue
 ss=(read,tcheck) scf=(maxcycle=1)
 ----------------------------------------------------------------------
 -----
 title
 -----
 Structure from the checkpoint file:  "DCONF_9_0_mol2.chk"
 Charge =  0 Multiplicity = 1

                         Standard orientation:
 ---------------------------------------------------------------------
 Center     Atomic      Atomic             Coordinates (Angstroms)
 Number     Number       Type             X           Y           Z
 ---------------------------------------------------------------------
      1          6           0       -0.241677   -0.524940   -0.127977
      2          1           0       -0.202044   -0.634394   -1.217396
      3          1           0       -0.372727   -1.523798    0.303235
      4          6           0       -1.397859    0.387379    0.282380
      5          1           0       -1.252703    1.375467   -0.164908
      6          1           0       -1.383361    0.523594    1.370893
      7          6           0       -2.749443   -0.184979   -0.145046
      8          1           0       -2.788532   -0.313320   -1.231164
      9          1           0       -3.568860    0.477571    0.146968
     10          1           0       -2.922739   -1.162286    0.316641
     11          6           0        1.097094   -0.006916    0.325015
     12          1           0        1.182509    0.125268    1.406692
     13          9           0        1.357349    1.205603   -0.258108
     14          9           0        2.093737   -0.860200   -0.068247
 ---------------------------------------------------------------------

 SCF Done:  E(RHF) =  -355.183069123     A.U. after    2 cycles

 The electronic state is 1-A.
 Alpha  occ. eigenvalues --  -26.12688 -26.12675 -11.41456 -11.25107 -11.24631
 Alpha  occ. eigenvalues --  -11.23584  -1.68931  -1.64479  -1.09392  -1.00934
 Alpha  occ. eigenvalues --   -0.91502  -0.83629  -0.80956  -0.79743  -0.76118
 Alpha  occ. eigenvalues --   -0.72109  -0.68683  -0.66428  -0.63346  -0.59352
 Alpha  occ. eigenvalues --   -0.56027  -0.54321  -0.49998  -0.49824  -0.49077
 Alpha virt. eigenvalues --    0.03324   0.04282   0.04628   0.05290   0.06729
 Alpha virt. eigenvalues --    0.07096   0.07574   0.08237   0.10998   0.11942
 Alpha virt. eigenvalues --    0.13312   0.13675   0.15165   0.15605   0.16050

 Mulliken charges:
               1
     1  C   -0.083223
     2  H   -0.090810
     3  H   -0.053664
     4  C    0.120648
     5  H   -0.088752
     6  H   -0.123081
     7  C    0.362798
     8  H   -0.054329
     9  H   -0.061830
    10  H   -0.065097
    11  C    1.136878
    12  H   -0.232710
    13  F   -0.393804
    14  F   -0.373024
 Sum of Mulliken charges =   0.00000

 Dipole moment (field-independent basis, Debye):
    X=             -2.5524    Y=             -0.5475    Z=              1.3275  Tot=              2.9286

 Test job not archived.
 1\1\GINC-SE454\SP\RHF\Aug-CC-pVDZ\C4H8F2\OHZDE\09-Apr-2025\0\\#t hf au
 g-cc-pvdz iop(5/13=1,5/36=2,99/5=2) pseudo=read geom=check guess=(read
 ,tcheck) scf=(maxcycle=1)\\title\\0,1\C,0,-0.1296,-0.0844,-0.084\H,0,-
 0.218,0.4126,-1.0564\H,0,-0.2283,0.6822,0.6928\C,0,1.2179,-0.7961,0.03
 93\H,0,1.3,-1.5502,-0.7494\H,0,1.26,-1.3291,0.9973\C,0,2.3866,0.185,-0
 .0537\H,0,2.3703,0.7156,-1.0107\H,0,3.3454,-0.3342,0.0289\H,0,2.3347,0
 .9304,0.7463\C,0,-1.2981,-1.0233,0.0536\H,0,-1.326,-1.5662,1.0019\F,0,
 -1.2779,-1.9545,-0.9516\F,0,-2.4763,-0.3349,-0.0647\\Version=ES64L-G16

 Normal termination of Gaussian 16 at Wed Apr  9 02:26:28 2025.
