 Gaussian 16, Revision C.01,

 ----------------------------------------------------------------------
 #t hf aug-cc-pvdz symm=none int=(grid=ultrafine) guess=(read,tcheck) s
 table=(opt,rrhf)
 ----------------------------------------------------------------------
 -----
 title
 -----
 Symbolic Z-matrix:
 Charge =  0 Multiplicity = 1

 SCF Done:  E(RHF) =  -812.899917752     A.U. after   17 cycles
 Normal termination of Gaussian 16 at Wed Apr  9 02:25:54 2025.
 Gaussian 16:  ES64L-G16RevC.01  3-Jul-2019

 ----------------------------------------------------------------------
 #t hf aug-cc-pvdz iop(5/13=1,5/36=2,99/5=2) pseudo=read geom=check gue
 ss=(read,tcheck) scf=(maxcycle=1)
 ----------------------------------------------------------------------
 -----
 title
 -----
 Structure from the checkpoint file:  "DCONF_56_-130_mol1.chk"
 Charge =  0 Multiplicity = 1

                         Standard orientation:
 ---------------------------------------------------------------------
 Center     Atomic      Atomic             Coordinates (Angstroms)
 Number     Number       Type             X           Y           Z
 ---------------------------------------------------------------------
      1          6           0       -1.475986    1.179103   -0.457046
      2          1           0       -0.991166    2.083624   -0.811173
      3          6           0       -2.864630    1.059101   -0.400809
      4          1           0       -3.504002    1.876272   -0.723656
      5          6           0       -3.414367   -0.137116    0.073010
      6          1           0       -4.489241   -0.278852    0.134434
      7          6           0       -2.547127   -1.157110    0.478298
      8          1           0       -2.939538   -2.097494    0.859890
      9          7           0       -1.206899   -1.056415    0.446739
     10          6           0       -0.692257    0.095742   -0.028763
     11          7           0        1.405433    1.273714    0.498924
     12          6           0        2.755883    1.063216    0.480090
     13          1           0        3.422750    1.831632    0.854185
     14          6           0        3.161071   -0.161420   -0.016880
     15          1           0        4.168778   -0.539094   -0.128033
     16         16           0        1.798064   -1.086530   -0.472405
     17          6           0        0.773023    0.223035   -0.002367
 ---------------------------------------------------------------------

 SCF Done:  E(RHF) =  -813.038773029     A.U. after    2 cycles

 The electronic state is 1-A.
 Alpha  occ. eigenvalues --  -93.57688 -15.64492 -15.64062 -11.32425 -11.30874
 Alpha  occ. eigenvalues --  -11.29640 -11.28195 -11.27875 -11.27626 -11.26253
 Alpha  occ. eigenvalues --  -11.26208  -8.87543  -6.21651  -6.21531  -6.21181
 Alpha  occ. eigenvalues --   -1.26104  -1.23310  -1.08468  -1.06225  -1.05025
 Alpha  occ. eigenvalues --   -0.98200  -0.87498  -0.86780  -0.79242  -0.76874
 Alpha  occ. eigenvalues --   -0.70781  -0.68582  -0.67495  -0.64242  -0.59889
 Alpha  occ. eigenvalues --   -0.59281  -0.58258  -0.55550  -0.53902  -0.53182
 Alpha  occ. eigenvalues --   -0.50359  -0.43876  -0.42320  -0.39599  -0.38569
 Alpha  occ. eigenvalues --   -0.36946  -0.32001
 Alpha virt. eigenvalues --    0.03035   0.03537   0.04053   0.05191   0.05394
 Alpha virt. eigenvalues --    0.06429   0.06729   0.08311   0.08871   0.09613
 Alpha virt. eigenvalues --    0.10518   0.11042   0.11281   0.12193   0.12277

 Mulliken charges:
               1
     1  C    0.892796
     2  H   -0.482526
     3  C   -0.414565
     4  H   -0.383926
     5  C    0.890528
     6  H   -0.409484
     7  C    0.518189
     8  H   -0.367046
     9  N   -0.420421
    10  C    0.347942
    11  N   -0.566851
    12  C    0.752960
    13  H   -0.278812
    14  C    0.115076
    15  H   -0.367432
    16  S    0.501713
    17  C   -0.328141
 Sum of Mulliken charges =  -0.00000

 Dipole moment (field-independent basis, Debye):
    X=             -1.0461    Y=              0.3509    Z=             -1.0008  Tot=              1.4897

 Test job not archived.
 1\1\GINC-SE024\SP\RHF\Aug-CC-pVDZ\C8H6N2S1\OHZDE\09-Apr-2025\0\\#t hf
 aug-cc-pvdz iop(5/13=1,5/36=2,99/5=2) pseudo=read geom=check guess=(re
 ad,tcheck) scf=(maxcycle=1)\\title\\0,1\C,0,30.1281,-21.0937,-0.0147\H
 ,0,30.7116,-20.1782,-0.0138\C,0,28.7334,-21.0805,0.0084\H,0,28.1892,-2
 0.14,0.0184\C,0,28.0525,-22.3028,0.0113\H,0,26.9675,-22.3443,0.0277\C,
 0,28.8005,-23.4848,0.0002\H,0,28.3045,-24.4532,0.0105\N,0,30.1444,-23.
 5199,-0.0066\C,0,30.786,-22.334,-0.027\N,0,32.976,-21.6601,0.8764\C,0,
 34.2983,-21.9883,0.766\H,0,35.0284,-21.4866,1.3908\C,0,34.5918,-22.977

 Normal termination of Gaussian 16 at Wed Apr  9 02:26:04 2025.
