 Gaussian 16, Revision C.01,

 ----------------------------------------------------------------------
 #t hf aug-cc-pvdz symm=none int=(grid=ultrafine) guess=(read,tcheck) s
 table=(opt,rrhf)
 ----------------------------------------------------------------------
 -----
 title
 -----
 Symbolic Z-matrix:
 Charge =  0 Multiplicity = 1

 SCF Done:  E(RHF) =  -812.904720196     A.U. after   16 cycles
 Normal termination of Gaussian 16 at Wed Apr  9 02:25:47 2025.
 Gaussian 16:  ES64L-G16RevC.01  3-Jul-2019

 ----------------------------------------------------------------------
 #t hf aug-cc-pvdz iop(5/13=1,5/36=2,99/5=2) pseudo=read geom=check gue
 ss=(read,tcheck) scf=(maxcycle=1)
 ----------------------------------------------------------------------
 -----
 title
 -----
 Structure from the checkpoint file:  "DCONF_56_-160_mol1.chk"
 Charge =  0 Multiplicity = 1

                         Standard orientation:
 ---------------------------------------------------------------------
 Center     Atomic      Atomic             Coordinates (Angstroms)
 Number     Number       Type             X           Y           Z
 ---------------------------------------------------------------------
      1          6           0       -1.481415    1.269065   -0.191740
      2          1           0       -1.000595    2.230582   -0.341204
      3          6           0       -2.868070    1.124727   -0.165811
      4          1           0       -3.514543    1.987112   -0.304957
      5          6           0       -3.409782   -0.151582    0.026706
      6          1           0       -4.483378   -0.311991    0.049409
      7          6           0       -2.534010   -1.229021    0.198019
      8          1           0       -2.918593   -2.234966    0.353096
      9          7           0       -1.196162   -1.109988    0.193606
     10          6           0       -0.689099    0.124692   -0.001139
     11          7           0        1.432592    1.362387    0.208639
     12          6           0        2.778265    1.132076    0.193826
     13          1           0        3.465463    1.955716    0.350902
     14          6           0        3.153391   -0.182691   -0.013469
     15          1           0        4.153608   -0.592629   -0.062058
     16         16           0        1.769218   -1.169334   -0.197333
     17          6           0        0.773312    0.230856    0.003013
 ---------------------------------------------------------------------

 SCF Done:  E(RHF) =  -813.043485230     A.U. after    2 cycles

 The electronic state is 1-A.
 Alpha  occ. eigenvalues --  -93.57619 -15.64461 -15.64020 -11.32347 -11.30840
 Alpha  occ. eigenvalues --  -11.29673 -11.28184 -11.27829 -11.27556 -11.26218
 Alpha  occ. eigenvalues --  -11.26071  -8.87445  -6.21553  -6.21432  -6.21077
 Alpha  occ. eigenvalues --   -1.26119  -1.23344  -1.08484  -1.06265  -1.04908
 Alpha  occ. eigenvalues --   -0.98109  -0.87507  -0.86847  -0.79085  -0.76845
 Alpha  occ. eigenvalues --   -0.70814  -0.68415  -0.67281  -0.64251  -0.59755
 Alpha  occ. eigenvalues --   -0.59125  -0.58242  -0.56048  -0.53691  -0.53233
 Alpha  occ. eigenvalues --   -0.50308  -0.43975  -0.42209  -0.39908  -0.38995
 Alpha  occ. eigenvalues --   -0.37209  -0.31115
 Alpha virt. eigenvalues --    0.03027   0.03544   0.04028   0.05190   0.05404
 Alpha virt. eigenvalues --    0.05454   0.07055   0.08303   0.08960   0.09651
 Alpha virt. eigenvalues --    0.10659   0.11052   0.11763   0.12339   0.12724

 Mulliken charges:
               1
     1  C    0.982613
     2  H   -0.526487
     3  C   -0.281605
     4  H   -0.386065
     5  C    0.848368
     6  H   -0.411725
     7  C    0.482431
     8  H   -0.363670
     9  N   -0.388074
    10  C    0.206965
    11  N   -0.528229
    12  C    0.774004
    13  H   -0.305214
    14  C    0.124462
    15  H   -0.387535
    16  S    0.542651
    17  C   -0.382890
 Sum of Mulliken charges =  -0.00000

 Dipole moment (field-independent basis, Debye):
    X=             -1.0844    Y=              0.3390    Z=             -0.4305  Tot=              1.2150

 Test job not archived.
 1\1\GINC-SE333\SP\RHF\Aug-CC-pVDZ\C8H6N2S1\OHZDE\09-Apr-2025\0\\#t hf
 aug-cc-pvdz iop(5/13=1,5/36=2,99/5=2) pseudo=read geom=check guess=(re
 ad,tcheck) scf=(maxcycle=1)\\title\\0,1\C,0,30.1275,-21.0891,-0.008\H,
 0,30.7127,-20.175,-0.01\C,0,28.7332,-21.0819,0.0059\H,0,28.187,-20.142
 4,0.0074\C,0,28.0524,-22.305,0.002\H,0,26.9675,-22.3476,0.0078\C,0,28.
 8025,-23.4859,-0.0029\H,0,28.308,-24.4551,-0.003\N,0,30.1453,-23.5159,
 0.0009\C,0,30.7871,-22.3295,-0.0036\N,0,33.0301,-21.381,0.3795\C,0,34.
 3423,-21.7532,0.3187\H,0,35.1145,-21.0448,0.5965\C,0,34.5723,-23.0531,

 Normal termination of Gaussian 16 at Wed Apr  9 02:25:57 2025.
