 Gaussian 16, Revision C.01,

 ----------------------------------------------------------------------
 #t hf aug-cc-pvdz symm=none int=(grid=ultrafine) guess=(read,tcheck) s
 table=(opt,rrhf)
 ----------------------------------------------------------------------
 -----
 title
 -----
 Symbolic Z-matrix:
 Charge =  0 Multiplicity = 1

 SCF Done:  E(RHF) =  -774.174211382     A.U. after   16 cycles
 Normal termination of Gaussian 16 at Wed Apr  9 02:21:10 2025.
 Gaussian 16:  ES64L-G16RevC.01  3-Jul-2019

 ----------------------------------------------------------------------
 #t hf aug-cc-pvdz iop(5/13=1,5/36=2,99/5=2) pseudo=read geom=check gue
 ss=(read,tcheck) scf=(maxcycle=1)
 ----------------------------------------------------------------------
 -----
 title
 -----
 Structure from the checkpoint file:  "DCONF_42_-50_mol1.chk"
 Charge =  0 Multiplicity = 1

                         Standard orientation:
 ---------------------------------------------------------------------
 Center     Atomic      Atomic             Coordinates (Angstroms)
 Number     Number       Type             X           Y           Z
 ---------------------------------------------------------------------
      1          6           0       -2.163681   -0.068488   -0.002043
      2          7           0       -0.998471   -0.682877   -0.462005
      3          1           0       -1.156506   -1.451941   -1.102872
      4          7           0        0.640155    1.062843   -0.670269
      5          6           0        1.960329    1.272963   -0.374567
      6          1           0        2.410404    2.232394   -0.600842
      7          6           0        2.631552    0.201043    0.176865
      8          1           0        3.677472    0.129877    0.443714
      9         16           0        1.555439   -1.113522    0.380028
     10          6           0        0.290155   -0.162697   -0.334802
     11          8           0       -3.251914   -0.506731   -0.333441
     12          6           0       -1.971107    1.107994    0.924774
     13          1           0       -1.183842    0.912820    1.657661
     14          1           0       -2.918925    1.296614    1.428098
     15          1           0       -1.675588    1.985789    0.345869
 ---------------------------------------------------------------------

 SCF Done:  E(RHF) =  -774.309239632     A.U. after    2 cycles

 The electronic state is 1-A.
 Alpha  occ. eigenvalues --  -93.59486 -20.55097 -15.67543 -15.65426 -11.38207
 Alpha  occ. eigenvalues --  -11.37659 -11.29898 -11.29101 -11.24821  -8.89358
 Alpha  occ. eigenvalues --   -6.23464  -6.23347  -6.22990  -1.36014  -1.28875
 Alpha  occ. eigenvalues --   -1.20378  -1.07129  -1.01329  -0.99142  -0.84164
 Alpha  occ. eigenvalues --   -0.81852  -0.76907  -0.71793  -0.68869  -0.65234
 Alpha  occ. eigenvalues --   -0.63546  -0.60748  -0.59265  -0.57679  -0.56529
 Alpha  occ. eigenvalues --   -0.53345  -0.52062  -0.45891  -0.45294  -0.43325
 Alpha  occ. eigenvalues --   -0.40556  -0.34503
 Alpha virt. eigenvalues --    0.02810   0.04021   0.04183   0.04631   0.06513
 Alpha virt. eigenvalues --    0.07126   0.08062   0.08434   0.09537   0.09822
 Alpha virt. eigenvalues --    0.10886   0.12056   0.12455   0.12864   0.13148

 Mulliken charges:
               1
     1  C    0.465388
     2  N   -0.389146
     3  H   -0.081508
     4  N   -0.434135
     5  C    0.644885
     6  H   -0.272604
     7  C    0.157084
     8  H   -0.363302
     9  S    0.591936
    10  C   -0.134324
    11  O   -0.530832
    12  C    0.289305
    13  H    0.048715
    14  H   -0.108979
    15  H    0.117516
 Sum of Mulliken charges =  -0.00000

 Dipole moment (field-independent basis, Debye):
    X=              4.5754    Y=              0.4139    Z=              1.2130  Tot=              4.7515

 Test job not archived.
 1\1\GINC-SE273\SP\RHF\Aug-CC-pVDZ\C5H6N2O1S1\OHZDE\09-Apr-2025\0\\#t h
 f aug-cc-pvdz iop(5/13=1,5/36=2,99/5=2) pseudo=read geom=check guess=(
 read,tcheck) scf=(maxcycle=1)\\title\\0,1\C,0,28.2953,-17.1239,-0.9192
 \N,0,29.3164,-16.8446,-0.0103\H,0,29.0251,-16.2945,0.7895\N,0,30.7458,
 -18.7766,0.0036\C,0,32.0843,-19.0641,-0.011\H,0,32.4066,-20.0987,-0.01
 22\C,0,32.9336,-17.9769,0.0068\H,0,34.0147,-17.9708,0.0443\S,0,32.0215
 ,-16.5294,-0.0071\C,0,30.5628,-17.4715,0.0181\O,0,27.1807,-16.664,-0.7
 395\C,0,28.6789,-17.9751,-2.106\H,0,29.6468,-17.6743,-2.5155\H,0,27.89

 Normal termination of Gaussian 16 at Wed Apr  9 02:21:26 2025.
