 Gaussian 16, Revision C.01,

 ----------------------------------------------------------------------
 #t hf aug-cc-pvdz symm=none int=(grid=ultrafine) guess=(read,tcheck) s
 table=(opt,rrhf)
 ----------------------------------------------------------------------
 -----
 title
 -----
 Symbolic Z-matrix:
 Charge =  0 Multiplicity = 1

 SCF Done:  E(RHF) =  -719.111153199     A.U. after   16 cycles
 Normal termination of Gaussian 16 at Wed Apr  9 02:18:37 2025.
 Gaussian 16:  ES64L-G16RevC.01  3-Jul-2019

 ----------------------------------------------------------------------
 #t hf aug-cc-pvdz iop(5/13=1,5/36=2,99/5=2) pseudo=read geom=check gue
 ss=(read,tcheck) scf=(maxcycle=1)
 ----------------------------------------------------------------------
 -----
 title
 -----
 Structure from the checkpoint file:  "DCONF_28_-150_mol1.chk"
 Charge =  0 Multiplicity = 1

                         Standard orientation:
 ---------------------------------------------------------------------
 Center     Atomic      Atomic             Coordinates (Angstroms)
 Number     Number       Type             X           Y           Z
 ---------------------------------------------------------------------
      1          8           0       -2.218825    1.258053   -0.372654
      2          6           0       -2.273355   -1.026708    0.378446
      3          1           0       -2.025129   -1.233102    1.424266
      4          1           0       -3.353079   -0.922508    0.266646
      5          1           0       -1.923443   -1.876108   -0.217784
      6          6           0       -1.599941    0.257456   -0.055837
      7          7           0        0.607693    1.368200    0.197911
      8          6           0        1.936992    1.077632    0.208199
      9          1           0        2.657972    1.869203    0.378069
     10          6           0        2.265610   -0.251473    0.000323
     11          1           0        3.247743   -0.702643   -0.049349
     12         16           0        0.845413   -1.171584   -0.203573
     13          6           0       -0.101625    0.271204   -0.022603
 ---------------------------------------------------------------------

 SCF Done:  E(RHF) =  -719.228419837     A.U. after    2 cycles

 The electronic state is 1-A.
 Alpha  occ. eigenvalues --  -93.59897 -20.57790 -15.65968 -11.36710 -11.33487
 Alpha  occ. eigenvalues --  -11.29852 -11.29708 -11.26068  -8.89765  -6.23873
 Alpha  occ. eigenvalues --   -6.23756  -6.23408  -1.36303  -1.26816  -1.07309
 Alpha  occ. eigenvalues --   -1.05124  -0.99490  -0.86118  -0.80558  -0.73084
 Alpha  occ. eigenvalues --   -0.70828  -0.64963  -0.64149  -0.62790  -0.58592
 Alpha  occ. eigenvalues --   -0.57890  -0.56737  -0.52485  -0.51582  -0.46075
 Alpha  occ. eigenvalues --   -0.43814  -0.40437  -0.35512
 Alpha virt. eigenvalues --    0.02833   0.03606   0.04508   0.04699   0.05745
 Alpha virt. eigenvalues --    0.06275   0.08209   0.09324   0.10221   0.11377
 Alpha virt. eigenvalues --    0.11671   0.12040   0.12675   0.13103   0.14160

 Mulliken charges:
               1
     1  O   -0.517259
     2  C    0.387680
     3  H    0.073121
     4  H   -0.105542
     5  H    0.046107
     6  C    0.038465
     7  N   -0.537842
     8  C    0.723352
     9  H   -0.255465
    10  C    0.096570
    11  H   -0.363587
    12  S    0.562965
    13  C   -0.148565
 Sum of Mulliken charges =  -0.00000

 Dipole moment (field-independent basis, Debye):
    X=              2.6710    Y=             -4.0991    Z=              0.8366  Tot=              4.9635

 Test job not archived.
 1\1\GINC-SE459\SP\RHF\Aug-CC-pVDZ\C5H5N1O1S1\OHZDE\09-Apr-2025\0\\#t h
 f aug-cc-pvdz iop(5/13=1,5/36=2,99/5=2) pseudo=read geom=check guess=(
 read,tcheck) scf=(maxcycle=1)\\title\\0,1\O,0,21.2276,-18.5269,0.4391\
 C,0,21.6994,-16.4451,-0.6703\H,0,21.9885,-16.4756,-1.7255\H,0,20.6246,
 -16.2821,-0.5843\H,0,22.235,-15.6107,-0.2052\C,0,22.0598,-17.7588,-0.0
 104\N,0,23.9533,-19.367,0.0013\C,0,25.3138,-19.3909,-0.005\H,0,25.8337
 ,-20.3421,-0.0182\C,0,25.9389,-18.1552,-0.0007\H,0,26.9984,-17.9364,0.
 0132\S,0,24.768,-16.9166,-0.0011\C,0,23.5149,-18.1169,0.0159\\Version=

 Normal termination of Gaussian 16 at Wed Apr  9 02:18:42 2025.
