 Gaussian 16, Revision C.01,

 ----------------------------------------------------------------------
 #t hf aug-cc-pvdz symm=none int=(grid=ultrafine) guess=(read,tcheck) s
 table=(opt,rrhf)
 ----------------------------------------------------------------------
 -----
 title
 -----
 Symbolic Z-matrix:
 Charge =  0 Multiplicity = 1

 SCF Done:  E(RHF) =  -758.167403540     A.U. after   15 cycles
 Normal termination of Gaussian 16 at Wed Apr  9 02:20:42 2025.
 Gaussian 16:  ES64L-G16RevC.01  3-Jul-2019

 ----------------------------------------------------------------------
 #t hf aug-cc-pvdz iop(5/13=1,5/36=2,99/5=2) pseudo=read geom=check gue
 ss=(read,tcheck) scf=(maxcycle=1)
 ----------------------------------------------------------------------
 -----
 title
 -----
 Structure from the checkpoint file:  "DCONF_38_-100_mol1.chk"
 Charge =  0 Multiplicity = 1

                         Standard orientation:
 ---------------------------------------------------------------------
 Center     Atomic      Atomic             Coordinates (Angstroms)
 Number     Number       Type             X           Y           Z
 ---------------------------------------------------------------------
      1          6           0       -2.157796    0.048674   -0.010230
      2          7           0       -1.054884    0.260212   -0.827497
      3          1           0       -1.262890    0.274721   -1.819514
      4          6           0        1.071273    1.385575   -0.151361
      5          1           0        0.684845    2.395329   -0.239107
      6          6           0        2.390737    1.041430    0.235527
      7          1           0        3.164190    1.758013    0.488418
      8          6           0        2.593836   -0.327260    0.258486
      9          1           0        3.498384   -0.860612    0.520946
     10         16           0        1.186823   -1.191162   -0.195600
     11          6           0        0.284901    0.274582   -0.406159
     12          8           0       -3.276902   -0.042178   -0.489109
     13          6           0       -1.864679   -0.047819    1.471191
     14          1           0       -1.188858    0.746889    1.795341
     15          1           0       -1.384331   -1.004945    1.695678
     16          1           0       -2.810729    0.014044    2.008455
 ---------------------------------------------------------------------

 SCF Done:  E(RHF) =  -758.298850262     A.U. after    2 cycles

 The electronic state is 1-A.
 Alpha  occ. eigenvalues --  -93.57958 -20.54261 -15.66502 -11.37432 -11.32372
 Alpha  occ. eigenvalues --  -11.28956 -11.26662 -11.26521 -11.24778  -8.87807
 Alpha  occ. eigenvalues --   -6.21933  -6.21799  -6.21461  -1.35080  -1.22822
 Alpha  occ. eigenvalues --   -1.15443  -1.00682  -0.99711  -0.97610  -0.82220
 Alpha  occ. eigenvalues --   -0.77987  -0.76576  -0.72030  -0.68203  -0.63890
 Alpha  occ. eigenvalues --   -0.62635  -0.59467  -0.58046  -0.56770  -0.56386
 Alpha  occ. eigenvalues --   -0.53683  -0.52639  -0.49384  -0.44804  -0.40869
 Alpha  occ. eigenvalues --   -0.36393  -0.34107
 Alpha virt. eigenvalues --    0.02894   0.03836   0.04355   0.04537   0.05746
 Alpha virt. eigenvalues --    0.06645   0.07296   0.08422   0.09009   0.09777
 Alpha virt. eigenvalues --    0.11167   0.12074   0.12554   0.13082   0.13217

 Mulliken charges:
               1
     1  C    0.383560
     2  N   -0.564320
     3  H   -0.081256
     4  C    0.390450
     5  H   -0.429065
     6  C    0.235913
     7  H   -0.299648
     8  C   -0.029116
     9  H   -0.332336
    10  S    0.770237
    11  C    0.207601
    12  O   -0.532282
    13  C    0.238235
    14  H    0.056204
    15  H    0.085001
    16  H   -0.099178
 Sum of Mulliken charges =  -0.00000

 Dipole moment (field-independent basis, Debye):
    X=              4.3784    Y=              0.8958    Z=              1.2592  Tot=              4.6431

 Test job not archived.
 1\1\GINC-SE116\SP\RHF\Aug-CC-pVDZ\C6H7N1O1S1\OHZDE\09-Apr-2025\0\\#t h
 f aug-cc-pvdz iop(5/13=1,5/36=2,99/5=2) pseudo=read geom=check guess=(
 read,tcheck) scf=(maxcycle=1)\\title\\0,1\C,0,28.752,-4.237,-1.0809\N,
 0,29.4395,-4.7231,0.0237\H,0,28.9909,-4.5376,0.9136\C,0,31.0802,-6.607
 8,0.0113\H,0,30.3328,-7.3939,0.003\C,0,32.4834,-6.8081,0.0151\H,0,32.9
 661,-7.779,0.0098\C,0,33.1865,-5.6162,0.0257\H,0,34.26,-5.4778,0.0253\
 S,0,32.144,-4.2578,0.038\C,0,30.7344,-5.2669,0.0072\O,0,27.6671,-3.693
 8,-0.9471\C,0,29.4346,-4.4385,-2.4163\H,0,29.8196,-5.4559,-2.5165\H,0,

 Normal termination of Gaussian 16 at Wed Apr  9 02:20:50 2025.
