 Gaussian 16, Revision C.01,

 ----------------------------------------------------------------------
 #t hf aug-cc-pvdz symm=none int=(grid=ultrafine) guess=(read,tcheck) s
 table=(opt,rrhf)
 ----------------------------------------------------------------------
 -----
 title
 -----
 Symbolic Z-matrix:
 Charge =  0 Multiplicity = 1

 SCF Done:  E(RHF) =  -703.117314911     A.U. after   16 cycles
 Normal termination of Gaussian 16 at Wed Apr  9 02:18:51 2025.
 Gaussian 16:  ES64L-G16RevC.01  3-Jul-2019

 ----------------------------------------------------------------------
 #t hf aug-cc-pvdz iop(5/13=1,5/36=2,99/5=2) pseudo=read geom=check gue
 ss=(read,tcheck) scf=(maxcycle=1)
 ----------------------------------------------------------------------
 -----
 title
 -----
 Structure from the checkpoint file:  "DCONF_24_-160_mol1.chk"
 Charge =  0 Multiplicity = 1

                         Standard orientation:
 ---------------------------------------------------------------------
 Center     Atomic      Atomic             Coordinates (Angstroms)
 Number     Number       Type             X           Y           Z
 ---------------------------------------------------------------------
      1          8           0       -2.222984    1.305833   -0.206676
      2          6           0       -2.316021   -1.052111    0.236947
      3          1           0       -1.961669   -1.840031   -0.435435
      4          1           0       -3.390997   -0.917280    0.112957
      5          1           0       -2.100903   -1.369556    1.262382
      6          6           0       -1.611478    0.258274   -0.043865
      7          6           0        0.682031    1.371737    0.099115
      8          1           0        0.263557    2.368961    0.178639
      9          6           0        2.056671    1.049945    0.130589
     10          1           0        2.857948    1.772817    0.236925
     11          6           0        2.280349   -0.313856    0.018413
     12          1           0        3.228646   -0.835823   -0.005321
     13         16           0        0.818971   -1.188487   -0.125524
     14          6           0       -0.127594    0.251017   -0.055925
 ---------------------------------------------------------------------

 SCF Done:  E(RHF) =  -703.231544719     A.U. after    2 cycles

 The electronic state is 1-A.
 Alpha  occ. eigenvalues --  -93.58346 -20.56164 -11.35686 -11.29592 -11.28213
 Alpha  occ. eigenvalues --  -11.27008 -11.26493 -11.25087  -8.88196  -6.22327
 Alpha  occ. eigenvalues --   -6.22193  -6.21841  -1.34794  -1.17864  -1.03681
 Alpha  occ. eigenvalues --   -0.99828  -0.98072  -0.83920  -0.77557  -0.72696
 Alpha  occ. eigenvalues --   -0.70219  -0.63611  -0.62631  -0.61543  -0.58015
 Alpha  occ. eigenvalues --   -0.56216  -0.54574  -0.53942  -0.51024  -0.49029
 Alpha  occ. eigenvalues --   -0.43995  -0.36304  -0.34259
 Alpha virt. eigenvalues --    0.03078   0.03981   0.04383   0.04926   0.06100
 Alpha virt. eigenvalues --    0.06266   0.06571   0.09097   0.09883   0.10921
 Alpha virt. eigenvalues --    0.11730   0.12666   0.12929   0.13473   0.13734

 Mulliken charges:
               1
     1  O   -0.552764
     2  C    0.403552
     3  H    0.054819
     4  H   -0.106635
     5  H    0.083305
     6  C   -0.288809
     7  C    0.180394
     8  H   -0.422546
     9  C    0.376270
    10  H   -0.300613
    11  C   -0.123113
    12  H   -0.359302
    13  S    0.823927
    14  C    0.231516
 Sum of Mulliken charges =  -0.00000

 Dipole moment (field-independent basis, Debye):
    X=              2.6967    Y=             -2.1995    Z=              0.7139  Tot=              3.5524

 Test job not archived.
 1\1\GINC-SE165\SP\RHF\Aug-CC-pVDZ\C6H6O1S1\OHZDE\09-Apr-2025\0\\#t hf
 aug-cc-pvdz iop(5/13=1,5/36=2,99/5=2) pseudo=read geom=check guess=(re
 ad,tcheck) scf=(maxcycle=1)\\title\\0,1\O,0,21.0489,-6.0614,0.2076\C,0
 ,21.5638,-3.809,-0.4458\H,0,22.1007,-3.0766,0.1656\H,0,20.4888,-3.6555
 ,-0.3461\H,0,21.8625,-3.6541,-1.4876\C,0,21.9086,-5.2225,-0.0269\C,0,2
 3.8441,-6.8878,0.0054\H,0,23.1862,-7.7498,0.0006\C,0,25.2556,-6.9283,-
 0.0088\H,0,25.8473,-7.8369,-0.0241\C,0,25.8182,-5.661,-0.0104\H,0,26.8
 679,-5.3958,-0.0015\S,0,24.6265,-4.4359,0.007\C,0,23.3452,-5.5894,0.03

 Normal termination of Gaussian 16 at Wed Apr  9 02:19:01 2025.
