 Gaussian 16, Revision C.01,

 ----------------------------------------------------------------------
 #t hf aug-cc-pvdz symm=none int=(grid=ultrafine) guess=(read,tcheck) s
 table=(opt,rrhf)
 ----------------------------------------------------------------------
 -----
 title
 -----
 Symbolic Z-matrix:
 Charge =  0 Multiplicity = 1

 SCF Done:  E(RHF) =  -911.018331183     A.U. after   16 cycles
 Normal termination of Gaussian 16 at Wed Apr  9 02:22:12 2025.
 Gaussian 16:  ES64L-G16RevC.01  3-Jul-2019

 ----------------------------------------------------------------------
 #t hf aug-cc-pvdz iop(5/13=1,5/36=2,99/5=2) pseudo=read geom=check gue
 ss=(read,tcheck) scf=(maxcycle=1)
 ----------------------------------------------------------------------
 -----
 title
 -----
 Structure from the checkpoint file:  "DCONF_30_-120_mol1.chk"
 Charge =  0 Multiplicity = 1

                         Standard orientation:
 ---------------------------------------------------------------------
 Center     Atomic      Atomic             Coordinates (Angstroms)
 Number     Number       Type             X           Y           Z
 ---------------------------------------------------------------------
      1          6           0       -2.886476   -0.853911    0.507368
      2          1           0       -3.566984   -1.612747    0.883801
      3          6           0       -1.538482   -1.171999    0.306500
      4          1           0       -1.149322   -2.161345    0.526805
      5          6           0       -0.672742   -0.185501   -0.178771
      6         16           0        1.034333   -0.607793   -0.494643
      7          7           0        1.942748    0.390376    0.489233
      8          6           0        1.692599    0.231193    1.924075
      9          1           0        1.647450   -0.828900    2.174704
     10          1           0        0.761051    0.728625    2.234279
     11          1           0        2.530738    0.683024    2.461130
     12          6           0        2.110855    1.788482    0.091750
     13          1           0        2.193719    1.854853   -0.993230
     14          1           0        3.042296    2.149545    0.537119
     15          1           0        1.284694    2.419312    0.450523
     16          6           0       -1.141625    1.092975   -0.511228
     17          1           0       -0.476102    1.823431   -0.960341
     18          6           0       -2.489305    1.400066   -0.297742
     19          1           0       -2.861465    2.389370   -0.549597
     20          6           0       -3.361245    0.430158    0.213939
     21          1           0       -4.409084    0.671201    0.370014
     22          8           0        1.341944   -0.226587   -1.863000
     23          8           0        1.229677   -1.962549   -0.009613
 ---------------------------------------------------------------------

 SCF Done:  E(RHF) =  -911.249824700     A.U. after    2 cycles

 The electronic state is 1-A.
 Alpha  occ. eigenvalues --  -93.80056 -20.55762 -20.55692 -15.66491 -11.28962
 Alpha  occ. eigenvalues --  -11.28265 -11.28088 -11.28083 -11.27666 -11.27600
 Alpha  occ. eigenvalues --  -11.27181 -11.26990  -9.06348  -6.41014  -6.40874
 Alpha  occ. eigenvalues --   -6.40744  -1.42516  -1.30517  -1.21953  -1.16905
 Alpha  occ. eigenvalues --   -1.04996  -1.03595  -0.97756  -0.94683  -0.87160
 Alpha  occ. eigenvalues --   -0.85618  -0.79348  -0.73869  -0.71496  -0.68815
 Alpha  occ. eigenvalues --   -0.67559  -0.65537  -0.65283  -0.63776  -0.61946
 Alpha  occ. eigenvalues --   -0.61728  -0.58426  -0.57174  -0.55555  -0.54301
 Alpha  occ. eigenvalues --   -0.53478  -0.52603  -0.51579  -0.51405  -0.49115
 Alpha  occ. eigenvalues --   -0.47363  -0.40816  -0.36780  -0.36377
 Alpha virt. eigenvalues --    0.02556   0.03351   0.03695   0.04787   0.05038
 Alpha virt. eigenvalues --    0.05812   0.06761   0.06933   0.07307   0.07896
 Alpha virt. eigenvalues --    0.08385   0.08926   0.09281   0.10451   0.11572

 Mulliken charges:
               1
     1  C    0.635464
     2  H   -0.438957
     3  C   -0.045448
     4  H   -0.570544
     5  C    0.586756
     6  S    2.756717
     7  N   -1.152795
     8  C    0.659490
     9  H   -0.155209
    10  H   -0.043241
    11  H   -0.168429
    12  C    0.768540
    13  H   -0.154904
    14  H   -0.196009
    15  H   -0.005979
    16  C   -0.089347
    17  H   -0.557409
    18  C    0.556271
    19  H   -0.465893
    20  C    0.639439
    21  H   -0.440716
    22  O   -1.065813
    23  O   -1.051983
 Sum of Mulliken charges =  -0.00000

 Dipole moment (field-independent basis, Debye):
    X=             -3.1593    Y=              4.0328    Z=              3.5577  Tot=              6.2371

 Test job not archived.
 1\1\GINC-SE365\SP\RHF\Aug-CC-pVDZ\C8H11N1O2S1\OHZDE\09-Apr-2025\0\\#t
 hf aug-cc-pvdz iop(5/13=1,5/36=2,99/5=2) pseudo=read geom=check guess=
 (read,tcheck) scf=(maxcycle=1)\\title\\0,1\C,0,3.9183,-2.1649,0.3337\H
 ,0,4.625,-2.0528,1.1514\C,0,2.7039,-1.4702,0.3689\H,0,2.4428,-0.8244,1
 .2017\C,0,1.8027,-1.6234,-0.6906\S,0,0.2799,-0.689,-0.6768\N,0,-0.9506
 ,-1.8183,-0.6879\C,0,-0.9625,-2.7248,0.4631\H,0,-0.7979,-2.1582,1.3799
 \H,0,-0.2011,-3.5141,0.3697\H,0,-1.9505,-3.1902,0.5112\C,0,-1.2597,-2.
 4938,-1.9485\H,0,-1.1392,-1.797,-2.7782\H,0,-2.3056,-2.811,-1.9063\H,0

 Normal termination of Gaussian 16 at Wed Apr  9 02:22:28 2025.
