 Gaussian 16, Revision C.01,

 ----------------------------------------------------------------------
 #t hf aug-cc-pvdz symm=none int=(grid=ultrafine) guess=(read,tcheck) s
 table=(opt,rrhf)
 ----------------------------------------------------------------------
 -----
 title
 -----
 Symbolic Z-matrix:
 Charge =  0 Multiplicity = 1

 SCF Done:  E(RHF) =  -812.905918479     A.U. after   16 cycles
 Normal termination of Gaussian 16 at Wed Apr  9 02:26:22 2025.
 Gaussian 16:  ES64L-G16RevC.01  3-Jul-2019

 ----------------------------------------------------------------------
 #t hf aug-cc-pvdz iop(5/13=1,5/36=2,99/5=2) pseudo=read geom=check gue
 ss=(read,tcheck) scf=(maxcycle=1)
 ----------------------------------------------------------------------
 -----
 title
 -----
 Structure from the checkpoint file:  "DCONF_56_0_mol2.chk"
 Charge =  0 Multiplicity = 1

                         Standard orientation:
 ---------------------------------------------------------------------
 Center     Atomic      Atomic             Coordinates (Angstroms)
 Number     Number       Type             X           Y           Z
 ---------------------------------------------------------------------
      1          6           0       -1.485517    1.288355    0.000515
      2          1           0       -1.007823    2.262877    0.000737
      3          6           0       -2.871500    1.136202    0.000244
      4          1           0       -3.520668    2.007620    0.000175
      5          6           0       -3.409728   -0.156079   -0.000129
      6          1           0       -4.482925   -0.321425   -0.000337
      7          6           0       -2.530173   -1.243885   -0.000125
      8          1           0       -2.911098   -2.263174   -0.000166
      9          7           0       -1.193308   -1.120054   -0.000053
     10          6           0       -0.688816    0.130756    0.000316
     11          7           0        1.438982    1.380317   -0.000699
     12          6           0        2.783461    1.145516   -0.000093
     13          1           0        3.474868    1.980460   -0.000020
     14          6           0        3.152362   -0.186969    0.000624
     15          1           0        4.151219   -0.603326    0.001136
     16         16           0        1.764580   -1.185631    0.000001
     17          6           0        0.773815    0.233643   -0.000731
 ---------------------------------------------------------------------

 SCF Done:  E(RHF) =  -813.044662385     A.U. after    2 cycles

 The electronic state is 1-A.
 Alpha  occ. eigenvalues --  -93.57591 -15.64456 -15.64007 -11.32346 -11.30850
 Alpha  occ. eigenvalues --  -11.29681 -11.28173 -11.27814 -11.27524 -11.26212
 Alpha  occ. eigenvalues --  -11.26038  -8.87408  -6.21517  -6.21395  -6.21036
 Alpha  occ. eigenvalues --   -1.26121  -1.23363  -1.08489  -1.06265  -1.04869
 Alpha  occ. eigenvalues --   -0.98094  -0.87509  -0.86862  -0.79043  -0.76840
 Alpha  occ. eigenvalues --   -0.70826  -0.68376  -0.67226  -0.64262  -0.59727
 Alpha  occ. eigenvalues --   -0.59048  -0.58279  -0.56178  -0.53639  -0.53255
 Alpha  occ. eigenvalues --   -0.50298  -0.43969  -0.42125  -0.40023  -0.39136
 Alpha  occ. eigenvalues --   -0.37221  -0.30926
 Alpha virt. eigenvalues --    0.03009   0.03535   0.04013   0.05162   0.05175
 Alpha virt. eigenvalues --    0.05448   0.07169   0.08331   0.08916   0.09939
 Alpha virt. eigenvalues --    0.10462   0.11533   0.11618   0.12405   0.12536

 Mulliken charges:
               1
     1  C    1.041927
     2  H   -0.549427
     3  C   -0.232281
     4  H   -0.394132
     5  C    0.843835
     6  H   -0.414766
     7  C    0.464406
     8  H   -0.369470
     9  N   -0.368244
    10  C    0.124087
    11  N   -0.480473
    12  C    0.797636
    13  H   -0.327477
    14  C    0.145025
    15  H   -0.408920
    16  S    0.554600
    17  C   -0.426325
 Sum of Mulliken charges =   0.00000

 Dipole moment (field-independent basis, Debye):
    X=             -1.1003    Y=              0.3387    Z=              0.0012  Tot=              1.1512

 Test job not archived.
 1\1\GINC-SE108\SP\RHF\Aug-CC-pVDZ\C8H6N2S1\OHZDE\09-Apr-2025\0\\#t hf
 aug-cc-pvdz iop(5/13=1,5/36=2,99/5=2) pseudo=read geom=check guess=(re
 ad,tcheck) scf=(maxcycle=1)\\title\\0,1\C,0,30.1268,-21.0878,0.0003\H,
 0,30.7114,-20.1734,0.0004\C,0,28.7325,-21.0826,-0.0001\H,0,28.1858,-20
 .1435,-0.0004\C,0,28.0519,-22.3059,-0.0003\H,0,26.9669,-22.3491,-0.000
 6\C,0,28.8031,-23.486,0.\H,0,28.3096,-24.4558,0.0001\N,0,30.1454,-23.5
 138,0.0002\C,0,30.7878,-22.3279,0.0004\N,0,33.043,-21.3264,-0.0006\C,0
 ,34.3524,-21.7114,0.0002\H,0,35.1336,-20.9598,0.0002\C,0,34.5686,-23.0

 Normal termination of Gaussian 16 at Wed Apr  9 02:26:32 2025.
