 Gaussian 16, Revision C.01,

 ----------------------------------------------------------------------
 #t hf aug-cc-pvdz symm=none int=(grid=ultrafine) guess=(read,tcheck) s
 table=(opt,rrhf)
 ----------------------------------------------------------------------
 -----
 title
 -----
 Symbolic Z-matrix:
 Charge =  0 Multiplicity = 1

 SCF Done:  E(RHF) =  -1153.55011722     A.U. after   15 cycles
 Normal termination of Gaussian 16 at Wed Apr  9 02:19:57 2025.
 Gaussian 16:  ES64L-G16RevC.01  3-Jul-2019

 ----------------------------------------------------------------------
 #t hf aug-cc-pvdz iop(5/13=1,5/36=2,99/5=2) pseudo=read geom=check gue
 ss=(read,tcheck) scf=(maxcycle=1)
 ----------------------------------------------------------------------
 -----
 title
 -----
 Structure from the checkpoint file:  "DCONF_29_90_mol1.chk"
 Charge =  0 Multiplicity = 1

                         Standard orientation:
 ---------------------------------------------------------------------
 Center     Atomic      Atomic             Coordinates (Angstroms)
 Number     Number       Type             X           Y           Z
 ---------------------------------------------------------------------
      1          6           0       -2.739972   -0.120908    0.076344
      2          1           0       -3.751476   -0.503446    0.119272
      3          6           0       -2.322236    1.199430    0.051465
      4          1           0       -2.982594    2.058397    0.075438
      5          7           0       -0.973288    1.387422   -0.020599
      6          6           0       -0.370140    0.214568   -0.042978
      7         16           0       -1.394830   -1.169583   -0.005843
      8         16           0        1.401713    0.026799   -0.178958
      9          6           0        1.917927    0.024406    1.526079
     10          1           0        1.446398   -0.817591    2.033903
     11          1           0        3.003749   -0.094222    1.515954
     12          1           0        1.639917    0.978603    1.975911
     13          8           0        1.604754   -1.320527   -0.704786
     14          8           0        1.949423    1.201260   -0.830829
 ---------------------------------------------------------------------

 SCF Done:  E(RHF) =  -1153.75295588     A.U. after    2 cycles

 The electronic state is 1-A.
 Alpha  occ. eigenvalues --  -93.79989 -93.61321 -20.56793 -20.56788 -15.67960
 Alpha  occ. eigenvalues --  -11.35689 -11.31015 -11.30893 -11.29594  -9.06625
 Alpha  occ. eigenvalues --   -8.91104  -6.41256  -6.41077  -6.40997  -6.25195
 Alpha  occ. eigenvalues --   -6.25075  -6.24729  -1.42629  -1.31220  -1.28676
 Alpha  occ. eigenvalues --   -1.08594  -1.06628  -1.02159  -0.89176  -0.82261
 Alpha  occ. eigenvalues --   -0.76885  -0.72962  -0.68784  -0.67481  -0.66459
 Alpha  occ. eigenvalues --   -0.62110  -0.61592  -0.60787  -0.58484  -0.53895
 Alpha  occ. eigenvalues --   -0.52497  -0.52324  -0.49977  -0.48657  -0.45228
 Alpha  occ. eigenvalues --   -0.41687  -0.37159
 Alpha virt. eigenvalues --    0.02524   0.03514   0.04159   0.04815   0.06004
 Alpha virt. eigenvalues --    0.06142   0.07844   0.09728   0.10138   0.10739
 Alpha virt. eigenvalues --    0.11088   0.11565   0.12818   0.13243   0.13299

 Mulliken charges:
               1
     1  C    0.184892
     2  H   -0.354268
     3  C    0.732185
     4  H   -0.270523
     5  N   -0.546728
     6  C   -0.660304
     7  S    0.510476
     8  S    2.592529
     9  C   -0.027102
    10  H    0.010910
    11  H    0.020006
    12  H    0.009500
    13  O   -1.114656
    14  O   -1.086918
 Sum of Mulliken charges =  -0.00000

 Dipole moment (field-independent basis, Debye):
    X=             -3.9518    Y=             -0.7998    Z=              4.4329  Tot=              5.9923

 Test job not archived.
 1\1\GINC-SE253\SP\RHF\Aug-CC-pVDZ\C4H5N1O2S2\OHZDE\09-Apr-2025\0\\#t h
 f aug-cc-pvdz iop(5/13=1,5/36=2,99/5=2) pseudo=read geom=check guess=(
 read,tcheck) scf=(maxcycle=1)\\title\\0,1\C,0,2.028,-24.6253,-0.8948\H
 ,0,0.9752,-24.6342,-1.1455\C,0,2.8162,-25.6792,-0.463\H,0,2.4665,-26.6
 944,-0.3162\N,0,4.1191,-25.3704,-0.2036\C,0,4.3199,-24.0892,-0.4446\S,
 0,2.948,-23.1886,-0.9681\S,0,5.8908,-23.2781,-0.1846\C,0,6.6936,-23.48
 51,-1.7614\H,0,6.0923,-22.9951,-2.5279\H,0,7.669,-23.0014,-1.673\H,0,6
 .8102,-24.5522,-1.9559\O,0,5.5699,-21.8613,-0.0339\O,0,6.6375,-24.0122

 Normal termination of Gaussian 16 at Wed Apr  9 02:20:04 2025.
