 Gaussian 16, Revision C.01,

 ----------------------------------------------------------------------
 #t hf aug-cc-pvdz symm=none int=(grid=ultrafine) guess=(read,tcheck) s
 table=(opt,rrhf)
 ----------------------------------------------------------------------
 -----
 title
 -----
 Symbolic Z-matrix:
 Charge =  0 Multiplicity = 1

 SCF Done:  E(RHF) =  -559.155028160     A.U. after   17 cycles

 1\1\GINC-SE051\Stability\RHF\Aug-CC-pVDZ\C12H9F1\OHZDE\09-Apr-2025\0\\
 #t hf aug-cc-pvdz symm=none int=(grid=ultrafine) guess=(read,tcheck) s
 table=(opt,rrhf)\\title\\0,1\C,0,12.8424,-32.1003,0.0828\H,0,13.403,-3
 1.1708,0.0674\C,0,11.4485,-32.034,0.1472\H,0,10.9606,-31.0637,0.1917\C
 ,0,10.6845,-33.2053,0.0972\H,0,9.5997,-33.1579,0.1384\C,0,11.338,-34.4
 378,0.0031\H,0,10.7612,-35.3576,-0.0501\C,0,12.7341,-34.5052,-0.0611\H
 ,0,13.2044,-35.4774,-0.1223\C,0,13.5211,-33.338,0.0395\C,0,17.1447,-32
 .2323,0.4524\H,0,17.6646,-31.3678,0.8549\C,0,15.7493,-32.2607,0.454\H,

 Normal termination of Gaussian 16 at Wed Apr  9 02:26:16 2025.
 Gaussian 16:  ES64L-G16RevC.01  3-Jul-2019

 ----------------------------------------------------------------------
 #t hf aug-cc-pvdz iop(5/13=1,5/36=2,99/5=2) pseudo=read geom=check gue
 ss=(read,tcheck) scf=(maxcycle=1)
 ----------------------------------------------------------------------
 -----
 title
 -----
 Structure from the checkpoint file:  "DCONF_47_10_mol1.chk"
 Charge =  0 Multiplicity = 1

                         Standard orientation:
 ---------------------------------------------------------------------
 Center     Atomic      Atomic             Coordinates (Angstroms)
 Number     Number       Type             X           Y           Z
 ---------------------------------------------------------------------
      1          6           0       -1.597885   -1.289394    0.268838
      2          1           0       -1.095531   -2.213243    0.538323
      3          6           0       -2.994581   -1.275503    0.245396
      4          1           0       -3.542645   -2.183440    0.483695
      5          6           0       -3.682766   -0.087882   -0.026812
      6          1           0       -4.769189   -0.070548   -0.037687
      7          6           0       -2.951694    1.073647   -0.293940
      8          1           0       -3.468557    2.008593   -0.494658
      9          6           0       -1.552743    1.060603   -0.271031
     10          1           0       -1.021570    1.976255   -0.493602
     11          6           0       -0.843021   -0.138885   -0.048838
     12          6           0        2.689913   -1.561486   -0.183446
     13          1           0        3.141971   -2.537736   -0.332586
     14          6           0        1.299628   -1.439195   -0.173386
     15          1           0        0.702192   -2.331915   -0.325799
     16          6           0        0.640543   -0.204766    0.032631
     17          6           0        1.492068    0.913522    0.101211
     18          6           0        2.881658    0.824783    0.091772
     19          1           0        3.458154    1.740083    0.184802
     20          6           0        3.491720   -0.420722   -0.067621
     21          1           0        4.574933   -0.496636   -0.084621
     22          9           0        0.975910    2.153363    0.279277
 ---------------------------------------------------------------------

 SCF Done:  E(RHF) =  -559.321299612     A.U. after    2 cycles

 The electronic state is 1-A.
 Alpha  occ. eigenvalues --  -26.13738 -11.34595 -11.27288 -11.26560 -11.26257
 Alpha  occ. eigenvalues --  -11.26109 -11.25800 -11.25433 -11.25093 -11.24985
 Alpha  occ. eigenvalues --  -11.24890 -11.24781 -11.24640  -1.67674  -1.16704
 Alpha  occ. eigenvalues --   -1.13819  -1.05701  -1.02608  -1.00991  -0.98916
 Alpha  occ. eigenvalues --   -0.87576  -0.87046  -0.83015  -0.81486  -0.76488
 Alpha  occ. eigenvalues --   -0.75297  -0.74344  -0.71465  -0.67911  -0.64967
 Alpha  occ. eigenvalues --   -0.64149  -0.61523  -0.60867  -0.59959  -0.58847
 Alpha  occ. eigenvalues --   -0.54567  -0.53127  -0.52564  -0.50218  -0.49750
 Alpha  occ. eigenvalues --   -0.49070  -0.38902  -0.34970  -0.34089  -0.30529
 Alpha virt. eigenvalues --    0.03233   0.03508   0.03934   0.04815   0.05030
 Alpha virt. eigenvalues --    0.06029   0.06320   0.06980   0.07464   0.07716
 Alpha virt. eigenvalues --    0.09660   0.10505   0.10751   0.11090   0.11657

 Mulliken charges:
               1
     1  C    0.337751
     2  H   -0.571545
     3  C    0.362157
     4  H   -0.455057
     5  C    0.560616
     6  H   -0.430119
     7  C    0.327953
     8  H   -0.451073
     9  C    0.743667
    10  H   -0.599189
    11  C    0.216276
    12  C    0.375614
    13  H   -0.451348
    14  C    0.232187
    15  H   -0.568020
    16  C    0.587484
    17  C   -0.332938
    18  C    0.849509
    19  H   -0.481186
    20  C    0.475125
    21  H   -0.413449
    22  F   -0.314415
 Sum of Mulliken charges =   0.00000

 Dipole moment (field-independent basis, Debye):
    X=              0.6383    Y=             -1.6229    Z=             -0.2694  Tot=              1.7646

 Test job not archived.
 1\1\GINC-SE051\SP\RHF\Aug-CC-pVDZ\C12H9F1\OHZDE\09-Apr-2025\0\\#t hf a
 ug-cc-pvdz iop(5/13=1,5/36=2,99/5=2) pseudo=read geom=check guess=(rea
 d,tcheck) scf=(maxcycle=1)\\title\\0,1\C,0,12.8424,-32.1003,0.0828\H,0
 ,13.403,-31.1708,0.0674\C,0,11.4485,-32.034,0.1472\H,0,10.9606,-31.063
 7,0.1917\C,0,10.6845,-33.2053,0.0972\H,0,9.5997,-33.1579,0.1384\C,0,11
 .338,-34.4378,0.0031\H,0,10.7612,-35.3576,-0.0501\C,0,12.7341,-34.5052
 ,-0.0611\H,0,13.2044,-35.4774,-0.1223\C,0,13.5211,-33.338,0.0395\C,0,1
 7.1447,-32.2323,0.4524\H,0,17.6646,-31.3678,0.8549\C,0,15.7493,-32.260

 Normal termination of Gaussian 16 at Wed Apr  9 02:26:34 2025.
