 Gaussian 16, Revision C.01,

 ----------------------------------------------------------------------
 #t hf aug-cc-pvdz symm=none int=(grid=ultrafine) guess=(read,tcheck) s
 table=(opt,rrhf)
 ----------------------------------------------------------------------
 -----
 title
 -----
 Symbolic Z-matrix:
 Charge =  0 Multiplicity = 1

 SCF Done:  E(RHF) =  -355.058431503     A.U. after   12 cycles
 Normal termination of Gaussian 16 at Wed Apr  9 02:26:25 2025.
 Gaussian 16:  ES64L-G16RevC.01  3-Jul-2019

 ----------------------------------------------------------------------
 #t hf aug-cc-pvdz iop(5/13=1,5/36=2,99/5=2) pseudo=read geom=check gue
 ss=(read,tcheck) scf=(maxcycle=1)
 ----------------------------------------------------------------------
 -----
 title
 -----
 Structure from the checkpoint file:  "DCONF_9_-160_mol1.chk"
 Charge =  0 Multiplicity = 1

                         Standard orientation:
 ---------------------------------------------------------------------
 Center     Atomic      Atomic             Coordinates (Angstroms)
 Number     Number       Type             X           Y           Z
 ---------------------------------------------------------------------
      1          6           0       -0.239779   -0.587100    0.017986
      2          1           0       -0.186209   -0.955780   -1.012814
      3          1           0       -0.422787   -1.451257    0.666131
      4          6           0       -1.370173    0.436266    0.138482
      5          1           0       -1.193161    1.248151   -0.571477
      6          1           0       -1.359172    0.883270    1.140288
      7          6           0       -2.733779   -0.203566   -0.123024
      8          1           0       -2.766244   -0.648778   -1.122703
      9          1           0       -3.535743    0.536708   -0.056782
     10          1           0       -2.941556   -0.994159    0.604757
     11          6           0        1.120518   -0.026109    0.359103
     12          1           0        1.317910    0.073560    1.428966
     13          9           0        1.279543    1.215458   -0.201882
     14          9           0        2.101150   -0.816420   -0.179412
 ---------------------------------------------------------------------

 SCF Done:  E(RHF) =  -355.181112036     A.U. after    2 cycles

 The electronic state is 1-A.
 Alpha  occ. eigenvalues --  -26.12674 -26.12565 -11.41526 -11.25117 -11.24435
 Alpha  occ. eigenvalues --  -11.23459  -1.68930  -1.64390  -1.09159  -1.00881
 Alpha  occ. eigenvalues --   -0.91519  -0.83280  -0.81068  -0.79565  -0.76409
 Alpha  occ. eigenvalues --   -0.71995  -0.68502  -0.66377  -0.63104  -0.59108
 Alpha  occ. eigenvalues --   -0.56299  -0.54197  -0.50031  -0.49635  -0.48736
 Alpha virt. eigenvalues --    0.03321   0.04247   0.04620   0.05332   0.06689
 Alpha virt. eigenvalues --    0.07042   0.07653   0.08287   0.10950   0.12055
 Alpha virt. eigenvalues --    0.13237   0.13516   0.15063   0.15701   0.16044

 Mulliken charges:
               1
     1  C   -0.132645
     2  H   -0.089343
     3  H   -0.049553
     4  C    0.138643
     5  H   -0.088267
     6  H   -0.114814
     7  C    0.360215
     8  H   -0.048610
     9  H   -0.060988
    10  H   -0.070642
    11  C    1.131252
    12  H   -0.216123
    13  F   -0.395335
    14  F   -0.363791
 Sum of Mulliken charges =  -0.00000

 Dipole moment (field-independent basis, Debye):
    X=             -2.3474    Y=             -0.6642    Z=              1.5033  Tot=              2.8655

 Test job not archived.
 1\1\GINC-SE336\SP\RHF\Aug-CC-pVDZ\C4H8F2\OHZDE\09-Apr-2025\0\\#t hf au
 g-cc-pvdz iop(5/13=1,5/36=2,99/5=2) pseudo=read geom=check guess=(read
 ,tcheck) scf=(maxcycle=1)\\title\\0,1\C,0,-0.1252,-0.0923,-0.0944\H,0,
 -0.2089,0.3697,-1.0848\H,0,-0.2175,0.7071,0.6491\C,0,1.2249,-0.8006,0.
 0286\H,0,1.3131,-1.541,-0.7705\H,0,1.2689,-1.3508,0.9767\C,0,2.3855,0.
 1919,-0.0431\H,0,2.3625,0.7456,-0.9873\H,0,3.3483,-0.322,0.0237\H,0,2.
 3314,0.9176,0.7744\C,0,-1.3084,-1.0177,0.0642\H,0,-1.5396,-1.2901,1.09
 66\F,0,-1.0991,-2.1835,-0.6276\F,0,-2.4266,-0.4455,-0.4821\\Version=ES

 Normal termination of Gaussian 16 at Wed Apr  9 02:26:29 2025.
