 Gaussian 16, Revision C.01,

 ----------------------------------------------------------------------
 #t hf aug-cc-pvdz symm=none int=(grid=ultrafine) guess=(read,tcheck) s
 table=(opt,rrhf)
 ----------------------------------------------------------------------
 -----
 title
 -----
 Symbolic Z-matrix:
 Charge =  0 Multiplicity = 1

 SCF Done:  E(RHF) =  -812.894498839     A.U. after   16 cycles
 Normal termination of Gaussian 16 at Wed Apr  9 02:25:38 2025.
 Gaussian 16:  ES64L-G16RevC.01  3-Jul-2019

 ----------------------------------------------------------------------
 #t hf aug-cc-pvdz iop(5/13=1,5/36=2,99/5=2) pseudo=read geom=check gue
 ss=(read,tcheck) scf=(maxcycle=1)
 ----------------------------------------------------------------------
 -----
 title
 -----
 Structure from the checkpoint file:  "DCONF_56_-80_mol1.chk"
 Charge =  0 Multiplicity = 1

                         Standard orientation:
 ---------------------------------------------------------------------
 Center     Atomic      Atomic             Coordinates (Angstroms)
 Number     Number       Type             X           Y           Z
 ---------------------------------------------------------------------
      1          6           0        1.393386   -0.922187    0.779859
      2          1           0        0.846580   -1.646180    1.377012
      3          6           0        2.788261   -0.944778    0.704235
      4          1           0        3.360244   -1.698550    1.238162
      5          6           0        3.426779    0.027166   -0.070152
      6          1           0        4.508668    0.054772   -0.160759
      7          6           0        2.641648    0.976647   -0.735005
      8          1           0        3.107314    1.745091   -1.348727
      9          7           0        1.299729    1.013895   -0.675162
     10          6           0        0.696931    0.073904    0.080337
     11          7           0       -1.437120    0.978615    0.949128
     12          6           0       -2.786715    0.824187    0.777815
     13          1           0       -3.471561    1.434379    1.355355
     14          6           0       -3.168586   -0.129646   -0.144704
     15          1           0       -4.169014   -0.417468   -0.439754
     16         16           0       -1.780972   -0.858555   -0.828663
     17          6           0       -0.779196    0.147585    0.160875
 ---------------------------------------------------------------------

 SCF Done:  E(RHF) =  -813.033333036     A.U. after    2 cycles

 The electronic state is 1-A.
 Alpha  occ. eigenvalues --  -93.57928 -15.64462 -15.63955 -11.32618 -11.30998
 Alpha  occ. eigenvalues --  -11.29654 -11.28270 -11.28055 -11.27651 -11.26543
 Alpha  occ. eigenvalues --  -11.26357  -8.87795  -6.21912  -6.21785  -6.21434
 Alpha  occ. eigenvalues --   -1.26060  -1.23285  -1.08534  -1.06141  -1.05247
 Alpha  occ. eigenvalues --   -0.98357  -0.87516  -0.86811  -0.79486  -0.76911
 Alpha  occ. eigenvalues --   -0.70851  -0.68721  -0.67845  -0.64395  -0.60181
 Alpha  occ. eigenvalues --   -0.59257  -0.58251  -0.55362  -0.54071  -0.53249
 Alpha  occ. eigenvalues --   -0.50528  -0.43408  -0.42238  -0.39379  -0.38686
 Alpha  occ. eigenvalues --   -0.35758  -0.33747
 Alpha virt. eigenvalues --    0.02934   0.03444   0.04122   0.05133   0.05339
 Alpha virt. eigenvalues --    0.06301   0.07868   0.08215   0.08943   0.09635
 Alpha virt. eigenvalues --    0.10171   0.10332   0.10964   0.11778   0.12503

 Mulliken charges:
               1
     1  C    0.813788
     2  H   -0.497243
     3  C   -0.475628
     4  H   -0.390572
     5  C    0.890180
     6  H   -0.406380
     7  C    0.434802
     8  H   -0.372630
     9  N   -0.517122
    10  C    0.661869
    11  N   -0.649468
    12  C    0.683967
    13  H   -0.276134
    14  C    0.168188
    15  H   -0.366465
    16  S    0.430741
    17  C   -0.131893
 Sum of Mulliken charges =  -0.00000

 Dipole moment (field-independent basis, Debye):
    X=              1.0012    Y=             -2.3052    Z=              0.1453  Tot=              2.5174

 Test job not archived.
 1\1\GINC-SE412\SP\RHF\Aug-CC-pVDZ\C8H6N2S1\OHZDE\09-Apr-2025\0\\#t hf
 aug-cc-pvdz iop(5/13=1,5/36=2,99/5=2) pseudo=read geom=check guess=(re
 ad,tcheck) scf=(maxcycle=1)\\title\\0,1\C,0,30.1245,-21.0942,-0.0078\H
 ,0,30.7007,-20.1735,-0.0001\C,0,28.7275,-21.0797,0.0015\H,0,28.1829,-2
 0.1396,0.0076\C,0,28.0511,-22.3022,0.0072\H,0,26.966,-22.3462,0.0161\C
 ,0,28.8021,-23.4837,0.0018\H,0,28.3063,-24.4523,0.0028\N,0,30.1454,-23
 .5178,-0.0081\C,0,30.7853,-22.3311,-0.0075\N,0,32.9824,-22.5959,1.1016
 \C,0,34.3159,-22.616,0.7918\H,0,35.0444,-22.777,1.5781\C,0,34.625,-22.

 Normal termination of Gaussian 16 at Wed Apr  9 02:25:49 2025.
