 Gaussian 16, Revision C.01,

 ----------------------------------------------------------------------
 #t hf aug-cc-pvdz symm=none int=(grid=ultrafine) guess=(read,tcheck) s
 table=(opt,rrhf)
 ----------------------------------------------------------------------
 -----
 title
 -----
 Symbolic Z-matrix:
 Charge =  0 Multiplicity = 1

 SCF Done:  E(RHF) =  -256.177006853     A.U. after   12 cycles
 Normal termination of Gaussian 16 at Wed Apr  9 02:25:50 2025.
 Gaussian 16:  ES64L-G16RevC.01  3-Jul-2019

 ----------------------------------------------------------------------
 #t hf aug-cc-pvdz iop(5/13=1,5/36=2,99/5=2) pseudo=read geom=check gue
 ss=(read,tcheck) scf=(maxcycle=1)
 ----------------------------------------------------------------------
 -----
 title
 -----
 Structure from the checkpoint file:  "DCONF_8_100_mol1.chk"
 Charge =  0 Multiplicity = 1

                         Standard orientation:
 ---------------------------------------------------------------------
 Center     Atomic      Atomic             Coordinates (Angstroms)
 Number     Number       Type             X           Y           Z
 ---------------------------------------------------------------------
      1          6           0        0.026957    0.406951   -0.433768
      2          1           0       -0.248666    1.396319   -0.820526
      3          1           0        0.103946   -0.259607   -1.299462
      4          6           0       -1.069290   -0.069215    0.520313
      5          1           0       -1.143806    0.637271    1.355960
      6          1           0       -0.777653   -1.036210    0.948312
      7          6           0       -2.427077   -0.197226   -0.168498
      8          1           0       -2.739784    0.763741   -0.590502
      9          1           0       -3.200806   -0.527014    0.530701
     10          1           0       -2.378277   -0.922772   -0.986566
     11          6           0        1.404473    0.491756    0.213920
     12          1           0        1.340226    0.528789    1.305446
     13          1           0        1.967658    1.357832   -0.142932
     14          9           0        2.162976   -0.636883   -0.121359
 ---------------------------------------------------------------------

 SCF Done:  E(RHF) =  -256.263881690     A.U. after    2 cycles

 The electronic state is 1-A.
 Alpha  occ. eigenvalues --  -26.09355 -11.31637 -11.23752 -11.23606 -11.22823
 Alpha  occ. eigenvalues --   -1.62405  -1.07586  -0.99035  -0.88287  -0.81100
 Alpha  occ. eigenvalues --   -0.73376  -0.72906  -0.69066  -0.63282  -0.58993
 Alpha  occ. eigenvalues --   -0.57642  -0.53929  -0.52347  -0.48569  -0.48103
 Alpha  occ. eigenvalues --   -0.47065
 Alpha virt. eigenvalues --    0.03493   0.04298   0.04586   0.05305   0.06580
 Alpha virt. eigenvalues --    0.07007   0.07328   0.08166   0.09059   0.11915
 Alpha virt. eigenvalues --    0.12559   0.13304   0.15030   0.16039   0.16504

 Mulliken charges:
               1
     1  C    0.160070
     2  H   -0.117116
     3  H   -0.102367
     4  C    0.003093
     5  H   -0.109028
     6  H   -0.106456
     7  C    0.390381
     8  H   -0.056407
     9  H   -0.057455
    10  H   -0.063088
    11  C    0.798493
    12  H   -0.163877
    13  H   -0.150479
    14  F   -0.425766
 Sum of Mulliken charges =   0.00000

 Dipole moment (field-independent basis, Debye):
    X=             -1.5598    Y=              1.7336    Z=              0.4550  Tot=              2.3760

 Test job not archived.
 1\1\GINC-SE188\SP\RHF\Aug-CC-pVDZ\C4H9F1\OHZDE\09-Apr-2025\0\\#t hf au
 g-cc-pvdz iop(5/13=1,5/36=2,99/5=2) pseudo=read geom=check guess=(read
 ,tcheck) scf=(maxcycle=1)\\title\\0,1\C,0,0.0311,-0.0326,-0.006\H,0,0.
 0318,-0.656,-0.9092\H,0,0.0436,-0.7168,0.8492\C,0,-1.239,0.8192,0.0007
 \H,0,-1.2368,1.4664,-0.8848\H,0,-1.2234,1.4802,0.876\C,0,-2.51,-0.0286
 ,0.0158\H,0,-2.548,-0.6858,-0.8594\H,0,-3.4077,0.5962,0.0084\H,0,-2.54
 33,-0.6588,0.9101\C,0,1.3156,0.7876,0.0337\H,0,1.1474,1.8238,-0.2744\H
 ,0,2.0966,0.3484,-0.5922\F,0,1.826,0.8176,1.3376\\Version=ES64L-G16Rev

 Normal termination of Gaussian 16 at Wed Apr  9 02:25:54 2025.
