 Gaussian 16, Revision C.01,

 ----------------------------------------------------------------------
 #t hf aug-cc-pvdz symm=none int=(grid=ultrafine) guess=(read,tcheck) s
 table=(opt,rrhf)
 ----------------------------------------------------------------------
 -----
 title
 -----
 Symbolic Z-matrix:
 Charge =  0 Multiplicity = 1

 SCF Done:  E(RHF) =  -758.168062939     A.U. after   16 cycles
 Normal termination of Gaussian 16 at Wed Apr  9 02:21:05 2025.
 Gaussian 16:  ES64L-G16RevC.01  3-Jul-2019

 ----------------------------------------------------------------------
 #t hf aug-cc-pvdz iop(5/13=1,5/36=2,99/5=2) pseudo=read geom=check gue
 ss=(read,tcheck) scf=(maxcycle=1)
 ----------------------------------------------------------------------
 -----
 title
 -----
 Structure from the checkpoint file:  "DCONF_38_0_mol2.chk"
 Charge =  0 Multiplicity = 1

                         Standard orientation:
 ---------------------------------------------------------------------
 Center     Atomic      Atomic             Coordinates (Angstroms)
 Number     Number       Type             X           Y           Z
 ---------------------------------------------------------------------
      1          6           0        2.015703   -0.094713   -0.029936
      2          7           0        0.987940    0.820080   -0.040971
      3          1           0        1.217159    1.797713    0.070869
      4          6           0       -1.396864    1.446389   -0.033630
      5          1           0       -1.216279    2.515960   -0.067890
      6          6           0       -2.680123    0.842548    0.003749
      7          1           0       -3.613578    1.393811    0.000237
      8          6           0       -2.606387   -0.534903    0.035667
      9          1           0       -3.421283   -1.246659    0.057460
     10         16           0       -0.985575   -1.108523    0.025766
     11          6           0       -0.377679    0.507569   -0.021922
     12          8           0        1.811387   -1.300117   -0.083465
     13          6           0        3.401681    0.505937    0.072920
     14          1           0        3.426503    1.570382   -0.172223
     15          1           0        4.064284   -0.038625   -0.601407
     16          1           0        3.767747    0.367199    1.094136
 ---------------------------------------------------------------------

 SCF Done:  E(RHF) =  -758.300140825     A.U. after    2 cycles

 The electronic state is 1-A.
 Alpha  occ. eigenvalues --  -93.56391 -20.55006 -15.68383 -11.38343 -11.32202
 Alpha  occ. eigenvalues --  -11.26238 -11.25994 -11.24808 -11.24330  -8.86109
 Alpha  occ. eigenvalues --   -6.20229  -6.20085  -6.19712  -1.36101  -1.23509
 Alpha  occ. eigenvalues --   -1.14564  -1.02546  -0.98039  -0.95762  -0.83333
 Alpha  occ. eigenvalues --   -0.78360  -0.74780  -0.70864  -0.68580  -0.64038
 Alpha  occ. eigenvalues --   -0.63051  -0.60254  -0.57316  -0.56801  -0.56000
 Alpha  occ. eigenvalues --   -0.53015  -0.51701  -0.48594  -0.45409  -0.44088
 Alpha  occ. eigenvalues --   -0.34621  -0.29783
 Alpha virt. eigenvalues --    0.02422   0.03595   0.04378   0.05318   0.05508
 Alpha virt. eigenvalues --    0.06480   0.08059   0.09091   0.09918   0.10610
 Alpha virt. eigenvalues --    0.12147   0.12545   0.12976   0.13318   0.13626

 Mulliken charges:
               1
     1  C    0.182604
     2  N   -0.534203
     3  H   -0.051473
     4  C    0.891227
     5  H   -0.517808
     6  C    0.208946
     7  H   -0.321144
     8  C    0.050391
     9  H   -0.370057
    10  S    0.822115
    11  C   -0.182372
    12  O   -0.514064
    13  C    0.366710
    14  H   -0.130727
    15  H    0.028719
    16  H    0.071135
 Sum of Mulliken charges =  -0.00000

 Dipole moment (field-independent basis, Debye):
    X=              1.0758    Y=              4.3944    Z=              0.3453  Tot=              4.5374

 Test job not archived.
 1\1\GINC-SE128\SP\RHF\Aug-CC-pVDZ\C6H7N1O1S1\OHZDE\09-Apr-2025\0\\#t h
 f aug-cc-pvdz iop(5/13=1,5/36=2,99/5=2) pseudo=read geom=check guess=(
 read,tcheck) scf=(maxcycle=1)\\title\\0,1\C,0,29.0938,-3.4194,0.034\N,
 0,29.439,-4.7513,0.022\H,0,28.7072,-5.4358,0.1514\C,0,31.0726,-6.5981,
 0.0051\H,0,30.3272,-7.3867,-0.0109\C,0,32.4754,-6.8098,0.0156\H,0,32.9
 445,-7.7871,0.0071\C,0,33.1806,-5.6239,0.0283\H,0,34.2539,-5.4855,0.02
 82\S,0,32.1525,-4.2458,0.0327\C,0,30.7479,-5.251,0.0173\O,0,29.9327,-2
 .5315,-0.0401\C,0,27.6102,-3.1473,0.1651\H,0,26.9929,-4.0192,-0.064\H,

 Normal termination of Gaussian 16 at Wed Apr  9 02:21:25 2025.
