 Gaussian 16, Revision C.01,

 ----------------------------------------------------------------------
 #t hf aug-cc-pvdz symm=none int=(grid=ultrafine) guess=(read,tcheck) s
 table=(opt,rrhf)
 ----------------------------------------------------------------------
 -----
 title
 -----
 Symbolic Z-matrix:
 Charge =  0 Multiplicity = 1

 SCF Done:  E(RHF) =  -796.904054567     A.U. after   17 cycles
 Normal termination of Gaussian 16 at Wed Apr  9 02:25:02 2025.
 Gaussian 16:  ES64L-G16RevC.01  3-Jul-2019

 ----------------------------------------------------------------------
 #t hf aug-cc-pvdz iop(5/13=1,5/36=2,99/5=2) pseudo=read geom=check gue
 ss=(read,tcheck) scf=(maxcycle=1)
 ----------------------------------------------------------------------
 -----
 title
 -----
 Structure from the checkpoint file:  "DCONF_55_-130_mol1.chk"
 Charge =  0 Multiplicity = 1

                         Standard orientation:
 ---------------------------------------------------------------------
 Center     Atomic      Atomic             Coordinates (Angstroms)
 Number     Number       Type             X           Y           Z
 ---------------------------------------------------------------------
      1          6           0       -1.436812    1.182379   -0.431886
      2          1           0       -0.927005    2.081039   -0.768268
      3          6           0       -2.831847    1.100304   -0.439190
      4          1           0       -3.419319    1.944746   -0.790081
      5          6           0       -3.473746   -0.063127    0.006119
      6          1           0       -4.558596   -0.123975   -0.001405
      7          6           0       -2.713431   -1.145986    0.464010
      8          1           0       -3.207296   -2.043344    0.827496
      9          6           0       -1.316951   -1.067058    0.480935
     10          1           0       -0.726313   -1.895568    0.865107
     11          6           0       -0.671923    0.091088    0.014568
     12          7           0        1.440450    1.243746    0.565189
     13          6           0        2.791973    1.042861    0.494397
     14          1           0        3.465898    1.803717    0.871496
     15          6           0        3.191861   -0.158820   -0.056040
     16          1           0        4.197945   -0.526019   -0.209815
     17         16           0        1.819004   -1.067155   -0.519406
     18          6           0        0.792121    0.206305    0.060363
 ---------------------------------------------------------------------

 SCF Done:  E(RHF) =  -797.039387190     A.U. after    2 cycles

 The electronic state is 1-A.
 Alpha  occ. eigenvalues --  -93.57795 -15.63757 -11.32763 -11.28345 -11.27587
 Alpha  occ. eigenvalues --  -11.26863 -11.25993 -11.25767 -11.25693 -11.25590
 Alpha  occ. eigenvalues --  -11.25485  -8.87674  -6.21793  -6.21667  -6.21318
 Alpha  occ. eigenvalues --   -1.25407  -1.15234  -1.05411  -1.05017  -1.01744
 Alpha  occ. eigenvalues --   -0.97230  -0.85302  -0.84068  -0.78975  -0.75735
 Alpha  occ. eigenvalues --   -0.70690  -0.68315  -0.64315  -0.63834  -0.60061
 Alpha  occ. eigenvalues --   -0.59387  -0.57879  -0.55722  -0.51629  -0.50967
 Alpha  occ. eigenvalues --   -0.50697  -0.50356  -0.42836  -0.39185  -0.36893
 Alpha  occ. eigenvalues --   -0.34804  -0.31574
 Alpha virt. eigenvalues --    0.03344   0.03530   0.04142   0.05074   0.05210
 Alpha virt. eigenvalues --    0.06220   0.07065   0.07270   0.08910   0.09738
 Alpha virt. eigenvalues --    0.10274   0.10594   0.11215   0.11889   0.12293

 Mulliken charges:
               1
     1  C    0.240671
     2  H   -0.536577
     3  C    0.367032
     4  H   -0.421166
     5  C    0.465799
     6  H   -0.434467
     7  C    0.328755
     8  H   -0.431642
     9  C    0.253104
    10  H   -0.561452
    11  C    1.434815
    12  N   -0.530614
    13  C    0.647024
    14  H   -0.276731
    15  C    0.120262
    16  H   -0.372801
    17  S    0.476498
    18  C   -0.768510
 Sum of Mulliken charges =  -0.00000

 Dipole moment (field-independent basis, Debye):
    X=             -0.0564    Y=             -1.0001    Z=             -0.4469  Tot=              1.0969

 Test job not archived.
 1\1\GINC-SE123\SP\RHF\Aug-CC-pVDZ\C9H7N1S1\OHZDE\09-Apr-2025\0\\#t hf
 aug-cc-pvdz iop(5/13=1,5/36=2,99/5=2) pseudo=read geom=check guess=(re
 ad,tcheck) scf=(maxcycle=1)\\title\\0,1\C,0,21.8307,-21.1411,-0.0038\H
 ,0,22.398,-20.2144,0.0027\C,0,20.4333,-21.1301,0.0043\H,0,19.9021,-20.
 1819,0.0129\C,0,19.717,-22.3346,0.0044\H,0,18.6305,-22.3226,0.0101\C,0
 ,20.4052,-23.5539,0.0005\H,0,19.8541,-24.4905,0.0191\C,0,21.8039,-23.5
 715,0.0001\H,0,22.3396,-24.5176,0.0282\C,0,22.5228,-22.3642,-0.0216\N,
 0,24.713,-21.6311,0.8499\C,0,26.0471,-21.8721,0.6653\H,0,26.7742,-21.3

 Normal termination of Gaussian 16 at Wed Apr  9 02:25:13 2025.
