 Gaussian 16, Revision C.01,

 ----------------------------------------------------------------------
 #t hf aug-cc-pvdz symm=none int=(grid=ultrafine) guess=(read,tcheck) s
 table=(opt,rrhf)
 ----------------------------------------------------------------------
 -----
 title
 -----
 Symbolic Z-matrix:
 Charge =  0 Multiplicity = 1

 SCF Done:  E(RHF) =  -774.172148253     A.U. after   16 cycles
 Normal termination of Gaussian 16 at Wed Apr  9 02:21:31 2025.
 Gaussian 16:  ES64L-G16RevC.01  3-Jul-2019

 ----------------------------------------------------------------------
 #t hf aug-cc-pvdz iop(5/13=1,5/36=2,99/5=2) pseudo=read geom=check gue
 ss=(read,tcheck) scf=(maxcycle=1)
 ----------------------------------------------------------------------
 -----
 title
 -----
 Structure from the checkpoint file:  "DCONF_42_-90_mol1.chk"
 Charge =  0 Multiplicity = 1

                         Standard orientation:
 ---------------------------------------------------------------------
 Center     Atomic      Atomic             Coordinates (Angstroms)
 Number     Number       Type             X           Y           Z
 ---------------------------------------------------------------------
      1          6           0       -2.136042    0.033428   -0.006638
      2          7           0       -1.028577    0.236092   -0.829244
      3          1           0       -1.241594    0.675760   -1.717507
      4          7           0        0.911448    1.393214    0.008205
      5          6           0        2.199610    1.111195    0.368185
      6          1           0        2.843974    1.909919    0.716320
      7          6           0        2.578108   -0.213649    0.261069
      8          1           0        3.533807   -0.659142    0.503352
      9         16           0        1.274048   -1.139271   -0.339097
     10          6           0        0.294708    0.290889   -0.375134
     11          8           0       -3.263878    0.181727   -0.442676
     12          6           0       -1.825244   -0.395467    1.410190
     13          1           0       -1.398371   -1.402745    1.417498
     14          1           0       -2.755798   -0.395158    1.976467
     15          1           0       -1.102709    0.282357    1.872077
 ---------------------------------------------------------------------

 SCF Done:  E(RHF) =  -774.307015981     A.U. after    2 cycles

 The electronic state is 1-A.
 Alpha  occ. eigenvalues --  -93.59602 -20.55145 -15.67193 -15.65807 -11.38287
 Alpha  occ. eigenvalues --  -11.37366 -11.29921 -11.29361 -11.25383  -8.89469
 Alpha  occ. eigenvalues --   -6.23575  -6.23457  -6.23115  -1.36036  -1.28834
 Alpha  occ. eigenvalues --   -1.20348  -1.07224  -1.01527  -0.99297  -0.84100
 Alpha  occ. eigenvalues --   -0.81111  -0.77751  -0.71719  -0.69056  -0.65349
 Alpha  occ. eigenvalues --   -0.63786  -0.61017  -0.59366  -0.57387  -0.56881
 Alpha  occ. eigenvalues --   -0.53654  -0.52157  -0.45925  -0.45237  -0.42591
 Alpha  occ. eigenvalues --   -0.40662  -0.35316
 Alpha virt. eigenvalues --    0.02723   0.04134   0.04315   0.04486   0.06237
 Alpha virt. eigenvalues --    0.07047   0.07947   0.08708   0.09271   0.09940
 Alpha virt. eigenvalues --    0.11218   0.11821   0.12610   0.12878   0.13141

 Mulliken charges:
               1
     1  C    0.433372
     2  N   -0.513110
     3  H   -0.075528
     4  N   -0.542541
     5  C    0.597019
     6  H   -0.259812
     7  C    0.201155
     8  H   -0.364126
     9  S    0.582197
    10  C    0.170899
    11  O   -0.523692
    12  C    0.258177
    13  H    0.070895
    14  H   -0.099429
    15  H    0.064523
 Sum of Mulliken charges =  -0.00000

 Dipole moment (field-independent basis, Debye):
    X=              4.5508    Y=             -1.3283    Z=              1.2535  Tot=              4.9036

 Test job not archived.
 1\1\GINC-SE024\SP\RHF\Aug-CC-pVDZ\C5H6N2O1S1\OHZDE\09-Apr-2025\0\\#t h
 f aug-cc-pvdz iop(5/13=1,5/36=2,99/5=2) pseudo=read geom=check guess=(
 read,tcheck) scf=(maxcycle=1)\\title\\0,1\C,0,28.5854,-16.5041,-1.1358
 \N,0,29.3128,-16.8423,0.0047\H,0,28.7561,-16.9216,0.8482\N,0,30.7477,-
 18.7775,0.0011\C,0,32.084,-19.0652,0.0046\H,0,32.4077,-20.0994,0.008\C
 ,0,32.9342,-17.9757,-0.0052\H,0,34.016,-17.9701,-0.0194\S,0,32.0216,-1
 6.5319,0.0071\C,0,30.564,-17.4704,-0.0124\O,0,27.4296,-16.1306,-1.0422
 \C,0,29.3373,-16.6124,-2.4438\H,0,30.1263,-15.8561,-2.4925\H,0,28.6304

 Normal termination of Gaussian 16 at Wed Apr  9 02:21:39 2025.
