 Gaussian 16, Revision C.01,

 ----------------------------------------------------------------------
 #t hf aug-cc-pvdz symm=none int=(grid=ultrafine) guess=(read,tcheck) s
 table=(opt,rrhf)
 ----------------------------------------------------------------------
 -----
 title
 -----
 Symbolic Z-matrix:
 Charge =  0 Multiplicity = 1

 SCF Done:  E(RHF) =  -774.174943358     A.U. after   16 cycles
 Normal termination of Gaussian 16 at Wed Apr  9 02:21:02 2025.
 Gaussian 16:  ES64L-G16RevC.01  3-Jul-2019

 ----------------------------------------------------------------------
 #t hf aug-cc-pvdz iop(5/13=1,5/36=2,99/5=2) pseudo=read geom=check gue
 ss=(read,tcheck) scf=(maxcycle=1)
 ----------------------------------------------------------------------
 -----
 title
 -----
 Structure from the checkpoint file:  "DCONF_42_-110_mol1.chk"
 Charge =  0 Multiplicity = 1

                         Standard orientation:
 ---------------------------------------------------------------------
 Center     Atomic      Atomic             Coordinates (Angstroms)
 Number     Number       Type             X           Y           Z
 ---------------------------------------------------------------------
      1          6           0       -1.986868   -0.148713    0.140727
      2          7           0       -0.999145    0.473724   -0.634384
      3          1           0       -1.245063    1.384154   -1.006656
      4          7           0        1.035685    1.423931    0.182396
      5          6           0        2.329754    1.049182    0.433010
      6          1           0        3.032845    1.781039    0.812138
      7          6           0        2.624192   -0.276071    0.191294
      8          1           0        3.557973   -0.797428    0.353228
      9         16           0        1.233942   -1.086257   -0.394245
     10          6           0        0.354608    0.390580   -0.269570
     11          8           0       -1.738607   -1.071606    0.893136
     12          6           0       -3.372045    0.419967   -0.076393
     13          1           0       -3.534614    0.693833   -1.121827
     14          1           0       -4.110703   -0.318325    0.234136
     15          1           0       -3.488288    1.316424    0.541325
 ---------------------------------------------------------------------

 SCF Done:  E(RHF) =  -774.310287650     A.U. after    2 cycles

 The electronic state is 1-A.
 Alpha  occ. eigenvalues --  -93.57916 -20.55951 -15.67851 -15.64091 -11.38838
 Alpha  occ. eigenvalues --  -11.36264 -11.28460 -11.27566 -11.26343  -8.87793
 Alpha  occ. eigenvalues --   -6.21903  -6.21781  -6.21416  -1.36880  -1.27799
 Alpha  occ. eigenvalues --   -1.20299  -1.05673  -1.03062  -0.97304  -0.83789
 Alpha  occ. eigenvalues --   -0.79720  -0.77142  -0.70292  -0.69719  -0.64521
 Alpha  occ. eigenvalues --   -0.64039  -0.61443  -0.58963  -0.57352  -0.56309
 Alpha  occ. eigenvalues --   -0.53673  -0.50664  -0.46367  -0.44982  -0.43785
 Alpha  occ. eigenvalues --   -0.38838  -0.33082
 Alpha virt. eigenvalues --    0.02944   0.03609   0.04598   0.04892   0.05817
 Alpha virt. eigenvalues --    0.07151   0.08541   0.09402   0.09692   0.11052
 Alpha virt. eigenvalues --    0.11501   0.12274   0.12758   0.12961   0.13805

 Mulliken charges:
               1
     1  C    0.381756
     2  N   -0.490823
     3  H   -0.031083
     4  N   -0.461278
     5  C    0.618451
     6  H   -0.272496
     7  C    0.188110
     8  H   -0.370088
     9  S    0.605793
    10  C   -0.007176
    11  O   -0.484364
    12  C    0.284352
    13  H   -0.006978
    14  H   -0.014405
    15  H    0.060228
 Sum of Mulliken charges =  -0.00000

 Dipole moment (field-independent basis, Debye):
    X=             -0.6179    Y=              1.8676    Z=             -1.9762  Tot=              2.7884

 Test job not archived.
 1\1\GINC-SE328\SP\RHF\Aug-CC-pVDZ\C5H6N2O1S1\OHZDE\09-Apr-2025\0\\#t h
 f aug-cc-pvdz iop(5/13=1,5/36=2,99/5=2) pseudo=read geom=check guess=(
 read,tcheck) scf=(maxcycle=1)\\title\\0,1\C,0,28.8364,-16.1753,-1.1228
 \N,0,29.3095,-16.8578,0.006\H,0,28.6199,-17.4097,0.5038\N,0,30.7425,-1
 8.7701,-0.0072\C,0,32.0806,-19.0653,0.0071\H,0,32.3981,-20.1011,0.0062
 \C,0,32.9308,-17.9797,0.\H,0,34.012,-17.973,-0.0307\S,0,32.024,-16.527
 2,-0.0029\C,0,30.5769,-17.463,-0.0029\O,0,29.5815,-15.738,-1.979\C,0,2
 7.3317,-16.0186,-1.1468\H,0,26.93,-15.8431,-0.1457\H,0,27.0725,-15.188

 Normal termination of Gaussian 16 at Wed Apr  9 02:21:24 2025.
