 Gaussian 16, Revision C.01,

 ----------------------------------------------------------------------
 #t hf aug-cc-pvdz symm=none int=(grid=ultrafine) guess=(read,tcheck) s
 table=(opt,rrhf)
 ----------------------------------------------------------------------
 -----
 title
 -----
 Symbolic Z-matrix:
 Charge =  0 Multiplicity = 1

 SCF Done:  E(RHF) =  -796.900964074     A.U. after   16 cycles
 Normal termination of Gaussian 16 at Wed Apr  9 02:24:20 2025.
 Gaussian 16:  ES64L-G16RevC.01  3-Jul-2019

 ----------------------------------------------------------------------
 #t hf aug-cc-pvdz iop(5/13=1,5/36=2,99/5=2) pseudo=read geom=check gue
 ss=(read,tcheck) scf=(maxcycle=1)
 ----------------------------------------------------------------------
 -----
 title
 -----
 Structure from the checkpoint file:  "DCONF_55_-100_mol1.chk"
 Charge =  0 Multiplicity = 1

                         Standard orientation:
 ---------------------------------------------------------------------
 Center     Atomic      Atomic             Coordinates (Angstroms)
 Number     Number       Type             X           Y           Z
 ---------------------------------------------------------------------
      1          6           0       -1.399291    1.077663   -0.594518
      2          1           0       -0.862993    1.899913   -1.061408
      3          6           0       -2.795993    1.019630   -0.637637
      4          1           0       -3.353904    1.800510   -1.147635
      5          6           0       -3.474865   -0.038036   -0.018960
      6          1           0       -4.560043   -0.081456   -0.052785
      7          6           0       -2.753965   -1.038265    0.644936
      8          1           0       -3.279002   -1.853992    1.134906
      9          6           0       -1.356790   -0.982277    0.692308
     10          1           0       -0.790741   -1.746755    1.219272
     11          6           0       -0.674129    0.069791    0.061077
     12          7           0        1.453058    0.955165    0.970826
     13          6           0        2.804437    0.792820    0.816426
     14          1           0        3.484967    1.376233    1.426174
     15          6           0        3.193447   -0.134829   -0.129269
     16          1           0        4.196283   -0.421776   -0.416532
     17         16           0        1.809904   -0.826362   -0.859968
     18          6           0        0.796410    0.160664    0.142592
 ---------------------------------------------------------------------

 SCF Done:  E(RHF) =  -797.036282834     A.U. after    2 cycles

 The electronic state is 1-A.
 Alpha  occ. eigenvalues --  -93.57823 -15.63876 -11.32711 -11.28292 -11.27609
 Alpha  occ. eigenvalues --  -11.26829 -11.25910 -11.25816 -11.25720 -11.25556
 Alpha  occ. eigenvalues --  -11.25512  -8.87685  -6.21800  -6.21672  -6.21330
 Alpha  occ. eigenvalues --   -1.25377  -1.15203  -1.05312  -1.04902  -1.01773
 Alpha  occ. eigenvalues --   -0.97295  -0.85171  -0.83872  -0.79232  -0.75736
 Alpha  occ. eigenvalues --   -0.70560  -0.68437  -0.64404  -0.63755  -0.60041
 Alpha  occ. eigenvalues --   -0.59604  -0.57916  -0.55473  -0.51495  -0.50840
 Alpha  occ. eigenvalues --   -0.50712  -0.50403  -0.42761  -0.38966  -0.35204
 Alpha  occ. eigenvalues --   -0.34746  -0.33305
 Alpha virt. eigenvalues --    0.03321   0.03523   0.04151   0.05043   0.05121
 Alpha virt. eigenvalues --    0.06053   0.07010   0.08539   0.08820   0.09613
 Alpha virt. eigenvalues --    0.10066   0.10368   0.10809   0.11880   0.12259

 Mulliken charges:
               1
     1  C    0.025750
     2  H   -0.528219
     3  C    0.347376
     4  H   -0.425440
     5  C    0.454760
     6  H   -0.439612
     7  C    0.321176
     8  H   -0.429778
     9  C    0.058174
    10  H   -0.542785
    11  C    1.905786
    12  N   -0.589446
    13  C    0.604304
    14  H   -0.280199
    15  C    0.199020
    16  H   -0.369239
    17  S    0.421450
    18  C   -0.733080
 Sum of Mulliken charges =  -0.00000

 Dipole moment (field-independent basis, Debye):
    X=             -0.0215    Y=             -0.8156    Z=             -0.8368  Tot=              1.1687

 Test job not archived.
 1\1\GINC-SE345\SP\RHF\Aug-CC-pVDZ\C9H7N1S1\OHZDE\09-Apr-2025\0\\#t hf
 aug-cc-pvdz iop(5/13=1,5/36=2,99/5=2) pseudo=read geom=check guess=(re
 ad,tcheck) scf=(maxcycle=1)\\title\\0,1\C,0,21.8286,-21.1406,-0.0049\H
 ,0,22.3917,-20.2108,0.0044\C,0,20.4301,-21.129,0.0032\H,0,19.8975,-20.
 1817,0.0131\C,0,19.7173,-22.3349,0.006\H,0,18.6308,-22.3243,0.0129\C,0
 ,20.4061,-23.5541,0.002\H,0,19.8553,-24.4909,0.0151\C,0,21.8051,-23.56
 97,-0.0036\H,0,22.3472,-24.5123,0.0091\C,0,22.521,-22.362,-0.0202\N,0,
 24.7185,-22.151,1.1036\C,0,26.0542,-22.2436,0.8142\H,0,26.7827,-22.090

 Normal termination of Gaussian 16 at Wed Apr  9 02:24:31 2025.
