 Gaussian 16, Revision C.01,

 ----------------------------------------------------------------------
 #t hf aug-cc-pvdz symm=none int=(grid=ultrafine) guess=(read,tcheck) s
 table=(opt,rrhf)
 ----------------------------------------------------------------------
 -----
 title
 -----
 Symbolic Z-matrix:
 Charge =  0 Multiplicity = 1

 SCF Done:  E(RHF) =  -812.903411220     A.U. after   17 cycles
 Normal termination of Gaussian 16 at Wed Apr  9 02:25:37 2025.
 Gaussian 16:  ES64L-G16RevC.01  3-Jul-2019

 ----------------------------------------------------------------------
 #t hf aug-cc-pvdz iop(5/13=1,5/36=2,99/5=2) pseudo=read geom=check gue
 ss=(read,tcheck) scf=(maxcycle=1)
 ----------------------------------------------------------------------
 -----
 title
 -----
 Structure from the checkpoint file:  "DCONF_56_-150_mol1.chk"
 Charge =  0 Multiplicity = 1

                         Standard orientation:
 ---------------------------------------------------------------------
 Center     Atomic      Atomic             Coordinates (Angstroms)
 Number     Number       Type             X           Y           Z
 ---------------------------------------------------------------------
      1          6           0       -1.479848    1.247056   -0.281456
      2          1           0       -0.998265    2.194880   -0.499881
      3          6           0       -2.867001    1.109359   -0.241897
      4          1           0       -3.511766    1.961243   -0.440631
      5          6           0       -3.410591   -0.147874    0.045751
      6          1           0       -4.484574   -0.303413    0.084026
      7          6           0       -2.537120   -1.212189    0.292475
      8          1           0       -2.923601   -2.202617    0.524598
      9          7           0       -1.198470   -1.098301    0.276497
     10          6           0       -0.689794    0.116709   -0.014085
     11          7           0        1.424396    1.341885    0.303492
     12          6           0        2.771320    1.117009    0.289743
     13          1           0        3.452628    1.927835    0.521493
     14          6           0        3.155100   -0.176564   -0.012673
     15          1           0        4.157498   -0.578612   -0.079194
     16         16           0        1.777237   -1.149895   -0.288571
     17          6           0        0.773070    0.228813   -0.003389
 ---------------------------------------------------------------------

 SCF Done:  E(RHF) =  -813.042200873     A.U. after    2 cycles

 The electronic state is 1-A.
 Alpha  occ. eigenvalues --  -93.57642 -15.64467 -15.64037 -11.32364 -11.30846
 Alpha  occ. eigenvalues --  -11.29659 -11.28187 -11.27839 -11.27582 -11.26222
 Alpha  occ. eigenvalues --  -11.26108  -8.87477  -6.21585  -6.21464  -6.21112
 Alpha  occ. eigenvalues --   -1.26116  -1.23331  -1.08480  -1.06258  -1.04948
 Alpha  occ. eigenvalues --   -0.98130  -0.87505  -0.86826  -0.79126  -0.76852
 Alpha  occ. eigenvalues --   -0.70805  -0.68462  -0.67336  -0.64243  -0.59786
 Alpha  occ. eigenvalues --   -0.59184  -0.58234  -0.55902  -0.53750  -0.53211
 Alpha  occ. eigenvalues --   -0.50323  -0.43966  -0.42267  -0.39809  -0.38859
 Alpha  occ. eigenvalues --   -0.37173  -0.31330
 Alpha virt. eigenvalues --    0.03035   0.03546   0.04039   0.05197   0.05430
 Alpha virt. eigenvalues --    0.05698   0.06922   0.08324   0.08956   0.09586
 Alpha virt. eigenvalues --    0.10673   0.10978   0.11635   0.12294   0.12600

 Mulliken charges:
               1
     1  C    0.949666
     2  H   -0.512950
     3  C   -0.325915
     4  H   -0.383766
     5  C    0.856889
     6  H   -0.410341
     7  C    0.499056
     8  H   -0.361493
     9  N   -0.398565
    10  C    0.263678
    11  N   -0.548731
    12  C    0.762530
    13  H   -0.291652
    14  C    0.112748
    15  H   -0.376338
    16  S    0.530296
    17  C   -0.365111
 Sum of Mulliken charges =  -0.00000

 Dipole moment (field-independent basis, Debye):
    X=             -1.0696    Y=              0.3412    Z=             -0.6098  Tot=              1.2776

 Test job not archived.
 1\1\GINC-SE367\SP\RHF\Aug-CC-pVDZ\C8H6N2S1\OHZDE\09-Apr-2025\0\\#t hf
 aug-cc-pvdz iop(5/13=1,5/36=2,99/5=2) pseudo=read geom=check guess=(re
 ad,tcheck) scf=(maxcycle=1)\\title\\0,1\C,0,30.1279,-21.0904,-0.0102\H
 ,0,30.7126,-20.176,-0.0111\C,0,28.7335,-21.0815,0.0068\H,0,28.1879,-20
 .1417,0.0112\C,0,28.0526,-22.3043,0.0053\H,0,26.9676,-22.3465,0.0148\C
 ,0,28.8018,-23.4855,-0.0022\H,0,28.3068,-24.4546,0.0017\N,0,30.145,-23
 .5175,-0.0013\C,0,30.7867,-22.3311,-0.012\N,0,33.0145,-21.4475,0.5606\
 C,0,34.3294,-21.8088,0.4867\H,0,35.0898,-21.1507,0.8917\C,0,34.577,-23

 Normal termination of Gaussian 16 at Wed Apr  9 02:25:46 2025.
