 Gaussian 16, Revision C.01,

 ----------------------------------------------------------------------
 #t hf aug-cc-pvdz symm=none int=(grid=ultrafine) guess=(read,tcheck) s
 table=(opt,rrhf)
 ----------------------------------------------------------------------
 -----
 title
 -----
 Symbolic Z-matrix:
 Charge =  0 Multiplicity = 1

 SCF Done:  E(RHF) =  -1153.55105479     A.U. after   16 cycles
 Normal termination of Gaussian 16 at Wed Apr  9 02:19:57 2025.
 Gaussian 16:  ES64L-G16RevC.01  3-Jul-2019

 ----------------------------------------------------------------------
 #t hf aug-cc-pvdz iop(5/13=1,5/36=2,99/5=2) pseudo=read geom=check gue
 ss=(read,tcheck) scf=(maxcycle=1)
 ----------------------------------------------------------------------
 -----
 title
 -----
 Structure from the checkpoint file:  "DCONF_29_0_mol1.chk"
 Charge =  0 Multiplicity = 1

                         Standard orientation:
 ---------------------------------------------------------------------
 Center     Atomic      Atomic             Coordinates (Angstroms)
 Number     Number       Type             X           Y           Z
 ---------------------------------------------------------------------
      1          6           0       -2.758627   -0.006231    0.000065
      2          1           0       -3.795271   -0.316380    0.000032
      3          6           0       -2.246214    1.276387    0.000181
      4          1           0       -2.839694    2.182697    0.000379
      5          7           0       -0.880848    1.362757   -0.000113
      6          6           0       -0.367846    0.146744    0.000000
      7         16           0       -1.490908   -1.155106   -0.000107
      8         16           0        1.394191   -0.165861    0.000043
      9          6           0        2.057255    1.482084   -0.000146
     10          1           0        1.733808    1.999869    0.901412
     11          1           0        3.140732    1.340565   -0.002913
     12          1           0        1.729605    2.001441   -0.899253
     13          8           0        1.727363   -0.812842    1.263576
     14          8           0        1.727241   -0.812899   -1.263381
 ---------------------------------------------------------------------

 SCF Done:  E(RHF) =  -1153.75361386     A.U. after    2 cycles

 The electronic state is 1-A.
 Alpha  occ. eigenvalues --  -93.79973 -93.61128 -20.56766 -20.56764 -15.68134
 Alpha  occ. eigenvalues --  -11.36229 -11.31081 -11.30882 -11.29169  -9.06649
 Alpha  occ. eigenvalues --   -8.90959  -6.41252  -6.41107  -6.41033  -6.25062
 Alpha  occ. eigenvalues --   -6.24935  -6.24572  -1.42556  -1.30906  -1.28888
 Alpha  occ. eigenvalues --   -1.08918  -1.06532  -1.02102  -0.89213  -0.82434
 Alpha  occ. eigenvalues --   -0.76889  -0.73076  -0.68353  -0.67549  -0.66546
 Alpha  occ. eigenvalues --   -0.62402  -0.61346  -0.59685  -0.58944  -0.53615
 Alpha  occ. eigenvalues --   -0.52743  -0.52554  -0.49952  -0.49113  -0.45420
 Alpha  occ. eigenvalues --   -0.41861  -0.36920
 Alpha virt. eigenvalues --    0.02592   0.03498   0.04428   0.05315   0.06085
 Alpha virt. eigenvalues --    0.06413   0.07855   0.09932   0.10521   0.10638
 Alpha virt. eigenvalues --    0.11124   0.11598   0.12594   0.13198   0.13320

 Mulliken charges:
               1
     1  C    0.202480
     2  H   -0.354006
     3  C    0.663468
     4  H   -0.281733
     5  N   -0.520319
     6  C   -0.572633
     7  S    0.430718
     8  S    2.373795
     9  C    0.175070
    10  H    0.025229
    11  H    0.044557
    12  H    0.025277
    13  O   -1.105919
    14  O   -1.105982
 Sum of Mulliken charges =  -0.00000

 Dipole moment (field-independent basis, Debye):
    X=             -3.6963    Y=              3.5016    Z=             -0.0006  Tot=              5.0916

 Test job not archived.
 1\1\GINC-SE108\SP\RHF\Aug-CC-pVDZ\C4H5N1O2S2\OHZDE\09-Apr-2025\0\\#t h
 f aug-cc-pvdz iop(5/13=1,5/36=2,99/5=2) pseudo=read geom=check guess=(
 read,tcheck) scf=(maxcycle=1)\\title\\0,1\C,0,2.0287,-24.6291,-0.8964\
 H,0,0.9801,-24.638,-1.1632\C,0,2.815,-25.6814,-0.4697\H,0,2.4719,-26.7
 007,-0.3396\N,0,4.1196,-25.3682,-0.2021\C,0,4.3136,-24.0824,-0.4278\S,
 0,2.9484,-23.1883,-0.969\S,0,5.8967,-23.2815,-0.1936\C,0,6.9113,-24.63
 21,0.3558\H,0,6.9491,-25.393,-0.4221\H,0,7.8961,-24.1865,0.5157\H,0,6.
 5078,-25.03,1.2855\O,0,6.3637,-22.8366,-1.5013\O,0,5.7493,-22.3234,0.8

 Normal termination of Gaussian 16 at Wed Apr  9 02:20:03 2025.
