 Gaussian 16, Revision C.01,

 ----------------------------------------------------------------------
 #t hf aug-cc-pvdz symm=none int=(grid=ultrafine) guess=(read,tcheck) s
 table=(opt,rrhf)
 ----------------------------------------------------------------------
 -----
 title
 -----
 Symbolic Z-matrix:
 Charge =  0 Multiplicity = 1

 SCF Done:  E(RHF) =  -774.172786848     A.U. after   16 cycles
 Normal termination of Gaussian 16 at Wed Apr  9 02:21:00 2025.
 Gaussian 16:  ES64L-G16RevC.01  3-Jul-2019

 ----------------------------------------------------------------------
 #t hf aug-cc-pvdz iop(5/13=1,5/36=2,99/5=2) pseudo=read geom=check gue
 ss=(read,tcheck) scf=(maxcycle=1)
 ----------------------------------------------------------------------
 -----
 title
 -----
 Structure from the checkpoint file:  "DCONF_42_-70_mol1.chk"
 Charge =  0 Multiplicity = 1

                         Standard orientation:
 ---------------------------------------------------------------------
 Center     Atomic      Atomic             Coordinates (Angstroms)
 Number     Number       Type             X           Y           Z
 ---------------------------------------------------------------------
      1          6           0       -2.144661   -0.025246   -0.004265
      2          7           0       -1.025150   -0.502272   -0.681629
      3          1           0       -1.223392   -1.054055   -1.507776
      4          7           0        0.762232    1.109268   -0.728559
      5          6           0        2.064743    1.210062   -0.326201
      6          1           0        2.607700    2.131571   -0.500699
      7          6           0        2.598022    0.085819    0.274824
      8          1           0        3.603761   -0.062047    0.645217
      9         16           0        1.412766   -1.141669    0.357714
     10          6           0        0.285599   -0.085300   -0.432708
     11          8           0       -3.264617   -0.352311   -0.356394
     12          6           0       -1.852311    0.891732    1.161277
     13          1           0       -1.111762    0.451233    1.834808
     14          1           0       -2.784097    1.069217    1.696820
     15          1           0       -1.447456    1.837900    0.793107
 ---------------------------------------------------------------------

 SCF Done:  E(RHF) =  -774.307737392     A.U. after    2 cycles

 The electronic state is 1-A.
 Alpha  occ. eigenvalues --  -93.59624 -20.54944 -15.67198 -15.65800 -11.38117
 Alpha  occ. eigenvalues --  -11.37421 -11.29945 -11.29384 -11.25013  -8.89488
 Alpha  occ. eigenvalues --   -6.23592  -6.23476  -6.23128  -1.35859  -1.28853
 Alpha  occ. eigenvalues --   -1.20340  -1.07237  -1.01366  -0.99219  -0.84033
 Alpha  occ. eigenvalues --   -0.81541  -0.77470  -0.71847  -0.68894  -0.65280
 Alpha  occ. eigenvalues --   -0.63665  -0.60698  -0.59408  -0.57480  -0.56620
 Alpha  occ. eigenvalues --   -0.53427  -0.52175  -0.45855  -0.45215  -0.42422
 Alpha  occ. eigenvalues --   -0.40683  -0.35282
 Alpha virt. eigenvalues --    0.02744   0.04118   0.04220   0.04487   0.06551
 Alpha virt. eigenvalues --    0.07053   0.07924   0.08428   0.09403   0.09825
 Alpha virt. eigenvalues --    0.11020   0.12117   0.12478   0.12887   0.13012

 Mulliken charges:
               1
     1  C    0.444681
     2  N   -0.425089
     3  H   -0.076629
     4  N   -0.486471
     5  C    0.642825
     6  H   -0.263544
     7  C    0.159122
     8  H   -0.360466
     9  S    0.582998
    10  C   -0.032112
    11  O   -0.523361
    12  C    0.258413
    13  H    0.072645
    14  H   -0.114612
    15  H    0.121600
 Sum of Mulliken charges =  -0.00000

 Dipole moment (field-independent basis, Debye):
    X=              4.7284    Y=              0.0831    Z=              1.3966  Tot=              4.9310

 Test job not archived.
 1\1\GINC-SE292\SP\RHF\Aug-CC-pVDZ\C5H6N2O1S1\OHZDE\09-Apr-2025\0\\#t h
 f aug-cc-pvdz iop(5/13=1,5/36=2,99/5=2) pseudo=read geom=check guess=(
 read,tcheck) scf=(maxcycle=1)\\title\\0,1\C,0,28.4559,-16.8332,-1.1058
 \N,0,29.3139,-16.8435,-0.0088\H,0,28.908,-16.5155,0.8595\N,0,30.7473,-
 18.7772,0.0042\C,0,32.0836,-19.0649,-0.0067\H,0,32.4071,-20.0992,-0.00
 83\C,0,32.9341,-17.9758,0.0003\H,0,34.0159,-17.9712,0.0162\S,0,32.0222
 ,-16.5312,0.0001\C,0,30.5631,-17.4704,0.0109\O,0,27.3354,-16.3639,-1.0
 083\C,0,29.0226,-17.4278,-2.3747\H,0,30.0035,-17.0033,-2.6065\H,0,28.3

 Normal termination of Gaussian 16 at Wed Apr  9 02:21:24 2025.
