 Gaussian 16, Revision C.01,

 ----------------------------------------------------------------------
 #t hf aug-cc-pvdz symm=none int=(grid=ultrafine) guess=(read,tcheck) s
 table=(opt,rrhf)
 ----------------------------------------------------------------------
 -----
 title
 -----
 Symbolic Z-matrix:
 Charge =  0 Multiplicity = 1

 SCF Done:  E(RHF) =  -355.052971396     A.U. after   12 cycles
 Normal termination of Gaussian 16 at Wed Apr  9 02:26:22 2025.
 Gaussian 16:  ES64L-G16RevC.01  3-Jul-2019

 ----------------------------------------------------------------------
 #t hf aug-cc-pvdz iop(5/13=1,5/36=2,99/5=2) pseudo=read geom=check gue
 ss=(read,tcheck) scf=(maxcycle=1)
 ----------------------------------------------------------------------
 -----
 title
 -----
 Structure from the checkpoint file:  "DCONF_9_0_mol1.chk"
 Charge =  0 Multiplicity = 1

                         Standard orientation:
 ---------------------------------------------------------------------
 Center     Atomic      Atomic             Coordinates (Angstroms)
 Number     Number       Type             X           Y           Z
 ---------------------------------------------------------------------
      1          6           0        0.259368   -0.576933    0.369866
      2          1           0        0.527349   -0.894982    1.383572
      3          1           0        0.278587   -1.471215   -0.260446
      4          6           0        1.293592    0.433076   -0.133098
      5          1           0        1.267751    1.328366    0.495636
      6          1           0        1.029642    0.752778   -1.145227
      7          6           0        2.698022   -0.169987   -0.123839
      8          1           0        2.985536   -0.475323    0.887550
      9          1           0        3.438114    0.551176   -0.481677
     10          1           0        2.747300   -1.053215   -0.768643
     11          6           0       -1.179864   -0.066944    0.391844
     12          1           0       -1.651832   -0.096176    1.375781
     13          9           0       -1.960300   -0.819927   -0.448654
     14          9           0       -1.267384    1.224741   -0.053033
 ---------------------------------------------------------------------

 SCF Done:  E(RHF) =  -355.175734089     A.U. after    2 cycles

 The electronic state is 1-A.
 Alpha  occ. eigenvalues --  -26.12702 -26.12521 -11.41620 -11.25112 -11.24127
 Alpha  occ. eigenvalues --  -11.23250  -1.68942  -1.64430  -1.08703  -1.00752
 Alpha  occ. eigenvalues --   -0.91544  -0.82871  -0.80967  -0.79642  -0.76739
 Alpha  occ. eigenvalues --   -0.72033  -0.68575  -0.65631  -0.63471  -0.58350
 Alpha  occ. eigenvalues --   -0.56192  -0.54432  -0.49964  -0.49062  -0.48368
 Alpha virt. eigenvalues --    0.03346   0.04191   0.04832   0.05301   0.06611
 Alpha virt. eigenvalues --    0.07165   0.07652   0.08157   0.11509   0.12258
 Alpha virt. eigenvalues --    0.12576   0.13208   0.14918   0.15975   0.16257

 Mulliken charges:
               1
     1  C   -0.051805
     2  H   -0.076588
     3  H   -0.082943
     4  C    0.126157
     5  H   -0.101351
     6  H   -0.103897
     7  C    0.379074
     8  H   -0.064460
     9  H   -0.058060
    10  H   -0.058217
    11  C    1.039580
    12  H   -0.200761
    13  F   -0.364748
    14  F   -0.381982
 Sum of Mulliken charges =  -0.00000

 Dipole moment (field-independent basis, Debye):
    X=              1.9055    Y=             -0.7531    Z=              1.8035  Tot=              2.7296

 Test job not archived.
 1\1\GINC-SE367\SP\RHF\Aug-CC-pVDZ\C4H8F2\OHZDE\09-Apr-2025\0\\#t hf au
 g-cc-pvdz iop(5/13=1,5/36=2,99/5=2) pseudo=read geom=check guess=(read
 ,tcheck) scf=(maxcycle=1)\\title\\0,1\C,0,-0.1165,-0.0982,-0.0706\H,0,
 -0.1674,0.4244,-1.0323\H,0,-0.2101,0.6621,0.7108\C,0,1.2373,-0.8018,0.
 0514\H,0,1.3253,-1.5653,-0.7276\H,0,1.2921,-1.3245,1.0106\C,0,2.3872,0
 .1982,-0.0666\H,0,2.3586,0.7145,-1.0317\H,0,3.3551,-0.3035,0.019\H,0,2
 .3279,0.9553,0.7218\C,0,-1.3312,-1.0169,0.041\H,0,-1.9906,-0.9974,-0.8
 288\F,0,-2.0915,-0.6642,1.1273\F,0,-0.9646,-2.3218,0.233\\Version=ES64

 Normal termination of Gaussian 16 at Wed Apr  9 02:26:25 2025.
