 Gaussian 16, Revision C.01,

 ----------------------------------------------------------------------
 #t hf aug-cc-pvdz symm=none int=(grid=ultrafine) guess=(read,tcheck) s
 table=(opt,rrhf)
 ----------------------------------------------------------------------
 -----
 title
 -----
 Symbolic Z-matrix:
 Charge =  0 Multiplicity = 1

 SCF Done:  E(RHF) =  -703.114821368     A.U. after   16 cycles
 Normal termination of Gaussian 16 at Wed Apr  9 02:18:44 2025.
 Gaussian 16:  ES64L-G16RevC.01  3-Jul-2019

 ----------------------------------------------------------------------
 #t hf aug-cc-pvdz iop(5/13=1,5/36=2,99/5=2) pseudo=read geom=check gue
 ss=(read,tcheck) scf=(maxcycle=1)
 ----------------------------------------------------------------------
 -----
 title
 -----
 Structure from the checkpoint file:  "DCONF_24_-140_mol1.chk"
 Charge =  0 Multiplicity = 1

                         Standard orientation:
 ---------------------------------------------------------------------
 Center     Atomic      Atomic             Coordinates (Angstroms)
 Number     Number       Type             X           Y           Z
 ---------------------------------------------------------------------
      1          8           0       -2.251841    1.217349   -0.420015
      2          6           0       -2.279700   -1.011159    0.478109
      3          1           0       -1.949386   -1.911609   -0.050783
      4          1           0       -3.363006   -0.912584    0.398573
      5          1           0       -1.989307   -1.123599    1.527370
      6          6           0       -1.616432    0.226843   -0.085932
      7          6           0        0.649936    1.360591    0.190584
      8          1           0        0.212011    2.340974    0.342929
      9          6           0        2.029238    1.056834    0.252939
     10          1           0        2.811437    1.779398    0.457972
     11          6           0        2.281393   -0.287430    0.032252
     12          1           0        3.239615   -0.789461   -0.010988
     13         16           0        0.840784   -1.168220   -0.241856
     14          6           0       -0.130966    0.249256   -0.107164
 ---------------------------------------------------------------------

 SCF Done:  E(RHF) =  -703.229051232     A.U. after    2 cycles

 The electronic state is 1-A.
 Alpha  occ. eigenvalues --  -93.58293 -20.56445 -11.35806 -11.29422 -11.28378
 Alpha  occ. eigenvalues --  -11.26979 -11.26473 -11.25186  -8.88141  -6.22272
 Alpha  occ. eigenvalues --   -6.22137  -6.21786  -1.34998  -1.17838  -1.03739
 Alpha  occ. eigenvalues --   -0.99762  -0.98122  -0.83903  -0.77550  -0.72725
 Alpha  occ. eigenvalues --   -0.70227  -0.63795  -0.62719  -0.61522  -0.58025
 Alpha  occ. eigenvalues --   -0.56277  -0.54900  -0.53621  -0.51099  -0.48917
 Alpha  occ. eigenvalues --   -0.44085  -0.36280  -0.34232
 Alpha virt. eigenvalues --    0.03096   0.04018   0.04344   0.05245   0.06098
 Alpha virt. eigenvalues --    0.06395   0.06627   0.09243   0.09828   0.10848
 Alpha virt. eigenvalues --    0.11728   0.12622   0.12762   0.13492   0.13799

 Mulliken charges:
               1
     1  O   -0.552781
     2  C    0.351447
     3  H    0.033434
     4  H   -0.097746
     5  H    0.085787
     6  C   -0.200457
     7  C    0.230785
     8  H   -0.398463
     9  C    0.356802
    10  H   -0.291153
    11  C   -0.099032
    12  H   -0.350918
    13  S    0.815184
    14  C    0.117111
 Sum of Mulliken charges =  -0.00000

 Dipole moment (field-independent basis, Debye):
    X=              2.6281    Y=             -2.0450    Z=              1.4019  Tot=              3.6131

 Test job not archived.
 1\1\GINC-SE041\SP\RHF\Aug-CC-pVDZ\C6H6O1S1\OHZDE\09-Apr-2025\0\\#t hf
 aug-cc-pvdz iop(5/13=1,5/36=2,99/5=2) pseudo=read geom=check guess=(re
 ad,tcheck) scf=(maxcycle=1)\\title\\0,1\O,0,21.0492,-5.9629,0.4093\C,0
 ,21.573,-3.9908,-0.8596\H,0,22.0999,-3.1111,-0.4747\H,0,20.4964,-3.818
 5,-0.8306\H,0,21.901,-4.1419,-1.8928\C,0,21.9096,-5.2252,-0.0511\C,0,2
 3.8426,-6.8859,0.011\H,0,23.1852,-7.7484,0.0035\C,0,25.2554,-6.9279,-0
 .0184\H,0,25.8451,-7.8375,-0.0476\C,0,25.8185,-5.6621,-0.0178\H,0,26.8
 682,-5.3975,-0.0033\S,0,24.6264,-4.4356,0.0118\C,0,23.3457,-5.5883,0.0

 Normal termination of Gaussian 16 at Wed Apr  9 02:18:50 2025.
