 Gaussian 16, Revision C.01,

 ----------------------------------------------------------------------
 #t hf aug-cc-pvdz symm=none int=(grid=ultrafine) guess=(read,tcheck) s
 table=(opt,rrhf)
 ----------------------------------------------------------------------
 -----
 title
 -----
 Symbolic Z-matrix:
 Charge =  0 Multiplicity = 1

 SCF Done:  E(RHF) =  -575.159689459     A.U. after   15 cycles
 Normal termination of Gaussian 16 at Wed Apr  9 02:25:01 2025.
 Gaussian 16:  ES64L-G16RevC.01  3-Jul-2019

 ----------------------------------------------------------------------
 #t hf aug-cc-pvdz iop(5/13=1,5/36=2,99/5=2) pseudo=read geom=check gue
 ss=(read,tcheck) scf=(maxcycle=1)
 ----------------------------------------------------------------------
 -----
 title
 -----
 Structure from the checkpoint file:  "DCONF_48_0_mol2.chk"
 Charge =  0 Multiplicity = 1

                         Standard orientation:
 ---------------------------------------------------------------------
 Center     Atomic      Atomic             Coordinates (Angstroms)
 Number     Number       Type             X           Y           Z
 ---------------------------------------------------------------------
      1          6           0       -1.550353    1.002093    0.481985
      2          1           0       -1.009282    1.864351    0.854070
      3          6           0       -2.946463    0.987286    0.476262
      4          1           0       -3.505327    1.845362    0.839926
      5          6           0       -3.606015   -0.151979    0.008642
      6          1           0       -4.690144   -0.209713   -0.016566
      7          6           0       -2.830846   -1.232184   -0.426637
      8          1           0       -3.305967   -2.141338   -0.790699
      9          7           0       -1.488702   -1.234548   -0.431911
     10          6           0       -0.855122   -0.123100    0.004049
     11          6           0        2.648247   -1.548473    0.283312
     12          1           0        3.107133   -2.515897    0.465836
     13          6           0        1.257046   -1.436782    0.244624
     14          1           0        0.623537   -2.308023    0.380591
     15          6           0        0.625697   -0.198918    0.014475
     16          6           0        1.460757    0.911602   -0.168564
     17          6           0        2.849100    0.827598   -0.134153
     18          1           0        3.434467    1.727422   -0.296283
     19          6           0        3.448535   -0.413164    0.101838
     20          1           0        4.531680   -0.489813    0.133655
     21          9           0        0.914591    2.125068   -0.429127
 ---------------------------------------------------------------------

 SCF Done:  E(RHF) =  -575.329597339     A.U. after    2 cycles

 The electronic state is 1-A.
 Alpha  occ. eigenvalues --  -26.13856 -15.63437 -11.34629 -11.30212 -11.29019
 Alpha  occ. eigenvalues --  -11.27203 -11.26503 -11.26306 -11.25759 -11.25679
 Alpha  occ. eigenvalues --  -11.25444 -11.25326 -11.25117  -1.67666  -1.23399
 Alpha  occ. eigenvalues --   -1.15693  -1.07731  -1.06227  -1.02363  -0.99976
 Alpha  occ. eigenvalues --   -0.88588  -0.87562  -0.84979  -0.83023  -0.76660
 Alpha  occ. eigenvalues --   -0.75404  -0.74546  -0.71972  -0.68180  -0.66591
 Alpha  occ. eigenvalues --   -0.64778  -0.62071  -0.61800  -0.59862  -0.58060
 Alpha  occ. eigenvalues --   -0.55471  -0.54215  -0.52761  -0.51066  -0.50644
 Alpha  occ. eigenvalues --   -0.41950  -0.39291  -0.37548  -0.34737  -0.31686
 Alpha virt. eigenvalues --    0.03249   0.03402   0.03956   0.04788   0.05134
 Alpha virt. eigenvalues --    0.06301   0.06687   0.06952   0.07272   0.09201
 Alpha virt. eigenvalues --    0.09533   0.10457   0.10679   0.11419   0.11885

 Mulliken charges:
               1
     1  C    1.183954
     2  H   -0.540386
     3  C   -0.366874
     4  H   -0.404509
     5  C    0.902975
     6  H   -0.413914
     7  C    0.428857
     8  H   -0.393197
     9  N   -0.395478
    10  C   -0.612480
    11  C    0.297829
    12  H   -0.423176
    13  C    0.289556
    14  H   -0.571170
    15  C    1.247694
    16  C   -0.216089
    17  C    0.626471
    18  H   -0.452061
    19  C    0.531434
    20  H   -0.415679
    21  F   -0.303757
 Sum of Mulliken charges =  -0.00000

 Dipole moment (field-independent basis, Debye):
    X=             -0.2702    Y=             -0.2012    Z=              1.0668  Tot=              1.1187

 Test job not archived.
 1\1\GINC-SE344\SP\RHF\Aug-CC-pVDZ\C11H8F1N1\OHZDE\09-Apr-2025\0\\#t hf
  aug-cc-pvdz iop(5/13=1,5/36=2,99/5=2) pseudo=read geom=check guess=(r
 ead,tcheck) scf=(maxcycle=1)\\title\\0,1\C,0,21.7266,-34.1688,-0.7039\
 H,0,22.1822,-35.0053,-1.221\C,0,20.341,-33.9973,-0.7125\H,0,19.704,-34
 .7067,-1.2339\C,0,19.7948,-32.894,-0.0522\H,0,18.7232,-32.7194,-0.03\C
 ,0,20.6686,-32.005,0.5829\H,0,20.2839,-31.1287,1.1015\N,0,22.0021,-32.
 1556,0.6048\C,0,22.5245,-33.2345,-0.0196\C,0,26.1697,-32.1881,0.0094\H
 ,0,26.7371,-31.2619,0.0127\C,0,24.7741,-32.1467,0.0101\H,0,24.2442,-31

 Normal termination of Gaussian 16 at Wed Apr  9 02:25:18 2025.
