 Gaussian 16, Revision C.01,

 ----------------------------------------------------------------------
 #t hf aug-cc-pvdz symm=none int=(grid=ultrafine) guess=(read,tcheck) s
 table=(opt,rrhf)
 ----------------------------------------------------------------------
 -----
 title
 -----
 Symbolic Z-matrix:
 Charge =  0 Multiplicity = 1

 SCF Done:  E(RHF) =  -774.183605101     A.U. after   16 cycles
 Normal termination of Gaussian 16 at Wed Apr  9 02:21:29 2025.
 Gaussian 16:  ES64L-G16RevC.01  3-Jul-2019

 ----------------------------------------------------------------------
 #t hf aug-cc-pvdz iop(5/13=1,5/36=2,99/5=2) pseudo=read geom=check gue
 ss=(read,tcheck) scf=(maxcycle=1)
 ----------------------------------------------------------------------
 -----
 title
 -----
 Structure from the checkpoint file:  "DCONF_42_0_mol2.chk"
 Charge =  0 Multiplicity = 1

                         Standard orientation:
 ---------------------------------------------------------------------
 Center     Atomic      Atomic             Coordinates (Angstroms)
 Number     Number       Type             X           Y           Z
 ---------------------------------------------------------------------
      1          6           0        1.989793   -0.097798   -0.021305
      2          7           0        0.958417    0.815543   -0.023590
      3          1           0        1.152284    1.808613   -0.013211
      4          7           0       -1.296957    1.461305   -0.012829
      5          6           0       -2.554807    0.912898    0.003198
      6          1           0       -3.417994    1.567768    0.003001
      7          6           0       -2.600855   -0.460987    0.016952
      8          1           0       -3.470652   -1.103946    0.028664
      9         16           0       -1.010979   -1.117254    0.009889
     10          6           0       -0.397712    0.500021   -0.008849
     11          8           0        1.781308   -1.303536   -0.032912
     12          6           0        3.374049    0.508293    0.036029
     13          1           0        3.397137    1.542871   -0.314089
     14          1           0        4.044463   -0.100554   -0.571461
     15          1           0        3.726943    0.477110    1.070955
 ---------------------------------------------------------------------

 SCF Done:  E(RHF) =  -774.318988233     A.U. after    2 cycles

 The electronic state is 1-A.
 Alpha  occ. eigenvalues --  -93.57722 -20.56098 -15.69097 -15.63151 -11.39343
 Alpha  occ. eigenvalues --  -11.36719 -11.28120 -11.26753 -11.26477  -8.87475
 Alpha  occ. eigenvalues --   -6.21580  -6.21446  -6.21069  -1.37214  -1.27968
 Alpha  occ. eigenvalues --   -1.20728  -1.05137  -1.03543  -0.97313  -0.85441
 Alpha  occ. eigenvalues --   -0.79928  -0.77180  -0.70052  -0.69546  -0.65037
 Alpha  occ. eigenvalues --   -0.64227  -0.61537  -0.58858  -0.58085  -0.56582
 Alpha  occ. eigenvalues --   -0.53775  -0.50973  -0.46419  -0.45544  -0.43652
 Alpha  occ. eigenvalues --   -0.38527  -0.31673
 Alpha virt. eigenvalues --    0.02742   0.03710   0.04553   0.05173   0.05723
 Alpha virt. eigenvalues --    0.07030   0.09144   0.09654   0.09967   0.11155
 Alpha virt. eigenvalues --    0.11514   0.12623   0.12859   0.13052   0.13702

 Mulliken charges:
               1
     1  C    0.165973
     2  N   -0.494562
     3  H   -0.047743
     4  N   -0.458356
     5  C    0.765243
     6  H   -0.292371
     7  C    0.147717
     8  H   -0.402501
     9  S    0.599020
    10  C    0.146255
    11  O   -0.497718
    12  C    0.381250
    13  H   -0.111838
    14  H    0.022617
    15  H    0.077014
 Sum of Mulliken charges =  -0.00000

 Dipole moment (field-independent basis, Debye):
    X=              1.2841    Y=              2.4029    Z=              0.1282  Tot=              2.7276

 Test job not archived.
 1\1\GINC-SE108\SP\RHF\Aug-CC-pVDZ\C5H6N2O1S1\OHZDE\09-Apr-2025\0\\#t h
 f aug-cc-pvdz iop(5/13=1,5/36=2,99/5=2) pseudo=read geom=check guess=(
 read,tcheck) scf=(maxcycle=1)\\title\\0,1\C,0,29.0229,-15.5453,0.0014\
 N,0,29.3072,-16.8933,-0.0001\H,0,28.5601,-17.5754,0.0214\N,0,30.7341,-
 18.7555,-0.0007\C,0,32.0712,-19.0643,0.0002\H,0,32.3744,-20.1045,-0.00
 04\C,0,32.9267,-17.9882,0.0003\H,0,34.0084,-17.9899,-0.001\S,0,32.0406
 ,-16.514,-0.0007\C,0,30.5845,-17.4477,0.001\O,0,29.9084,-14.7011,-0.02
 35\C,0,27.5508,-15.2073,0.0754\H,0,26.9118,-16.0256,-0.2645\H,0,27.367

 Normal termination of Gaussian 16 at Wed Apr  9 02:21:39 2025.
