 Gaussian 16, Revision C.01,

 ----------------------------------------------------------------------
 #t hf aug-cc-pvdz symm=none int=(grid=ultrafine) guess=(read,tcheck) s
 table=(opt,rrhf)
 ----------------------------------------------------------------------
 -----
 title
 -----
 Symbolic Z-matrix:
 Charge =  0 Multiplicity = 1

 SCF Done:  E(RHF) =  -575.159608523     A.U. after   15 cycles
 Normal termination of Gaussian 16 at Wed Apr  9 02:25:28 2025.
 Gaussian 16:  ES64L-G16RevC.01  3-Jul-2019

 ----------------------------------------------------------------------
 #t hf aug-cc-pvdz iop(5/13=1,5/36=2,99/5=2) pseudo=read geom=check gue
 ss=(read,tcheck) scf=(maxcycle=1)
 ----------------------------------------------------------------------
 -----
 title
 -----
 Structure from the checkpoint file:  "DCONF_48_140_mol1.chk"
 Charge =  0 Multiplicity = 1

                         Standard orientation:
 ---------------------------------------------------------------------
 Center     Atomic      Atomic             Coordinates (Angstroms)
 Number     Number       Type             X           Y           Z
 ---------------------------------------------------------------------
      1          6           0       -1.546364    0.941403    0.604441
      2          1           0       -1.001340    1.760116    1.062031
      3          6           0       -2.941879    0.936891    0.573617
      4          1           0       -3.504790    1.759813    1.005965
      5          6           0       -3.596144   -0.148986   -0.014304
      6          1           0       -4.679768   -0.197570   -0.064662
      7          6           0       -2.818782   -1.186426   -0.540536
      8          1           0       -3.292240   -2.050944   -1.002119
      9          7           0       -1.475737   -1.197706   -0.523384
     10          6           0       -0.850458   -0.139436    0.036506
     11          6           0        2.670192   -1.518518    0.334246
     12          1           0        3.146596   -2.471911    0.543575
     13          6           0        1.276489   -1.426948    0.314736
     14          1           0        0.656775   -2.300671    0.494625
     15          6           0        0.629225   -0.205037    0.055841
     16          6           0        1.441995    0.906279   -0.199383
     17          6           0        2.831778    0.842095   -0.189397
     18          1           0        3.403539    1.739359   -0.405064
     19          6           0        3.450294   -0.381921    0.084677
     20          1           0        4.534660   -0.444169    0.097234
     21          9           0        0.865405    2.097060   -0.492285
 ---------------------------------------------------------------------

 SCF Done:  E(RHF) =  -575.329606528     A.U. after    2 cycles

 The electronic state is 1-A.
 Alpha  occ. eigenvalues --  -26.13776 -15.63495 -11.34569 -11.30119 -11.29003
 Alpha  occ. eigenvalues --  -11.27234 -11.26414 -11.26292 -11.25853 -11.25694
 Alpha  occ. eigenvalues --  -11.25465 -11.25387 -11.25159  -1.67584  -1.23402
 Alpha  occ. eigenvalues --   -1.15711  -1.07742  -1.06254  -1.02379  -0.99968
 Alpha  occ. eigenvalues --   -0.88580  -0.87459  -0.85075  -0.82996  -0.76666
 Alpha  occ. eigenvalues --   -0.75305  -0.74487  -0.71986  -0.68151  -0.66651
 Alpha  occ. eigenvalues --   -0.64751  -0.62194  -0.61855  -0.59909  -0.58121
 Alpha  occ. eigenvalues --   -0.55393  -0.54165  -0.52760  -0.51060  -0.50661
 Alpha  occ. eigenvalues --   -0.41990  -0.39070  -0.37421  -0.34749  -0.31975
 Alpha virt. eigenvalues --    0.03250   0.03405   0.03978   0.04718   0.05131
 Alpha virt. eigenvalues --    0.06266   0.06734   0.06847   0.07323   0.09391
 Alpha virt. eigenvalues --    0.09563   0.10270   0.10617   0.11530   0.11871

 Mulliken charges:
               1
     1  C    1.150187
     2  H   -0.533933
     3  C   -0.424387
     4  H   -0.400534
     5  C    0.918965
     6  H   -0.413609
     7  C    0.428957
     8  H   -0.388885
     9  N   -0.394887
    10  C   -0.616525
    11  C    0.249561
    12  H   -0.422142
    13  C    0.362078
    14  H   -0.551557
    15  C    1.240408
    16  C   -0.128027
    17  C    0.552159
    18  H   -0.444008
    19  C    0.537256
    20  H   -0.418105
    21  F   -0.302973
 Sum of Mulliken charges =   0.00000

 Dipole moment (field-independent basis, Debye):
    X=             -0.2535    Y=             -0.2094    Z=              1.2138  Tot=              1.2575

 Test job not archived.
 1\1\GINC-SE132\SP\RHF\Aug-CC-pVDZ\C11H8F1N1\OHZDE\09-Apr-2025\0\\#t hf
  aug-cc-pvdz iop(5/13=1,5/36=2,99/5=2) pseudo=read geom=check guess=(r
 ead,tcheck) scf=(maxcycle=1)\\title\\0,1\C,0,21.7458,-34.1034,-0.7992\
 H,0,22.2198,-34.8495,-1.428\C,0,20.3567,-33.9701,-0.7666\H,0,19.7271,-
 34.6181,-1.3705\C,0,19.7967,-32.983,0.0488\H,0,18.7218,-32.8416,0.1099
 \C,0,20.6582,-32.1685,0.7917\H,0,20.2597,-31.3858,1.4345\N,0,21.9963,-
 32.2844,0.776\C,0,22.5295,-33.2481,-0.0059\C,0,26.1707,-32.1865,0.0066
 \H,0,26.7398,-31.2614,0.014\C,0,24.7745,-32.1441,0.0068\H,0,24.2445,-3

 Normal termination of Gaussian 16 at Wed Apr  9 02:25:45 2025.
