 Gaussian 16, Revision C.01,

 ----------------------------------------------------------------------
 #t hf aug-cc-pvdz symm=none int=(grid=ultrafine) guess=(read,tcheck) s
 table=(opt,rrhf)
 ----------------------------------------------------------------------
 -----
 title
 -----
 Symbolic Z-matrix:
 Charge =  0 Multiplicity = 1

 SCF Done:  E(RHF) =  -453.945051690     A.U. after   11 cycles
 Normal termination of Gaussian 16 at Wed Apr  9 02:17:25 2025.
 Gaussian 16:  ES64L-G16RevC.01  3-Jul-2019

 ----------------------------------------------------------------------
 #t hf aug-cc-pvdz iop(5/13=1,5/36=2,99/5=2) pseudo=read geom=check gue
 ss=(read,tcheck) scf=(maxcycle=1)
 ----------------------------------------------------------------------
 -----
 title
 -----
 Structure from the checkpoint file:  "DCONF_10_0_mol2.chk"
 Charge =  0 Multiplicity = 1

                         Standard orientation:
 ---------------------------------------------------------------------
 Center     Atomic      Atomic             Coordinates (Angstroms)
 Number     Number       Type             X           Y           Z
 ---------------------------------------------------------------------
      1          6           0       -0.451507    0.622780    0.000659
      2          1           0       -0.532488    1.262459   -0.883786
      3          1           0       -0.531785    1.261752    0.885645
      4          6           0       -1.547728   -0.442550    0.000409
      5          1           0       -1.430017   -1.080935    0.881502
      6          1           0       -1.429395   -1.081508   -0.880267
      7          6           0       -2.937725    0.193732   -0.000262
      8          1           0       -3.079144    0.822230    0.884534
      9          1           0       -3.079173    0.820196   -0.886547
     10          1           0       -3.718287   -0.571598    0.000500
     11          6           0        0.936718    0.045027   -0.000151
     12          9           0        1.162412   -0.724763    1.083931
     13          9           0        1.876556    1.011687   -0.000784
     14          9           0        1.161225   -0.725427   -1.083760
 ---------------------------------------------------------------------

 SCF Done:  E(RHF) =  -454.104688916     A.U. after    2 cycles

 The electronic state is 1-A.
 Alpha  occ. eigenvalues --  -26.15642 -26.15630 -26.15604 -11.51454 -11.26692
 Alpha  occ. eigenvalues --  -11.25168 -11.24044  -1.75238  -1.68141  -1.68111
 Alpha  occ. eigenvalues --   -1.10962  -1.02744  -0.95042  -0.87624  -0.87189
 Alpha  occ. eigenvalues --   -0.84366  -0.79718  -0.76683  -0.76383  -0.72087
 Alpha  occ. eigenvalues --   -0.71885  -0.70827  -0.65307  -0.61990  -0.58175
 Alpha  occ. eigenvalues --   -0.56508  -0.51592  -0.50673  -0.49796
 Alpha virt. eigenvalues --    0.03274   0.04502   0.04736   0.05456   0.07078
 Alpha virt. eigenvalues --    0.07396   0.08002   0.09121   0.11018   0.12962
 Alpha virt. eigenvalues --    0.13328   0.13587   0.15258   0.15529   0.16438

 Mulliken charges:
               1
     1  C   -0.050122
     2  H   -0.066635
     3  H   -0.066824
     4  C    0.103316
     5  H   -0.105720
     6  H   -0.105404
     7  C    0.372432
     8  H   -0.054274
     9  H   -0.054402
    10  H   -0.060357
    11  C    1.085269
    12  F   -0.337726
    13  F   -0.322067
    14  F   -0.337485
 Sum of Mulliken charges =  -0.00000

 Dipole moment (field-independent basis, Debye):
    X=             -2.8869    Y=              0.8431    Z=             -0.0001  Tot=              3.0075

 Test job not archived.
 1\1\GINC-SE041\SP\RHF\Aug-CC-pVDZ\C4H7F3\OHZDE\09-Apr-2025\0\\#t hf au
 g-cc-pvdz iop(5/13=1,5/36=2,99/5=2) pseudo=read geom=check guess=(read
 ,tcheck) scf=(maxcycle=1)\\title\\0,1\C,0,-0.1442,0.0058,0.1879\H,0,0.
 1804,-0.6016,-0.6628\H,0,0.0479,-0.5658,1.1013\C,0,0.6018,1.3397,0.216
 6\H,0,0.2427,1.9353,1.0616\H,0,0.373,1.9005,-0.695\C,0,2.1112,1.1272,0
 .3328\H,0,2.3588,0.5831,1.2496\H,0,2.49,0.5497,-0.5163\H,0,2.6404,2.08
 35,0.3539\C,0,-1.6352,0.1627,0.0727\F,0,-2.1499,0.8574,1.1077\F,0,-2.2
 596,-1.032,0.0494\F,0,-1.9877,0.8151,-1.0535\\Version=ES64L-G16RevC.01

 Normal termination of Gaussian 16 at Wed Apr  9 02:17:30 2025.
