 Gaussian 16, Revision C.01,

 ----------------------------------------------------------------------
 #t hf aug-cc-pvdz symm=none int=(grid=ultrafine) guess=(read,tcheck) s
 table=(opt,rrhf)
 ----------------------------------------------------------------------
 -----
 title
 -----
 Symbolic Z-matrix:
 Charge =  0 Multiplicity = 1

 SCF Done:  E(RHF) =  -217.137960385     A.U. after   12 cycles
 Normal termination of Gaussian 16 at Wed Apr  9 02:25:09 2025.
 Gaussian 16:  ES64L-G16RevC.01  3-Jul-2019

 ----------------------------------------------------------------------
 #t hf aug-cc-pvdz iop(5/13=1,5/36=2,99/5=2) pseudo=read geom=check gue
 ss=(read,tcheck) scf=(maxcycle=1)
 ----------------------------------------------------------------------
 -----
 title
 -----
 Structure from the checkpoint file:  "DCONF_7_100_mol1.chk"
 Charge =  0 Multiplicity = 1

                         Standard orientation:
 ---------------------------------------------------------------------
 Center     Atomic      Atomic             Coordinates (Angstroms)
 Number     Number       Type             X           Y           Z
 ---------------------------------------------------------------------
      1          9           0        1.625105   -0.472414   -0.212999
      2          6           0        0.717448    0.372546    0.437680
      3          1           0        1.224672    1.333579    0.555674
      4          1           0        0.522949   -0.055502    1.425404
      5          6           0       -0.558214    0.505578   -0.387875
      6          1           0       -0.305110    0.275139   -1.426806
      7          1           0       -0.882743    1.552083   -0.366299
      8          6           0       -1.696950   -0.382488    0.115284
      9          1           0       -1.396467   -1.434779    0.121085
     10          1           0       -1.979634   -0.104758    1.135214
     11          1           0       -2.583317   -0.287851   -0.517823
 ---------------------------------------------------------------------

 SCF Done:  E(RHF) =  -217.212931792     A.U. after    2 cycles

 The electronic state is 1-A.
 Alpha  occ. eigenvalues --  -26.09404 -11.31685 -11.24063 -11.23261  -1.62463
 Alpha  occ. eigenvalues --   -1.06208  -0.94254  -0.83327  -0.73538  -0.73043
 Alpha  occ. eigenvalues --   -0.68944  -0.60838  -0.59463  -0.55596  -0.50348
 Alpha  occ. eigenvalues --   -0.49303  -0.48763
 Alpha virt. eigenvalues --    0.03481   0.04590   0.04775   0.05566   0.07171
 Alpha virt. eigenvalues --    0.07606   0.07761   0.11069   0.12217   0.14158
 Alpha virt. eigenvalues --    0.14929   0.15791   0.16616   0.17106   0.17563

 Mulliken charges:
               1
     1  F   -0.420159
     2  C    0.718458
     3  H   -0.168021
     4  H   -0.151470
     5  C    0.028375
     6  H   -0.043644
     7  H   -0.053657
     8  C    0.294440
     9  H   -0.049437
    10  H   -0.056985
    11  H   -0.097899
 Sum of Mulliken charges =  -0.00000

 Dipole moment (field-independent basis, Debye):
    X=             -1.7380    Y=              1.3719    Z=              0.8532  Tot=              2.3729

 Test job not archived.
 1\1\GINC-SE127\SP\RHF\Aug-CC-pVDZ\C3H7F1\OHZDE\09-Apr-2025\0\\#t hf au
 g-cc-pvdz iop(5/13=1,5/36=2,99/5=2) pseudo=read geom=check guess=(read
 ,tcheck) scf=(maxcycle=1)\\title\\0,1\F,0,13.2551,-26.4762,0.005\C,0,1
 4.4034,-25.6746,0.0001\H,0,14.3464,-25.053,0.8974\H,0,14.3511,-25.0343
 ,-0.8853\C,0,15.6527,-26.5497,-0.0015\H,0,15.3753,-27.5226,0.4145\H,0,
 16.3888,-26.1119,0.6822\C,0,16.2824,-26.6985,-1.3871\H,0,15.5643,-27.1
 189,-2.0979\H,0,16.6075,-25.7258,-1.7685\H,0,17.1542,-27.3577,-1.358\\
 Version=ES64L-G16RevC.01\State=1-A\HF=-217.2129318\RMSD=4.865e-03\Dipo

 Normal termination of Gaussian 16 at Wed Apr  9 02:25:12 2025.
