 Gaussian 16, Revision C.01,

 ----------------------------------------------------------------------
 #t hf aug-cc-pvdz symm=none int=(grid=ultrafine) guess=(read,tcheck) s
 table=(opt,rrhf)
 ----------------------------------------------------------------------
 -----
 title
 -----
 Symbolic Z-matrix:
 Charge =  0 Multiplicity = 1

 SCF Done:  E(RHF) =  -1153.54745534     A.U. after   15 cycles
 Normal termination of Gaussian 16 at Wed Apr  9 02:19:51 2025.
 Gaussian 16:  ES64L-G16RevC.01  3-Jul-2019

 ----------------------------------------------------------------------
 #t hf aug-cc-pvdz iop(5/13=1,5/36=2,99/5=2) pseudo=read geom=check gue
 ss=(read,tcheck) scf=(maxcycle=1)
 ----------------------------------------------------------------------
 -----
 title
 -----
 Structure from the checkpoint file:  "DCONF_29_110_mol1.chk"
 Charge =  0 Multiplicity = 1

                         Standard orientation:
 ---------------------------------------------------------------------
 Center     Atomic      Atomic             Coordinates (Angstroms)
 Number     Number       Type             X           Y           Z
 ---------------------------------------------------------------------
      1          6           0       -2.742562   -0.160921    0.057593
      2          1           0       -3.745029   -0.568271    0.068589
      3          6           0       -2.351808    1.166285    0.102220
      4          1           0       -3.030567    2.009475    0.152936
      5          7           0       -1.005905    1.386533    0.067705
      6          6           0       -0.374092    0.230663    0.013045
      7         16           0       -1.371983   -1.174255   -0.055076
      8         16           0        1.403725    0.098119   -0.168323
      9          6           0        1.913319   -0.509369    1.428161
     10          1           0        1.639590    0.224087    2.188110
     11          1           0        2.998782   -0.619392    1.376423
     12          1           0        1.441568   -1.475869    1.607902
     13          8           0        1.948029    1.428223   -0.360177
     14          8           0        1.621968   -0.980416   -1.127276
 ---------------------------------------------------------------------

 SCF Done:  E(RHF) =  -1153.75036675     A.U. after    2 cycles

 The electronic state is 1-A.
 Alpha  occ. eigenvalues --  -93.80026 -93.61283 -20.56816 -20.56754 -15.67960
 Alpha  occ. eigenvalues --  -11.35778 -11.31088 -11.30908 -11.29678  -9.06650
 Alpha  occ. eigenvalues --   -8.91099  -6.41281  -6.41099  -6.41026  -6.25199
 Alpha  occ. eigenvalues --   -6.25076  -6.24725  -1.42631  -1.31227  -1.28659
 Alpha  occ. eigenvalues --   -1.08621  -1.06644  -1.02163  -0.89167  -0.82305
 Alpha  occ. eigenvalues --   -0.76855  -0.72984  -0.68759  -0.67469  -0.66526
 Alpha  occ. eigenvalues --   -0.62172  -0.61605  -0.60914  -0.58526  -0.53759
 Alpha  occ. eigenvalues --   -0.52673  -0.52298  -0.50010  -0.48435  -0.45258
 Alpha  occ. eigenvalues --   -0.41761  -0.37131
 Alpha virt. eigenvalues --    0.02502   0.03474   0.04227   0.04895   0.05815
 Alpha virt. eigenvalues --    0.06028   0.07949   0.09765   0.10167   0.10692
 Alpha virt. eigenvalues --    0.11038   0.11537   0.12724   0.13052   0.13322

 Mulliken charges:
               1
     1  C    0.138716
     2  H   -0.346312
     3  C    0.757254
     4  H   -0.270709
     5  N   -0.544861
     6  C   -0.608988
     7  S    0.495738
     8  S    2.558196
     9  C   -0.007402
    10  H    0.008223
    11  H    0.010553
    12  H    0.001661
    13  O   -1.076066
    14  O   -1.116003
 Sum of Mulliken charges =  -0.00000

 Dipole moment (field-independent basis, Debye):
    X=             -3.9601    Y=             -2.3273    Z=              4.1557  Tot=              6.1942

 Test job not archived.
 1\1\GINC-SE412\SP\RHF\Aug-CC-pVDZ\C4H5N1O2S2\OHZDE\09-Apr-2025\0\\#t h
 f aug-cc-pvdz iop(5/13=1,5/36=2,99/5=2) pseudo=read geom=check guess=(
 read,tcheck) scf=(maxcycle=1)\\title\\0,1\C,0,2.0229,-24.6256,-0.8863\
 H,0,0.9693,-24.6334,-1.133\C,0,2.8137,-25.6759,-0.4531\H,0,2.4636,-26.
 689,-0.294\N,0,4.1207,-25.3693,-0.2104\C,0,4.3276,-24.094,-0.4731\S,0,
 2.9458,-23.1907,-0.972\S,0,5.8913,-23.2753,-0.1638\C,0,6.5079,-22.9798
 ,-1.81\H,0,6.6476,-23.9387,-2.3114\H,0,7.4659,-22.47,-1.6861\H,0,5.803
 8,-22.341,-2.344\O,0,6.775,-24.2079,0.5082\O,0,5.549,-21.9757,0.4057\\

 Normal termination of Gaussian 16 at Wed Apr  9 02:19:57 2025.
