 Gaussian 16, Revision C.01,

 ----------------------------------------------------------------------
 #t hf aug-cc-pvdz symm=none int=(grid=ultrafine) guess=(read,tcheck) s
 table=(opt,rrhf)
 ----------------------------------------------------------------------
 -----
 title
 -----
 Symbolic Z-matrix:
 Charge =  0 Multiplicity = 1

 SCF Done:  E(RHF) =  -217.139459310     A.U. after   12 cycles
 Normal termination of Gaussian 16 at Wed Apr  9 02:24:39 2025.
 Gaussian 16:  ES64L-G16RevC.01  3-Jul-2019

 ----------------------------------------------------------------------
 #t hf aug-cc-pvdz iop(5/13=1,5/36=2,99/5=2) pseudo=read geom=check gue
 ss=(read,tcheck) scf=(maxcycle=1)
 ----------------------------------------------------------------------
 -----
 title
 -----
 Structure from the checkpoint file:  "DCONF_7_-150_mol1.chk"
 Charge =  0 Multiplicity = 1

                         Standard orientation:
 ---------------------------------------------------------------------
 Center     Atomic      Atomic             Coordinates (Angstroms)
 Number     Number       Type             X           Y           Z
 ---------------------------------------------------------------------
      1          9           0        1.828614   -0.152395   -0.196417
      2          6           0        0.637362    0.470379    0.187843
      3          1           0        0.797508    0.911320    1.175534
      4          1           0        0.456651    1.270585   -0.536874
      5          6           0       -0.510456   -0.527938    0.173460
      6          1           0       -0.286159   -1.264247   -0.605097
      7          1           0       -0.559659   -1.066970    1.123931
      8          6           0       -1.844828    0.149594   -0.145419
      9          1           0       -1.817663    0.601420   -1.141201
     10          1           0       -2.075244    0.939140    0.577561
     11          1           0       -2.665430   -0.571902   -0.121407
 ---------------------------------------------------------------------

 SCF Done:  E(RHF) =  -217.214460312     A.U. after    2 cycles

 The electronic state is 1-A.
 Alpha  occ. eigenvalues --  -26.09475 -11.31676 -11.24039 -11.23704  -1.62552
 Alpha  occ. eigenvalues --   -1.06479  -0.94213  -0.83469  -0.73857  -0.72496
 Alpha  occ. eigenvalues --   -0.69457  -0.62680  -0.58060  -0.54634  -0.51559
 Alpha  occ. eigenvalues --   -0.49501  -0.48717
 Alpha virt. eigenvalues --    0.03442   0.04613   0.04763   0.05458   0.07266
 Alpha virt. eigenvalues --    0.07531   0.07825   0.11075   0.12275   0.14832
 Alpha virt. eigenvalues --    0.15284   0.15485   0.16661   0.16956   0.17155

 Mulliken charges:
               1
     1  F   -0.418659
     2  C    0.713842
     3  H   -0.119751
     4  H   -0.182424
     5  C   -0.065978
     6  H   -0.028921
     7  H   -0.043309
     8  C    0.336122
     9  H   -0.056690
    10  H   -0.041745
    11  H   -0.092488
 Sum of Mulliken charges =   0.00000

 Dipole moment (field-independent basis, Debye):
    X=             -2.2216    Y=              0.7916    Z=              0.5805  Tot=              2.4288

 Test job not archived.
 1\1\GINC-SE338\SP\RHF\Aug-CC-pVDZ\C3H7F1\OHZDE\09-Apr-2025\0\\#t hf au
 g-cc-pvdz iop(5/13=1,5/36=2,99/5=2) pseudo=read geom=check guess=(read
 ,tcheck) scf=(maxcycle=1)\\title\\0,1\F,0,13.2553,-26.4747,0.005\C,0,1
 4.404,-25.6778,0.0001\H,0,14.3487,-25.022,-0.8731\H,0,14.3642,-25.0688
 ,0.9088\C,0,15.6519,-26.5479,-0.0015\H,0,15.4015,-27.4698,0.5333\H,0,1
 5.9197,-26.8296,-1.0239\C,0,16.8218,-25.8595,0.7047\H,0,16.5794,-25.67
 13,1.7546\H,0,17.0626,-24.8994,0.2363\H,0,17.7204,-26.4806,0.669\\Vers
 ion=ES64L-G16RevC.01\State=1-A\HF=-217.2144603\RMSD=4.768e-03\Dipole=0

 Normal termination of Gaussian 16 at Wed Apr  9 02:24:42 2025.
