 Gaussian 16, Revision C.01,

 ----------------------------------------------------------------------
 #t hf aug-cc-pvdz symm=none int=(grid=ultrafine) guess=(read,tcheck) s
 table=(opt,rrhf)
 ----------------------------------------------------------------------
 -----
 title
 -----
 Symbolic Z-matrix:
 Charge =  0 Multiplicity = 1

 SCF Done:  E(RHF) =  -1153.54613064     A.U. after   16 cycles
 Normal termination of Gaussian 16 at Wed Apr  9 02:19:29 2025.
 Gaussian 16:  ES64L-G16RevC.01  3-Jul-2019

 ----------------------------------------------------------------------
 #t hf aug-cc-pvdz iop(5/13=1,5/36=2,99/5=2) pseudo=read geom=check gue
 ss=(read,tcheck) scf=(maxcycle=1)
 ----------------------------------------------------------------------
 -----
 title
 -----
 Structure from the checkpoint file:  "DCONF_29_-120_mol1.chk"
 Charge =  0 Multiplicity = 1

                         Standard orientation:
 ---------------------------------------------------------------------
 Center     Atomic      Atomic             Coordinates (Angstroms)
 Number     Number       Type             X           Y           Z
 ---------------------------------------------------------------------
      1          6           0        2.744026   -0.174847    0.041104
      2          1           0        3.743626   -0.589700    0.039422
      3          6           0        2.362078    1.153160    0.111056
      4          1           0        3.047006    1.990997    0.168219
      5          7           0        1.016992    1.382716    0.098215
      6          6           0        0.375507    0.232959    0.034803
      7         16           0        1.364738   -1.176985   -0.068378
      8         16           0       -1.405560    0.129170   -0.154588
      9          6           0       -1.898084   -0.755573    1.312782
     10          1           0       -1.610117   -0.174102    2.190038
     11          1           0       -2.984960   -0.848448    1.256554
     12          1           0       -1.433710   -1.742077    1.310274
     13          8           0       -1.949176    1.471885   -0.096341
     14          8           0       -1.641924   -0.757488   -1.289037
 ---------------------------------------------------------------------

 SCF Done:  E(RHF) =  -1153.74909730     A.U. after    2 cycles

 The electronic state is 1-A.
 Alpha  occ. eigenvalues --  -93.80053 -93.61310 -20.56802 -20.56750 -15.67959
 Alpha  occ. eigenvalues --  -11.35859 -11.31142 -11.30939 -11.29729  -9.06672
 Alpha  occ. eigenvalues --   -8.91143  -6.41301  -6.41120  -6.41052  -6.25249
 Alpha  occ. eigenvalues --   -6.25124  -6.24769  -1.42628  -1.31205  -1.28675
 Alpha  occ. eigenvalues --   -1.08679  -1.06703  -1.02165  -0.89194  -0.82343
 Alpha  occ. eigenvalues --   -0.76847  -0.73013  -0.68734  -0.67475  -0.66576
 Alpha  occ. eigenvalues --   -0.62199  -0.61686  -0.60919  -0.58602  -0.53711
 Alpha  occ. eigenvalues --   -0.52782  -0.52295  -0.50026  -0.48347  -0.45288
 Alpha  occ. eigenvalues --   -0.41826  -0.37136
 Alpha virt. eigenvalues --    0.02483   0.03456   0.04263   0.04966   0.05655
 Alpha virt. eigenvalues --    0.06007   0.08035   0.09756   0.10100   0.10851
 Alpha virt. eigenvalues --    0.11011   0.11505   0.12649   0.12934   0.13342

 Mulliken charges:
               1
     1  C    0.119851
     2  H   -0.345196
     3  C    0.767547
     4  H   -0.267198
     5  N   -0.539381
     6  C   -0.591372
     7  S    0.485260
     8  S    2.542200
     9  C    0.002975
    10  H    0.011648
    11  H    0.009869
    12  H   -0.002564
    13  O   -1.074831
    14  O   -1.118808
 Sum of Mulliken charges =  -0.00000

 Dipole moment (field-independent basis, Debye):
    X=              4.0113    Y=             -3.0409    Z=              3.8272  Tot=              6.3234

 Test job not archived.
 1\1\GINC-SE128\SP\RHF\Aug-CC-pVDZ\C4H5N1O2S2\OHZDE\09-Apr-2025\0\\#t h
 f aug-cc-pvdz iop(5/13=1,5/36=2,99/5=2) pseudo=read geom=check guess=(
 read,tcheck) scf=(maxcycle=1)\\title\\0,1\C,0,2.0285,-24.6337,-0.9139\
 H,0,0.9845,-24.6515,-1.1986\C,0,2.8241,-25.683,-0.4892\H,0,2.4915,-26.
 7095,-0.389\N,0,4.1163,-25.3617,-0.1907\C,0,4.3009,-24.0692,-0.3719\S,
 0,2.9398,-23.1895,-0.9641\S,0,5.9124,-23.2937,-0.2287\C,0,5.6569,-22.1
 138,1.0832\H,0,5.3752,-22.6495,1.9911\H,0,6.6143,-21.6064,1.2211\H,0,4
 .8908,-21.3997,0.7799\O,0,6.8614,-24.2939,0.2194\O,0,6.1068,-22.5321,-

 Normal termination of Gaussian 16 at Wed Apr  9 02:19:36 2025.
