 Gaussian 16, Revision C.01,

 ----------------------------------------------------------------------
 #t hf aug-cc-pvdz symm=none int=(grid=ultrafine) guess=(read,tcheck) s
 table=(opt,rrhf)
 ----------------------------------------------------------------------
 -----
 title
 -----
 Symbolic Z-matrix:
 Charge =  0 Multiplicity = 1

 SCF Done:  E(RHF) =  -217.136757683     A.U. after   12 cycles
 Normal termination of Gaussian 16 at Wed Apr  9 02:24:39 2025.
 Gaussian 16:  ES64L-G16RevC.01  3-Jul-2019

 ----------------------------------------------------------------------
 #t hf aug-cc-pvdz iop(5/13=1,5/36=2,99/5=2) pseudo=read geom=check gue
 ss=(read,tcheck) scf=(maxcycle=1)
 ----------------------------------------------------------------------
 -----
 title
 -----
 Structure from the checkpoint file:  "DCONF_7_-110_mol1.chk"
 Charge =  0 Multiplicity = 1

                         Standard orientation:
 ---------------------------------------------------------------------
 Center     Atomic      Atomic             Coordinates (Angstroms)
 Number     Number       Type             X           Y           Z
 ---------------------------------------------------------------------
      1          9           0       -1.680012   -0.390652   -0.255067
      2          6           0       -0.700084    0.275692    0.490474
      3          1           0       -0.487523   -0.343919    1.366983
      4          1           0       -1.147943    1.217033    0.818373
      5          6           0        0.549906    0.500839   -0.361439
      6          1           0        0.829589    1.558930   -0.323466
      7          1           0        0.280859    0.283648   -1.399256
      8          6           0        1.737659   -0.355644    0.079482
      9          1           0        2.031179   -0.114402    1.105692
     10          1           0        1.483626   -1.419433    0.041348
     11          1           0        2.605439   -0.191311   -0.565176
 ---------------------------------------------------------------------

 SCF Done:  E(RHF) =  -217.211716585     A.U. after    2 cycles

 The electronic state is 1-A.
 Alpha  occ. eigenvalues --  -26.09409 -11.31694 -11.24043 -11.23361  -1.62478
 Alpha  occ. eigenvalues --   -1.06162  -0.94237  -0.83395  -0.73588  -0.72908
 Alpha  occ. eigenvalues --   -0.69024  -0.61271  -0.59103  -0.55470  -0.50513
 Alpha  occ. eigenvalues --   -0.49328  -0.48635
 Alpha virt. eigenvalues --    0.03479   0.04602   0.04766   0.05581   0.07146
 Alpha virt. eigenvalues --    0.07630   0.07726   0.11079   0.12278   0.14174
 Alpha virt. eigenvalues --    0.14996   0.15755   0.16625   0.17126   0.17422

 Mulliken charges:
               1
     1  F   -0.416117
     2  C    0.719699
     3  H   -0.174462
     4  H   -0.162515
     5  C    0.015894
     6  H   -0.054609
     7  H   -0.032274
     8  C    0.309173
     9  H   -0.051103
    10  H   -0.049890
    11  H   -0.103796
 Sum of Mulliken charges =  -0.00000

 Dipole moment (field-independent basis, Debye):
    X=              1.8525    Y=              1.1008    Z=              0.9941  Tot=              2.3731

 Test job not archived.
 1\1\GINC-SE188\SP\RHF\Aug-CC-pVDZ\C3H7F1\OHZDE\09-Apr-2025\0\\#t hf au
 g-cc-pvdz iop(5/13=1,5/36=2,99/5=2) pseudo=read geom=check guess=(read
 ,tcheck) scf=(maxcycle=1)\\title\\0,1\F,0,13.2533,-26.4754,0.005\C,0,1
 4.4019,-25.6749,0.0001\H,0,14.3527,-25.0381,0.8886\H,0,14.3381,-25.048
 1,-0.8928\C,0,15.656,-26.5502,-0.0015\H,0,16.3139,-26.2407,-0.8204\H,0
 ,15.3392,-27.5737,-0.2222\C,0,16.4263,-26.4957,1.3185\H,0,16.775,-25.4
 789,1.5234\H,0,15.79,-26.8096,2.1517\H,0,17.3007,-27.1518,1.2942\\Vers
 ion=ES64L-G16RevC.01\State=1-A\HF=-217.2117166\RMSD=4.793e-03\Dipole=0

 Normal termination of Gaussian 16 at Wed Apr  9 02:24:42 2025.
