 Gaussian 16, Revision C.01,

 ----------------------------------------------------------------------
 #t hf aug-cc-pvdz symm=none int=(grid=ultrafine) guess=(read,tcheck) s
 table=(opt,rrhf)
 ----------------------------------------------------------------------
 -----
 title
 -----
 Symbolic Z-matrix:
 Charge =  0 Multiplicity = 1

 SCF Done:  E(RHF) =  -355.053555735     A.U. after   12 cycles
 Normal termination of Gaussian 16 at Wed Apr  9 02:26:24 2025.
 Gaussian 16:  ES64L-G16RevC.01  3-Jul-2019

 ----------------------------------------------------------------------
 #t hf aug-cc-pvdz iop(5/13=1,5/36=2,99/5=2) pseudo=read geom=check gue
 ss=(read,tcheck) scf=(maxcycle=1)
 ----------------------------------------------------------------------
 -----
 title
 -----
 Structure from the checkpoint file:  "DCONF_9_-10_mol1.chk"
 Charge =  0 Multiplicity = 1

                         Standard orientation:
 ---------------------------------------------------------------------
 Center     Atomic      Atomic             Coordinates (Angstroms)
 Number     Number       Type             X           Y           Z
 ---------------------------------------------------------------------
      1          6           0        0.262155   -0.539693    0.457253
      2          1           0        0.537097   -0.675485    1.509601
      3          1           0        0.309005   -1.525805   -0.014390
      4          6           0        1.266804    0.412389   -0.195538
      5          1           0        1.224208    1.384274    0.304092
      6          1           0        0.985798    0.582810   -1.239560
      7          6           0        2.685216   -0.151867   -0.121968
      8          1           0        2.987812   -0.312430    0.918079
      9          1           0        3.404659    0.532232   -0.580318
     10          1           0        2.751655   -1.111781   -0.643668
     11          6           0       -1.189804   -0.076675    0.400820
     12          1           0       -1.722014   -0.140980    1.351575
     13          9           0       -1.889052   -0.838634   -0.503143
     14          9           0       -1.291442    1.216660   -0.035614
 ---------------------------------------------------------------------

 SCF Done:  E(RHF) =  -355.176301838     A.U. after    2 cycles

 The electronic state is 1-A.
 Alpha  occ. eigenvalues --  -26.12733 -26.12414 -11.41619 -11.25118 -11.24066
 Alpha  occ. eigenvalues --  -11.23217  -1.68919  -1.64356  -1.08719  -1.00756
 Alpha  occ. eigenvalues --   -0.91517  -0.82927  -0.80808  -0.79643  -0.76699
 Alpha  occ. eigenvalues --   -0.72015  -0.68525  -0.65464  -0.63613  -0.58233
 Alpha  occ. eigenvalues --   -0.56206  -0.54635  -0.49953  -0.48973  -0.48364
 Alpha virt. eigenvalues --    0.03353   0.04163   0.04880   0.05274   0.06608
 Alpha virt. eigenvalues --    0.07213   0.07650   0.08104   0.11620   0.12090
 Alpha virt. eigenvalues --    0.12636   0.13175   0.14845   0.15946   0.16293

 Mulliken charges:
               1
     1  C   -0.012418
     2  H   -0.077577
     3  H   -0.097852
     4  C    0.101294
     5  H   -0.095670
     6  H   -0.109981
     7  C    0.385003
     8  H   -0.061642
     9  H   -0.057038
    10  H   -0.061201
    11  C    1.042325
    12  H   -0.206302
    13  F   -0.373246
    14  F   -0.375695
 Sum of Mulliken charges =  -0.00000

 Dipole moment (field-independent basis, Debye):
    X=              1.8023    Y=             -0.7342    Z=              1.9031  Tot=              2.7220

 Test job not archived.
 1\1\GINC-SE208\SP\RHF\Aug-CC-pVDZ\C4H8F2\OHZDE\09-Apr-2025\0\\#t hf au
 g-cc-pvdz iop(5/13=1,5/36=2,99/5=2) pseudo=read geom=check guess=(read
 ,tcheck) scf=(maxcycle=1)\\title\\0,1\C,0,-0.117,-0.0992,-0.0782\H,0,-
 0.1676,0.4022,-1.0516\H,0,-0.2136,0.6777,0.6861\C,0,1.2366,-0.8026,0.0
 439\H,0,1.3262,-1.5576,-0.7422\H,0,1.2886,-1.335,0.9988\C,0,2.3866,0.1
 987,-0.059\H,0,2.3583,0.7283,-1.017\H,0,3.3542,-0.3046,0.0192\H,0,2.32
 8,0.9448,0.7397\C,0,-1.3294,-1.0156,0.0485\H,0,-2.0852,-0.875,-0.7263\
 F,0,-1.9491,-0.8073,1.2565\F,0,-0.9692,-2.336,0.0306\\Version=ES64L-G1

 Normal termination of Gaussian 16 at Wed Apr  9 02:26:28 2025.
