 Gaussian 16, Revision C.01,

 ----------------------------------------------------------------------
 #t hf aug-cc-pvdz symm=none int=(grid=ultrafine) guess=(read,tcheck) s
 table=(opt,rrhf)
 ----------------------------------------------------------------------
 -----
 title
 -----
 Symbolic Z-matrix:
 Charge =  0 Multiplicity = 1

 SCF Done:  E(RHF) =  -774.181372742     A.U. after   16 cycles
 Normal termination of Gaussian 16 at Wed Apr  9 02:20:56 2025.
 Gaussian 16:  ES64L-G16RevC.01  3-Jul-2019

 ----------------------------------------------------------------------
 #t hf aug-cc-pvdz iop(5/13=1,5/36=2,99/5=2) pseudo=read geom=check gue
 ss=(read,tcheck) scf=(maxcycle=1)
 ----------------------------------------------------------------------
 -----
 title
 -----
 Structure from the checkpoint file:  "DCONF_42_-150_mol1.chk"
 Charge =  0 Multiplicity = 1

                         Standard orientation:
 ---------------------------------------------------------------------
 Center     Atomic      Atomic             Coordinates (Angstroms)
 Number     Number       Type             X           Y           Z
 ---------------------------------------------------------------------
      1          6           0       -1.990541   -0.121110    0.026073
      2          7           0       -0.968717    0.745422   -0.333121
      3          1           0       -1.168629    1.738801   -0.351201
      4          7           0        1.237407    1.460071    0.077822
      5          6           0        2.505610    0.950086    0.202089
      6          1           0        3.332844    1.625290    0.384637
      7          6           0        2.607185   -0.417739    0.098857
      8          1           0        3.489299   -1.035710    0.198249
      9         16           0        1.057154   -1.114205   -0.160099
     10          6           0        0.386379    0.476829   -0.127877
     11          8           0       -1.782731   -1.301764    0.258177
     12          6           0       -3.358064    0.521462    0.085016
     13          1           0       -3.456849    1.343032   -0.628638
     14          1           0       -3.521239    0.912824    1.094124
     15          1           0       -4.112284   -0.238470   -0.118859
 ---------------------------------------------------------------------

 SCF Done:  E(RHF) =  -774.316612571     A.U. after    2 cycles

 The electronic state is 1-A.
 Alpha  occ. eigenvalues --  -93.57730 -20.56271 -15.68777 -15.63340 -11.39311
 Alpha  occ. eigenvalues --  -11.36635 -11.28198 -11.26731 -11.26714  -8.87523
 Alpha  occ. eigenvalues --   -6.21631  -6.21498  -6.21125  -1.37275  -1.27959
 Alpha  occ. eigenvalues --   -1.20620  -1.05254  -1.03474  -0.97296  -0.84979
 Alpha  occ. eigenvalues --   -0.79756  -0.76982  -0.70073  -0.69638  -0.65010
 Alpha  occ. eigenvalues --   -0.64219  -0.61604  -0.58824  -0.57881  -0.56626
 Alpha  occ. eigenvalues --   -0.53803  -0.50850  -0.46351  -0.45923  -0.43750
 Alpha  occ. eigenvalues --   -0.38539  -0.31928
 Alpha virt. eigenvalues --    0.02826   0.03686   0.04585   0.05042   0.05719
 Alpha virt. eigenvalues --    0.07230   0.08859   0.09708   0.09835   0.11117
 Alpha virt. eigenvalues --    0.11490   0.12528   0.12966   0.13321   0.13549

 Mulliken charges:
               1
     1  C    0.265128
     2  N   -0.530434
     3  H   -0.031888
     4  N   -0.460364
     5  C    0.691020
     6  H   -0.283683
     7  C    0.158791
     8  H   -0.387753
     9  S    0.592381
    10  C    0.100397
    11  O   -0.487402
    12  C    0.361776
    13  H   -0.057591
    14  H    0.066388
    15  H    0.003233
 Sum of Mulliken charges =  -0.00000

 Dipole moment (field-independent basis, Debye):
    X=             -1.1375    Y=              2.3464    Z=             -0.3312  Tot=              2.6285

 Test job not archived.
 1\1\GINC-SE403\SP\RHF\Aug-CC-pVDZ\C5H6N2O1S1\OHZDE\09-Apr-2025\0\\#t h
 f aug-cc-pvdz iop(5/13=1,5/36=2,99/5=2) pseudo=read geom=check guess=(
 read,tcheck) scf=(maxcycle=1)\\title\\0,1\C,0,28.9895,-15.6633,-0.5552
 \N,0,29.3066,-16.8862,0.0175\H,0,28.5758,-17.5848,0.0881\N,0,30.7355,-
 18.7581,-0.011\C,0,32.0733,-19.0644,0.0074\H,0,32.3792,-20.1036,0.0021
 \C,0,32.9281,-17.9868,0.0115\H,0,34.0095,-17.9865,-0.0101\S,0,32.037,-
 16.5171,-0.0138\C,0,30.5839,-17.4503,-0.0116\O,0,29.8489,-14.8479,-0.8
 511\C,0,27.5081,-15.4376,-0.7577\H,0,26.9077,-15.948,-0.0007\H,0,27.22

 Normal termination of Gaussian 16 at Wed Apr  9 02:21:03 2025.
