 Gaussian 16, Revision C.01,

 ----------------------------------------------------------------------
 #t hf aug-cc-pvdz symm=none int=(grid=ultrafine) guess=(read,tcheck) s
 table=(opt,rrhf)
 ----------------------------------------------------------------------
 -----
 title
 -----
 Symbolic Z-matrix:
 Charge =  0 Multiplicity = 1

 SCF Done:  E(RHF) =  -575.158955456     A.U. after   15 cycles
 Normal termination of Gaussian 16 at Wed Apr  9 02:25:25 2025.
 Gaussian 16:  ES64L-G16RevC.01  3-Jul-2019

 ----------------------------------------------------------------------
 #t hf aug-cc-pvdz iop(5/13=1,5/36=2,99/5=2) pseudo=read geom=check gue
 ss=(read,tcheck) scf=(maxcycle=1)
 ----------------------------------------------------------------------
 -----
 title
 -----
 Structure from the checkpoint file:  "DCONF_48_-130_mol1.chk"
 Charge =  0 Multiplicity = 1

                         Standard orientation:
 ---------------------------------------------------------------------
 Center     Atomic      Atomic             Coordinates (Angstroms)
 Number     Number       Type             X           Y           Z
 ---------------------------------------------------------------------
      1          6           0        1.547256    0.863748    0.728939
      2          1           0        1.002576    1.628234    1.274213
      3          6           0        2.942160    0.868683    0.677238
      4          1           0        3.511030    1.644197    1.183021
      5          6           0        3.587644   -0.146782   -0.034105
      6          1           0        4.670458   -0.186348   -0.106394
      7          6           0        2.804633   -1.123594   -0.659011
      8          1           0        3.272784   -1.929256   -1.221336
      9          7           0        1.461186   -1.142153   -0.623118
     10          6           0        0.846617   -0.156124    0.064313
     11          6           0       -2.692479   -1.488242    0.376069
     12          1           0       -3.185796   -2.427658    0.608153
     13          6           0       -1.297202   -1.415448    0.375291
     14          1           0       -0.692576   -2.291751    0.593278
     15          6           0       -0.633311   -0.209635    0.090561
     16          6           0       -1.424200    0.900588   -0.224882
     17          6           0       -2.814704    0.854963   -0.237496
     18          1           0       -3.372318    1.749394   -0.497384
     19          6           0       -3.452234   -0.351860    0.069146
     20          1           0       -4.537452   -0.400924    0.063995
     21          9           0       -0.820232    2.070155   -0.543568
 ---------------------------------------------------------------------

 SCF Done:  E(RHF) =  -575.329017175     A.U. after    2 cycles

 The electronic state is 1-A.
 Alpha  occ. eigenvalues --  -26.13687 -15.63545 -11.34510 -11.30060 -11.28997
 Alpha  occ. eigenvalues --  -11.27271 -11.26355 -11.26274 -11.25934 -11.25701
 Alpha  occ. eigenvalues --  -11.25493 -11.25440 -11.25189  -1.67487  -1.23397
 Alpha  occ. eigenvalues --   -1.15722  -1.07747  -1.06260  -1.02389  -0.99968
 Alpha  occ. eigenvalues --   -0.88564  -0.87308  -0.85205  -0.82974  -0.76660
 Alpha  occ. eigenvalues --   -0.75181  -0.74432  -0.71992  -0.68118  -0.66716
 Alpha  occ. eigenvalues --   -0.64726  -0.62314  -0.61905  -0.59945  -0.58176
 Alpha  occ. eigenvalues --   -0.55321  -0.54120  -0.52722  -0.51052  -0.50681
 Alpha  occ. eigenvalues --   -0.41990  -0.38860  -0.37201  -0.34753  -0.32349
 Alpha virt. eigenvalues --    0.03240   0.03406   0.04001   0.04638   0.05129
 Alpha virt. eigenvalues --    0.06223   0.06638   0.06725   0.07665   0.09401
 Alpha virt. eigenvalues --    0.09600   0.10171   0.10627   0.11669   0.11788

 Mulliken charges:
               1
     1  C    1.132379
     2  H   -0.532188
     3  C   -0.467221
     4  H   -0.399648
     5  C    0.943656
     6  H   -0.414224
     7  C    0.420184
     8  H   -0.387244
     9  N   -0.398066
    10  C   -0.604361
    11  C    0.217267
    12  H   -0.423666
    13  C    0.397061
    14  H   -0.533441
    15  C    1.221080
    16  C   -0.042884
    17  C    0.505551
    18  H   -0.437859
    19  C    0.532405
    20  H   -0.420638
    21  F   -0.308142
 Sum of Mulliken charges =   0.00000

 Dipole moment (field-independent basis, Debye):
    X=              0.2497    Y=             -0.2504    Z=              1.3679  Tot=              1.4129

 Test job not archived.
 1\1\GINC-SE159\SP\RHF\Aug-CC-pVDZ\C11H8F1N1\OHZDE\09-Apr-2025\0\\#t hf
  aug-cc-pvdz iop(5/13=1,5/36=2,99/5=2) pseudo=read geom=check guess=(r
 ead,tcheck) scf=(maxcycle=1)\\title\\0,1\C,0,21.7566,-34.0164,0.8809\H
 ,0,22.2414,-34.6587,1.6095\C,0,20.3656,-33.9206,0.8146\H,0,19.7394,-34
 .4928,1.4938\C,0,19.7995,-33.0705,-0.1397\H,0,18.723,-32.9625,-0.2333\
 C,0,20.6546,-32.3521,-0.9826\H,0,20.2493,-31.6807,-1.7372\N,0,21.9953,
 -32.4346,-0.9357\C,0,22.5328,-33.2599,-0.0124\C,0,26.1718,-32.1854,-0.
 0052\H,0,26.7425,-31.2613,-0.0135\C,0,24.7753,-32.142,-0.005\H,0,24.24

 Normal termination of Gaussian 16 at Wed Apr  9 02:25:42 2025.
