 Gaussian 16, Revision C.01,

 ----------------------------------------------------------------------
 #t hf aug-cc-pvdz symm=none int=(grid=ultrafine) guess=(read,tcheck) s
 table=(opt,rrhf)
 ----------------------------------------------------------------------
 -----
 title
 -----
 Symbolic Z-matrix:
 Charge =  0 Multiplicity = 1

 SCF Done:  E(RHF) =  -1153.54503249     A.U. after   16 cycles
 Normal termination of Gaussian 16 at Wed Apr  9 02:19:27 2025.
 Gaussian 16:  ES64L-G16RevC.01  3-Jul-2019

 ----------------------------------------------------------------------
 #t hf aug-cc-pvdz iop(5/13=1,5/36=2,99/5=2) pseudo=read geom=check gue
 ss=(read,tcheck) scf=(maxcycle=1)
 ----------------------------------------------------------------------
 -----
 title
 -----
 Structure from the checkpoint file:  "DCONF_29_-130_mol1.chk"
 Charge =  0 Multiplicity = 1

                         Standard orientation:
 ---------------------------------------------------------------------
 Center     Atomic      Atomic             Coordinates (Angstroms)
 Number     Number       Type             X           Y           Z
 ---------------------------------------------------------------------
      1          6           0       -2.745759   -0.183030   -0.023090
      2          1           0       -3.743409   -0.602066   -0.012296
      3          6           0       -2.368281    1.144689   -0.109386
      4          1           0       -3.056228    1.979914   -0.169569
      5          7           0       -1.023637    1.378742   -0.115134
      6          6           0       -0.377003    0.232719   -0.047595
      7         16           0       -1.361268   -1.180140    0.073701
      8         16           0        1.408080    0.155372    0.136122
      9          6           0        1.873036   -0.980831   -1.156531
     10          1           0        1.561788   -0.570167   -2.118013
     11          1           0        2.961681   -1.055718   -1.108841
     12          1           0        1.420824   -1.954702   -0.966103
     13          8           0        1.949725    1.463237   -0.178957
     14          8           0        1.672758   -0.504918    1.409357
 ---------------------------------------------------------------------

 SCF Done:  E(RHF) =  -1153.74800013     A.U. after    2 cycles

 The electronic state is 1-A.
 Alpha  occ. eigenvalues --  -93.80083 -93.61381 -20.56766 -20.56763 -15.67943
 Alpha  occ. eigenvalues --  -11.35960 -11.31184 -11.30994 -11.29793  -9.06699
 Alpha  occ. eigenvalues --   -8.91226  -6.41325  -6.41148  -6.41083  -6.25337
 Alpha  occ. eigenvalues --   -6.25210  -6.24852  -1.42613  -1.31160  -1.28712
 Alpha  occ. eigenvalues --   -1.08763  -1.06796  -1.02172  -0.89239  -0.82395
 Alpha  occ. eigenvalues --   -0.76846  -0.73062  -0.68704  -0.67500  -0.66623
 Alpha  occ. eigenvalues --   -0.62227  -0.61797  -0.60901  -0.58729  -0.53702
 Alpha  occ. eigenvalues --   -0.52867  -0.52305  -0.50035  -0.48288  -0.45323
 Alpha  occ. eigenvalues --   -0.41902  -0.37160
 Alpha virt. eigenvalues --    0.02462   0.03436   0.04299   0.05038   0.05517
 Alpha virt. eigenvalues --    0.05976   0.08139   0.09706   0.10019   0.10933
 Alpha virt. eigenvalues --    0.11173   0.11453   0.12536   0.12834   0.13379

 Mulliken charges:
               1
     1  C    0.107332
     2  H   -0.348051
     3  C    0.768980
     4  H   -0.260709
     5  N   -0.533673
     6  C   -0.586317
     7  S    0.482441
     8  S    2.534770
     9  C    0.010129
    10  H    0.016131
    11  H    0.013055
    12  H   -0.000029
    13  O   -1.077839
    14  O   -1.126219
 Sum of Mulliken charges =  -0.00000

 Dipole moment (field-independent basis, Debye):
    X=             -4.0931    Y=             -3.7033    Z=             -3.3764  Tot=              6.4705

 Test job not archived.
 1\1\GINC-SE334\SP\RHF\Aug-CC-pVDZ\C4H5N1O2S2\OHZDE\09-Apr-2025\0\\#t h
 f aug-cc-pvdz iop(5/13=1,5/36=2,99/5=2) pseudo=read geom=check guess=(
 read,tcheck) scf=(maxcycle=1)\\title\\0,1\C,0,2.0282,-24.6376,-0.9186\
 H,0,0.9837,-24.6575,-1.2008\C,0,2.8266,-25.6827,-0.4907\H,0,2.4969,-26
 .7099,-0.3875\N,0,4.1167,-25.3564,-0.1873\C,0,4.2985,-24.0642,-0.3696\
 S,0,2.9335,-23.1888,-0.9613\S,0,5.9186,-23.3011,-0.231\C,0,5.5989,-21.
 9292,0.8616\H,0,5.2267,-22.3129,1.8125\H,0,6.5607,-21.431,1.0022\H,0,4
 .8879,-21.2479,0.3931\O,0,6.7996,-24.2353,0.443\O,0,6.2369,-22.7462,-1

 Normal termination of Gaussian 16 at Wed Apr  9 02:19:34 2025.
