 Gaussian 16, Revision C.01,

 ----------------------------------------------------------------------
 #t hf aug-cc-pvdz symm=none int=(grid=ultrafine) guess=(read,tcheck) s
 table=(opt,rrhf)
 ----------------------------------------------------------------------
 -----
 title
 -----
 Symbolic Z-matrix:
 Charge =  0 Multiplicity = 1

 SCF Done:  E(RHF) =  -911.016371585     A.U. after   16 cycles
 Normal termination of Gaussian 16 at Wed Apr  9 02:23:34 2025.
 Gaussian 16:  ES64L-G16RevC.01  3-Jul-2019

 ----------------------------------------------------------------------
 #t hf aug-cc-pvdz iop(5/13=1,5/36=2,99/5=2) pseudo=read geom=check gue
 ss=(read,tcheck) scf=(maxcycle=1)
 ----------------------------------------------------------------------
 -----
 title
 -----
 Structure from the checkpoint file:  "DCONF_30_160_mol1.chk"
 Charge =  0 Multiplicity = 1

                         Standard orientation:
 ---------------------------------------------------------------------
 Center     Atomic      Atomic             Coordinates (Angstroms)
 Number     Number       Type             X           Y           Z
 ---------------------------------------------------------------------
      1          6           0        3.085721   -0.772273    0.305232
      2          1           0        3.829040   -1.518582    0.571824
      3          6           0        1.730028   -1.113181    0.316777
      4          1           0        1.404856   -2.108079    0.606621
      5          6           0        0.782812   -0.138229   -0.021983
      6         16           0       -0.910488   -0.680674   -0.134162
      7          7           0       -1.721897    0.785142    0.023053
      8          6           0       -1.777953    1.248836    1.415946
      9          1           0       -0.785294    1.186917    1.868330
     10          1           0       -2.477006    0.655878    2.019272
     11          1           0       -2.092764    2.295585    1.407042
     12          6           0       -3.041339    0.793089   -0.626676
     13          1           0       -2.937582    0.507231   -1.672587
     14          1           0       -3.420140    1.815967   -0.566579
     15          1           0       -3.752990    0.118932   -0.130827
     16          6           0        1.167120    1.150017   -0.411171
     17          1           0        0.411270    1.873072   -0.700029
     18          6           0        2.527088    1.480349   -0.401356
     19          1           0        2.836869    2.482788   -0.684042
     20          6           0        3.485844    0.522049   -0.051048
     21          1           0        4.540505    0.783088   -0.053626
     22          8           0       -1.157616   -1.559942    1.004626
     23          8           0       -1.178835   -1.155301   -1.483938
 ---------------------------------------------------------------------

 SCF Done:  E(RHF) =  -911.246260398     A.U. after    2 cycles

 The electronic state is 1-A.
 Alpha  occ. eigenvalues --  -93.79741 -20.55646 -20.55526 -15.66676 -11.28856
 Alpha  occ. eigenvalues --  -11.28259 -11.27826 -11.27660 -11.27540 -11.27315
 Alpha  occ. eigenvalues --  -11.26841 -11.26743  -9.06135  -6.40755  -6.40654
 Alpha  occ. eigenvalues --   -6.40536  -1.42143  -1.29884  -1.21951  -1.16711
 Alpha  occ. eigenvalues --   -1.05075  -1.03346  -0.97558  -0.94599  -0.86692
 Alpha  occ. eigenvalues --   -0.85043  -0.78942  -0.74075  -0.70814  -0.68755
 Alpha  occ. eigenvalues --   -0.67189  -0.65255  -0.65036  -0.63215  -0.61705
 Alpha  occ. eigenvalues --   -0.61194  -0.58301  -0.57295  -0.55400  -0.54394
 Alpha  occ. eigenvalues --   -0.53486  -0.52505  -0.51549  -0.50783  -0.49029
 Alpha  occ. eigenvalues --   -0.46707  -0.40991  -0.36732  -0.36083
 Alpha virt. eigenvalues --    0.02702   0.03351   0.04036   0.04671   0.05124
 Alpha virt. eigenvalues --    0.05673   0.06753   0.07168   0.07529   0.07869
 Alpha virt. eigenvalues --    0.08040   0.08601   0.09093   0.11124   0.12240

 Mulliken charges:
               1
     1  C    0.778399
     2  H   -0.437226
     3  C   -0.413232
     4  H   -0.521425
     5  C    0.635384
     6  S    3.120079
     7  N   -1.306935
     8  C    0.704896
     9  H   -0.198018
    10  H   -0.015514
    11  H   -0.160897
    12  C    0.700645
    13  H   -0.139958
    14  H   -0.158096
    15  H   -0.054937
    16  C    0.174180
    17  H   -0.586267
    18  C    0.519326
    19  H   -0.459934
    20  C    0.564401
    21  H   -0.434035
    22  O   -1.138503
    23  O   -1.172332
 Sum of Mulliken charges =  -0.00000

 Dipole moment (field-independent basis, Debye):
    X=              1.8431    Y=              4.5367    Z=              1.2080  Tot=              5.0436

 Test job not archived.
 1\1\GINC-SE054\SP\RHF\Aug-CC-pVDZ\C8H11N1O2S1\OHZDE\09-Apr-2025\0\\#t
 hf aug-cc-pvdz iop(5/13=1,5/36=2,99/5=2) pseudo=read geom=check guess=
 (read,tcheck) scf=(maxcycle=1)\\title\\0,1\C,0,4.0677,-1.8747,-1.2041\
 H,0,4.9849,-1.4257,-1.5752\C,0,2.8774,-1.1424,-1.2384\H,0,2.8497,-0.13
 69,-1.648\C,0,1.7014,-1.7373,-0.7634\S,0,0.2563,-0.6975,-0.6956\N,0,-0
 .9635,-1.8559,-0.6518\C,0,-1.2297,-2.4406,-1.973\H,0,-0.2895,-2.7362,-
 2.4447\H,0,-1.7505,-1.7385,-2.6364\H,0,-1.8422,-3.3339,-1.8256\C,0,-2.
 1884,-1.387,0.0137\H,0,-1.9484,-1.0256,1.0128\H,0,-2.8584,-2.2464,0.09

 Normal termination of Gaussian 16 at Wed Apr  9 02:23:53 2025.
