 Gaussian 16, Revision C.01,

 ----------------------------------------------------------------------
 #t hf aug-cc-pvdz symm=none int=(grid=ultrafine) guess=(read,tcheck) s
 table=(opt,rrhf)
 ----------------------------------------------------------------------
 -----
 title
 -----
 Symbolic Z-matrix:
 Charge =  0 Multiplicity = 1

 SCF Done:  E(RHF) =  -575.156931178     A.U. after   15 cycles
 Normal termination of Gaussian 16 at Wed Apr  9 02:25:40 2025.
 Gaussian 16:  ES64L-G16RevC.01  3-Jul-2019

 ----------------------------------------------------------------------
 #t hf aug-cc-pvdz iop(5/13=1,5/36=2,99/5=2) pseudo=read geom=check gue
 ss=(read,tcheck) scf=(maxcycle=1)
 ----------------------------------------------------------------------
 -----
 title
 -----
 Structure from the checkpoint file:  "DCONF_48_110_mol1.chk"
 Charge =  0 Multiplicity = 1

                         Standard orientation:
 ---------------------------------------------------------------------
 Center     Atomic      Atomic             Coordinates (Angstroms)
 Number     Number       Type             X           Y           Z
 ---------------------------------------------------------------------
      1          6           0       -1.552369    0.594870    1.005919
      2          1           0       -1.011783    1.162444    1.758176
      3          6           0       -2.946969    0.620923    0.938293
      4          1           0       -3.525222    1.214183    1.641363
      5          6           0       -3.577827   -0.131393   -0.056476
      6          1           0       -4.659343   -0.143700   -0.154636
      7          6           0       -2.784324   -0.875747   -0.936286
      8          1           0       -3.242620   -1.469707   -1.724609
      9          7           0       -1.440638   -0.910710   -0.886499
     10          6           0       -0.842598   -0.186392    0.081735
     11          6           0        2.728956   -1.451327    0.394805
     12          1           0        3.247229   -2.374442    0.637533
     13          6           0        1.331413   -1.410047    0.410552
     14          1           0        0.752256   -2.297469    0.653507
     15          6           0        0.640526   -0.225086    0.110945
     16          6           0        1.398527    0.895742   -0.238993
     17          6           0        2.789642    0.882489   -0.268845
     18          1           0        3.324872    1.783759   -0.551721
     19          6           0        3.457060   -0.304385    0.053424
     20          1           0        4.543001   -0.329702    0.034213
     21          9           0        0.755983    2.041303   -0.562085
 ---------------------------------------------------------------------

 SCF Done:  E(RHF) =  -575.327121005     A.U. after    2 cycles

 The electronic state is 1-A.
 Alpha  occ. eigenvalues --  -26.13502 -15.63602 -11.34377 -11.30023 -11.29018
 Alpha  occ. eigenvalues --  -11.27357 -11.26307 -11.26218 -11.26042 -11.25690
 Alpha  occ. eigenvalues --  -11.25552 -11.25516 -11.25240  -1.67310  -1.23389
 Alpha  occ. eigenvalues --   -1.15710  -1.07770  -1.06234  -1.02377  -1.00000
 Alpha  occ. eigenvalues --   -0.88518  -0.86886  -0.85610  -0.82948  -0.76636
 Alpha  occ. eigenvalues --   -0.74942  -0.74341  -0.72007  -0.68053  -0.66861
 Alpha  occ. eigenvalues --   -0.64694  -0.62493  -0.61988  -0.59996  -0.58260
 Alpha  occ. eigenvalues --   -0.55212  -0.54094  -0.52587  -0.51054  -0.50682
 Alpha  occ. eigenvalues --   -0.41922  -0.38581  -0.36378  -0.34722  -0.33409
 Alpha virt. eigenvalues --    0.03183   0.03402   0.04075   0.04463   0.05129
 Alpha virt. eigenvalues --    0.06120   0.06487   0.06517   0.08583   0.08997
 Alpha virt. eigenvalues --    0.09653   0.10204   0.10821   0.11503   0.11777

 Mulliken charges:
               1
     1  C    1.093477
     2  H   -0.533534
     3  C   -0.527940
     4  H   -0.404729
     5  C    0.999016
     6  H   -0.416505
     7  C    0.380765
     8  H   -0.390410
     9  N   -0.452862
    10  C   -0.400107
    11  C    0.228525
    12  H   -0.429759
    13  C    0.277944
    14  H   -0.517875
    15  C    1.314637
    16  C   -0.046878
    17  C    0.484659
    18  H   -0.429528
    19  C    0.518611
    20  H   -0.425115
    21  F   -0.322394
 Sum of Mulliken charges =  -0.00000

 Dipole moment (field-independent basis, Debye):
    X=             -0.2756    Y=             -0.5291    Z=              1.7374  Tot=              1.8370

 Test job not archived.
 1\1\GINC-SE036\SP\RHF\Aug-CC-pVDZ\C11H8F1N1\OHZDE\09-Apr-2025\0\\#t hf
  aug-cc-pvdz iop(5/13=1,5/36=2,99/5=2) pseudo=read geom=check guess=(r
 ead,tcheck) scf=(maxcycle=1)\\title\\0,1\C,0,21.7793,-33.7343,-1.0773\
 H,0,22.2854,-34.1042,-1.9646\C,0,20.3856,-33.6974,-0.9973\H,0,19.7733,
 -34.0409,-1.8266\C,0,19.8003,-33.2114,0.1752\H,0,18.7214,-33.1641,0.29
 01\C,0,20.6364,-32.7837,1.2124\H,0,20.214,-32.4031,2.1403\N,0,21.9798,
 -32.814,1.1528\C,0,22.534,-33.2785,0.014\C,0,26.175,-32.1844,0.0024\H,
 0,26.7477,-31.2616,0.0133\C,0,24.7775,-32.1391,-0.0019\H,0,24.2526,-31

 Normal termination of Gaussian 16 at Wed Apr  9 02:25:58 2025.
