 Gaussian 16, Revision C.01,

 ----------------------------------------------------------------------
 #t hf aug-cc-pvdz symm=none int=(grid=ultrafine) guess=(read,tcheck) s
 table=(opt,rrhf)
 ----------------------------------------------------------------------
 -----
 title
 -----
 Symbolic Z-matrix:
 Charge =  0 Multiplicity = 1

 SCF Done:  E(RHF) =  -780.899447231     A.U. after   16 cycles

 1\1\GINC-SE073\Stability\RHF\Aug-CC-pVDZ\C10H8S1\OHZDE\09-Apr-2025\0\\
 #t hf aug-cc-pvdz symm=none int=(grid=ultrafine) guess=(read,tcheck) s
 table=(opt,rrhf)\\title\\0,1\C,0,21.7962,-8.5259,0.0116\H,0,22.3493,-7
 .5907,0.0481\C,0,20.3987,-8.5127,-0.0077\H,0,19.8699,-7.563,0.0034\C,0
 ,19.6802,-9.7152,0.0003\H,0,18.5937,-9.7036,-0.0028\C,0,20.3722,-10.93
 26,0.0031\H,0,19.8237,-11.8711,0.0051\C,0,21.77,-10.9491,0.0008\H,0,22
 .2995,-11.8986,-0.0321\C,0,22.5005,-9.7455,-0.0079\C,0,24.8221,-8.7991
 ,-0.5545\H,0,24.4609,-7.9515,-1.1277\C,0,26.1912,-9.0885,-0.329\H,0,27

 Normal termination of Gaussian 16 at Wed Apr  9 02:23:44 2025.
 Gaussian 16:  ES64L-G16RevC.01  3-Jul-2019

 ----------------------------------------------------------------------
 #t hf aug-cc-pvdz iop(5/13=1,5/36=2,99/5=2) pseudo=read geom=check gue
 ss=(read,tcheck) scf=(maxcycle=1)
 ----------------------------------------------------------------------
 -----
 title
 -----
 Structure from the checkpoint file:  "DCONF_51_0_mol2.chk"
 Charge =  0 Multiplicity = 1

                         Standard orientation:
 ---------------------------------------------------------------------
 Center     Atomic      Atomic             Coordinates (Angstroms)
 Number     Number       Type             X           Y           Z
 ---------------------------------------------------------------------
      1          6           0        1.458252    1.224198   -0.303539
      2          1           0        0.958986    2.150484   -0.576632
      3          6           0        2.853778    1.148783   -0.322862
      4          1           0        3.435565    2.023592   -0.601997
      5          6           0        3.500754   -0.057402   -0.024784
      6          1           0        4.585301   -0.117926   -0.051629
      7          6           0        2.740157   -1.182401    0.316985
      8          1           0        3.233043   -2.121827    0.554010
      9          6           0        1.345040   -1.104374    0.358000
     10          1           0        0.763472   -1.973126    0.658088
     11          6           0        0.686187    0.103856    0.060595
     12          6           0       -1.552207    1.314540    0.389393
     13          1           0       -1.119187    2.258308    0.704424
     14          6           0       -2.943913    1.067486    0.283773
     15          1           0       -3.716187    1.800359    0.490275
     16          6           0       -3.218315   -0.234223   -0.096243
     17          1           0       -4.184374   -0.697278   -0.251356
     18         16           0       -1.782260   -1.137987   -0.339196
     19          6           0       -0.776475    0.200405    0.089008
 ---------------------------------------------------------------------

 SCF Done:  E(RHF) =  -781.031524105     A.U. after    2 cycles

 The electronic state is 1-A.
 Alpha  occ. eigenvalues --  -93.56581 -11.28103 -11.27366 -11.26669 -11.25308
 Alpha  occ. eigenvalues --  -11.25287 -11.25227 -11.25165 -11.25140 -11.25058
 Alpha  occ. eigenvalues --  -11.24938  -8.86428  -6.20567  -6.20431  -6.20076
 Alpha  occ. eigenvalues --   -1.17189  -1.13970  -1.04135  -1.01440  -0.98018
 Alpha  occ. eigenvalues --   -0.95864  -0.84109  -0.83550  -0.75995  -0.74766
 Alpha  occ. eigenvalues --   -0.71227  -0.67828  -0.63550  -0.63288  -0.59606
 Alpha  occ. eigenvalues --   -0.58177  -0.56164  -0.54584  -0.52889  -0.50930
 Alpha  occ. eigenvalues --   -0.50232  -0.50019  -0.47133  -0.37479  -0.34971
 Alpha  occ. eigenvalues --   -0.34476  -0.29445
 Alpha virt. eigenvalues --    0.03416   0.03659   0.04098   0.04896   0.05242
 Alpha virt. eigenvalues --    0.05978   0.06642   0.07139   0.07727   0.09297
 Alpha virt. eigenvalues --    0.10118   0.10729   0.11554   0.11687   0.12192

 Mulliken charges:
               1
     1  C    0.120622
     2  H   -0.555945
     3  C    0.299965
     4  H   -0.435657
     5  C    0.481991
     6  H   -0.430599
     7  C    0.298192
     8  H   -0.437403
     9  C    0.380315
    10  H   -0.566058
    11  C    1.124950
    12  C    0.328754
    13  H   -0.474922
    14  C    0.271599
    15  H   -0.323598
    16  C   -0.120662
    17  H   -0.361312
    18  S    0.664735
    19  C   -0.264966
 Sum of Mulliken charges =   0.00000

 Dipole moment (field-independent basis, Debye):
    X=              0.0968    Y=              0.6350    Z=              0.1712  Tot=              0.6648

 Test job not archived.
 1\1\GINC-SE073\SP\RHF\Aug-CC-pVDZ\C10H8S1\OHZDE\09-Apr-2025\0\\#t hf a
 ug-cc-pvdz iop(5/13=1,5/36=2,99/5=2) pseudo=read geom=check guess=(rea
 d,tcheck) scf=(maxcycle=1)\\title\\0,1\C,0,21.7962,-8.5259,0.0116\H,0,
 22.3493,-7.5907,0.0481\C,0,20.3987,-8.5127,-0.0077\H,0,19.8699,-7.563,
 0.0034\C,0,19.6802,-9.7152,0.0003\H,0,18.5937,-9.7036,-0.0028\C,0,20.3
 722,-10.9326,0.0031\H,0,19.8237,-11.8711,0.0051\C,0,21.77,-10.9491,0.0
 008\H,0,22.2995,-11.8986,-0.0321\C,0,22.5005,-9.7455,-0.0079\C,0,24.82
 21,-8.7991,-0.5545\H,0,24.4609,-7.9515,-1.1277\C,0,26.1912,-9.0885,-0.

 Normal termination of Gaussian 16 at Wed Apr  9 02:23:56 2025.
