 Gaussian 16, Revision C.01,

 ----------------------------------------------------------------------
 #t hf aug-cc-pvdz symm=none int=(grid=ultrafine) guess=(read,tcheck) s
 table=(opt,rrhf)
 ----------------------------------------------------------------------
 -----
 title
 -----
 Symbolic Z-matrix:
 Charge =  0 Multiplicity = 1

 SCF Done:  E(RHF) =  -559.157419689     A.U. after   17 cycles

 1\1\GINC-SE322\Stability\RHF\Aug-CC-pVDZ\C12H9F1\OHZDE\09-Apr-2025\0\\
 #t hf aug-cc-pvdz symm=none int=(grid=ultrafine) guess=(read,tcheck) s
 table=(opt,rrhf)\\title\\0,1\C,0,12.8485,-32.5675,0.9537\H,0,13.4126,-
 32.0411,1.7187\C,0,11.4531,-32.4926,0.9675\H,0,10.9543,-31.901,1.7309\
 C,0,10.7014,-33.2157,0.0344\H,0,9.6159,-33.1659,0.0462\C,0,11.3631,-33
 .997,-0.9193\H,0,10.7913,-34.5708,-1.644\C,0,12.7598,-34.0739,-0.9341\
 H,0,13.2465,-34.676,-1.6916\C,0,13.5302,-33.3177,-0.0274\C,0,17.1433,-
 32.2355,0.467\H,0,17.6654,-31.3503,0.8187\C,0,15.7472,-32.2576,0.4552\

 Normal termination of Gaussian 16 at Wed Apr  9 02:24:51 2025.
 Gaussian 16:  ES64L-G16RevC.01  3-Jul-2019

 ----------------------------------------------------------------------
 #t hf aug-cc-pvdz iop(5/13=1,5/36=2,99/5=2) pseudo=read geom=check gue
 ss=(read,tcheck) scf=(maxcycle=1)
 ----------------------------------------------------------------------
 -----
 title
 -----
 Structure from the checkpoint file:  "DCONF_47_-20_mol1.chk"
 Charge =  0 Multiplicity = 1

                         Standard orientation:
 ---------------------------------------------------------------------
 Center     Atomic      Atomic             Coordinates (Angstroms)
 Number     Number       Type             X           Y           Z
 ---------------------------------------------------------------------
      1          6           0       -1.588146   -1.264090   -0.369789
      2          1           0       -1.075809   -2.155963   -0.719937
      3          6           0       -2.985409   -1.247134   -0.352174
      4          1           0       -3.537527   -2.126319   -0.674311
      5          6           0       -3.669236   -0.087508    0.030253
      6          1           0       -4.755733   -0.067813    0.038452
      7          6           0       -2.938602    1.043764    0.410014
      8          1           0       -3.457018    1.953853    0.700486
      9          6           0       -1.539901    1.028944    0.392160
     10          1           0       -0.999422    1.914460    0.703529
     11          6           0       -0.838580   -0.145183    0.050056
     12          6           0        2.692400   -1.545286    0.254917
     13          1           0        3.153588   -2.509902    0.446442
     14          6           0        1.300650   -1.433196    0.241163
     15          1           0        0.698976   -2.316990    0.432426
     16          6           0        0.642063   -0.209624   -0.013255
     17          6           0        1.480476    0.910617   -0.144826
     18          6           0        2.870259    0.830779   -0.133688
     19          1           0        3.444342    1.741638   -0.273770
     20          6           0        3.485119   -0.404786    0.083416
     21          1           0        4.568902   -0.473932    0.101781
     22          9           0        0.943683    2.130800   -0.382730
 ---------------------------------------------------------------------

 SCF Done:  E(RHF) =  -559.323776508     A.U. after    2 cycles

 The electronic state is 1-A.
 Alpha  occ. eigenvalues --  -26.13668 -11.34520 -11.27091 -11.26393 -11.26250
 Alpha  occ. eigenvalues --  -11.26095 -11.25816 -11.25439 -11.25082 -11.24987
 Alpha  occ. eigenvalues --  -11.24900 -11.24820 -11.24710  -1.67582  -1.16729
 Alpha  occ. eigenvalues --   -1.13805  -1.05695  -1.02591  -1.01007  -0.98861
 Alpha  occ. eigenvalues --   -0.87492  -0.87016  -0.82981  -0.81460  -0.76466
 Alpha  occ. eigenvalues --   -0.75237  -0.74262  -0.71445  -0.67886  -0.64836
 Alpha  occ. eigenvalues --   -0.64086  -0.61619  -0.61009  -0.59878  -0.58985
 Alpha  occ. eigenvalues --   -0.54600  -0.52887  -0.52563  -0.50158  -0.49796
 Alpha  occ. eigenvalues --   -0.49202  -0.38617  -0.34960  -0.34125  -0.30693
 Alpha virt. eigenvalues --    0.03259   0.03545   0.03945   0.04789   0.05021
 Alpha virt. eigenvalues --    0.05964   0.06304   0.06920   0.07493   0.07622
 Alpha virt. eigenvalues --    0.09817   0.10443   0.10570   0.11176   0.11554

 Mulliken charges:
               1
     1  C    0.237423
     2  H   -0.578128
     3  C    0.331976
     4  H   -0.447291
     5  C    0.571731
     6  H   -0.431372
     7  C    0.317119
     8  H   -0.448839
     9  C    0.655300
    10  H   -0.574321
    11  C    0.431759
    12  C    0.311667
    13  H   -0.442522
    14  C    0.148168
    15  H   -0.568486
    16  C    0.679021
    17  C   -0.252269
    18  C    0.732798
    19  H   -0.465862
    20  C    0.513457
    21  H   -0.413051
    22  F   -0.308278
 Sum of Mulliken charges =   0.00000

 Dipole moment (field-independent basis, Debye):
    X=              0.6533    Y=             -1.5960    Z=              0.3587  Tot=              1.7614

 Test job not archived.
 1\1\GINC-SE322\SP\RHF\Aug-CC-pVDZ\C12H9F1\OHZDE\09-Apr-2025\0\\#t hf a
 ug-cc-pvdz iop(5/13=1,5/36=2,99/5=2) pseudo=read geom=check guess=(rea
 d,tcheck) scf=(maxcycle=1)\\title\\0,1\C,0,12.8485,-32.5675,0.9537\H,0
 ,13.4126,-32.0411,1.7187\C,0,11.4531,-32.4926,0.9675\H,0,10.9543,-31.9
 01,1.7309\C,0,10.7014,-33.2157,0.0344\H,0,9.6159,-33.1659,0.0462\C,0,1
 1.3631,-33.997,-0.9193\H,0,10.7913,-34.5708,-1.644\C,0,12.7598,-34.073
 9,-0.9341\H,0,13.2465,-34.676,-1.6916\C,0,13.5302,-33.3177,-0.0274\C,0
 ,17.1433,-32.2355,0.467\H,0,17.6654,-31.3503,0.8187\C,0,15.7472,-32.25

 Normal termination of Gaussian 16 at Wed Apr  9 02:25:10 2025.
