 Gaussian 16, Revision C.01,

 ----------------------------------------------------------------------
 #t hf aug-cc-pvdz symm=none int=(grid=ultrafine) guess=(read,tcheck) s
 table=(opt,rrhf)
 ----------------------------------------------------------------------
 -----
 title
 -----
 Symbolic Z-matrix:
 Charge =  0 Multiplicity = 1

 SCF Done:  E(RHF) =  -911.019558102     A.U. after   16 cycles
 Normal termination of Gaussian 16 at Wed Apr  9 02:22:09 2025.
 Gaussian 16:  ES64L-G16RevC.01  3-Jul-2019

 ----------------------------------------------------------------------
 #t hf aug-cc-pvdz iop(5/13=1,5/36=2,99/5=2) pseudo=read geom=check gue
 ss=(read,tcheck) scf=(maxcycle=1)
 ----------------------------------------------------------------------
 -----
 title
 -----
 Structure from the checkpoint file:  "DCONF_30_-130_mol1.chk"
 Charge =  0 Multiplicity = 1

                         Standard orientation:
 ---------------------------------------------------------------------
 Center     Atomic      Atomic             Coordinates (Angstroms)
 Number     Number       Type             X           Y           Z
 ---------------------------------------------------------------------
      1          6           0        2.984142    0.791494    0.537956
      2          1           0        3.664078    1.517531    0.974855
      3          6           0        1.624772    1.102423    0.413947
      4          1           0        1.225124    2.054429    0.750460
      5          6           0        0.767389    0.153031   -0.149662
      6         16           0       -0.944498    0.578139   -0.381635
      7          7           0       -1.665249   -0.770107    0.328993
      8          6           0       -1.540197   -0.762294    1.792015
      9          1           0       -0.500315   -0.576619    2.072727
     10          1           0       -2.177110    0.001753    2.256596
     11          1           0       -1.825399   -1.752546    2.155699
     12          6           0       -3.054890   -0.973046   -0.109201
     13          1           0       -3.092240   -1.024377   -1.196880
     14          1           0       -3.385785   -1.926637    0.308618
     15          1           0       -3.723142   -0.176416    0.246081
     16          6           0        1.233029   -1.088458   -0.599256
     17          1           0        0.539010   -1.800219   -1.036259
     18          6           0        2.591506   -1.386911   -0.461762
     19          1           0        2.967917   -2.348311   -0.800255
     20          6           0        3.466318   -0.449492    0.105322
     21          1           0        4.521737   -0.686677    0.207323
     22          8           0       -1.204058    1.795339    0.382496
     23          8           0       -1.280639    0.521929   -1.796485
 ---------------------------------------------------------------------

 SCF Done:  E(RHF) =  -911.249224816     A.U. after    2 cycles

 The electronic state is 1-A.
 Alpha  occ. eigenvalues --  -93.79678 -20.55746 -20.55591 -15.66536 -11.28762
 Alpha  occ. eigenvalues --  -11.28074 -11.27761 -11.27691 -11.27608 -11.27467
 Alpha  occ. eigenvalues --  -11.26887 -11.26785  -9.06079  -6.40705  -6.40583
 Alpha  occ. eigenvalues --   -6.40478  -1.42134  -1.29972  -1.21798  -1.16787
 Alpha  occ. eigenvalues --   -1.05130  -1.03403  -0.97414  -0.94486  -0.86465
 Alpha  occ. eigenvalues --   -0.85228  -0.78970  -0.74013  -0.70871  -0.68603
 Alpha  occ. eigenvalues --   -0.67436  -0.65232  -0.64588  -0.63548  -0.61683
 Alpha  occ. eigenvalues --   -0.61413  -0.58344  -0.57091  -0.55320  -0.54109
 Alpha  occ. eigenvalues --   -0.53052  -0.52460  -0.51656  -0.51089  -0.49155
 Alpha  occ. eigenvalues --   -0.46721  -0.40984  -0.36901  -0.36100
 Alpha virt. eigenvalues --    0.02728   0.03410   0.03901   0.04793   0.05078
 Alpha virt. eigenvalues --    0.05578   0.06782   0.07106   0.07473   0.07751
 Alpha virt. eigenvalues --    0.08129   0.08789   0.09135   0.10895   0.11804

 Mulliken charges:
               1
     1  C    0.593990
     2  H   -0.439323
     3  C    0.215822
     4  H   -0.550632
     5  C    0.317824
     6  S    2.954009
     7  N   -1.225980
     8  C    0.715666
     9  H   -0.212392
    10  H   -0.011027
    11  H   -0.179430
    12  C    0.709801
    13  H   -0.147634
    14  H   -0.153905
    15  H   -0.051746
    16  C    0.061554
    17  H   -0.557972
    18  C    0.434206
    19  H   -0.456314
    20  C    0.655295
    21  H   -0.437328
    22  O   -1.112695
    23  O   -1.121789
 Sum of Mulliken charges =   0.00000

 Dipole moment (field-independent basis, Debye):
    X=              2.2348    Y=             -3.7922    Z=              2.8904  Tot=              5.2659

 Test job not archived.
 1\1\GINC-SE366\SP\RHF\Aug-CC-pVDZ\C8H11N1O2S1\OHZDE\09-Apr-2025\0\\#t
 hf aug-cc-pvdz iop(5/13=1,5/36=2,99/5=2) pseudo=read geom=check guess=
 (read,tcheck) scf=(maxcycle=1)\\title\\0,1\C,0,3.8138,-2.3669,0.2776\H
 ,0,4.5905,-2.2262,1.0241\C,0,2.6656,-1.5667,0.3131\H,0,2.5243,-0.8066,
 1.0757\C,0,1.6781,-1.7657,-0.6561\S,0,0.2567,-0.6958,-0.6604\N,0,-0.96
 51,-1.8558,-0.7224\C,0,-1.1198,-2.5704,0.551\H,0,-0.1453,-2.9253,0.896
 \H,0,-1.5644,-1.936,1.3289\H,0,-1.7599,-3.4375,0.3704\C,0,-2.2416,-1.3
 158,-1.2156\H,0,-2.0888,-0.8415,-2.1845\H,0,-2.9231,-2.1617,-1.3314\H,

 Normal termination of Gaussian 16 at Wed Apr  9 02:22:25 2025.
