 Gaussian 16, Revision C.01,

 ----------------------------------------------------------------------
 #t hf aug-cc-pvdz symm=none int=(grid=ultrafine) guess=(read,tcheck) s
 table=(opt,rrhf)
 ----------------------------------------------------------------------
 -----
 title
 -----
 Symbolic Z-matrix:
 Charge =  0 Multiplicity = 1

 SCF Done:  E(RHF) =  -575.150563828     A.U. after   17 cycles
 Normal termination of Gaussian 16 at Wed Apr  9 02:25:25 2025.
 Gaussian 16:  ES64L-G16RevC.01  3-Jul-2019

 ----------------------------------------------------------------------
 #t hf aug-cc-pvdz iop(5/13=1,5/36=2,99/5=2) pseudo=read geom=check gue
 ss=(read,tcheck) scf=(maxcycle=1)
 ----------------------------------------------------------------------
 -----
 title
 -----
 Structure from the checkpoint file:  "DCONF_48_0_mol1.chk"
 Charge =  0 Multiplicity = 1

                         Standard orientation:
 ---------------------------------------------------------------------
 Center     Atomic      Atomic             Coordinates (Angstroms)
 Number     Number       Type             X           Y           Z
 ---------------------------------------------------------------------
      1          6           0        1.641464   -1.346389   -0.000174
      2          1           0        1.180477   -2.326622   -0.000396
      3          6           0        3.033281   -1.257410   -0.000112
      4          1           0        3.636988   -2.160984   -0.000246
      5          6           0        3.629996    0.005335    0.000077
      6          1           0        4.709193    0.125375    0.000103
      7          6           0        2.788716    1.120952    0.000141
      8          1           0        3.205611    2.126672    0.000259
      9          7           0        1.449352    1.051959    0.000120
     10          6           0        0.867608   -0.167055   -0.000031
     11          6           0       -2.693513   -1.557616    0.000101
     12          1           0       -3.159962   -2.538502    0.000176
     13          6           0       -1.302168   -1.457025    0.000171
     14          1           0       -0.729992   -2.377763    0.000309
     15          6           0       -0.622169   -0.217708   -0.000115
     16          6           0       -1.449851    0.925419   -0.000025
     17          6           0       -2.842863    0.844259   -0.000081
     18          1           0       -3.405695    1.772979   -0.000109
     19          6           0       -3.475703   -0.398222    0.000026
     20          1           0       -4.560320   -0.456796    0.000040
     21          9           0       -0.941171    2.167188   -0.000094
 ---------------------------------------------------------------------

 SCF Done:  E(RHF) =  -575.320837909     A.U. after    2 cycles

 The electronic state is 1-A.
 Alpha  occ. eigenvalues --  -26.12394 -15.62864 -11.34607 -11.30591 -11.28805
 Alpha  occ. eigenvalues --  -11.27276 -11.27053 -11.26374 -11.26342 -11.25613
 Alpha  occ. eigenvalues --  -11.25393 -11.25357 -11.25305  -1.66593  -1.23152
 Alpha  occ. eigenvalues --   -1.15650  -1.07724  -1.06277  -1.02312  -1.00024
 Alpha  occ. eigenvalues --   -0.88743  -0.87578  -0.84392  -0.83145  -0.76444
 Alpha  occ. eigenvalues --   -0.73961  -0.73813  -0.72101  -0.68021  -0.66720
 Alpha  occ. eigenvalues --   -0.65673  -0.61408  -0.61266  -0.60523  -0.57771
 Alpha  occ. eigenvalues --   -0.55546  -0.54906  -0.52004  -0.51573  -0.50896
 Alpha  occ. eigenvalues --   -0.41076  -0.39795  -0.37796  -0.34628  -0.31260
 Alpha virt. eigenvalues --    0.02902   0.03208   0.04009   0.04835   0.05227
 Alpha virt. eigenvalues --    0.06098   0.06411   0.07088   0.08446   0.09471
 Alpha virt. eigenvalues --    0.10000   0.10208   0.10903   0.11214   0.11493

 Mulliken charges:
               1
     1  C    1.695607
     2  H   -0.529330
     3  C   -0.424147
     4  H   -0.474884
     5  C    0.979437
     6  H   -0.415392
     7  C    0.424616
     8  H   -0.418804
     9  N   -0.422319
    10  C   -1.183431
    11  C    0.219166
    12  H   -0.482357
    13  C    0.588255
    14  H   -0.562515
    15  C    0.965442
    16  C   -0.204003
    17  C    0.823909
    18  H   -0.479392
    19  C    0.563011
    20  H   -0.415960
    21  F   -0.246909
 Sum of Mulliken charges =  -0.00000

 Dipole moment (field-independent basis, Debye):
    X=              0.2760    Y=             -3.1523    Z=             -0.0000  Tot=              3.1643

 Test job not archived.
 1\1\GINC-SE253\SP\RHF\Aug-CC-pVDZ\C11H8F1N1\OHZDE\09-Apr-2025\0\\#t hf
  aug-cc-pvdz iop(5/13=1,5/36=2,99/5=2) pseudo=read geom=check guess=(r
 ead,tcheck) scf=(maxcycle=1)\\title\\0,1\C,0,21.8465,-31.9674,-0.0029\
 H,0,22.4039,-31.0386,-0.0022\C,0,20.4528,-31.9157,-0.0036\H,0,19.9432,
 -30.9559,-0.0034\C,0,19.7319,-33.1119,-0.0046\H,0,18.6461,-33.1226,-0.
 0052\C,0,20.4565,-34.3066,-0.0049\H,0,19.9404,-35.2652,-0.0057\N,0,21.
 796,-34.3729,-0.0042\C,0,22.4976,-33.2187,-0.0032\C,0,26.1807,-32.194,
 -0.0003\H,0,26.7436,-31.2651,0.0007\C,0,24.7863,-32.1539,-0.001\H,0,24

 Normal termination of Gaussian 16 at Wed Apr  9 02:25:41 2025.
