 Gaussian 16, Revision C.01,

 ----------------------------------------------------------------------
 #t hf aug-cc-pvdz symm=none int=(grid=ultrafine) guess=(read,tcheck) s
 table=(opt,rrhf)
 ----------------------------------------------------------------------
 -----
 title
 -----
 Symbolic Z-matrix:
 Charge =  0 Multiplicity = 1

 SCF Done:  E(RHF) =  -812.895256103     A.U. after   16 cycles
 Normal termination of Gaussian 16 at Wed Apr  9 02:24:33 2025.
 Gaussian 16:  ES64L-G16RevC.01  3-Jul-2019

 ----------------------------------------------------------------------
 #t hf aug-cc-pvdz iop(5/13=1,5/36=2,99/5=2) pseudo=read geom=check gue
 ss=(read,tcheck) scf=(maxcycle=1)
 ----------------------------------------------------------------------
 -----
 title
 -----
 Structure from the checkpoint file:  "DCONF_56_-100_mol1.chk"
 Charge =  0 Multiplicity = 1

                         Standard orientation:
 ---------------------------------------------------------------------
 Center     Atomic      Atomic             Coordinates (Angstroms)
 Number     Number       Type             X           Y           Z
 ---------------------------------------------------------------------
      1          6           0       -1.439057    1.026695   -0.686611
      2          1           0       -0.924279    1.817603   -1.224156
      3          6           0       -2.832619    0.936662   -0.673212
      4          1           0       -3.440127    1.657899   -1.212878
      5          6           0       -3.424181   -0.102292    0.050580
      6          1           0       -4.503289   -0.216217    0.093833
      7          6           0       -2.595713   -1.001323    0.731877
      8          1           0       -3.024263   -1.818588    1.308442
      9          7           0       -1.253389   -0.926559    0.736927
     10          6           0       -0.696532    0.075201    0.027073
     11          7           0        1.414150    1.051232    0.863321
     12          6           0        2.766811    0.868395    0.758625
     13          1           0        3.437175    1.501931    1.328189
     14          6           0        3.169851   -0.146537   -0.086871
     15          1           0        4.176696   -0.463141   -0.324554
     16         16           0        1.800003   -0.901284   -0.777706
     17          6           0        0.776892    0.187925    0.090653
 ---------------------------------------------------------------------

 SCF Done:  E(RHF) =  -813.034146067     A.U. after    2 cycles

 The electronic state is 1-A.
 Alpha  occ. eigenvalues --  -93.57809 -15.64522 -15.64015 -11.32565 -11.30947
 Alpha  occ. eigenvalues --  -11.29659 -11.28223 -11.27992 -11.27626 -11.26431
 Alpha  occ. eigenvalues --  -11.26334  -8.87679  -6.21794  -6.21668  -6.21319
 Alpha  occ. eigenvalues --   -1.26064  -1.23307  -1.08503  -1.06143  -1.05164
 Alpha  occ. eigenvalues --   -0.98321  -0.87493  -0.86779  -0.79426  -0.76903
 Alpha  occ. eigenvalues --   -0.70797  -0.68721  -0.67784  -0.64311  -0.60094
 Alpha  occ. eigenvalues --   -0.59314  -0.58267  -0.55237  -0.54111  -0.53200
 Alpha  occ. eigenvalues --   -0.50441  -0.43630  -0.42227  -0.39459  -0.38442
 Alpha  occ. eigenvalues --   -0.35967  -0.33488
 Alpha virt. eigenvalues --    0.02984   0.03486   0.04081   0.05130   0.05341
 Alpha virt. eigenvalues --    0.06337   0.07938   0.08291   0.08713   0.09736
 Alpha virt. eigenvalues --    0.10044   0.10469   0.11302   0.11882   0.12175

 Mulliken charges:
               1
     1  C    0.819423
     2  H   -0.475000
     3  C   -0.492377
     4  H   -0.387972
     5  C    0.907579
     6  H   -0.407678
     7  C    0.431324
     8  H   -0.372274
     9  N   -0.477070
    10  C    0.572637
    11  N   -0.634783
    12  C    0.717425
    13  H   -0.274390
    14  C    0.155043
    15  H   -0.362383
    16  S    0.439771
    17  C   -0.159276
 Sum of Mulliken charges =  -0.00000

 Dipole moment (field-independent basis, Debye):
    X=             -1.0433    Y=              0.3959    Z=             -1.7905  Tot=              2.1098

 Test job not archived.
 1\1\GINC-SE365\SP\RHF\Aug-CC-pVDZ\C8H6N2S1\OHZDE\09-Apr-2025\0\\#t hf
 aug-cc-pvdz iop(5/13=1,5/36=2,99/5=2) pseudo=read geom=check guess=(re
 ad,tcheck) scf=(maxcycle=1)\\title\\0,1\C,0,30.1261,-21.0954,-0.0138\H
 ,0,30.7064,-20.1774,-0.0101\C,0,28.7298,-21.0797,0.0062\H,0,28.1859,-2
 0.1392,0.0172\C,0,28.0518,-22.3018,0.0119\H,0,26.9668,-22.3446,0.0282\
 C,0,28.8007,-23.4841,0.002\H,0,28.304,-24.4522,0.0107\N,0,30.1446,-23.
 5194,-0.0097\C,0,30.7849,-22.3331,-0.0243\N,0,32.9646,-22.1808,1.1301\
 C,0,34.2982,-22.3605,0.8785\H,0,35.0156,-22.229,1.6805\C,0,34.6206,-22

 Normal termination of Gaussian 16 at Wed Apr  9 02:24:42 2025.
