 Gaussian 16, Revision C.01,

 ----------------------------------------------------------------------
 #t hf aug-cc-pvdz symm=none int=(grid=ultrafine) guess=(read,tcheck) s
 table=(opt,rrhf)
 ----------------------------------------------------------------------
 -----
 title
 -----
 Symbolic Z-matrix:
 Charge =  0 Multiplicity = 1

 SCF Done:  E(RHF) =  -453.943408046     A.U. after   11 cycles
 Normal termination of Gaussian 16 at Wed Apr  9 02:17:23 2025.
 Gaussian 16:  ES64L-G16RevC.01  3-Jul-2019

 ----------------------------------------------------------------------
 #t hf aug-cc-pvdz iop(5/13=1,5/36=2,99/5=2) pseudo=read geom=check gue
 ss=(read,tcheck) scf=(maxcycle=1)
 ----------------------------------------------------------------------
 -----
 title
 -----
 Structure from the checkpoint file:  "DCONF_10_160_mol1.chk"
 Charge =  0 Multiplicity = 1

                         Standard orientation:
 ---------------------------------------------------------------------
 Center     Atomic      Atomic             Coordinates (Angstroms)
 Number     Number       Type             X           Y           Z
 ---------------------------------------------------------------------
      1          6           0       -0.455973    0.619326   -0.034384
      2          1           0       -0.526514    1.221057   -0.945955
      3          1           0       -0.555174    1.295614    0.819872
      4          6           0       -1.552868   -0.445985   -0.032991
      5          1           0       -1.416221   -1.110744    0.827105
      6          1           0       -1.456551   -1.060160   -0.932291
      7          6           0       -2.940519    0.192773    0.020259
      8          1           0       -3.064324    0.783374    0.933244
      9          1           0       -3.095585    0.857313   -0.835746
     10          1           0       -3.723506   -0.569757    0.001851
     11          6           0        0.938400    0.047398    0.006745
     12          9           0        1.063315   -1.038375   -0.785370
     13          9           0        1.293137   -0.332701    1.250132
     14          9           0        1.855063    0.937990   -0.423190
 ---------------------------------------------------------------------

 SCF Done:  E(RHF) =  -454.103020930     A.U. after    2 cycles

 The electronic state is 1-A.
 Alpha  occ. eigenvalues --  -26.15718 -26.15585 -26.15509 -11.51496 -11.26682
 Alpha  occ. eigenvalues --  -11.25196 -11.24034  -1.75229  -1.68205  -1.68001
 Alpha  occ. eigenvalues --   -1.10866  -1.02739  -0.95039  -0.87521  -0.87173
 Alpha  occ. eigenvalues --   -0.84398  -0.79844  -0.76694  -0.76252  -0.72108
 Alpha  occ. eigenvalues --   -0.71805  -0.70771  -0.65352  -0.61965  -0.58133
 Alpha  occ. eigenvalues --   -0.56430  -0.51603  -0.50684  -0.49741
 Alpha virt. eigenvalues --    0.03270   0.04505   0.04732   0.05442   0.07074
 Alpha virt. eigenvalues --    0.07381   0.07990   0.09116   0.11124   0.12958
 Alpha virt. eigenvalues --    0.13336   0.13525   0.15228   0.15529   0.16468

 Mulliken charges:
               1
     1  C   -0.022068
     2  H   -0.067378
     3  H   -0.069442
     4  C    0.105688
     5  H   -0.106896
     6  H   -0.101148
     7  C    0.363894
     8  H   -0.061681
     9  H   -0.045323
    10  H   -0.059318
    11  C    1.051779
    12  F   -0.340054
    13  F   -0.330766
    14  F   -0.317288
 Sum of Mulliken charges =  -0.00000

 Dipole moment (field-independent basis, Debye):
    X=             -2.8971    Y=              0.8432    Z=             -0.0618  Tot=              3.0179

 Test job not archived.
 1\1\GINC-SE123\SP\RHF\Aug-CC-pVDZ\C4H7F3\OHZDE\09-Apr-2025\0\\#t hf au
 g-cc-pvdz iop(5/13=1,5/36=2,99/5=2) pseudo=read geom=check guess=(read
 ,tcheck) scf=(maxcycle=1)\\title\\0,1\C,0,-0.1434,0.0056,0.188\H,0,0.1
 34,-0.5531,-0.7114\H,0,0.1099,-0.6116,1.0551\C,0,0.6016,1.3406,0.2166\
 H,0,0.245,1.9406,1.0611\H,0,0.3707,1.899,-0.6945\C,0,2.1106,1.1265,0.3
 328\H,0,2.3605,0.5986,1.2583\H,0,2.4846,0.532,-0.5069\H,0,2.6426,2.081
 4,0.3338\C,0,-1.6436,0.154,0.1668\F,0,-2.0413,1.1563,-0.6451\F,0,-2.14
 33,0.4198,1.3899\F,0,-2.2484,-0.9631,-0.2855\\Version=ES64L-G16RevC.01

 Normal termination of Gaussian 16 at Wed Apr  9 02:17:28 2025.
