 Gaussian 16, Revision C.01,

 ----------------------------------------------------------------------
 #t hf aug-cc-pvdz symm=none int=(grid=ultrafine) guess=(read,tcheck) s
 table=(opt,rrhf)
 ----------------------------------------------------------------------
 -----
 title
 -----
 Symbolic Z-matrix:
 Charge =  0 Multiplicity = 1

 SCF Done:  E(RHF) =  -256.178335321     A.U. after   12 cycles
 Normal termination of Gaussian 16 at Wed Apr  9 02:25:51 2025.
 Gaussian 16:  ES64L-G16RevC.01  3-Jul-2019

 ----------------------------------------------------------------------
 #t hf aug-cc-pvdz iop(5/13=1,5/36=2,99/5=2) pseudo=read geom=check gue
 ss=(read,tcheck) scf=(maxcycle=1)
 ----------------------------------------------------------------------
 -----
 title
 -----
 Structure from the checkpoint file:  "DCONF_8_-150_mol1.chk"
 Charge =  0 Multiplicity = 1

                         Standard orientation:
 ---------------------------------------------------------------------
 Center     Atomic      Atomic             Coordinates (Angstroms)
 Number     Number       Type             X           Y           Z
 ---------------------------------------------------------------------
      1          6           0        0.041073   -0.340207    0.206362
      2          1           0        0.130303   -1.141632   -0.536105
      3          1           0       -0.083594   -0.817760    1.184147
      4          6           0       -1.182500    0.513665   -0.134152
      5          1           0       -1.066258    0.907016   -1.150976
      6          1           0       -1.226365    1.381696    0.536225
      7          6           0       -2.487251   -0.275625   -0.030304
      8          1           0       -2.468867   -1.140139   -0.701467
      9          1           0       -3.349265    0.342464   -0.296835
     10          1           0       -2.637315   -0.644783    0.989134
     11          6           0        1.331694    0.463249    0.163495
     12          1           0        1.573938    0.918124    1.127719
     13          1           0        1.268487    1.247647   -0.597395
     14          9           0        2.404538   -0.357680   -0.198539
 ---------------------------------------------------------------------

 SCF Done:  E(RHF) =  -256.265199234     A.U. after    2 cycles

 The electronic state is 1-A.
 Alpha  occ. eigenvalues --  -26.09411 -11.31618 -11.24046 -11.23713 -11.23059
 Alpha  occ. eigenvalues --   -1.62467  -1.07853  -0.99101  -0.88274  -0.81282
 Alpha  occ. eigenvalues --   -0.73780  -0.72247  -0.69381  -0.64335  -0.58798
 Alpha  occ. eigenvalues --   -0.57672  -0.54156  -0.51250  -0.48832  -0.48492
 Alpha  occ. eigenvalues --   -0.47713
 Alpha virt. eigenvalues --    0.03436   0.04424   0.04572   0.05127   0.06727
 Alpha virt. eigenvalues --    0.06953   0.07180   0.07900   0.09328   0.11940
 Alpha virt. eigenvalues --    0.12523   0.13592   0.15202   0.15846   0.16307

 Mulliken charges:
               1
     1  C    0.040112
     2  H   -0.093527
     3  H   -0.097941
     4  C    0.089069
     5  H   -0.122629
     6  H   -0.108431
     7  C    0.381147
     8  H   -0.046985
     9  H   -0.060136
    10  H   -0.067328
    11  C    0.798324
    12  H   -0.126305
    13  H   -0.167771
    14  F   -0.417599
 Sum of Mulliken charges =  -0.00000

 Dipole moment (field-independent basis, Debye):
    X=             -2.1185    Y=              1.2084    Z=              0.5359  Tot=              2.4971

 Test job not archived.
 1\1\GINC-SE029\SP\RHF\Aug-CC-pVDZ\C4H9F1\OHZDE\09-Apr-2025\0\\#t hf au
 g-cc-pvdz iop(5/13=1,5/36=2,99/5=2) pseudo=read geom=check guess=(read
 ,tcheck) scf=(maxcycle=1)\\title\\0,1\C,0,0.0307,-0.0334,-0.006\H,0,0.
 0618,-0.6129,-0.9359\H,0,0.0158,-0.7507,0.8216\C,0,-1.2392,0.8207,0.00
 07\H,0,-1.2348,1.4663,-0.8855\H,0,-1.2339,1.4851,0.8744\C,0,-2.5094,-0
 .0293,0.0158\H,0,-2.5402,-0.6913,-0.8554\H,0,-3.4071,0.5952,-0.0008\H,
 0,-2.5477,-0.6538,0.9139\C,0,1.2927,0.814,0.0425\H,0,1.6212,1.0177,1.0
 652\H,0,1.136,1.7632,-0.4797\F,0,2.341,0.1645,-0.6172\\Version=ES64L-G

 Normal termination of Gaussian 16 at Wed Apr  9 02:25:55 2025.
