 Gaussian 16, Revision C.01,

 ----------------------------------------------------------------------
 #t hf aug-cc-pvdz symm=none int=(grid=ultrafine) guess=(read,tcheck) s
 table=(opt,rrhf)
 ----------------------------------------------------------------------
 -----
 title
 -----
 Symbolic Z-matrix:
 Charge =  0 Multiplicity = 1

 SCF Done:  E(RHF) =  -1153.54416074     A.U. after   16 cycles
 Normal termination of Gaussian 16 at Wed Apr  9 02:19:59 2025.
 Gaussian 16:  ES64L-G16RevC.01  3-Jul-2019

 ----------------------------------------------------------------------
 #t hf aug-cc-pvdz iop(5/13=1,5/36=2,99/5=2) pseudo=read geom=check gue
 ss=(read,tcheck) scf=(maxcycle=1)
 ----------------------------------------------------------------------
 -----
 title
 -----
 Structure from the checkpoint file:  "DCONF_29_-140_mol1.chk"
 Charge =  0 Multiplicity = 1

                         Standard orientation:
 ---------------------------------------------------------------------
 Center     Atomic      Atomic             Coordinates (Angstroms)
 Number     Number       Type             X           Y           Z
 ---------------------------------------------------------------------
      1          6           0       -2.746547   -0.187510   -0.006454
      2          1           0       -3.743097   -0.608747    0.011684
      3          6           0       -2.371507    1.140152   -0.099051
      4          1           0       -3.061103    1.974217   -0.155135
      5          7           0       -1.027149    1.375656   -0.121707
      6          6           0       -0.377983    0.231315   -0.059514
      7         16           0       -1.359286   -1.183308    0.069556
      8         16           0        1.409431    0.176637    0.114969
      9          6           0        1.851744   -1.167762   -0.968826
     10          1           0        1.413447   -2.097070   -0.603315
     11          1           0        2.941700   -1.229019   -0.929586
     12          1           0        1.522056   -0.932303   -1.981319
     13          8           0        1.698573   -0.247149    1.479480
     14          8           0        1.948987    1.406260   -0.434443
 ---------------------------------------------------------------------

 SCF Done:  E(RHF) =  -1153.74714712     A.U. after    2 cycles

 The electronic state is 1-A.
 Alpha  occ. eigenvalues --  -93.80113 -93.61473 -20.56775 -20.56733 -15.67909
 Alpha  occ. eigenvalues --  -11.36044 -11.31203 -11.31051 -11.29857  -9.06727
 Alpha  occ. eigenvalues --   -8.91325  -6.41350  -6.41178  -6.41115  -6.25437
 Alpha  occ. eigenvalues --   -6.25310  -6.24950  -1.42609  -1.31123  -1.28749
 Alpha  occ. eigenvalues --   -1.08848  -1.06889  -1.02184  -0.89305  -0.82438
 Alpha  occ. eigenvalues --   -0.76854  -0.73112  -0.68679  -0.67547  -0.66659
 Alpha  occ. eigenvalues --   -0.62252  -0.61890  -0.60859  -0.58888  -0.53726
 Alpha  occ. eigenvalues --   -0.52913  -0.52338  -0.50049  -0.48257  -0.45357
 Alpha  occ. eigenvalues --   -0.41960  -0.37183
 Alpha virt. eigenvalues --    0.02445   0.03415   0.04332   0.05050   0.05468
 Alpha virt. eigenvalues --    0.05943   0.08244   0.09631   0.09943   0.10929
 Alpha virt. eigenvalues --    0.11375   0.11439   0.12434   0.12787   0.13455

 Mulliken charges:
               1
     1  C    0.098572
     2  H   -0.353403
     3  C    0.763163
     4  H   -0.254253
     5  N   -0.531195
     6  C   -0.608792
     7  S    0.498885
     8  S    2.545391
     9  C    0.020639
    10  H    0.012423
    11  H    0.014524
    12  H    0.014948
    13  O   -1.134060
    14  O   -1.086841
 Sum of Mulliken charges =  -0.00000

 Dipole moment (field-independent basis, Debye):
    X=             -4.1577    Y=             -4.2583    Z=             -2.8412  Tot=              6.5948

 Test job not archived.
 1\1\GINC-SE041\SP\RHF\Aug-CC-pVDZ\C4H5N1O2S2\OHZDE\09-Apr-2025\0\\#t h
 f aug-cc-pvdz iop(5/13=1,5/36=2,99/5=2) pseudo=read geom=check guess=(
 read,tcheck) scf=(maxcycle=1)\\title\\0,1\C,0,2.0284,-24.6412,-0.9227\
 H,0,0.9835,-24.6635,-1.203\C,0,2.8295,-25.6825,-0.4916\H,0,2.5025,-26.
 7102,-0.3855\N,0,4.1175,-25.3509,-0.1844\C,0,4.2959,-24.0589,-0.368\S,
 0,2.9274,-23.1878,-0.9589\S,0,5.9233,-23.3095,-0.2329\C,0,5.5637,-21.7
 795,0.6082\H,0,4.9183,-21.1583,-0.0138\H,0,6.5295,-21.289,0.7494\H,0,5
 .1076,-22.0023,1.5734\O,0,6.3596,-22.9753,-1.5831\O,0,6.725,-24.1397,0

 Normal termination of Gaussian 16 at Wed Apr  9 02:20:06 2025.
