 Gaussian 16, Revision C.01,

 ----------------------------------------------------------------------
 #t hf aug-cc-pvdz symm=none int=(grid=ultrafine) guess=(read,tcheck) s
 table=(opt,rrhf)
 ----------------------------------------------------------------------
 -----
 title
 -----
 Symbolic Z-matrix:
 Charge =  0 Multiplicity = 1

 SCF Done:  E(RHF) =  -681.467854092     A.U. after   13 cycles
 Normal termination of Gaussian 16 at Wed Apr  9 02:17:21 2025.
 Gaussian 16:  ES64L-G16RevC.01  3-Jul-2019

 ----------------------------------------------------------------------
 #t hf aug-cc-pvdz iop(5/13=1,5/36=2,99/5=2) pseudo=read geom=check gue
 ss=(read,tcheck) scf=(maxcycle=1)
 ----------------------------------------------------------------------
 -----
 title
 -----
 Structure from the checkpoint file:  "DCONF_16_150_mol1.chk"
 Charge =  0 Multiplicity = 1

                         Standard orientation:
 ---------------------------------------------------------------------
 Center     Atomic      Atomic             Coordinates (Angstroms)
 Number     Number       Type             X           Y           Z
 ---------------------------------------------------------------------
      1          6           0       -1.619328    1.078807    0.198695
      2          1           0       -1.314150    1.743790    1.005048
      3          1           0       -1.721424    1.616579   -0.743991
      4          1           0       -2.552913    0.569996    0.444124
      5         16           0       -0.391955   -0.190671    0.007793
      6          8           0       -0.115903   -0.781952    1.306880
      7          7           0        0.958722    0.733202   -0.393790
      8          1           0        0.948947    0.874105   -1.401888
      9          8           0       -0.796232   -1.018555   -1.121990
     10          6           0        2.247558    0.157346    0.035051
     11          1           0        2.259526    0.091178    1.122082
     12          1           0        2.437802   -0.835300   -0.386303
     13          1           0        3.030132    0.845102   -0.288814
 ---------------------------------------------------------------------

 SCF Done:  E(RHF) =  -681.634870201     A.U. after    2 cycles

 The electronic state is 1-A.
 Alpha  occ. eigenvalues --  -93.80126 -20.56135 -20.56024 -15.66969 -11.28769
 Alpha  occ. eigenvalues --  -11.28469  -9.06557  -6.41187  -6.41052  -6.40903
 Alpha  occ. eigenvalues --   -1.42677  -1.30588  -1.20306  -1.04270  -0.94070
 Alpha  occ. eigenvalues --   -0.82424  -0.72936  -0.68846  -0.68354  -0.64492
 Alpha  occ. eigenvalues --   -0.62045  -0.60956  -0.58580  -0.56962  -0.53199
 Alpha  occ. eigenvalues --   -0.51899  -0.49547  -0.47646  -0.43137
 Alpha virt. eigenvalues --    0.02863   0.03829   0.04657   0.05460   0.06599
 Alpha virt. eigenvalues --    0.06927   0.07703   0.10723   0.12397   0.13060
 Alpha virt. eigenvalues --    0.13507   0.14253   0.15427   0.15732   0.16466

 Mulliken charges:
               1
     1  C    0.075266
     2  H    0.028837
     3  H   -0.006212
     4  H    0.058942
     5  S    2.519438
     6  O   -1.059238
     7  N   -0.956247
     8  H    0.041715
     9  O   -1.056208
    10  C    0.721887
    11  H   -0.111314
    12  H   -0.071564
    13  H   -0.185303
 Sum of Mulliken charges =  -0.00000

 Dipole moment (field-independent basis, Debye):
    X=              0.9125    Y=              4.2200    Z=             -1.0017  Tot=              4.4322

 Test job not archived.
 1\1\GINC-SE253\SP\RHF\Aug-CC-pVDZ\C2H7N1O2S1\OHZDE\09-Apr-2025\0\\#t h
 f aug-cc-pvdz iop(5/13=1,5/36=2,99/5=2) pseudo=read geom=check guess=(
 read,tcheck) scf=(maxcycle=1)\\title\\0,1\C,0,-1.0993,-1.4018,-0.6324\
 H,0,-0.8773,-0.792,0.2419\H,0,-0.3949,-1.2091,-1.4417\H,0,-2.1214,-1.2
 346,-0.976\S,0,-0.998,-3.1153,-0.1762\O,0,-1.7909,-3.3341,1.0225\N,0,0
 .6169,-3.2228,0.2925\H,0,1.1693,-3.413,-0.5411\O,0,-1.2309,-3.8999,-1.
 3826\C,0,0.8893,-4.2314,1.3342\H,0,0.3468,-3.9592,2.2385\H,0,0.604,-5.
 246,1.0371\H,0,1.9606,-4.2008,1.5384\\Version=ES64L-G16RevC.01\State=1

 Normal termination of Gaussian 16 at Wed Apr  9 02:17:26 2025.
