 Gaussian 16, Revision C.01,

 ----------------------------------------------------------------------
 #t hf aug-cc-pvdz symm=none int=(grid=ultrafine) guess=(read,tcheck) s
 table=(opt,rrhf)
 ----------------------------------------------------------------------
 -----
 title
 -----
 Symbolic Z-matrix:
 Charge =  0 Multiplicity = 1

 SCF Done:  E(RHF) =  -758.165794307     A.U. after   16 cycles
 Normal termination of Gaussian 16 at Wed Apr  9 02:20:34 2025.
 Gaussian 16:  ES64L-G16RevC.01  3-Jul-2019

 ----------------------------------------------------------------------
 #t hf aug-cc-pvdz iop(5/13=1,5/36=2,99/5=2) pseudo=read geom=check gue
 ss=(read,tcheck) scf=(maxcycle=1)
 ----------------------------------------------------------------------
 -----
 title
 -----
 Structure from the checkpoint file:  "DCONF_38_-130_mol1.chk"
 Charge =  0 Multiplicity = 1

                         Standard orientation:
 ---------------------------------------------------------------------
 Center     Atomic      Atomic             Coordinates (Angstroms)
 Number     Number       Type             X           Y           Z
 ---------------------------------------------------------------------
      1          6           0       -2.148051    0.110151    0.005255
      2          7           0       -1.022738    0.789873   -0.442155
      3          1           0       -1.199268    1.378942   -1.248992
      4          6           0        1.268795    1.372604    0.327097
      5          1           0        1.021405    2.393972    0.596096
      6          6           0        2.557755    0.788921    0.419805
      7          1           0        3.439513    1.302840    0.785193
      8          6           0        2.568360   -0.533784    0.016663
      9          1           0        3.398715   -1.227883    0.029500
     10         16           0        1.022399   -1.055579   -0.507223
     11          6           0        0.312343    0.482692   -0.132227
     12          8           0       -3.237163    0.310647   -0.509372
     13          6           0       -1.937255   -0.840443    1.163964
     14          1           0       -1.143443   -0.501515    1.832743
     15          1           0       -2.882347   -0.921303    1.701605
     16          1           0       -1.668170   -1.830920    0.786148
 ---------------------------------------------------------------------

 SCF Done:  E(RHF) =  -758.297162500     A.U. after    2 cycles

 The electronic state is 1-A.
 Alpha  occ. eigenvalues --  -93.57918 -20.54413 -15.66812 -11.37584 -11.32588
 Alpha  occ. eigenvalues --  -11.28770 -11.26518 -11.26409 -11.24909  -8.87780
 Alpha  occ. eigenvalues --   -6.21912  -6.21771  -6.21429  -1.35248  -1.22999
 Alpha  occ. eigenvalues --   -1.15420  -1.01025  -0.99459  -0.97655  -0.82456
 Alpha  occ. eigenvalues --   -0.77778  -0.76525  -0.71989  -0.68257  -0.64004
 Alpha  occ. eigenvalues --   -0.62690  -0.59526  -0.58057  -0.56807  -0.56454
 Alpha  occ. eigenvalues --   -0.53867  -0.52584  -0.49251  -0.44999  -0.41916
 Alpha  occ. eigenvalues --   -0.36357  -0.33285
 Alpha virt. eigenvalues --    0.02935   0.03802   0.04272   0.04702   0.05771
 Alpha virt. eigenvalues --    0.06562   0.07313   0.08342   0.09552   0.09703
 Alpha virt. eigenvalues --    0.11287   0.11966   0.12816   0.13142   0.13406

 Mulliken charges:
               1
     1  C    0.448445
     2  N   -0.497835
     3  H   -0.091074
     4  C    0.359098
     5  H   -0.406104
     6  C    0.349742
     7  H   -0.304912
     8  C   -0.088191
     9  H   -0.333704
    10  S    0.799874
    11  C    0.038109
    12  O   -0.551538
    13  C    0.283034
    14  H    0.023307
    15  H   -0.084198
    16  H    0.055947
 Sum of Mulliken charges =  -0.00000

 Dipole moment (field-independent basis, Debye):
    X=              4.2543    Y=              0.0106    Z=              1.4277  Tot=              4.4875

 Test job not archived.
 1\1\GINC-SE344\SP\RHF\Aug-CC-pVDZ\C6H7N1O1S1\OHZDE\09-Apr-2025\0\\#t h
 f aug-cc-pvdz iop(5/13=1,5/36=2,99/5=2) pseudo=read geom=check guess=(
 read,tcheck) scf=(maxcycle=1)\\title\\0,1\C,0,28.869,-3.8014,-0.8047\N
 ,0,29.4363,-4.7347,0.053\H,0,28.9443,-4.8257,0.9355\C,0,31.0776,-6.601
 8,0.0028\H,0,30.3283,-7.3861,-0.0105\C,0,32.4803,-6.8075,0.0314\H,0,32
 .9582,-7.7805,0.0301\C,0,33.188,-5.6195,0.032\H,0,34.2613,-5.483,0.003
 3\S,0,32.1498,-4.2561,0.0337\C,0,30.7361,-5.2602,-0.032\O,0,27.8271,-3
 .2392,-0.5054\C,0,29.5959,-3.5667,-2.1113\H,0,30.1038,-4.4663,-2.4649\

 Normal termination of Gaussian 16 at Wed Apr  9 02:20:42 2025.
