 Gaussian 16, Revision C.01,

 ----------------------------------------------------------------------
 #t hf aug-cc-pvdz symm=none int=(grid=ultrafine) guess=(read,tcheck) s
 table=(opt,rrhf)
 ----------------------------------------------------------------------
 -----
 title
 -----
 Symbolic Z-matrix:
 Charge =  0 Multiplicity = 1

 SCF Done:  E(RHF) =  -703.119565550     A.U. after   16 cycles
 Normal termination of Gaussian 16 at Wed Apr  9 02:18:14 2025.
 Gaussian 16:  ES64L-G16RevC.01  3-Jul-2019

 ----------------------------------------------------------------------
 #t hf aug-cc-pvdz iop(5/13=1,5/36=2,99/5=2) pseudo=read geom=check gue
 ss=(read,tcheck) scf=(maxcycle=1)
 ----------------------------------------------------------------------
 -----
 title
 -----
 Structure from the checkpoint file:  "DCONF_24_-100_mol2.chk"
 Charge =  0 Multiplicity = 1

                         Standard orientation:
 ---------------------------------------------------------------------
 Center     Atomic      Atomic             Coordinates (Angstroms)
 Number     Number       Type             X           Y           Z
 ---------------------------------------------------------------------
      1          8           0        1.995537   -1.325644   -0.000112
      2          6           0        2.540157    1.014431    0.000788
      3          1           0        2.371237    1.634968   -0.884512
      4          1           0        3.565968    0.644407    0.001088
      5          1           0        2.370350    1.634782    0.885888
      6          6           0        1.592803   -0.167891    0.000088
      7          6           0       -0.490529    1.371911   -0.000112
      8          1           0        0.045633    2.314806   -0.000212
      9          6           0       -1.898977    1.256715   -0.000112
     10          1           0       -2.587754    2.094194    0.000088
     11          6           0       -2.309086   -0.067731   -0.000012
     12          1           0       -3.324094   -0.445330   -0.000012
     13         16           0       -0.993286   -1.157215   -0.000212
     14          6           0        0.146788    0.133028   -0.000312
 ---------------------------------------------------------------------

 SCF Done:  E(RHF) =  -703.233758761     A.U. after    2 cycles

 The electronic state is 1-A.
 Alpha  occ. eigenvalues --  -93.57789 -20.56308 -11.35672 -11.29416 -11.28273
 Alpha  occ. eigenvalues --  -11.27670 -11.26350 -11.25143  -8.87594  -6.21706
 Alpha  occ. eigenvalues --   -6.21573  -6.21226  -1.34883  -1.17774  -1.03825
 Alpha  occ. eigenvalues --   -0.99786  -0.97957  -0.84061  -0.77564  -0.73068
 Alpha  occ. eigenvalues --   -0.70371  -0.63596  -0.62571  -0.61653  -0.58145
 Alpha  occ. eigenvalues --   -0.56360  -0.54466  -0.53713  -0.50802  -0.49047
 Alpha  occ. eigenvalues --   -0.43962  -0.36096  -0.34272
 Alpha virt. eigenvalues --    0.02883   0.03630   0.04503   0.04617   0.05861
 Alpha virt. eigenvalues --    0.06170   0.07888   0.08426   0.09715   0.11055
 Alpha virt. eigenvalues --    0.11880   0.12731   0.12860   0.13610   0.13681

 Mulliken charges:
               1
     1  O   -0.554367
     2  C    0.415035
     3  H    0.095946
     4  H   -0.122660
     5  H    0.095590
     6  C   -0.214218
     7  C    0.524777
     8  H   -0.540099
     9  C    0.148374
    10  H   -0.302930
    11  C    0.019443
    12  H   -0.361788
    13  S    0.634990
    14  C    0.161907
 Sum of Mulliken charges =  -0.00000

 Dipole moment (field-independent basis, Debye):
    X=             -1.9675    Y=              3.9914    Z=              0.0010  Tot=              4.4500

 Test job not archived.
 1\1\GINC-SE229\SP\RHF\Aug-CC-pVDZ\C6H6O1S1\OHZDE\09-Apr-2025\0\\#t hf
 aug-cc-pvdz iop(5/13=1,5/36=2,99/5=2) pseudo=read geom=check guess=(re
 ad,tcheck) scf=(maxcycle=1)\\title\\0,1\O,0,21.6404,-3.9858,0.\C,0,20.
 8734,-6.2627,0.0009\H,0,20.9819,-6.8966,-0.8844\H,0,19.8879,-5.7958,0.
 0012\H,0,20.9828,-6.8965,0.886\C,0,21.93,-5.1769,0.0002\C,0,23.8557,-6
 .9098,0.\H,0,23.2314,-7.7968,-0.0001\C,0,25.2687,-6.9305,0.\H,0,25.873
 8,-7.8303,0.0002\C,0,25.8042,-5.6516,0.0001\H,0,26.8508,-5.3733,0.0001
 \S,0,24.5992,-4.4407,-0.0001\C,0,23.3404,-5.6154,-0.0002\\Version=ES64

 Normal termination of Gaussian 16 at Wed Apr  9 02:18:21 2025.
