 Gaussian 16, Revision C.01,

 ----------------------------------------------------------------------
 #t hf aug-cc-pvdz symm=none int=(grid=ultrafine) guess=(read,tcheck) s
 table=(opt,rrhf)
 ----------------------------------------------------------------------
 -----
 title
 -----
 Symbolic Z-matrix:
 Charge =  0 Multiplicity = 1

 SCF Done:  E(RHF) =  -796.892191690     A.U. after   16 cycles
 Normal termination of Gaussian 16 at Wed Apr  9 02:23:59 2025.
 Gaussian 16:  ES64L-G16RevC.01  3-Jul-2019

 ----------------------------------------------------------------------
 #t hf aug-cc-pvdz iop(5/13=1,5/36=2,99/5=2) pseudo=read geom=check gue
 ss=(read,tcheck) scf=(maxcycle=1)
 ----------------------------------------------------------------------
 -----
 title
 -----
 Structure from the checkpoint file:  "DCONF_52_-100_mol1.chk"
 Charge =  0 Multiplicity = 1

                         Standard orientation:
 ---------------------------------------------------------------------
 Center     Atomic      Atomic             Coordinates (Angstroms)
 Number     Number       Type             X           Y           Z
 ---------------------------------------------------------------------
      1          6           0       -1.457816    0.980075   -0.746043
      2          1           0       -0.940933    1.725254   -1.344087
      3          6           0       -2.851946    0.892389   -0.734546
      4          1           0       -3.455571    1.575131   -1.326484
      5          6           0       -3.447969   -0.096962    0.051865
      6          1           0       -4.527298   -0.209690    0.095684
      7          6           0       -2.621337   -0.950203    0.792048
      8          1           0       -3.052582   -1.730829    1.415751
      9          7           0       -1.279179   -0.874276    0.801032
     10          6           0       -0.711467    0.081105    0.033162
     11          6           0        1.516274    1.105954    0.797775
     12          1           0        1.065387    1.894063    1.391969
     13          6           0        2.911804    0.879615    0.672693
     14          1           0        3.677954    1.480497    1.150400
     15          6           0        3.195483   -0.212848   -0.127492
     16          1           0        4.165924   -0.605963   -0.402401
     17         16           0        1.766465   -0.952610   -0.718403
     18          6           0        0.759962    0.193080    0.078269
 ---------------------------------------------------------------------

 SCF Done:  E(RHF) =  -797.027903095     A.U. after    2 cycles

 The electronic state is 1-A.
 Alpha  occ. eigenvalues --  -93.56413 -15.63845 -11.30464 -11.29248 -11.27652
 Alpha  occ. eigenvalues --  -11.27618 -11.27174 -11.25874 -11.25855 -11.24990
 Alpha  occ. eigenvalues --  -11.24899  -8.86241  -6.20372  -6.20235  -6.19884
 Alpha  occ. eigenvalues --   -1.23565  -1.16049  -1.07992  -1.05033  -0.97828
 Alpha  occ. eigenvalues --   -0.96871  -0.86316  -0.86135  -0.76395  -0.75569
 Alpha  occ. eigenvalues --   -0.70914  -0.68292  -0.67222  -0.63601  -0.59155
 Alpha  occ. eigenvalues --   -0.57822  -0.56943  -0.55700  -0.52773  -0.51809
 Alpha  occ. eigenvalues --   -0.51742  -0.47391  -0.42075  -0.38762  -0.35337
 Alpha  occ. eigenvalues --   -0.34529  -0.32161
 Alpha virt. eigenvalues --    0.03025   0.03585   0.04205   0.04785   0.05381
 Alpha virt. eigenvalues --    0.06149   0.06410   0.08240   0.08737   0.09282
 Alpha virt. eigenvalues --    0.10102   0.10517   0.11354   0.11537   0.12248

 Mulliken charges:
               1
     1  C    0.928041
     2  H   -0.492514
     3  C   -0.509325
     4  H   -0.394026
     5  C    0.933818
     6  H   -0.412421
     7  C    0.408691
     8  H   -0.377839
     9  N   -0.488866
    10  C    0.062258
    11  C    0.310719
    12  H   -0.441394
    13  C    0.327364
    14  H   -0.326444
    15  C   -0.055176
    16  H   -0.346957
    17  S    0.629495
    18  C    0.244575
 Sum of Mulliken charges =  -0.00000

 Dipole moment (field-independent basis, Debye):
    X=             -1.2647    Y=              1.7487    Z=             -0.6597  Tot=              2.2567

 Test job not archived.
 1\1\GINC-SE108\SP\RHF\Aug-CC-pVDZ\C9H7N1S1\OHZDE\09-Apr-2025\0\\#t hf
 aug-cc-pvdz iop(5/13=1,5/36=2,99/5=2) pseudo=read geom=check guess=(re
 ad,tcheck) scf=(maxcycle=1)\\title\\0,1\C,0,30.1873,-8.3608,-0.012\H,0
 ,30.7671,-7.4422,-0.023\C,0,28.7906,-8.3421,0.0053\H,0,28.2485,-7.4003
 ,0.0109\C,0,28.1108,-9.5629,0.0099\H,0,27.0256,-9.6051,0.0217\C,0,28.8
 603,-10.745,-0.0001\H,0,28.3628,-11.7129,0.0042\N,0,30.2041,-10.7823,-
 0.0067\C,0,30.8528,-9.5975,-0.0173\C,0,33.1506,-9.4471,1.1208\H,0,32.7
 607,-9.1905,2.1004\C,0,34.5241,-9.6346,0.8163\H,0,35.3329,-9.529,1.531

 Normal termination of Gaussian 16 at Wed Apr  9 02:24:11 2025.
