 Gaussian 16, Revision C.01,

 ----------------------------------------------------------------------
 #t hf aug-cc-pvdz symm=none int=(grid=ultrafine) guess=(read,tcheck) s
 table=(opt,rrhf)
 ----------------------------------------------------------------------
 -----
 title
 -----
 Symbolic Z-matrix:
 Charge =  0 Multiplicity = 1

 SCF Done:  E(RHF) =  -796.905397689     A.U. after   17 cycles
 Normal termination of Gaussian 16 at Wed Apr  9 02:24:59 2025.
 Gaussian 16:  ES64L-G16RevC.01  3-Jul-2019

 ----------------------------------------------------------------------
 #t hf aug-cc-pvdz iop(5/13=1,5/36=2,99/5=2) pseudo=read geom=check gue
 ss=(read,tcheck) scf=(maxcycle=1)
 ----------------------------------------------------------------------
 -----
 title
 -----
 Structure from the checkpoint file:  "DCONF_55_0_mol1.chk"
 Charge =  0 Multiplicity = 1

                         Standard orientation:
 ---------------------------------------------------------------------
 Center     Atomic      Atomic             Coordinates (Angstroms)
 Number     Number       Type             X           Y           Z
 ---------------------------------------------------------------------
      1          6           0       -1.321627   -1.154107    0.074408
      2          1           0       -0.741538   -2.073079    0.124734
      3          6           0       -2.716912   -1.228935    0.043623
      4          1           0       -3.203871   -2.198884    0.098458
      5          6           0       -3.484443   -0.059053   -0.002390
      6          1           0       -4.569388   -0.117198   -0.016689
      7          6           0       -2.842405    1.184988   -0.063066
      8          1           0       -3.430417    2.098559   -0.095321
      9          6           0       -1.448265    1.264882   -0.042537
     10          1           0       -0.941361    2.224149   -0.085632
     11          6           0       -0.672621    0.090354   -0.017338
     12          7           0        1.434441    1.360949    0.076048
     13          6           0        2.785807    1.168652    0.048921
     14          1           0        3.450487    2.024206    0.087240
     15          6           0        3.199711   -0.146315   -0.024132
     16          1           0        4.209130   -0.534806   -0.045215
     17         16           0        1.840201   -1.180941   -0.060232
     18          6           0        0.791198    0.203779    0.043144
 ---------------------------------------------------------------------

 SCF Done:  E(RHF) =  -797.040650991     A.U. after    2 cycles

 The electronic state is 1-A.
 Alpha  occ. eigenvalues --  -93.57740 -15.63612 -11.32951 -11.28412 -11.27607
 Alpha  occ. eigenvalues --  -11.26948 -11.26106 -11.25788 -11.25572 -11.25477
 Alpha  occ. eigenvalues --  -11.25355  -8.87642  -6.21766  -6.21645  -6.21278
 Alpha  occ. eigenvalues --   -1.25463  -1.15215  -1.05550  -1.05028  -1.01644
 Alpha  occ. eigenvalues --   -0.97210  -0.85425  -0.84218  -0.78676  -0.75702
 Alpha  occ. eigenvalues --   -0.70958  -0.68133  -0.64309  -0.63810  -0.59990
 Alpha  occ. eigenvalues --   -0.59101  -0.57289  -0.56799  -0.51896  -0.51005
 Alpha  occ. eigenvalues --   -0.50816  -0.49971  -0.42761  -0.39754  -0.37931
 Alpha  occ. eigenvalues --   -0.34749  -0.30342
 Alpha virt. eigenvalues --    0.03298   0.03515   0.04090   0.05030   0.05286
 Alpha virt. eigenvalues --    0.05500   0.06954   0.07426   0.09557   0.09939
 Alpha virt. eigenvalues --    0.10021   0.11074   0.11633   0.11976   0.12687

 Mulliken charges:
               1
     1  C    0.269851
     2  H   -0.518299
     3  C    0.554192
     4  H   -0.435114
     5  C    0.451390
     6  H   -0.429067
     7  C    0.590707
     8  H   -0.427132
     9  C    0.210255
    10  H   -0.604441
    11  C    0.819592
    12  N   -0.409209
    13  C    0.777236
    14  H   -0.342406
    15  C    0.010071
    16  H   -0.399129
    17  S    0.556415
    18  C   -0.674912
 Sum of Mulliken charges =   0.00000

 Dipole moment (field-independent basis, Debye):
    X=             -0.0642    Y=             -1.0069    Z=             -0.0483  Tot=              1.0101

 Test job not archived.
 1\1\GINC-SE149\SP\RHF\Aug-CC-pVDZ\C9H7N1S1\OHZDE\09-Apr-2025\0\\#t hf
 aug-cc-pvdz iop(5/13=1,5/36=2,99/5=2) pseudo=read geom=check guess=(re
 ad,tcheck) scf=(maxcycle=1)\\title\\0,1\C,0,21.799,-23.5707,0.0104\H,0
 ,22.3175,-24.5271,0.0118\C,0,20.4016,-23.5523,-0.007\H,0,19.8521,-24.4
 897,0.0094\C,0,19.7127,-22.3337,0.0096\H,0,18.6262,-22.3198,0.0057\C,0
 ,20.435,-21.133,-0.002\H,0,19.9084,-20.1823,0.0145\C,0,21.8315,-21.145
 8,0.0054\H,0,22.4003,-20.2209,0.\C,0,22.528,-22.3686,-0.0323\N,0,24.71
 52,-21.2447,0.0936\C,0,26.0506,-21.5238,0.0415\H,0,26.7707,-20.7164,0.

 Normal termination of Gaussian 16 at Wed Apr  9 02:25:11 2025.
