 Gaussian 16, Revision C.01,

 ----------------------------------------------------------------------
 #t hf aug-cc-pvdz symm=none int=(grid=ultrafine) guess=(read,tcheck) s
 table=(opt,rrhf)
 ----------------------------------------------------------------------
 -----
 title
 -----
 Symbolic Z-matrix:
 Charge =  0 Multiplicity = 1

 SCF Done:  E(RHF) =  -774.182580187     A.U. after   16 cycles
 Normal termination of Gaussian 16 at Wed Apr  9 02:20:59 2025.
 Gaussian 16:  ES64L-G16RevC.01  3-Jul-2019

 ----------------------------------------------------------------------
 #t hf aug-cc-pvdz iop(5/13=1,5/36=2,99/5=2) pseudo=read geom=check gue
 ss=(read,tcheck) scf=(maxcycle=1)
 ----------------------------------------------------------------------
 -----
 title
 -----
 Structure from the checkpoint file:  "DCONF_42_-160_mol1.chk"
 Charge =  0 Multiplicity = 1

                         Standard orientation:
 ---------------------------------------------------------------------
 Center     Atomic      Atomic             Coordinates (Angstroms)
 Number     Number       Type             X           Y           Z
 ---------------------------------------------------------------------
      1          6           0       -1.989952   -0.110180    0.007700
      2          7           0       -0.963408    0.783327   -0.237049
      3          1           0       -1.159697    1.776767   -0.218154
      4          7           0        1.268980    1.461682    0.046241
      5          6           0        2.531594    0.930845    0.135588
      6          1           0        3.378084    1.595764    0.258616
      7          6           0        2.603136   -0.440828    0.071875
      8          1           0        3.478344   -1.072213    0.145815
      9         16           0        1.031295   -1.116492   -0.101622
     10          6           0        0.391828    0.489285   -0.086817
     11          8           0       -1.781602   -1.306106    0.150697
     12          6           0       -3.363909    0.517109    0.077885
     13          1           0       -3.432030    1.434952   -0.510568
     14          1           0       -4.097180   -0.206115   -0.279804
     15          1           0       -3.590616    0.751122    1.122735
 ---------------------------------------------------------------------

 SCF Done:  E(RHF) =  -774.317859760     A.U. after    2 cycles

 The electronic state is 1-A.
 Alpha  occ. eigenvalues --  -93.57719 -20.56228 -15.68942 -15.63232 -11.39342
 Alpha  occ. eigenvalues --  -11.36677 -11.28154 -11.26746 -11.26587  -8.87491
 Alpha  occ. eigenvalues --   -6.21597  -6.21463  -6.21088  -1.37276  -1.27964
 Alpha  occ. eigenvalues --   -1.20675  -1.05185  -1.03521  -0.97297  -0.85193
 Alpha  occ. eigenvalues --   -0.79816  -0.77062  -0.70061  -0.69585  -0.65050
 Alpha  occ. eigenvalues --   -0.64229  -0.61584  -0.58823  -0.58004  -0.56598
 Alpha  occ. eigenvalues --   -0.53794  -0.50922  -0.46435  -0.45736  -0.43697
 Alpha  occ. eigenvalues --   -0.38527  -0.31790
 Alpha virt. eigenvalues --    0.02786   0.03699   0.04574   0.05068   0.05721
 Alpha virt. eigenvalues --    0.07176   0.08933   0.09753   0.09883   0.11128
 Alpha virt. eigenvalues --    0.11512   0.12496   0.12908   0.13233   0.13704

 Mulliken charges:
               1
     1  C    0.230834
     2  N   -0.521628
     3  H   -0.036564
     4  N   -0.460686
     5  C    0.723637
     6  H   -0.288540
     7  C    0.150804
     8  H   -0.394404
     9  S    0.592353
    10  C    0.121765
    11  O   -0.492846
    12  C    0.374247
    13  H   -0.082585
    14  H    0.012887
    15  H    0.070726
 Sum of Mulliken charges =   0.00000

 Dipole moment (field-independent basis, Debye):
    X=             -1.2258    Y=              2.3749    Z=             -0.1124  Tot=              2.6750

 Test job not archived.
 1\1\GINC-SE073\SP\RHF\Aug-CC-pVDZ\C5H6N2O1S1\OHZDE\09-Apr-2025\0\\#t h
 f aug-cc-pvdz iop(5/13=1,5/36=2,99/5=2) pseudo=read geom=check guess=(
 read,tcheck) scf=(maxcycle=1)\\title\\0,1\C,0,29.0098,-15.5972,-0.3758
 \N,0,29.3067,-16.89,0.0148\H,0,28.5688,-17.5837,0.0245\N,0,30.7346,-18
 .7567,-0.0077\C,0,32.0722,-19.0643,0.0055\H,0,32.3765,-20.1041,0.0013\
 C,0,32.9274,-17.9876,0.0093\H,0,34.009,-17.9885,-0.0063\S,0,32.039,-16
 .5153,-0.0103\C,0,30.5844,-17.449,-0.0116\O,0,29.8844,-14.7623,-0.555\
 C,0,27.5343,-15.3192,-0.5541\H,0,26.9116,-15.9658,0.0684\H,0,27.3431,-

 Normal termination of Gaussian 16 at Wed Apr  9 02:21:24 2025.
