 Gaussian 16, Revision C.01,

 ----------------------------------------------------------------------
 #t hf aug-cc-pvdz symm=none int=(grid=ultrafine) guess=(read,tcheck) s
 table=(opt,rrhf)
 ----------------------------------------------------------------------
 -----
 title
 -----
 Symbolic Z-matrix:
 Charge =  0 Multiplicity = 1

 SCF Done:  E(RHF) =  -453.938382421     A.U. after   11 cycles
 Normal termination of Gaussian 16 at Wed Apr  9 02:17:23 2025.
 Gaussian 16:  ES64L-G16RevC.01  3-Jul-2019

 ----------------------------------------------------------------------
 #t hf aug-cc-pvdz iop(5/13=1,5/36=2,99/5=2) pseudo=read geom=check gue
 ss=(read,tcheck) scf=(maxcycle=1)
 ----------------------------------------------------------------------
 -----
 title
 -----
 Structure from the checkpoint file:  "DCONF_10_0_mol1.chk"
 Charge =  0 Multiplicity = 1

                         Standard orientation:
 ---------------------------------------------------------------------
 Center     Atomic      Atomic             Coordinates (Angstroms)
 Number     Number       Type             X           Y           Z
 ---------------------------------------------------------------------
      1          6           0       -0.472916   -0.603731    0.000431
      2          1           0       -0.571528   -1.243845   -0.880515
      3          1           0       -0.570934   -1.242462    0.882202
      4          6           0       -1.574187    0.458363   -0.000263
      5          1           0       -1.462769    1.101501    0.877920
      6          1           0       -1.462587    1.099945   -0.879524
      7          6           0       -2.956552   -0.193010    0.000046
      8          1           0       -3.090976   -0.823256    0.884938
      9          1           0       -3.092256   -0.821673   -0.885780
     10          1           0       -3.745445    0.563686    0.001268
     11          6           0        0.943326   -0.044820   -0.000269
     12          9           0        1.640567   -0.446426    1.083540
     13          9           0        1.641200   -0.448633   -1.082414
     14          9           0        0.980285    1.302313   -0.001146
 ---------------------------------------------------------------------

 SCF Done:  E(RHF) =  -454.098040372     A.U. after    2 cycles

 The electronic state is 1-A.
 Alpha  occ. eigenvalues --  -26.15625 -26.15497 -26.15475 -11.51629 -11.26642
 Alpha  occ. eigenvalues --  -11.25235 -11.24022  -1.75225  -1.68099  -1.67982
 Alpha  occ. eigenvalues --   -1.10546  -1.02711  -0.95032  -0.87300  -0.87028
 Alpha  occ. eigenvalues --   -0.84506  -0.80182  -0.76682  -0.76019  -0.71932
 Alpha  occ. eigenvalues --   -0.71758  -0.70669  -0.65414  -0.61880  -0.57991
 Alpha  occ. eigenvalues --   -0.56183  -0.51634  -0.50642  -0.49664
 Alpha virt. eigenvalues --    0.03260   0.04536   0.04727   0.05432   0.07052
 Alpha virt. eigenvalues --    0.07347   0.08049   0.09029   0.11330   0.12910
 Alpha virt. eigenvalues --    0.13278   0.13337   0.15248   0.15586   0.16512

 Mulliken charges:
               1
     1  C    0.013024
     2  H   -0.072987
     3  H   -0.073831
     4  C    0.143732
     5  H   -0.101261
     6  H   -0.100789
     7  C    0.345916
     8  H   -0.051371
     9  H   -0.051640
    10  H   -0.058793
    11  C    0.980463
    12  F   -0.316148
    13  F   -0.315677
    14  F   -0.340639
 Sum of Mulliken charges =  -0.00000

 Dipole moment (field-independent basis, Debye):
    X=             -2.9565    Y=             -0.7746    Z=             -0.0020  Tot=              3.0563

 Test job not archived.
 1\1\GINC-SE021\SP\RHF\Aug-CC-pVDZ\C4H7F3\OHZDE\09-Apr-2025\0\\#t hf au
 g-cc-pvdz iop(5/13=1,5/36=2,99/5=2) pseudo=read geom=check guess=(read
 ,tcheck) scf=(maxcycle=1)\\title\\0,1\C,0,-0.1412,0.0053,0.1881\H,0,0.
 0735,-0.5598,1.0992\H,0,0.2031,-0.5947,-0.6584\C,0,0.601,1.3429,0.2165
 \H,0,0.373,1.9072,-0.6928\H,0,0.2431,1.9416,1.0595\C,0,2.109,1.1246,0.
 3327\H,0,2.4858,0.5433,-0.5149\H,0,2.3554,0.5814,1.2506\H,0,2.642,2.07
 88,0.3515\C,0,-1.6547,0.1253,0.0739\F,0,-2.123,-0.4848,-1.0354\F,0,-2.
 2834,-0.4428,1.1242\F,0,-2.0812,1.4024,0.0169\\Version=ES64L-G16RevC.0

 Normal termination of Gaussian 16 at Wed Apr  9 02:17:27 2025.
