 Gaussian 16, Revision C.01,

 ----------------------------------------------------------------------
 #t hf aug-cc-pvdz symm=none int=(grid=ultrafine) guess=(read,tcheck) s
 table=(opt,rrhf)
 ----------------------------------------------------------------------
 -----
 title
 -----
 Symbolic Z-matrix:
 Charge =  0 Multiplicity = 1

 SCF Done:  E(RHF) =  -703.111121126     A.U. after   16 cycles
 Normal termination of Gaussian 16 at Wed Apr  9 02:18:12 2025.
 Gaussian 16:  ES64L-G16RevC.01  3-Jul-2019

 ----------------------------------------------------------------------
 #t hf aug-cc-pvdz iop(5/13=1,5/36=2,99/5=2) pseudo=read geom=check gue
 ss=(read,tcheck) scf=(maxcycle=1)
 ----------------------------------------------------------------------
 -----
 title
 -----
 Structure from the checkpoint file:  "DCONF_24_-120_mol1.chk"
 Charge =  0 Multiplicity = 1

                         Standard orientation:
 ---------------------------------------------------------------------
 Center     Atomic      Atomic             Coordinates (Angstroms)
 Number     Number       Type             X           Y           Z
 ---------------------------------------------------------------------
      1          8           0       -2.288528    1.051600   -0.663665
      2          6           0       -2.242452   -0.904207    0.732414
      3          1           0       -1.905834   -0.767757    1.764951
      4          1           0       -3.329957   -0.841612    0.676349
      5          1           0       -1.907745   -1.896566    0.411940
      6          6           0       -1.623673    0.180667   -0.122175
      7          6           0        0.612866    1.343702    0.263466
      8          1           0        0.153860    2.304421    0.471477
      9          6           0        1.998320    1.062547    0.347877
     10          1           0        2.757672    1.785542    0.624357
     11          6           0        2.285038   -0.256216    0.041700
     12          1           0        3.254725   -0.733617   -0.017616
     13         16           0        0.869250   -1.143164   -0.334163
     14          6           0       -0.133847    0.244742   -0.142537
 ---------------------------------------------------------------------

 SCF Done:  E(RHF) =  -703.225370920     A.U. after    2 cycles

 The electronic state is 1-A.
 Alpha  occ. eigenvalues --  -93.58213 -20.56926 -11.36025 -11.29137 -11.28632
 Alpha  occ. eigenvalues --  -11.26870 -11.26429 -11.25287  -8.88056  -6.22187
 Alpha  occ. eigenvalues --   -6.22051  -6.21701  -1.35358  -1.17773  -1.03778
 Alpha  occ. eigenvalues --   -0.99621  -0.98187  -0.83842  -0.77517  -0.72778
 Alpha  occ. eigenvalues --   -0.70250  -0.64089  -0.62835  -0.61522  -0.57986
 Alpha  occ. eigenvalues --   -0.56357  -0.55139  -0.53362  -0.51193  -0.48808
 Alpha  occ. eigenvalues --   -0.44227  -0.36230  -0.34152
 Alpha virt. eigenvalues --    0.03115   0.04000   0.04304   0.05540   0.06036
 Alpha virt. eigenvalues --    0.06389   0.07183   0.09309   0.09695   0.10862
 Alpha virt. eigenvalues --    0.11513   0.12449   0.12786   0.13514   0.13747

 Mulliken charges:
               1
     1  O   -0.546684
     2  C    0.325891
     3  H    0.088080
     4  H   -0.089851
     5  H    0.020937
     6  C   -0.140497
     7  C    0.316495
     8  H   -0.378219
     9  C    0.304545
    10  H   -0.292138
    11  C   -0.030576
    12  H   -0.343809
    13  S    0.771618
    14  C   -0.005791
 Sum of Mulliken charges =  -0.00000

 Dipole moment (field-independent basis, Debye):
    X=              2.4856    Y=             -1.7177    Z=              2.0939  Tot=              3.6760

 Test job not archived.
 1\1\GINC-SE334\SP\RHF\Aug-CC-pVDZ\C6H6O1S1\OHZDE\09-Apr-2025\0\\#t hf
 aug-cc-pvdz iop(5/13=1,5/36=2,99/5=2) pseudo=read geom=check guess=(re
 ad,tcheck) scf=(maxcycle=1)\\title\\0,1\O,0,21.0544,-5.7736,0.6133\C,0
 ,21.5648,-4.2859,-1.204\H,0,21.8884,-4.7447,-2.1436\H,0,20.4892,-4.105
 5,-1.2204\H,0,22.102,-3.3365,-1.1062\C,0,21.908,-5.2245,-0.0676\C,0,23
 .842,-6.8847,0.0152\H,0,23.1878,-7.7501,0.0088\C,0,25.257,-6.9274,-0.0
 249\H,0,25.8449,-7.8379,-0.0587\C,0,25.8197,-5.6631,-0.0232\H,0,26.869
 ,-5.3979,-0.0042\S,0,24.6254,-4.4365,0.0156\C,0,23.3461,-5.5888,0.0849

 Normal termination of Gaussian 16 at Wed Apr  9 02:18:18 2025.
