 Gaussian 16, Revision C.01,

 ----------------------------------------------------------------------
 #t hf aug-cc-pvdz symm=none int=(grid=ultrafine) guess=(read,tcheck) s
 table=(opt,rrhf)
 ----------------------------------------------------------------------
 -----
 title
 -----
 Symbolic Z-matrix:
 Charge =  0 Multiplicity = 1

 SCF Done:  E(RHF) =  -575.152710856     A.U. after   16 cycles
 Normal termination of Gaussian 16 at Wed Apr  9 02:25:15 2025.
 Gaussian 16:  ES64L-G16RevC.01  3-Jul-2019

 ----------------------------------------------------------------------
 #t hf aug-cc-pvdz iop(5/13=1,5/36=2,99/5=2) pseudo=read geom=check gue
 ss=(read,tcheck) scf=(maxcycle=1)
 ----------------------------------------------------------------------
 -----
 title
 -----
 Structure from the checkpoint file:  "DCONF_48_-20_mol1.chk"
 Charge =  0 Multiplicity = 1

                         Standard orientation:
 ---------------------------------------------------------------------
 Center     Atomic      Atomic             Coordinates (Angstroms)
 Number     Number       Type             X           Y           Z
 ---------------------------------------------------------------------
      1          6           0        1.622986   -1.276444    0.379524
      2          1           0        1.137015   -2.177733    0.739412
      3          6           0        3.015439   -1.204325    0.327994
      4          1           0        3.621850   -2.055087    0.626765
      5          6           0        3.608079   -0.008485   -0.085395
      6          1           0        4.687229    0.102033   -0.136787
      7          6           0        2.770399    1.060418   -0.421106
      8          1           0        3.192566    2.014709   -0.730705
      9          7           0        1.429882    1.005796   -0.383065
     10          6           0        0.858593   -0.162500   -0.019935
     11          6           0       -2.675230   -1.543830   -0.237913
     12          1           0       -3.142661   -2.507789   -0.416185
     13          6           0       -1.283445   -1.443854   -0.196832
     14          1           0       -0.687068   -2.337408   -0.357333
     15          6           0       -0.623083   -0.218674    0.037449
     16          6           0       -1.443831    0.919560    0.139269
     17          6           0       -2.834879    0.842687    0.095939
     18          1           0       -3.405336    1.759977    0.206887
     19          6           0       -3.457430   -0.390684   -0.109443
     20          1           0       -4.541413   -0.448889   -0.151203
     21          9           0       -0.912994    2.129600    0.382589
 ---------------------------------------------------------------------

 SCF Done:  E(RHF) =  -575.322958151     A.U. after    2 cycles

 The electronic state is 1-A.
 Alpha  occ. eigenvalues --  -26.12571 -15.63090 -11.34535 -11.30340 -11.28873
 Alpha  occ. eigenvalues --  -11.27327 -11.26739 -11.26361 -11.26355 -11.25597
 Alpha  occ. eigenvalues --  -11.25479 -11.25412 -11.25325  -1.66680  -1.23225
 Alpha  occ. eigenvalues --   -1.15688  -1.07746  -1.06344  -1.02347  -0.99939
 Alpha  occ. eigenvalues --   -0.88638  -0.87554  -0.84618  -0.83033  -0.76488
 Alpha  occ. eigenvalues --   -0.74107  -0.73861  -0.72038  -0.67978  -0.66766
 Alpha  occ. eigenvalues --   -0.65389  -0.61706  -0.61406  -0.60337  -0.57966
 Alpha  occ. eigenvalues --   -0.55496  -0.54564  -0.52305  -0.51417  -0.50849
 Alpha  occ. eigenvalues --   -0.41370  -0.39449  -0.37681  -0.34694  -0.31545
 Alpha virt. eigenvalues --    0.02952   0.03302   0.04046   0.04806   0.05212
 Alpha virt. eigenvalues --    0.05830   0.06422   0.06967   0.07025   0.08982
 Alpha virt. eigenvalues --    0.09687   0.10268   0.10862   0.11109   0.11565

 Mulliken charges:
               1
     1  C    1.223605
     2  H   -0.534280
     3  C   -0.468834
     4  H   -0.407563
     5  C    0.891927
     6  H   -0.410078
     7  C    0.448446
     8  H   -0.395249
     9  N   -0.428020
    10  C   -0.589796
    11  C    0.256337
    12  H   -0.435255
    13  C    0.297021
    14  H   -0.596218
    15  C    1.007439
    16  C    0.105494
    17  C    0.683338
    18  H   -0.464208
    19  C    0.496947
    20  H   -0.411355
    21  F   -0.269698
 Sum of Mulliken charges =  -0.00000

 Dipole moment (field-independent basis, Debye):
    X=              0.2874    Y=             -3.0722    Z=              0.1262  Tot=              3.0882

 Test job not archived.
 1\1\GINC-SE250\SP\RHF\Aug-CC-pVDZ\C11H8F1N1\OHZDE\09-Apr-2025\0\\#t hf
  aug-cc-pvdz iop(5/13=1,5/36=2,99/5=2) pseudo=read geom=check guess=(r
 ead,tcheck) scf=(maxcycle=1)\\title\\0,1\C,0,21.8522,-32.1101,0.5015\H
 ,0,22.4109,-31.3277,1.0052\C,0,20.4619,-32.0322,0.4133\H,0,19.9312,-31
 .1796,0.8283\C,0,19.7703,-33.0853,-0.1907\H,0,18.6879,-33.0769,-0.2788
 \C,0,20.5111,-34.1702,-0.6715\H,0,20.009,-35.0188,-1.1325\N,0,21.8485,
 -34.258,-0.6003\C,0,22.5179,-33.2222,-0.0506\C,0,26.1746,-32.1888,0.01
 36\H,0,26.7393,-31.2613,-0.005\C,0,24.7791,-32.1524,0.0126\H,0,24.2782

 Normal termination of Gaussian 16 at Wed Apr  9 02:25:31 2025.
