 Gaussian 16, Revision C.01,

 ----------------------------------------------------------------------
 #t hf aug-cc-pvdz symm=none int=(grid=ultrafine) guess=(read,tcheck) s
 table=(opt,rrhf)
 ----------------------------------------------------------------------
 -----
 title
 -----
 Symbolic Z-matrix:
 Charge =  0 Multiplicity = 1

 SCF Done:  E(RHF) =  -796.893108975     A.U. after   16 cycles
 Normal termination of Gaussian 16 at Wed Apr  9 02:23:58 2025.
 Gaussian 16:  ES64L-G16RevC.01  3-Jul-2019

 ----------------------------------------------------------------------
 #t hf aug-cc-pvdz iop(5/13=1,5/36=2,99/5=2) pseudo=read geom=check gue
 ss=(read,tcheck) scf=(maxcycle=1)
 ----------------------------------------------------------------------
 -----
 title
 -----
 Structure from the checkpoint file:  "DCONF_52_-110_mol1.chk"
 Charge =  0 Multiplicity = 1

                         Standard orientation:
 ---------------------------------------------------------------------
 Center     Atomic      Atomic             Coordinates (Angstroms)
 Number     Number       Type             X           Y           Z
 ---------------------------------------------------------------------
      1          6           0       -1.475210    1.055480   -0.655725
      2          1           0       -0.973539    1.858590   -1.188279
      3          6           0       -2.868370    0.961554   -0.622206
      4          1           0       -3.486106    1.699817   -1.126603
      5          6           0       -3.445628   -0.109081    0.065647
      6          1           0       -4.523437   -0.230751    0.120058
      7          6           0       -2.601257   -1.033956    0.690754
      8          1           0       -3.017333   -1.879970    1.234532
      9          7           0       -1.259702   -0.950919    0.683259
     10          6           0       -0.710225    0.083502    0.010313
     11          6           0        1.508014    1.173398    0.698476
     12          1           0        1.051134    2.004987    1.225253
     13          6           0        2.904129    0.938254    0.606560
     14          1           0        3.665881    1.574713    1.043452
     15          6           0        3.194208   -0.217351   -0.097109
     16          1           0        4.167436   -0.630694   -0.329848
     17         16           0        1.771903   -1.005244   -0.638140
     18          6           0        0.758244    0.205474    0.044765
 ---------------------------------------------------------------------

 SCF Done:  E(RHF) =  -797.028818657     A.U. after    2 cycles

 The electronic state is 1-A.
 Alpha  occ. eigenvalues --  -93.56388 -15.63791 -11.30482 -11.29254 -11.27654
 Alpha  occ. eigenvalues --  -11.27610 -11.27220 -11.25809 -11.25804 -11.25056
 Alpha  occ. eigenvalues --  -11.24932  -8.86216  -6.20345  -6.20210  -6.19858
 Alpha  occ. eigenvalues --   -1.23567  -1.16077  -1.07973  -1.05058  -0.97872
 Alpha  occ. eigenvalues --   -0.96864  -0.86303  -0.86150  -0.76389  -0.75594
 Alpha  occ. eigenvalues --   -0.70974  -0.68236  -0.67164  -0.63610  -0.59143
 Alpha  occ. eigenvalues --   -0.57840  -0.56936  -0.55690  -0.52819  -0.51803
 Alpha  occ. eigenvalues --   -0.51763  -0.47406  -0.42078  -0.38810  -0.35816
 Alpha  occ. eigenvalues --   -0.34538  -0.31665
 Alpha virt. eigenvalues --    0.03027   0.03569   0.04200   0.04819   0.05392
 Alpha virt. eigenvalues --    0.06108   0.06435   0.08117   0.08597   0.09225
 Alpha virt. eigenvalues --    0.10369   0.10568   0.11274   0.11663   0.12208

 Mulliken charges:
               1
     1  C    0.974133
     2  H   -0.498170
     3  C   -0.497312
     4  H   -0.395626
     5  C    0.935378
     6  H   -0.411840
     7  C    0.434350
     8  H   -0.377957
     9  N   -0.461402
    10  C   -0.080948
    11  C    0.383589
    12  H   -0.445375
    13  C    0.336525
    14  H   -0.329762
    15  C   -0.052402
    16  H   -0.348327
    17  S    0.653368
    18  C    0.181779
 Sum of Mulliken charges =  -0.00000

 Dipole moment (field-independent basis, Debye):
    X=             -1.2458    Y=              1.8440    Z=             -0.5169  Tot=              2.2846

 Test job not archived.
 1\1\GINC-SE339\SP\RHF\Aug-CC-pVDZ\C9H7N1S1\OHZDE\09-Apr-2025\0\\#t hf
 aug-cc-pvdz iop(5/13=1,5/36=2,99/5=2) pseudo=read geom=check guess=(re
 ad,tcheck) scf=(maxcycle=1)\\title\\0,1\C,0,30.188,-8.361,-0.0165\H,0,
 30.7672,-7.4421,-0.0371\C,0,28.7916,-8.3424,0.0072\H,0,28.2497,-7.4004
 ,0.0125\C,0,28.111,-9.5628,0.0131\H,0,27.0259,-9.6048,0.0283\C,0,28.86
 02,-10.745,-0.0016\H,0,28.3623,-11.7128,0.0019\N,0,30.2038,-10.7827,-0
 .0078\C,0,30.8533,-9.5983,-0.0202\C,0,33.1464,-9.2543,1.0777\H,0,32.75
 52,-8.8152,1.9898\C,0,34.5179,-9.5145,0.8244\H,0,35.3249,-9.2888,1.512

 Normal termination of Gaussian 16 at Wed Apr  9 02:24:09 2025.
