 Gaussian 16, Revision C.01,

 ----------------------------------------------------------------------
 #t hf aug-cc-pvdz symm=none int=(grid=ultrafine) guess=(read,tcheck) s
 table=(opt,rrhf)
 ----------------------------------------------------------------------
 -----
 title
 -----
 Symbolic Z-matrix:
 Charge =  0 Multiplicity = 1

 SCF Done:  E(RHF) =  -796.906012094     A.U. after   17 cycles
 Normal termination of Gaussian 16 at Wed Apr  9 02:24:57 2025.
 Gaussian 16:  ES64L-G16RevC.01  3-Jul-2019

 ----------------------------------------------------------------------
 #t hf aug-cc-pvdz iop(5/13=1,5/36=2,99/5=2) pseudo=read geom=check gue
 ss=(read,tcheck) scf=(maxcycle=1)
 ----------------------------------------------------------------------
 -----
 title
 -----
 Structure from the checkpoint file:  "DCONF_55_0_mol2.chk"
 Charge =  0 Multiplicity = 1

                         Standard orientation:
 ---------------------------------------------------------------------
 Center     Atomic      Atomic             Coordinates (Angstroms)
 Number     Number       Type             X           Y           Z
 ---------------------------------------------------------------------
      1          6           0        1.441918    1.262754   -0.099778
      2          1           0        0.931624    2.217352   -0.184703
      3          6           0        2.835752    1.182905   -0.134781
      4          1           0        3.421450    2.091254   -0.250925
      5          6           0        3.480494   -0.057876   -0.040659
      6          1           0        4.564779   -0.116404   -0.077858
      7          6           0        2.716902   -1.222204    0.105007
      8          1           0        3.207128   -2.188881    0.185632
      9          6           0        1.322404   -1.148389    0.162781
     10          1           0        0.743853   -2.059365    0.300471
     11          6           0        0.673127    0.094535    0.055622
     12          7           0       -1.440048    1.353487    0.170582
     13          6           0       -2.789772    1.158366    0.102002
     14          1           0       -3.459179    2.007325    0.180296
     15          6           0       -3.195802   -0.151239   -0.060054
     16          1           0       -4.202526   -0.540513   -0.131798
     17         16           0       -1.830493   -1.175995   -0.138355
     18          6           0       -0.791508    0.202939    0.076274
 ---------------------------------------------------------------------

 SCF Done:  E(RHF) =  -797.041297395     A.U. after    2 cycles

 The electronic state is 1-A.
 Alpha  occ. eigenvalues --  -93.57746 -15.63611 -11.32914 -11.28406 -11.27600
 Alpha  occ. eigenvalues --  -11.26932 -11.26084 -11.25782 -11.25585 -11.25492
 Alpha  occ. eigenvalues --  -11.25375  -8.87645  -6.21767  -6.21647  -6.21283
 Alpha  occ. eigenvalues --   -1.25461  -1.15221  -1.05539  -1.05035  -1.01665
 Alpha  occ. eigenvalues --   -0.97203  -0.85421  -0.84225  -0.78701  -0.75696
 Alpha  occ. eigenvalues --   -0.70939  -0.68149  -0.64305  -0.63832  -0.60023
 Alpha  occ. eigenvalues --   -0.59119  -0.57399  -0.56654  -0.51866  -0.51009
 Alpha  occ. eigenvalues --   -0.50827  -0.50021  -0.42776  -0.39686  -0.37872
 Alpha  occ. eigenvalues --   -0.34774  -0.30417
 Alpha virt. eigenvalues --    0.03311   0.03519   0.04088   0.05040   0.05284
 Alpha virt. eigenvalues --    0.05596   0.06904   0.07403   0.09180   0.09897
 Alpha virt. eigenvalues --    0.10333   0.11099   0.11590   0.11934   0.12586

 Mulliken charges:
               1
     1  C    0.040127
     2  H   -0.610415
     3  C    0.583137
     4  H   -0.428722
     5  C    0.469110
     6  H   -0.431918
     7  C    0.510925
     8  H   -0.434116
     9  C    0.205134
    10  H   -0.538289
    11  C    1.135185
    12  N   -0.438012
    13  C    0.750975
    14  H   -0.329330
    15  C    0.026661
    16  H   -0.389746
    17  S    0.542976
    18  C   -0.663681
 Sum of Mulliken charges =   0.00000

 Dipole moment (field-independent basis, Debye):
    X=              0.0698    Y=             -1.0128    Z=             -0.2054  Tot=              1.0358

 Test job not archived.
 1\1\GINC-SE341\SP\RHF\Aug-CC-pVDZ\C9H7N1S1\OHZDE\09-Apr-2025\0\\#t hf
 aug-cc-pvdz iop(5/13=1,5/36=2,99/5=2) pseudo=read geom=check guess=(re
 ad,tcheck) scf=(maxcycle=1)\\title\\0,1\C,0,21.8321,-21.1444,0.0005\H,
 0,22.4016,-20.22,0.0052\C,0,20.4356,-21.1327,-0.0047\H,0,19.908,-20.18
 23,-0.0021\C,0,19.7134,-22.3337,0.006\H,0,18.627,-22.32,0.0115\C,0,20.
 4024,-23.5524,0.0063\H,0,19.852,-24.4896,0.0078\C,0,21.7998,-23.5725,-
 0.0105\H,0,22.3207,-24.5273,-0.0345\C,0,22.5263,-22.3683,-0.0083\N,0,2
 4.7202,-21.263,-0.178\C,0,26.0517,-21.5341,-0.0433\H,0,26.7775,-20.741

 Normal termination of Gaussian 16 at Wed Apr  9 02:25:08 2025.
