 Gaussian 16, Revision C.01,

 ----------------------------------------------------------------------
 #t hf aug-cc-pvdz symm=none int=(grid=ultrafine) guess=(read,tcheck) s
 table=(opt,rrhf)
 ----------------------------------------------------------------------
 -----
 title
 -----
 Symbolic Z-matrix:
 Charge =  0 Multiplicity = 1

 SCF Done:  E(RHF) =  -681.464704516     A.U. after   13 cycles
 Normal termination of Gaussian 16 at Wed Apr  9 02:17:23 2025.
 Gaussian 16:  ES64L-G16RevC.01  3-Jul-2019

 ----------------------------------------------------------------------
 #t hf aug-cc-pvdz iop(5/13=1,5/36=2,99/5=2) pseudo=read geom=check gue
 ss=(read,tcheck) scf=(maxcycle=1)
 ----------------------------------------------------------------------
 -----
 title
 -----
 Structure from the checkpoint file:  "DCONF_16_40_mol1.chk"
 Charge =  0 Multiplicity = 1

                         Standard orientation:
 ---------------------------------------------------------------------
 Center     Atomic      Atomic             Coordinates (Angstroms)
 Number     Number       Type             X           Y           Z
 ---------------------------------------------------------------------
      1          6           0       -0.459413    1.584921   -0.410233
      2          1           0       -0.234735    1.669032   -1.474560
      3          1           0        0.273522    2.113401    0.198561
      4          1           0       -1.457528    1.974940   -0.205481
      5         16           0       -0.500722   -0.136199    0.067147
      6          8           0       -1.415647   -0.845436   -0.810196
      7          7           0        1.013879   -0.754504   -0.270453
      8          1           0        1.008119   -1.123735   -1.216908
      9          8           0       -0.659213   -0.137088    1.509825
     10          6           0        2.193702    0.067293    0.012669
     11          1           0        2.146394    0.406460    1.049618
     12          1           0        2.295261    0.933085   -0.652352
     13          1           0        3.076512   -0.565555   -0.091699
 ---------------------------------------------------------------------

 SCF Done:  E(RHF) =  -681.632973285     A.U. after    2 cycles

 The electronic state is 1-A.
 Alpha  occ. eigenvalues --  -93.80342 -20.56175 -20.55641 -15.67096 -11.29910
 Alpha  occ. eigenvalues --  -11.29102  -9.06696  -6.41339  -6.41204  -6.41046
 Alpha  occ. eigenvalues --   -1.42790  -1.30693  -1.20957  -1.03689  -0.96049
 Alpha  occ. eigenvalues --   -0.82781  -0.73062  -0.69222  -0.68682  -0.65263
 Alpha  occ. eigenvalues --   -0.62880  -0.61476  -0.60188  -0.57567  -0.52072
 Alpha  occ. eigenvalues --   -0.51985  -0.49523  -0.47860  -0.43391
 Alpha virt. eigenvalues --    0.02302   0.03744   0.04342   0.05097   0.06626
 Alpha virt. eigenvalues --    0.06968   0.08061   0.10975   0.11231   0.11862
 Alpha virt. eigenvalues --    0.14092   0.14460   0.15347   0.15538   0.16041

 Mulliken charges:
               1
     1  C   -0.012786
     2  H    0.037060
     3  H    0.002452
     4  H   -0.012494
     5  S    2.583122
     6  O   -1.020438
     7  N   -0.910982
     8  H   -0.000279
     9  O   -1.035875
    10  C    0.776664
    11  H   -0.115312
    12  H   -0.087923
    13  H   -0.203208
 Sum of Mulliken charges =  -0.00000

 Dipole moment (field-independent basis, Debye):
    X=              4.3147    Y=              3.5679    Z=             -2.7026  Tot=              6.2170

 Test job not archived.
 1\1\GINC-SE340\SP\RHF\Aug-CC-pVDZ\C2H7N1O2S1\OHZDE\09-Apr-2025\0\\#t h
 f aug-cc-pvdz iop(5/13=1,5/36=2,99/5=2) pseudo=read geom=check guess=(
 read,tcheck) scf=(maxcycle=1)\\title\\0,1\C,0,-1.1695,-1.3767,-0.6149\
 H,0,-0.5047,-1.1328,-1.4449\H,0,-0.9684,-0.7556,0.2574\H,0,-2.2101,-1.
 2567,-0.9199\S,0,-0.9853,-3.0986,-0.1756\O,0,-1.1689,-3.9097,-1.3665\N
 ,0,0.6131,-3.3035,0.2642\H,0,1.1442,-3.5642,-0.5617\O,0,-1.7918,-3.285
 4,1.0165\C,0,1.2691,-2.2599,1.0567\H,0,0.6586,-2.0501,1.9375\H,0,1.442
 9,-1.3309,0.5009\H,0,2.2276,-2.6521,1.4005\\Version=ES64L-G16RevC.01\S

 Normal termination of Gaussian 16 at Wed Apr  9 02:17:27 2025.
