 Gaussian 16, Revision C.01,

 ----------------------------------------------------------------------
 #t hf aug-cc-pvdz symm=none int=(grid=ultrafine) guess=(read,tcheck) s
 table=(opt,rrhf)
 ----------------------------------------------------------------------
 -----
 title
 -----
 Symbolic Z-matrix:
 Charge =  0 Multiplicity = 1

 SCF Done:  E(RHF) =  -796.901803477     A.U. after   17 cycles
 Normal termination of Gaussian 16 at Wed Apr  9 02:24:21 2025.
 Gaussian 16:  ES64L-G16RevC.01  3-Jul-2019

 ----------------------------------------------------------------------
 #t hf aug-cc-pvdz iop(5/13=1,5/36=2,99/5=2) pseudo=read geom=check gue
 ss=(read,tcheck) scf=(maxcycle=1)
 ----------------------------------------------------------------------
 -----
 title
 -----
 Structure from the checkpoint file:  "DCONF_55_-110_mol1.chk"
 Charge =  0 Multiplicity = 1

                         Standard orientation:
 ---------------------------------------------------------------------
 Center     Atomic      Atomic             Coordinates (Angstroms)
 Number     Number       Type             X           Y           Z
 ---------------------------------------------------------------------
      1          6           0       -1.416738    1.103982   -0.569950
      2          1           0       -0.892946    1.945818   -1.015457
      3          6           0       -2.812939    1.034275   -0.595740
      4          1           0       -3.384391    1.826966   -1.071499
      5          6           0       -3.474673   -0.050194   -0.005330
      6          1           0       -4.559865   -0.102828   -0.026670
      7          6           0       -2.735717   -1.065628    0.613928
      8          1           0       -3.246477   -1.901225    1.085320
      9          6           0       -1.338676   -0.997278    0.646898
     10          1           0       -0.760400   -1.772456    1.144371
     11          6           0       -0.673182    0.080256    0.039779
     12          7           0        1.448561    1.094884    0.812477
     13          6           0        2.800248    0.909900    0.692481
     14          1           0        3.478209    1.576343    1.213331
     15          6           0        3.193057   -0.151046   -0.099033
     16          1           0        4.197154   -0.479155   -0.333017
     17         16           0        1.813036   -0.941458   -0.728981
     18          6           0        0.795324    0.186680    0.106964
 ---------------------------------------------------------------------

 SCF Done:  E(RHF) =  -797.037124790     A.U. after    2 cycles

 The electronic state is 1-A.
 Alpha  occ. eigenvalues --  -93.57816 -15.63852 -11.32727 -11.28308 -11.27603
 Alpha  occ. eigenvalues --  -11.26843 -11.25944 -11.25782 -11.25733 -11.25568
 Alpha  occ. eigenvalues --  -11.25504  -8.87683  -6.21799  -6.21671  -6.21327
 Alpha  occ. eigenvalues --   -1.25383  -1.15212  -1.05335  -1.04938  -1.01766
 Alpha  occ. eigenvalues --   -0.97280  -0.85205  -0.83920  -0.79169  -0.75741
 Alpha  occ. eigenvalues --   -0.70586  -0.68410  -0.64381  -0.63772  -0.60041
 Alpha  occ. eigenvalues --   -0.59556  -0.57916  -0.55515  -0.51523  -0.50888
 Alpha  occ. eigenvalues --   -0.50681  -0.50415  -0.42787  -0.39008  -0.35825
 Alpha  occ. eigenvalues --   -0.34764  -0.32687
 Alpha virt. eigenvalues --    0.03331   0.03525   0.04146   0.05057   0.05145
 Alpha virt. eigenvalues --    0.06095   0.07026   0.08210   0.08753   0.09752
 Alpha virt. eigenvalues --    0.10082   0.10428   0.10900   0.12007   0.12221

 Mulliken charges:
               1
     1  C    0.088831
     2  H   -0.520669
     3  C    0.349336
     4  H   -0.424540
     5  C    0.472630
     6  H   -0.438467
     7  C    0.323012
     8  H   -0.432536
     9  C    0.135358
    10  H   -0.551547
    11  C    1.720333
    12  N   -0.557156
    13  C    0.609741
    14  H   -0.278470
    15  C    0.176918
    16  H   -0.373392
    17  S    0.445561
    18  C   -0.744945
 Sum of Mulliken charges =   0.00000

 Dipole moment (field-independent basis, Debye):
    X=             -0.0303    Y=             -0.9184    Z=             -0.6855  Tot=              1.1464

 Test job not archived.
 1\1\GINC-SE292\SP\RHF\Aug-CC-pVDZ\C9H7N1S1\OHZDE\09-Apr-2025\0\\#t hf
 aug-cc-pvdz iop(5/13=1,5/36=2,99/5=2) pseudo=read geom=check guess=(re
 ad,tcheck) scf=(maxcycle=1)\\title\\0,1\C,0,21.8292,-21.141,-0.0052\H,
 0,22.3938,-20.2122,0.0037\C,0,20.4311,-21.1294,0.004\H,0,19.8991,-20.1
 817,0.0142\C,0,19.7171,-22.3347,0.0062\H,0,18.6305,-22.3237,0.013\C,0,
 20.4057,-23.5539,0.0013\H,0,19.855,-24.4908,0.0173\C,0,21.8047,-23.570
 3,-0.0024\H,0,22.345,-24.514,0.0146\C,0,22.5217,-22.3628,-0.0227\N,0,2
 4.7158,-21.9613,1.0511\C,0,26.0512,-22.1184,0.7909\H,0,26.7784,-21.831

 Normal termination of Gaussian 16 at Wed Apr  9 02:24:32 2025.
