 Gaussian 16, Revision C.01,

 ----------------------------------------------------------------------
 #t hf aug-cc-pvdz symm=none int=(grid=ultrafine) guess=(read,tcheck) s
 table=(opt,rrhf)
 ----------------------------------------------------------------------
 -----
 title
 -----
 Symbolic Z-matrix:
 Charge =  0 Multiplicity = 1

 SCF Done:  E(RHF) =  -681.457527963     A.U. after   13 cycles
 Normal termination of Gaussian 16 at Wed Apr  9 02:17:20 2025.
 Gaussian 16:  ES64L-G16RevC.01  3-Jul-2019

 ----------------------------------------------------------------------
 #t hf aug-cc-pvdz iop(5/13=1,5/36=2,99/5=2) pseudo=read geom=check gue
 ss=(read,tcheck) scf=(maxcycle=1)
 ----------------------------------------------------------------------
 -----
 title
 -----
 Structure from the checkpoint file:  "DCONF_16_10_mol1.chk"
 Charge =  0 Multiplicity = 1

                         Standard orientation:
 ---------------------------------------------------------------------
 Center     Atomic      Atomic             Coordinates (Angstroms)
 Number     Number       Type             X           Y           Z
 ---------------------------------------------------------------------
      1          6           0       -0.284648    1.602274   -0.351767
      2          1           0        0.164896    1.717822   -1.338226
      3          1           0        0.313735    2.074639    0.426167
      4          1           0       -1.290634    2.024710   -0.347764
      5         16           0       -0.520761   -0.124108    0.035681
      6          8           0       -1.220137   -0.776909   -1.061798
      7          7           0        1.024161   -0.804347    0.078165
      8          1           0        1.045498   -1.482605   -0.679226
      9          8           0       -1.064329   -0.146081    1.380714
     10          6           0        2.215768    0.050399    0.038915
     11          1           0        2.247325    0.681124    0.929641
     12          1           0        2.286275    0.677307   -0.857509
     13          1           0        3.084958   -0.608961    0.074651
 ---------------------------------------------------------------------

 SCF Done:  E(RHF) =  -681.624875697     A.U. after    2 cycles

 The electronic state is 1-A.
 Alpha  occ. eigenvalues --  -93.80349 -20.56237 -20.55428 -15.66946 -11.30292
 Alpha  occ. eigenvalues --  -11.29347  -9.06735  -6.41355  -6.41225  -6.41100
 Alpha  occ. eigenvalues --   -1.42619  -1.30457  -1.20738  -1.03948  -0.96255
 Alpha  occ. eigenvalues --   -0.82591  -0.72594  -0.69739  -0.68313  -0.65048
 Alpha  occ. eigenvalues --   -0.62864  -0.61786  -0.60210  -0.57830  -0.52702
 Alpha  occ. eigenvalues --   -0.51810  -0.49560  -0.47718  -0.42855
 Alpha virt. eigenvalues --    0.02321   0.03706   0.04530   0.05131   0.06632
 Alpha virt. eigenvalues --    0.07077   0.07938   0.10667   0.11260   0.11957
 Alpha virt. eigenvalues --    0.13646   0.14700   0.15333   0.15594   0.16055

 Mulliken charges:
               1
     1  C   -0.062490
     2  H    0.027622
     3  H    0.033696
     4  H   -0.038144
     5  S    2.659665
     6  O   -1.039423
     7  N   -0.914998
     8  H    0.024693
     9  O   -1.028142
    10  C    0.771266
    11  H   -0.151556
    12  H   -0.059079
    13  H   -0.223112
 Sum of Mulliken charges =  -0.00000

 Dipole moment (field-independent basis, Debye):
    X=              4.9215    Y=              3.2043    Z=             -1.9509  Tot=              6.1883

 Test job not archived.
 1\1\GINC-SE398\SP\RHF\Aug-CC-pVDZ\C2H7N1O2S1\OHZDE\09-Apr-2025\0\\#t h
 f aug-cc-pvdz iop(5/13=1,5/36=2,99/5=2) pseudo=read geom=check guess=(
 read,tcheck) scf=(maxcycle=1)\\title\\0,1\C,0,-1.166,-1.375,-0.6078\H,
 0,-0.5455,-1.1256,-1.4688\H,0,-0.9327,-0.7536,0.2558\H,0,-2.2211,-1.26
 61,-0.8635\S,0,-0.9837,-3.0975,-0.1765\O,0,-1.1824,-3.9187,-1.3622\N,0
 ,0.634,-3.2952,0.2654\H,0,1.0296,-3.9319,-0.4218\O,0,-1.8042,-3.2876,1
 .0049\C,0,1.5041,-2.1284,0.4486\H,0,1.1392,-1.5226,1.2805\H,0,1.605,-1
 .5019,-0.4452\H,0,2.4906,-2.5042,0.7263\\Version=ES64L-G16RevC.01\Stat

 Normal termination of Gaussian 16 at Wed Apr  9 02:17:24 2025.
