 Gaussian 16, Revision C.01,

 ----------------------------------------------------------------------
 #t hf aug-cc-pvdz symm=none int=(grid=ultrafine) guess=(read,tcheck) s
 table=(opt,rrhf)
 ----------------------------------------------------------------------
 -----
 title
 -----
 Symbolic Z-matrix:
 Charge =  0 Multiplicity = 1

 SCF Done:  E(RHF) =  -780.897109771     A.U. after   17 cycles

 1\1\GINC-SE333\Stability\RHF\Aug-CC-pVDZ\C10H8S1\OHZDE\09-Apr-2025\0\\
 #t hf aug-cc-pvdz symm=none int=(grid=ultrafine) guess=(read,tcheck) s
 table=(opt,rrhf)\\title\\0,1\C,0,21.768,-10.943,0.0094\H,0,22.2864,-11
 .8992,0.0171\C,0,20.3708,-10.9307,-0.0073\H,0,19.8267,-11.8715,0.0099\
 C,0,19.6756,-9.7161,0.0123\H,0,18.5892,-9.7047,0.0096\C,0,20.3961,-8.5
 154,-0.0009\H,0,19.8706,-7.564,0.015\C,0,21.793,-8.5287,0.0029\H,0,22.
 3315,-7.5855,-0.02\C,0,22.5064,-9.7436,-0.0375\C,0,24.8396,-8.6618,0.1
 176\H,0,24.4966,-7.6467,0.2839\C,0,26.2059,-9.0207,0.0168\H,0,27.0312,

 Normal termination of Gaussian 16 at Wed Apr  9 02:23:44 2025.
 Gaussian 16:  ES64L-G16RevC.01  3-Jul-2019

 ----------------------------------------------------------------------
 #t hf aug-cc-pvdz iop(5/13=1,5/36=2,99/5=2) pseudo=read geom=check gue
 ss=(read,tcheck) scf=(maxcycle=1)
 ----------------------------------------------------------------------
 -----
 title
 -----
 Structure from the checkpoint file:  "DCONF_51_0_mol1.chk"
 Charge =  0 Multiplicity = 1

                         Standard orientation:
 ---------------------------------------------------------------------
 Center     Atomic      Atomic             Coordinates (Angstroms)
 Number     Number       Type             X           Y           Z
 ---------------------------------------------------------------------
      1          6           0       -1.334065   -1.136340    0.109073
      2          1           0       -0.747219   -2.048335    0.192701
      3          6           0       -2.727681   -1.229666    0.067552
      4          1           0       -3.201548   -2.205090    0.141322
      5          6           0       -3.510372   -0.071944   -0.010002
      6          1           0       -4.594349   -0.141977   -0.032158
      7          6           0       -2.879779    1.175497   -0.094975
      8          1           0       -3.473879    2.083805   -0.154851
      9          6           0       -1.486101    1.266919   -0.066255
     10          1           0       -1.017866    2.243922   -0.145975
     11          6           0       -0.684777    0.108831   -0.009113
     12          6           0        1.558731    1.370058    0.109816
     13          1           0        1.138562    2.365701    0.198617
     14          6           0        2.949587    1.108198    0.057915
     15          1           0        3.719414    1.870925    0.100959
     16          6           0        3.224892   -0.242610   -0.049489
     17          1           0        4.190708   -0.729867   -0.087874
     18         16           0        1.791032   -1.177463   -0.084324
     19          6           0        0.777844    0.217777    0.074888
 ---------------------------------------------------------------------

 SCF Done:  E(RHF) =  -781.029138820     A.U. after    2 cycles

 The electronic state is 1-A.
 Alpha  occ. eigenvalues --  -93.56575 -11.28331 -11.27490 -11.26880 -11.25295
 Alpha  occ. eigenvalues --  -11.25280 -11.25261 -11.25158 -11.25137 -11.25104
 Alpha  occ. eigenvalues --  -11.24991  -8.86439  -6.20583  -6.20444  -6.20083
 Alpha  occ. eigenvalues --   -1.17246  -1.14005  -1.04174  -1.01482  -0.98111
 Alpha  occ. eigenvalues --   -0.95924  -0.84224  -0.83589  -0.75936  -0.74835
 Alpha  occ. eigenvalues --   -0.71599  -0.67749  -0.63512  -0.63370  -0.59625
 Alpha  occ. eigenvalues --   -0.58364  -0.55894  -0.54400  -0.53456  -0.51171
 Alpha  occ. eigenvalues --   -0.50329  -0.50007  -0.46818  -0.38273  -0.35266
 Alpha  occ. eigenvalues --   -0.34279  -0.28903
 Alpha virt. eigenvalues --    0.03385   0.03571   0.03999   0.04928   0.05251
 Alpha virt. eigenvalues --    0.05930   0.06761   0.07126   0.08293   0.09786
 Alpha virt. eigenvalues --    0.10096   0.11026   0.11446   0.11833   0.12082

 Mulliken charges:
               1
     1  C    0.367884
     2  H   -0.525471
     3  C    0.441800
     4  H   -0.436598
     5  C    0.502492
     6  H   -0.429455
     7  C    0.365923
     8  H   -0.447187
     9  C    0.672820
    10  H   -0.568158
    11  C    0.356401
    12  C    0.759956
    13  H   -0.508740
    14  C    0.218206
    15  H   -0.355167
    16  C   -0.089845
    17  H   -0.391878
    18  S    0.757812
    19  C   -0.690794
 Sum of Mulliken charges =  -0.00000

 Dipole moment (field-independent basis, Debye):
    X=             -0.0210    Y=              0.6830    Z=              0.0266  Tot=              0.6838

 Test job not archived.
 1\1\GINC-SE333\SP\RHF\Aug-CC-pVDZ\C10H8S1\OHZDE\09-Apr-2025\0\\#t hf a
 ug-cc-pvdz iop(5/13=1,5/36=2,99/5=2) pseudo=read geom=check guess=(rea
 d,tcheck) scf=(maxcycle=1)\\title\\0,1\C,0,21.768,-10.943,0.0094\H,0,2
 2.2864,-11.8992,0.0171\C,0,20.3708,-10.9307,-0.0073\H,0,19.8267,-11.87
 15,0.0099\C,0,19.6756,-9.7161,0.0123\H,0,18.5892,-9.7047,0.0096\C,0,20
 .3961,-8.5154,-0.0009\H,0,19.8706,-7.564,0.015\C,0,21.793,-8.5287,0.00
 29\H,0,22.3315,-7.5855,-0.02\C,0,22.5064,-9.7436,-0.0375\C,0,24.8396,-
 8.6618,0.1176\H,0,24.4966,-7.6467,0.2839\C,0,26.2059,-9.0207,0.0168\H,

 Normal termination of Gaussian 16 at Wed Apr  9 02:23:56 2025.
