 Gaussian 16, Revision C.01,

 ----------------------------------------------------------------------
 #t hf aug-cc-pvdz symm=none int=(grid=ultrafine) guess=(read,tcheck) s
 table=(opt,rrhf)
 ----------------------------------------------------------------------
 -----
 title
 -----
 Symbolic Z-matrix:
 Charge =  0 Multiplicity = 1

 SCF Done:  E(RHF) =  -559.160444212     A.U. after   15 cycles

 1\1\GINC-SE015\Stability\RHF\Aug-CC-pVDZ\C12H9F1\OHZDE\09-Apr-2025\0\\
 #t hf aug-cc-pvdz symm=none int=(grid=ultrafine) guess=(read,tcheck) s
 table=(opt,rrhf)\\title\\0,1\C,0,12.8159,-33.1773,-1.1888\H,0,13.3455,
 -32.9787,-2.1179\C,0,11.4174,-33.2168,-1.1641\H,0,10.8558,-33.0484,-2.
 0793\C,0,10.7431,-33.4799,0.0349\H,0,9.657,-33.5133,0.0527\C,0,11.4712
 ,-33.6998,1.2106\H,0,10.9519,-33.9104,2.142\C,0,12.8701,-33.6585,1.187
 6\H,0,13.4423,-33.8364,2.0955\C,0,13.5505,-33.3867,-0.0105\C,0,17.1463
 ,-32.2271,0.4634\H,0,17.6781,-31.3585,0.8411\C,0,15.7471,-32.2433,0.46

 Normal termination of Gaussian 16 at Wed Apr  9 02:25:36 2025.
 Gaussian 16:  ES64L-G16RevC.01  3-Jul-2019

 ----------------------------------------------------------------------
 #t hf aug-cc-pvdz iop(5/13=1,5/36=2,99/5=2) pseudo=read geom=check gue
 ss=(read,tcheck) scf=(maxcycle=1)
 ----------------------------------------------------------------------
 -----
 title
 -----
 Structure from the checkpoint file:  "DCONF_47_100_mol1.chk"
 Charge =  0 Multiplicity = 1

                         Standard orientation:
 ---------------------------------------------------------------------
 Center     Atomic      Atomic             Coordinates (Angstroms)
 Number     Number       Type             X           Y           Z
 ---------------------------------------------------------------------
      1          6           0       -1.537708    0.354576    1.142781
      2          1           0       -0.992179    0.736538    2.002809
      3          6           0       -2.936050    0.396808    1.114022
      4          1           0       -3.481501    0.814410    1.956302
      5          6           0       -3.630852   -0.090798    0.000023
      6          1           0       -4.716781   -0.054989   -0.022816
      7          6           0       -2.923470   -0.624514   -1.084188
      8          1           0       -3.458645   -0.998368   -1.953297
      9          6           0       -1.524774   -0.669210   -1.055733
     10          1           0       -0.968508   -1.075026   -1.897888
     11          6           0       -0.823963   -0.189249    0.062643
     12          6           0        2.752460   -1.468153    0.332148
     13          1           0        3.269779   -2.400805    0.538245
     14          6           0        1.353749   -1.428342    0.339356
     15          1           0        0.776588   -2.324511    0.555251
     16          6           0        0.658801   -0.233456    0.085518
     17          6           0        1.421120    0.904432   -0.199532
     18          6           0        2.812868    0.894508   -0.216185
     19          1           0        3.348560    1.811023   -0.443989
     20          6           0        3.481051   -0.305803    0.050984
     21          1           0        4.567087   -0.327994    0.041411
     22          9           0        0.781802    2.063881   -0.467451
 ---------------------------------------------------------------------

 SCF Done:  E(RHF) =  -559.327152516     A.U. after    2 cycles

 The electronic state is 1-A.
 Alpha  occ. eigenvalues --  -26.13289 -11.34239 -11.26449 -11.26217 -11.26058
 Alpha  occ. eigenvalues --  -11.25946 -11.25754 -11.25370 -11.25048 -11.25012
 Alpha  occ. eigenvalues --  -11.24928 -11.24884 -11.24844  -1.67146  -1.16654
 Alpha  occ. eigenvalues --   -1.13757  -1.05510  -1.02375  -1.01019  -0.98796
 Alpha  occ. eigenvalues --   -0.87178  -0.86459  -0.83081  -0.81340  -0.76339
 Alpha  occ. eigenvalues --   -0.74741  -0.74030  -0.71365  -0.67779  -0.64253
 Alpha  occ. eigenvalues --   -0.63458  -0.62382  -0.61839  -0.59524  -0.59284
 Alpha  occ. eigenvalues --   -0.54581  -0.52781  -0.51597  -0.50041  -0.49727
 Alpha  occ. eigenvalues --   -0.49378  -0.35507  -0.34866  -0.34046  -0.33329
 Alpha virt. eigenvalues --    0.03299   0.03625   0.04219   0.04405   0.04976
 Alpha virt. eigenvalues --    0.05898   0.06182   0.06479   0.07232   0.09063
 Alpha virt. eigenvalues --    0.09602   0.10078   0.11000   0.11407   0.11743

 Mulliken charges:
               1
     1  C    0.103583
     2  H   -0.583930
     3  C    0.227474
     4  H   -0.436765
     5  C    0.472868
     6  H   -0.447971
     7  C    0.200143
     8  H   -0.438140
     9  C    0.125576
    10  H   -0.565105
    11  C    1.552852
    12  C    0.107712
    13  H   -0.435751
    14  C    0.209696
    15  H   -0.583053
    16  C    0.892089
    17  C   -0.125948
    18  C    0.432223
    19  H   -0.430908
    20  C    0.468205
    21  H   -0.429228
    22  F   -0.315622
 Sum of Mulliken charges =  -0.00000

 Dipole moment (field-independent basis, Debye):
    X=              0.7277    Y=             -1.5897    Z=              0.3475  Tot=              1.7826

 Test job not archived.
 1\1\GINC-SE015\SP\RHF\Aug-CC-pVDZ\C12H9F1\OHZDE\09-Apr-2025\0\\#t hf a
 ug-cc-pvdz iop(5/13=1,5/36=2,99/5=2) pseudo=read geom=check guess=(rea
 d,tcheck) scf=(maxcycle=1)\\title\\0,1\C,0,12.8159,-33.1773,-1.1888\H,
 0,13.3455,-32.9787,-2.1179\C,0,11.4174,-33.2168,-1.1641\H,0,10.8558,-3
 3.0484,-2.0793\C,0,10.7431,-33.4799,0.0349\H,0,9.657,-33.5133,0.0527\C
 ,0,11.4712,-33.6998,1.2106\H,0,10.9519,-33.9104,2.142\C,0,12.8701,-33.
 6585,1.1876\H,0,13.4423,-33.8364,2.0955\C,0,13.5505,-33.3867,-0.0105\C
 ,0,17.1463,-32.2271,0.4634\H,0,17.6781,-31.3585,0.8411\C,0,15.7471,-32

 Normal termination of Gaussian 16 at Wed Apr  9 02:25:54 2025.
