 Gaussian 16, Revision C.01,

 ----------------------------------------------------------------------
 #t hf aug-cc-pvdz symm=none int=(grid=ultrafine) guess=(read,tcheck) s
 table=(opt,rrhf)
 ----------------------------------------------------------------------
 -----
 title
 -----
 Symbolic Z-matrix:
 Charge =  0 Multiplicity = 1

 SCF Done:  E(RHF) =  -796.894299941     A.U. after   16 cycles
 Normal termination of Gaussian 16 at Wed Apr  9 02:23:58 2025.
 Gaussian 16:  ES64L-G16RevC.01  3-Jul-2019

 ----------------------------------------------------------------------
 #t hf aug-cc-pvdz iop(5/13=1,5/36=2,99/5=2) pseudo=read geom=check gue
 ss=(read,tcheck) scf=(maxcycle=1)
 ----------------------------------------------------------------------
 -----
 title
 -----
 Structure from the checkpoint file:  "DCONF_52_-120_mol1.chk"
 Charge =  0 Multiplicity = 1

                         Standard orientation:
 ---------------------------------------------------------------------
 Center     Atomic      Atomic             Coordinates (Angstroms)
 Number     Number       Type             X           Y           Z
 ---------------------------------------------------------------------
      1          6           0       -1.488709    1.115858   -0.568293
      2          1           0       -1.000280    1.965197   -1.037682
      3          6           0       -2.880093    1.013769   -0.516198
      4          1           0       -3.508886    1.793186   -0.938196
      5          6           0       -3.442630   -0.120497    0.076108
      6          1           0       -4.518879   -0.251234    0.138351
      7          6           0       -2.584365   -1.098245    0.592056
      8          1           0       -2.987897   -1.995665    1.057070
      9          7           0       -1.243642   -1.007989    0.570197
     10          6           0       -0.708411    0.089110   -0.008821
     11          6           0        1.504111    1.234010    0.591735
     12          1           0        1.045241    2.106299    1.046449
     13          6           0        2.899553    0.990755    0.530302
     14          1           0        3.659485    1.660098    0.918651
     15          6           0        3.191601   -0.222353   -0.069162
     16          1           0        4.165673   -0.655214   -0.258318
     17         16           0        1.772702   -1.054492   -0.548331
     18          6           0        0.756911    0.215114    0.014872
 ---------------------------------------------------------------------

 SCF Done:  E(RHF) =  -797.029990277     A.U. after    2 cycles

 The electronic state is 1-A.
 Alpha  occ. eigenvalues --  -93.56384 -15.63717 -11.30511 -11.29250 -11.27657
 Alpha  occ. eigenvalues --  -11.27597 -11.27286 -11.25751 -11.25721 -11.25152
 Alpha  occ. eigenvalues --  -11.24959  -8.86206  -6.20333  -6.20200  -6.19848
 Alpha  occ. eigenvalues --   -1.23559  -1.16109  -1.07948  -1.05081  -0.97935
 Alpha  occ. eigenvalues --   -0.96852  -0.86281  -0.86173  -0.76395  -0.75615
 Alpha  occ. eigenvalues --   -0.71064  -0.68165  -0.67075  -0.63627  -0.59135
 Alpha  occ. eigenvalues --   -0.57860  -0.56918  -0.55670  -0.52870  -0.51892
 Alpha  occ. eigenvalues --   -0.51716  -0.47446  -0.42069  -0.38880  -0.36336
 Alpha  occ. eigenvalues --   -0.34551  -0.31129
 Alpha virt. eigenvalues --    0.03031   0.03553   0.04190   0.04864   0.05402
 Alpha virt. eigenvalues --    0.06066   0.06477   0.07799   0.08592   0.09243
 Alpha virt. eigenvalues --    0.10480   0.10635   0.11236   0.11715   0.12307

 Mulliken charges:
               1
     1  C    1.028480
     2  H   -0.504183
     3  C   -0.487333
     4  H   -0.394667
     5  C    0.923723
     6  H   -0.411240
     7  C    0.462610
     8  H   -0.377680
     9  N   -0.440237
    10  C   -0.231995
    11  C    0.455345
    12  H   -0.451805
    13  C    0.313916
    14  H   -0.326834
    15  C   -0.054038
    16  H   -0.350098
    17  S    0.660987
    18  C    0.185048
 Sum of Mulliken charges =  -0.00000

 Dipole moment (field-independent basis, Debye):
    X=             -1.1995    Y=              1.9141    Z=             -0.3878  Tot=              2.2920

 Test job not archived.
 1\1\GINC-SE070\SP\RHF\Aug-CC-pVDZ\C9H7N1S1\OHZDE\09-Apr-2025\0\\#t hf
 aug-cc-pvdz iop(5/13=1,5/36=2,99/5=2) pseudo=read geom=check guess=(re
 ad,tcheck) scf=(maxcycle=1)\\title\\0,1\C,0,30.1881,-8.3604,-0.0197\H,
 0,30.7658,-7.4408,-0.0491\C,0,28.7924,-8.3426,0.0084\H,0,28.2504,-7.40
 07,0.0121\C,0,28.1111,-9.5631,0.0152\H,0,27.0261,-9.6051,0.0322\C,0,28
 .8605,-10.745,-0.0028\H,0,28.3629,-11.7129,-0.0015\N,0,30.2039,-10.782
 5,-0.0086\C,0,30.8542,-9.5983,-0.0204\C,0,33.1483,-9.0809,0.9975\H,0,3
 2.7618,-8.4821,1.8162\C,0,34.5159,-9.3985,0.8\H,0,35.3251,-9.0628,1.43

 Normal termination of Gaussian 16 at Wed Apr  9 02:24:10 2025.
