 Gaussian 16, Revision C.01,

 ----------------------------------------------------------------------
 #t hf aug-cc-pvdz symm=none int=(grid=ultrafine) guess=(read,tcheck) s
 table=(opt,rrhf)
 ----------------------------------------------------------------------
 -----
 title
 -----
 Symbolic Z-matrix:
 Charge =  0 Multiplicity = 1

 SCF Done:  E(RHF) =  -911.017119680     A.U. after   16 cycles
 Normal termination of Gaussian 16 at Wed Apr  9 02:23:01 2025.
 Gaussian 16:  ES64L-G16RevC.01  3-Jul-2019

 ----------------------------------------------------------------------
 #t hf aug-cc-pvdz iop(5/13=1,5/36=2,99/5=2) pseudo=read geom=check gue
 ss=(read,tcheck) scf=(maxcycle=1)
 ----------------------------------------------------------------------
 -----
 title
 -----
 Structure from the checkpoint file:  "DCONF_30_-30_mol1.chk"
 Charge =  0 Multiplicity = 1

                         Standard orientation:
 ---------------------------------------------------------------------
 Center     Atomic      Atomic             Coordinates (Angstroms)
 Number     Number       Type             X           Y           Z
 ---------------------------------------------------------------------
      1          6           0        2.532544    1.446669   -0.460474
      2          1           0        2.852021    2.440377   -0.762358
      3          6           0        1.174873    1.112555   -0.513297
      4          1           0        0.429781    1.822499   -0.857775
      5          6           0        0.781044   -0.170221   -0.115675
      6         16           0       -0.927016   -0.675508   -0.179503
      7          7           0       -1.694247    0.801143    0.075336
      8          6           0       -1.657698    1.215154    1.484316
      9          1           0       -0.640710    1.120341    1.872481
     10          1           0       -2.330549    0.612786    2.107672
     11          1           0       -1.952220    2.266686    1.531076
     12          6           0       -3.051877    0.852210   -0.488574
     13          1           0       -3.019438    0.601927   -1.548230
     14          1           0       -3.408203    1.878050   -0.369502
     15          1           0       -3.742697    0.172297    0.028491
     16          6           0        1.707233   -1.112039    0.348331
     17          1           0        1.367038   -2.088235    0.680827
     18          6           0        3.061983   -0.767264    0.380291
     19          1           0        3.792036   -1.490908    0.732293
     20          6           0        3.475086    0.511242   -0.015390
     21          1           0        4.527919    0.777299    0.021655
     22          8           0       -1.148133   -1.594643    0.933058
     23          8           0       -1.267132   -1.085711   -1.534196
 ---------------------------------------------------------------------

 SCF Done:  E(RHF) =  -911.246926181     A.U. after    2 cycles

 The electronic state is 1-A.
 Alpha  occ. eigenvalues --  -93.79735 -20.55693 -20.55494 -15.66650 -11.28876
 Alpha  occ. eigenvalues --  -11.28200 -11.27796 -11.27696 -11.27545 -11.27356
 Alpha  occ. eigenvalues --  -11.26870 -11.26759  -9.06131  -6.40752  -6.40647
 Alpha  occ. eigenvalues --   -6.40529  -1.42139  -1.29901  -1.21923  -1.16739
 Alpha  occ. eigenvalues --   -1.05087  -1.03374  -0.97513  -0.94574  -0.86655
 Alpha  occ. eigenvalues --   -0.85079  -0.78956  -0.74093  -0.70831  -0.68702
 Alpha  occ. eigenvalues --   -0.67237  -0.65178  -0.65064  -0.63302  -0.61703
 Alpha  occ. eigenvalues --   -0.61234  -0.58295  -0.57252  -0.55376  -0.54346
 Alpha  occ. eigenvalues --   -0.53379  -0.52508  -0.51579  -0.50860  -0.49018
 Alpha  occ. eigenvalues --   -0.46729  -0.40996  -0.36783  -0.36112
 Alpha virt. eigenvalues --    0.02697   0.03356   0.04017   0.04690   0.05112
 Alpha virt. eigenvalues --    0.05670   0.06753   0.07161   0.07513   0.07858
 Alpha virt. eigenvalues --    0.08006   0.08686   0.09082   0.11000   0.12217

 Mulliken charges:
               1
     1  C    0.462712
     2  H   -0.462840
     3  C    0.277185
     4  H   -0.559561
     5  C    0.565429
     6  S    3.041711
     7  N   -1.272491
     8  C    0.694797
     9  H   -0.198387
    10  H   -0.020685
    11  H   -0.168855
    12  C    0.705204
    13  H   -0.139289
    14  H   -0.156901
    15  H   -0.052686
    16  C   -0.352600
    17  H   -0.525670
    18  C    0.733903
    19  H   -0.436215
    20  C    0.586789
    21  H   -0.432458
    22  O   -1.132802
    23  O   -1.156290
 Sum of Mulliken charges =  -0.00000

 Dipole moment (field-independent basis, Debye):
    X=              2.0197    Y=              4.5025    Z=              1.5386  Tot=              5.1690

 Test job not archived.
 1\1\GINC-SE459\SP\RHF\Aug-CC-pVDZ\C8H11N1O2S1\OHZDE\09-Apr-2025\0\\#t
 hf aug-cc-pvdz iop(5/13=1,5/36=2,99/5=2) pseudo=read geom=check guess=
 (read,tcheck) scf=(maxcycle=1)\\title\\0,1\C,0,2.8679,-3.7856,-0.2492\
 H,0,2.8842,-4.7753,0.199\C,0,1.7019,-3.0154,-0.179\H,0,0.811,-3.3807,0
 .3217\C,0,1.6975,-1.7451,-0.7664\S,0,0.2574,-0.6973,-0.6951\N,0,-0.963
 7,-1.8554,-0.6526\C,0,-1.2135,-2.4541,-1.9706\H,0,-0.2676,-2.7589,-2.4
 248\H,0,-1.7221,-1.7576,-2.6491\H,0,-1.8314,-3.3433,-1.8217\C,0,-2.197
 4,-1.3716,-0.0141\H,0,-1.9726,-0.9982,0.9842\H,0,-2.8731,-2.2266,0.062

 Normal termination of Gaussian 16 at Wed Apr  9 02:23:19 2025.
