 Gaussian 16, Revision C.01,

 ----------------------------------------------------------------------
 #t hf aug-cc-pvdz symm=none int=(grid=ultrafine) guess=(read,tcheck) s
 table=(opt,rrhf)
 ----------------------------------------------------------------------
 -----
 title
 -----
 Symbolic Z-matrix:
 Charge =  0 Multiplicity = 1

 SCF Done:  E(RHF) =  -1153.54306508     A.U. after   16 cycles
 Normal termination of Gaussian 16 at Wed Apr  9 02:19:55 2025.
 Gaussian 16:  ES64L-G16RevC.01  3-Jul-2019

 ----------------------------------------------------------------------
 #t hf aug-cc-pvdz iop(5/13=1,5/36=2,99/5=2) pseudo=read geom=check gue
 ss=(read,tcheck) scf=(maxcycle=1)
 ----------------------------------------------------------------------
 -----
 title
 -----
 Structure from the checkpoint file:  "DCONF_29_160_mol1.chk"
 Charge =  0 Multiplicity = 1

                         Standard orientation:
 ---------------------------------------------------------------------
 Center     Atomic      Atomic             Coordinates (Angstroms)
 Number     Number       Type             X           Y           Z
 ---------------------------------------------------------------------
      1          6           0       -2.748690    0.188928    0.014411
      2          1           0       -3.745465    0.608959    0.039437
      3          6           0       -2.371813   -1.139174   -0.057010
      4          1           0       -3.059943   -1.975631   -0.084480
      5          7           0       -1.027310   -1.371171   -0.100260
      6          6           0       -0.379941   -0.225079   -0.076327
      7         16           0       -1.362729    1.190147    0.037489
      8         16           0        1.411001   -0.205027    0.066293
      9          6           0        1.826727    1.420508   -0.537520
     10          1           0        1.397008    2.182930    0.113245
     11          1           0        2.917080    1.468298   -0.489147
     12          1           0        1.493327    1.522088   -1.570694
     13          8           0        1.739687   -0.244511    1.484743
     14          8           0        1.942701   -1.185672   -0.863289
 ---------------------------------------------------------------------

 SCF Done:  E(RHF) =  -1153.74604538     A.U. after    2 cycles

 The electronic state is 1-A.
 Alpha  occ. eigenvalues --  -93.80165 -93.61671 -20.56746 -20.56724 -15.67805
 Alpha  occ. eigenvalues --  -11.36179 -11.31236 -11.31088 -11.29963  -9.06776
 Alpha  occ. eigenvalues --   -8.91520  -6.41393  -6.41235  -6.41170  -6.25630
 Alpha  occ. eigenvalues --   -6.25504  -6.25146  -1.42612  -1.31072  -1.28800
 Alpha  occ. eigenvalues --   -1.08978  -1.06993  -1.02214  -0.89434  -0.82475
 Alpha  occ. eigenvalues --   -0.76875  -0.73194  -0.68613  -0.67661  -0.66701
 Alpha  occ. eigenvalues --   -0.62265  -0.61975  -0.60707  -0.59302  -0.53801
 Alpha  occ. eigenvalues --   -0.52886  -0.52451  -0.50075  -0.48248  -0.45397
 Alpha  occ. eigenvalues --   -0.42014  -0.37208
 Alpha virt. eigenvalues --    0.02419   0.03370   0.04377   0.04922   0.05623
 Alpha virt. eigenvalues --    0.05916   0.08386   0.09434   0.09818   0.10893
 Alpha virt. eigenvalues --    0.11328   0.11637   0.12320   0.13002   0.13643

 Mulliken charges:
               1
     1  C    0.121976
     2  H   -0.365198
     3  C    0.755776
     4  H   -0.253278
     5  N   -0.532968
     6  C   -0.707562
     7  S    0.530838
     8  S    2.591607
     9  C    0.061898
    10  H    0.039221
    11  H    0.008684
    12  H    0.000995
    13  O   -1.139579
    14  O   -1.112410
 Sum of Mulliken charges =  -0.00000

 Dipole moment (field-independent basis, Debye):
    X=             -4.2353    Y=              5.0219    Z=             -1.6268  Tot=              6.7679

 Test job not archived.
 1\1\GINC-SE345\SP\RHF\Aug-CC-pVDZ\C4H5N1O2S2\OHZDE\09-Apr-2025\0\\#t h
 f aug-cc-pvdz iop(5/13=1,5/36=2,99/5=2) pseudo=read geom=check guess=(
 read,tcheck) scf=(maxcycle=1)\\title\\0,1\C,0,2.013,-24.6349,-0.8673\H
 ,0,0.9604,-24.6572,-1.1166\C,0,2.8231,-25.6717,-0.4433\H,0,2.4897,-26.
 6902,-0.2838\N,0,4.1318,-25.3495,-0.2268\C,0,4.3241,-24.0756,-0.4977\S
 ,0,2.9244,-23.1935,-0.9921\S,0,5.9056,-23.3056,-0.1314\C,0,5.8824,-21.
 8624,-1.1785\H,0,5.0712,-21.1969,-0.881\H,0,6.8428,-21.3721,-1.0032\H,
 0,5.8043,-22.1699,-2.2217\O,0,5.8619,-22.847,1.2504\O,0,6.9531,-24.193

 Normal termination of Gaussian 16 at Wed Apr  9 02:20:01 2025.
