 Gaussian 16, Revision C.01,

 ----------------------------------------------------------------------
 #t hf aug-cc-pvdz symm=none int=(grid=ultrafine) guess=(read,tcheck) s
 table=(opt,rrhf)
 ----------------------------------------------------------------------
 -----
 title
 -----
 Symbolic Z-matrix:
 Charge =  0 Multiplicity = 1

 SCF Done:  E(RHF) =  -719.115876860     A.U. after   16 cycles
 Normal termination of Gaussian 16 at Wed Apr  9 02:19:12 2025.
 Gaussian 16:  ES64L-G16RevC.01  3-Jul-2019

 ----------------------------------------------------------------------
 #t hf aug-cc-pvdz iop(5/13=1,5/36=2,99/5=2) pseudo=read geom=check gue
 ss=(read,tcheck) scf=(maxcycle=1)
 ----------------------------------------------------------------------
 -----
 title
 -----
 Structure from the checkpoint file:  "DCONF_28_50_mol1.chk"
 Charge =  0 Multiplicity = 1

                         Standard orientation:
 ---------------------------------------------------------------------
 Center     Atomic      Atomic             Coordinates (Angstroms)
 Number     Number       Type             X           Y           Z
 ---------------------------------------------------------------------
      1          8           0        1.967332   -1.162319   -0.646033
      2          6           0        2.502763    0.894155    0.496076
      3          1           0        2.209624    1.906461    0.205742
      4          1           0        3.536400    0.688251    0.215112
      5          1           0        2.390373    0.818436    1.583057
      6          6           0        1.584791   -0.121014   -0.133883
      7          7           0       -0.424015    1.328148   -0.286057
      8          6           0       -1.783747    1.231608   -0.254724
      9          1           0       -2.389964    2.105415   -0.463524
     10          6           0       -2.283783   -0.022611    0.049451
     11          1           0       -3.317924   -0.320988    0.161487
     12         16           0       -1.003314   -1.126293    0.279366
     13          6           0        0.122304    0.155301    0.009568
 ---------------------------------------------------------------------

 SCF Done:  E(RHF) =  -719.233281994     A.U. after    2 cycles

 The electronic state is 1-A.
 Alpha  occ. eigenvalues --  -93.59426 -20.58176 -15.66217 -11.36908 -11.33396
 Alpha  occ. eigenvalues --  -11.29653 -11.29430 -11.25322  -8.89260  -6.23356
 Alpha  occ. eigenvalues --   -6.23240  -6.22891  -1.36645  -1.26908  -1.07100
 Alpha  occ. eigenvalues --   -1.04636  -0.99468  -0.85846  -0.80514  -0.73050
 Alpha  occ. eigenvalues --   -0.70727  -0.65103  -0.63901  -0.62522  -0.58811
 Alpha  occ. eigenvalues --   -0.57548  -0.55415  -0.52470  -0.51528  -0.47172
 Alpha  occ. eigenvalues --   -0.43615  -0.40191  -0.35263
 Alpha virt. eigenvalues --    0.03028   0.03848   0.04441   0.05324   0.06088
 Alpha virt. eigenvalues --    0.06927   0.07883   0.09639   0.10206   0.10822
 Alpha virt. eigenvalues --    0.11715   0.12277   0.12709   0.13276   0.13771

 Mulliken charges:
               1
     1  O   -0.533331
     2  C    0.335040
     3  H    0.054606
     4  H   -0.064513
     5  H    0.081767
     6  C    0.066672
     7  N   -0.503656
     8  C    0.648600
     9  H   -0.257338
    10  C    0.163049
    11  H   -0.356004
    12  S    0.542144
    13  C   -0.177037
 Sum of Mulliken charges =   0.00000

 Dipole moment (field-independent basis, Debye):
    X=             -2.1537    Y=              1.6673    Z=              1.7621  Tot=              3.2439

 Test job not archived.
 1\1\GINC-SE116\SP\RHF\Aug-CC-pVDZ\C5H5N1O1S1\OHZDE\09-Apr-2025\0\\#t h
 f aug-cc-pvdz iop(5/13=1,5/36=2,99/5=2) pseudo=read geom=check guess=(
 read,tcheck) scf=(maxcycle=1)\\title\\0,1\O,0,21.747,-16.8122,-0.7728\
 C,0,21.1205,-18.5243,0.8072\H,0,21.316,-19.5971,0.7306\H,0,20.0914,-18
 .2914,0.5307\H,0,21.3022,-18.2305,1.8467\C,0,22.0764,-17.7513,-0.0639\
 N,0,23.9533,-19.3727,0.0188\C,0,25.3159,-19.3931,-0.0268\H,0,25.8386,-
 20.3417,-0.0665\C,0,25.9295,-18.1525,-0.0212\H,0,26.9886,-17.9304,-0.0
 184\S,0,24.755,-16.9157,0.0169\C,0,23.5187,-18.12,0.0762\\Version=ES64

 Normal termination of Gaussian 16 at Wed Apr  9 02:19:17 2025.
