 Gaussian 16, Revision C.01,

 ----------------------------------------------------------------------
 #t hf aug-cc-pvdz symm=none int=(grid=ultrafine) guess=(read,tcheck) s
 table=(opt,rrhf)
 ----------------------------------------------------------------------
 -----
 title
 -----
 Symbolic Z-matrix:
 Charge =  0 Multiplicity = 1

 SCF Done:  E(RHF) =  -911.012836435     A.U. after   16 cycles
 Normal termination of Gaussian 16 at Wed Apr  9 02:22:53 2025.
 Gaussian 16:  ES64L-G16RevC.01  3-Jul-2019

 ----------------------------------------------------------------------
 #t hf aug-cc-pvdz iop(5/13=1,5/36=2,99/5=2) pseudo=read geom=check gue
 ss=(read,tcheck) scf=(maxcycle=1)
 ----------------------------------------------------------------------
 -----
 title
 -----
 Structure from the checkpoint file:  "DCONF_30_0_mol1.chk"
 Charge =  0 Multiplicity = 1

                         Standard orientation:
 ---------------------------------------------------------------------
 Center     Atomic      Atomic             Coordinates (Angstroms)
 Number     Number       Type             X           Y           Z
 ---------------------------------------------------------------------
      1          6           0        2.359351    1.593796    0.000000
      2          1           0        2.585877    2.656591   -0.000065
      3          6           0        1.024141    1.170125    0.000071
      4          1           0        0.221134    1.899207   -0.000042
      5          6           0        0.742134   -0.199141   -0.000032
      6         16           0       -0.938911   -0.807775   -0.000072
      7          7           0       -1.931519    0.510979    0.000075
      8          6           0       -2.210122    1.230154   -1.238297
      9          1           0       -1.961418    0.598237   -2.090813
     10          1           0       -1.644242    2.169547   -1.298817
     11          1           0       -3.279621    1.461337   -1.276184
     12          6           0       -2.210106    1.230032    1.238294
     13          1           0       -1.961744    0.597875    2.091024
     14          1           0       -3.279643    1.461451    1.276219
     15          1           0       -1.643955    2.169497    1.299095
     16          6           0        1.771977   -1.150077   -0.000031
     17          1           0        1.532856   -2.210036   -0.000052
     18          6           0        3.099656   -0.715450    0.000024
     19          1           0        3.903432   -1.446408   -0.000144
     20          6           0        3.395869    0.654748    0.000034
     21          1           0        4.430146    0.987176    0.000043
     22          8           0       -1.137283   -1.492692    1.266950
     23          8           0       -1.137343   -1.492564   -1.266952
 ---------------------------------------------------------------------

 SCF Done:  E(RHF) =  -911.245629166     A.U. after    2 cycles

 The electronic state is 1-A.
 Alpha  occ. eigenvalues --  -93.80339 -20.55514 -20.55511 -15.66402 -11.28982
 Alpha  occ. eigenvalues --  -11.28500 -11.28493 -11.27963 -11.27496 -11.27261
 Alpha  occ. eigenvalues --  -11.27050 -11.26885  -9.06555  -6.41211  -6.41131
 Alpha  occ. eigenvalues --   -6.40957  -1.42451  -1.30214  -1.22131  -1.16774
 Alpha  occ. eigenvalues --   -1.04920  -1.03490  -0.98222  -0.95337  -0.87136
 Alpha  occ. eigenvalues --   -0.85461  -0.79279  -0.74111  -0.71262  -0.68992
 Alpha  occ. eigenvalues --   -0.67275  -0.66485  -0.65308  -0.62997  -0.62332
 Alpha  occ. eigenvalues --   -0.61310  -0.58053  -0.57478  -0.55783  -0.54943
 Alpha  occ. eigenvalues --   -0.54318  -0.52692  -0.51615  -0.50965  -0.48799
 Alpha  occ. eigenvalues --   -0.47024  -0.40206  -0.36697  -0.36163
 Alpha virt. eigenvalues --    0.02391   0.03270   0.04061   0.04599   0.05030
 Alpha virt. eigenvalues --    0.06063   0.06880   0.07182   0.07604   0.08105
 Alpha virt. eigenvalues --    0.08262   0.08992   0.09069   0.10481   0.11488

 Mulliken charges:
               1
     1  C    0.645385
     2  H   -0.450572
     3  C    0.010960
     4  H   -0.710534
     5  C    0.779040
     6  S    3.123219
     7  N   -1.157122
     8  C    0.773542
     9  H   -0.194065
    10  H   -0.100797
    11  H   -0.144600
    12  C    0.772165
    13  H   -0.193446
    14  H   -0.144588
    15  H   -0.100391
    16  C   -0.544738
    17  H   -0.511785
    18  C    0.704841
    19  H   -0.427983
    20  C    0.573415
    21  H   -0.441720
    22  O   -1.130169
    23  O   -1.130060
 Sum of Mulliken charges =  -0.00000

 Dipole moment (field-independent basis, Debye):
    X=              2.1149    Y=              5.3110    Z=             -0.0014  Tot=              5.7166

 Test job not archived.
 1\1\GINC-SE080\SP\RHF\Aug-CC-pVDZ\C8H11N1O2S1\OHZDE\09-Apr-2025\0\\#t
 hf aug-cc-pvdz iop(5/13=1,5/36=2,99/5=2) pseudo=read geom=check guess=
 (read,tcheck) scf=(maxcycle=1)\\title\\0,1\C,0,3.078,-3.658,-0.7566\H,
 0,3.1074,-4.7441,-0.7758\C,0,1.8422,-2.9988,-0.7334\H,0,0.92,-3.5697,-
 0.7345\C,0,1.814,-1.6013,-0.7086\S,0,0.2718,-0.6974,-0.6781\N,0,-0.944
 1,-1.8136,-0.6862\C,0,-1.3371,-2.4917,0.5443\H,0,-0.9695,-1.9305,1.403
 3\H,0,-0.951,-3.5192,0.5832\H,0,-2.4304,-2.5253,0.592\C,0,-1.3606,-2.4
 483,-1.9318\H,0,-1.0095,-1.857,-2.7777\H,0,-2.4547,-2.4808,-1.9599\H,0

 Normal termination of Gaussian 16 at Wed Apr  9 02:23:12 2025.
