 Gaussian 16, Revision C.01,

 ----------------------------------------------------------------------
 #t hf aug-cc-pvdz symm=none int=(grid=ultrafine) guess=(read,tcheck) s
 table=(opt,rrhf)
 ----------------------------------------------------------------------
 -----
 title
 -----
 Symbolic Z-matrix:
 Charge =  0 Multiplicity = 1

 SCF Done:  E(RHF) =  -719.117758819     A.U. after   16 cycles
 Normal termination of Gaussian 16 at Wed Apr  9 02:18:41 2025.
 Gaussian 16:  ES64L-G16RevC.01  3-Jul-2019

 ----------------------------------------------------------------------
 #t hf aug-cc-pvdz iop(5/13=1,5/36=2,99/5=2) pseudo=read geom=check gue
 ss=(read,tcheck) scf=(maxcycle=1)
 ----------------------------------------------------------------------
 -----
 title
 -----
 Structure from the checkpoint file:  "DCONF_28_-40_mol1.chk"
 Charge =  0 Multiplicity = 1

                         Standard orientation:
 ---------------------------------------------------------------------
 Center     Atomic      Atomic             Coordinates (Angstroms)
 Number     Number       Type             X           Y           Z
 ---------------------------------------------------------------------
      1          8           0       -1.964315   -1.232172   -0.505342
      2          6           0       -2.504947    0.942811    0.388042
      3          1           0       -2.210302    1.913629   -0.017451
      4          1           0       -3.534868    0.700630    0.123105
      5          1           0       -2.404622    0.999139    1.477265
      6          6           0       -1.582385   -0.140145   -0.108720
      7          7           0        0.410418    1.337794   -0.234453
      8          6           0        1.769897    1.253390   -0.212103
      9          1           0        2.367630    2.140670   -0.386521
     10          6           0        2.283265   -0.008470    0.037473
     11          1           0        3.320916   -0.301465    0.128177
     12         16           0        1.015548   -1.133025    0.228834
     13          6           0       -0.123484    0.147183    0.011639
 ---------------------------------------------------------------------

 SCF Done:  E(RHF) =  -719.235098752     A.U. after    2 cycles

 The electronic state is 1-A.
 Alpha  occ. eigenvalues --  -93.59440 -20.58044 -15.66334 -11.36808 -11.33315
 Alpha  occ. eigenvalues --  -11.29692 -11.29530 -11.25165  -8.89268  -6.23361
 Alpha  occ. eigenvalues --   -6.23248  -6.22900  -1.36506  -1.26970  -1.07177
 Alpha  occ. eigenvalues --   -1.04580  -0.99386  -0.85880  -0.80551  -0.73031
 Alpha  occ. eigenvalues --   -0.70760  -0.64994  -0.63787  -0.62478  -0.58891
 Alpha  occ. eigenvalues --   -0.57380  -0.55395  -0.52409  -0.51543  -0.47163
 Alpha  occ. eigenvalues --   -0.43656  -0.40233  -0.35282
 Alpha virt. eigenvalues --    0.03005   0.03854   0.04458   0.04945   0.05936
 Alpha virt. eigenvalues --    0.06980   0.07908   0.09618   0.10283   0.10943
 Alpha virt. eigenvalues --    0.11768   0.12173   0.12787   0.13283   0.13781

 Mulliken charges:
               1
     1  O   -0.539219
     2  C    0.361514
     3  H    0.056686
     4  H   -0.064953
     5  H    0.083361
     6  C    0.067200
     7  N   -0.496473
     8  C    0.647848
     9  H   -0.260039
    10  C    0.162651
    11  H   -0.358721
    12  S    0.547478
    13  C   -0.207332
 Sum of Mulliken charges =  -0.00000

 Dipole moment (field-independent basis, Debye):
    X=              2.2464    Y=              1.8397    Z=              1.3836  Tot=              3.2164

 Test job not archived.
 1\1\GINC-SE252\SP\RHF\Aug-CC-pVDZ\C5H5N1O1S1\OHZDE\09-Apr-2025\0\\#t h
 f aug-cc-pvdz iop(5/13=1,5/36=2,99/5=2) pseudo=read geom=check guess=(
 read,tcheck) scf=(maxcycle=1)\\title\\0,1\O,0,21.7565,-16.7151,0.625\C
 ,0,21.1066,-18.6531,-0.6567\H,0,21.3129,-19.6995,-0.4196\H,0,20.085,-1
 8.3816,-0.388\H,0,21.2536,-18.5268,-1.7347\C,0,22.0788,-17.7478,0.0546
 \N,0,23.9546,-19.375,-0.0159\C,0,25.3162,-19.3936,0.0229\H,0,25.8412,-
 20.3413,0.0577\C,0,25.9282,-18.1512,0.0179\H,0,26.987,-17.9282,0.0155\
 S,0,24.7531,-16.9157,-0.0142\C,0,23.5179,-18.122,-0.0654\\Version=ES64

 Normal termination of Gaussian 16 at Wed Apr  9 02:18:47 2025.
