 Gaussian 16, Revision C.01,

 ----------------------------------------------------------------------
 #t hf aug-cc-pvdz symm=none int=(grid=ultrafine) guess=(read,tcheck) s
 table=(opt,rrhf)
 ----------------------------------------------------------------------
 -----
 title
 -----
 Symbolic Z-matrix:
 Charge =  0 Multiplicity = 1

 SCF Done:  E(RHF) =  -719.113924082     A.U. after   16 cycles
 Normal termination of Gaussian 16 at Wed Apr  9 02:19:08 2025.
 Gaussian 16:  ES64L-G16RevC.01  3-Jul-2019

 ----------------------------------------------------------------------
 #t hf aug-cc-pvdz iop(5/13=1,5/36=2,99/5=2) pseudo=read geom=check gue
 ss=(read,tcheck) scf=(maxcycle=1)
 ----------------------------------------------------------------------
 -----
 title
 -----
 Structure from the checkpoint file:  "DCONF_28_-60_mol1.chk"
 Charge =  0 Multiplicity = 1

                         Standard orientation:
 ---------------------------------------------------------------------
 Center     Atomic      Atomic             Coordinates (Angstroms)
 Number     Number       Type             X           Y           Z
 ---------------------------------------------------------------------
      1          8           0       -1.975995   -1.059480   -0.798893
      2          6           0       -2.496778    0.823764    0.615839
      3          1           0       -2.213247    1.866581    0.448578
      4          1           0       -3.536463    0.650892    0.334823
      5          1           0       -2.358001    0.612174    1.681895
      6          6           0       -1.588294   -0.095673   -0.157671
      7          7           0        0.441859    1.318401   -0.329328
      8          6           0        1.801680    1.206743   -0.284361
      9          1           0        2.419362    2.066505   -0.516608
     10          6           0        2.284598   -0.041501    0.063928
     11          1           0        3.313648   -0.348667    0.195456
     12         16           0        0.987653   -1.121533    0.319969
     13          6           0       -0.120006    0.164015    0.001064
 ---------------------------------------------------------------------

 SCF Done:  E(RHF) =  -719.231390624     A.U. after    2 cycles

 The electronic state is 1-A.
 Alpha  occ. eigenvalues --  -93.59404 -20.58348 -15.66058 -11.37034 -11.33494
 Alpha  occ. eigenvalues --  -11.29613 -11.29295 -11.25515  -8.89246  -6.23346
 Alpha  occ. eigenvalues --   -6.23227  -6.22876  -1.36802  -1.26840  -1.07006
 Alpha  occ. eigenvalues --   -1.04708  -0.99566  -0.85815  -0.80475  -0.73078
 Alpha  occ. eigenvalues --   -0.70693  -0.65249  -0.64026  -0.62565  -0.58757
 Alpha  occ. eigenvalues --   -0.57698  -0.55483  -0.52489  -0.51554  -0.47191
 Alpha  occ. eigenvalues --   -0.43550  -0.40161  -0.35237
 Alpha virt. eigenvalues --    0.03049   0.03824   0.04430   0.05631   0.06414
 Alpha virt. eigenvalues --    0.06814   0.07853   0.09681   0.10167   0.10720
 Alpha virt. eigenvalues --    0.11636   0.12308   0.12588   0.13259   0.13657

 Mulliken charges:
               1
     1  O   -0.528185
     2  C    0.311370
     3  H    0.054691
     4  H   -0.065736
     5  H    0.080340
     6  C    0.067486
     7  N   -0.520540
     8  C    0.653562
     9  H   -0.254805
    10  C    0.167302
    11  H   -0.355180
    12  S    0.532303
    13  C   -0.142608
 Sum of Mulliken charges =  -0.00000

 Dipole moment (field-independent basis, Debye):
    X=              2.0468    Y=              1.4222    Z=              2.1690  Tot=              3.3040

 Test job not archived.
 1\1\GINC-SE029\SP\RHF\Aug-CC-pVDZ\C5H5N1O1S1\OHZDE\09-Apr-2025\0\\#t h
 f aug-cc-pvdz iop(5/13=1,5/36=2,99/5=2) pseudo=read geom=check guess=(
 read,tcheck) scf=(maxcycle=1)\\title\\0,1\O,0,21.7274,-16.9393,0.9087\
 C,0,21.1436,-18.3603,-0.9512\H,0,21.3208,-19.4362,-1.0341\H,0,20.106,-
 18.1538,-0.6856\H,0,21.3762,-17.9128,-1.9239\C,0,22.0727,-17.7543,0.06
 79\N,0,23.9519,-19.3703,-0.0201\C,0,25.316,-19.3925,0.0283\H,0,25.8368
 ,-20.3421,0.0694\C,0,25.9314,-18.154,0.0231\H,0,26.9904,-17.9324,0.020
 5\S,0,24.757,-16.9158,-0.0186\C,0,23.5197,-18.1185,-0.0806\\Version=ES

 Normal termination of Gaussian 16 at Wed Apr  9 02:19:14 2025.
