 Gaussian 16, Revision C.01,

 ----------------------------------------------------------------------
 #t hf aug-cc-pvdz symm=none int=(grid=ultrafine) guess=(read,tcheck) s
 table=(opt,rrhf)
 ----------------------------------------------------------------------
 -----
 title
 -----
 Symbolic Z-matrix:
 Charge =  0 Multiplicity = 1

 SCF Done:  E(RHF) =  -774.173698940     A.U. after   16 cycles
 Normal termination of Gaussian 16 at Wed Apr  9 02:21:06 2025.
 Gaussian 16:  ES64L-G16RevC.01  3-Jul-2019

 ----------------------------------------------------------------------
 #t hf aug-cc-pvdz iop(5/13=1,5/36=2,99/5=2) pseudo=read geom=check gue
 ss=(read,tcheck) scf=(maxcycle=1)
 ----------------------------------------------------------------------
 -----
 title
 -----
 Structure from the checkpoint file:  "DCONF_42_-100_mol1.chk"
 Charge =  0 Multiplicity = 1

                         Standard orientation:
 ---------------------------------------------------------------------
 Center     Atomic      Atomic             Coordinates (Angstroms)
 Number     Number       Type             X           Y           Z
 ---------------------------------------------------------------------
      1          6           0       -1.982965   -0.131731    0.176285
      2          7           0       -1.005765    0.359389   -0.699536
      3          1           0       -1.266937    1.176892   -1.238278
      4          7           0        0.978091    1.410426    0.146778
      5          6           0        2.276168    1.085070    0.436489
      6          1           0        2.943153    1.845458    0.824913
      7          6           0        2.625337   -0.231850    0.216574
      8          1           0        3.575333   -0.714463    0.402704
      9         16           0        1.283630   -1.093969   -0.401535
     10          6           0        0.345915    0.349162   -0.312247
     11          8           0       -1.713000   -0.877616    1.098073
     12          6           0       -3.383156    0.337546   -0.153525
     13          1           0       -3.540345    0.409837   -1.232617
     14          1           0       -3.538556    1.326377    0.289779
     15          1           0       -4.100812   -0.357558    0.281330
 ---------------------------------------------------------------------

 SCF Done:  E(RHF) =  -774.309114968     A.U. after    2 cycles

 The electronic state is 1-A.
 Alpha  occ. eigenvalues --  -93.58002 -20.55750 -15.67634 -15.64258 -11.38639
 Alpha  occ. eigenvalues --  -11.36132 -11.28512 -11.27731 -11.26216  -8.87886
 Alpha  occ. eigenvalues --   -6.21993  -6.21875  -6.21513  -1.36696  -1.27705
 Alpha  occ. eigenvalues --   -1.20206  -1.05764  -1.02934  -0.97298  -0.83484
 Alpha  occ. eigenvalues --   -0.79752  -0.77370  -0.70410  -0.69626  -0.64422
 Alpha  occ. eigenvalues --   -0.63918  -0.61312  -0.59039  -0.57275  -0.56092
 Alpha  occ. eigenvalues --   -0.53561  -0.50710  -0.46212  -0.44691  -0.43480
 Alpha  occ. eigenvalues --   -0.38966  -0.33475
 Alpha virt. eigenvalues --    0.02932   0.03596   0.04601   0.04834   0.05834
 Alpha virt. eigenvalues --    0.07106   0.08445   0.09340   0.09693   0.10980
 Alpha virt. eigenvalues --    0.11648   0.12155   0.12705   0.12892   0.13763

 Mulliken charges:
               1
     1  C    0.396048
     2  N   -0.463119
     3  H   -0.034028
     4  N   -0.480470
     5  C    0.609906
     6  H   -0.271574
     7  C    0.189965
     8  H   -0.367220
     9  S    0.587099
    10  C    0.019057
    11  O   -0.497381
    12  C    0.273089
    13  H   -0.009387
    14  H    0.060359
    15  H   -0.012344
 Sum of Mulliken charges =  -0.00000

 Dipole moment (field-independent basis, Debye):
    X=             -0.5043    Y=              1.4559    Z=             -2.5602  Tot=              2.9880

 Test job not archived.
 1\1\GINC-SE165\SP\RHF\Aug-CC-pVDZ\C5H6N2O1S1\OHZDE\09-Apr-2025\0\\#t h
 f aug-cc-pvdz iop(5/13=1,5/36=2,99/5=2) pseudo=read geom=check guess=(
 read,tcheck) scf=(maxcycle=1)\\title\\0,1\C,0,28.7881,-16.3481,-1.201\
 N,0,29.3113,-16.8497,-0.0019\H,0,28.6435,-17.2878,0.6217\N,0,30.7445,-
 18.7739,-0.0031\C,0,32.0823,-19.0655,0.0042\H,0,32.4031,-20.1004,0.002
 6\C,0,32.931,-17.9773,-0.0051\H,0,34.0123,-17.9696,-0.0331\S,0,32.0205
 ,-16.5294,0.0028\C,0,30.5746,-17.4671,0.0031\O,0,29.4902,-16.1009,-2.1
 627\C,0,27.2911,-16.1308,-1.1649\H,0,26.9579,-15.7824,-0.1841\H,0,26.7

 Normal termination of Gaussian 16 at Wed Apr  9 02:21:27 2025.
