 Gaussian 16, Revision C.01,

 ----------------------------------------------------------------------
 #t hf aug-cc-pvdz symm=none int=(grid=ultrafine) guess=(read,tcheck) s
 table=(opt,rrhf)
 ----------------------------------------------------------------------
 -----
 title
 -----
 Symbolic Z-matrix:
 Charge =  0 Multiplicity = 1

 SCF Done:  E(RHF) =  -355.056436548     A.U. after   12 cycles
 Normal termination of Gaussian 16 at Wed Apr  9 02:26:23 2025.
 Gaussian 16:  ES64L-G16RevC.01  3-Jul-2019

 ----------------------------------------------------------------------
 #t hf aug-cc-pvdz iop(5/13=1,5/36=2,99/5=2) pseudo=read geom=check gue
 ss=(read,tcheck) scf=(maxcycle=1)
 ----------------------------------------------------------------------
 -----
 title
 -----
 Structure from the checkpoint file:  "DCONF_9_100_mol1.chk"
 Charge =  0 Multiplicity = 1

                         Standard orientation:
 ---------------------------------------------------------------------
 Center     Atomic      Atomic             Coordinates (Angstroms)
 Number     Number       Type             X           Y           Z
 ---------------------------------------------------------------------
      1          6           0        0.265881   -0.258622   -0.375452
      2          1           0        0.331137   -1.332986   -0.575505
      3          1           0        0.283507    0.261374   -1.338060
      4          6           0        1.445500    0.163833    0.502570
      5          1           0        1.411467   -0.401411    1.441598
      6          1           0        1.345159    1.223914    0.764541
      7          6           0        2.786429   -0.069282   -0.191728
      8          1           0        2.910382   -1.125744   -0.449568
      9          1           0        3.621677    0.223501    0.450637
     10          1           0        2.849602    0.512732   -1.116372
     11          6           0       -1.072025    0.007391    0.284159
     12          1           0       -1.025501    0.098601    1.372296
     13          9           0       -1.960509   -0.997388   -0.002876
     14          9           0       -1.626396    1.161843   -0.204554
 ---------------------------------------------------------------------

 SCF Done:  E(RHF) =  -355.179192653     A.U. after    2 cycles

 The electronic state is 1-A.
 Alpha  occ. eigenvalues --  -26.12636 -26.12508 -11.41512 -11.25044 -11.24958
 Alpha  occ. eigenvalues --  -11.23729  -1.68842  -1.64326  -1.09383  -1.00875
 Alpha  occ. eigenvalues --   -0.91546  -0.83994  -0.80479  -0.79932  -0.75713
 Alpha  occ. eigenvalues --   -0.72190  -0.68512  -0.65832  -0.64450  -0.59597
 Alpha  occ. eigenvalues --   -0.55382  -0.54481  -0.50237  -0.49891  -0.49211
 Alpha virt. eigenvalues --    0.03314   0.04252   0.04757   0.05141   0.06835
 Alpha virt. eigenvalues --    0.07053   0.07550   0.08181   0.10870   0.12445
 Alpha virt. eigenvalues --    0.13201   0.13595   0.15182   0.15570   0.16392

 Mulliken charges:
               1
     1  C    0.071829
     2  H   -0.076307
     3  H   -0.084816
     4  C    0.046449
     5  H   -0.102276
     6  H   -0.096230
     7  C    0.381492
     8  H   -0.050444
     9  H   -0.055898
    10  H   -0.061389
    11  C    1.024492
    12  H   -0.252328
    13  F   -0.372653
    14  F   -0.371921
 Sum of Mulliken charges =  -0.00000

 Dipole moment (field-independent basis, Debye):
    X=              2.8737    Y=             -0.2579    Z=              1.0201  Tot=              3.0603

 Test job not archived.
 1\1\GINC-SE292\SP\RHF\Aug-CC-pVDZ\C4H8F2\OHZDE\09-Apr-2025\0\\#t hf au
 g-cc-pvdz iop(5/13=1,5/36=2,99/5=2) pseudo=read geom=check guess=(read
 ,tcheck) scf=(maxcycle=1)\\title\\0,1\C,0,-0.1298,-0.0794,-0.0832\H,0,
 -0.1981,0.3958,-1.0671\H,0,-0.2332,0.7043,0.6734\C,0,1.2182,-0.7925,0.
 0404\H,0,1.2973,-1.5455,-0.7528\H,0,1.2616,-1.3295,0.9955\C,0,2.3908,0
 .1824,-0.0548\H,0,2.3716,0.7191,-1.0085\H,0,3.3483,-0.3405,0.0211\H,0,
 2.3443,0.9231,0.7495\C,0,-1.3025,-1.0292,0.0528\H,0,-1.0589,-2.0749,-0
 .1514\F,0,-2.3148,-0.6724,-0.8012\F,0,-1.8266,-0.9658,1.3178\\Version=

 Normal termination of Gaussian 16 at Wed Apr  9 02:26:26 2025.
