 Gaussian 16, Revision C.01,

 ----------------------------------------------------------------------
 #t hf aug-cc-pvdz symm=none int=(grid=ultrafine) guess=(read,tcheck) s
 table=(opt,rrhf)
 ----------------------------------------------------------------------
 -----
 title
 -----
 Symbolic Z-matrix:
 Charge =  0 Multiplicity = 1

 SCF Done:  E(RHF) =  -812.901762795     A.U. after   17 cycles
 Normal termination of Gaussian 16 at Wed Apr  9 02:26:02 2025.
 Gaussian 16:  ES64L-G16RevC.01  3-Jul-2019

 ----------------------------------------------------------------------
 #t hf aug-cc-pvdz iop(5/13=1,5/36=2,99/5=2) pseudo=read geom=check gue
 ss=(read,tcheck) scf=(maxcycle=1)
 ----------------------------------------------------------------------
 -----
 title
 -----
 Structure from the checkpoint file:  "DCONF_56_-140_mol1.chk"
 Charge =  0 Multiplicity = 1

                         Standard orientation:
 ---------------------------------------------------------------------
 Center     Atomic      Atomic             Coordinates (Angstroms)
 Number     Number       Type             X           Y           Z
 ---------------------------------------------------------------------
      1          6           0       -1.478502    1.216938   -0.370163
      2          1           0       -0.995863    2.146074   -0.656693
      3          6           0       -2.866254    1.087781   -0.318784
      4          1           0       -3.508824    1.924904   -0.577582
      5          6           0       -3.412220   -0.143150    0.062503
      6          1           0       -4.486536   -0.292367    0.114677
      7          6           0       -2.541091   -1.188865    0.385805
      8          1           0       -2.929824   -2.157590    0.693068
      9          7           0       -1.201647   -1.081223    0.359221
     10          6           0       -0.690823    0.106335   -0.025021
     11          7           0        1.414150    1.312815    0.398447
     12          6           0        2.762821    1.095113    0.385788
     13          1           0        3.436471    1.887942    0.690620
     14          6           0        3.157861   -0.168530   -0.012428
     15          1           0        4.163115   -0.559500   -0.098553
     16         16           0        1.787875   -1.122631   -0.379453
     17          6           0        0.772865    0.226292   -0.007361
 ---------------------------------------------------------------------

 SCF Done:  E(RHF) =  -813.040577653     A.U. after    2 cycles

 The electronic state is 1-A.
 Alpha  occ. eigenvalues --  -93.57664 -15.64477 -15.64052 -11.32390 -11.30859
 Alpha  occ. eigenvalues --  -11.29648 -11.28191 -11.27853 -11.27609 -11.26236
 Alpha  occ. eigenvalues --  -11.26154  -8.87509  -6.21617  -6.21497  -6.21146
 Alpha  occ. eigenvalues --   -1.26113  -1.23318  -1.08470  -1.06244  -1.04982
 Alpha  occ. eigenvalues --   -0.98163  -0.87503  -0.86801  -0.79180  -0.76863
 Alpha  occ. eigenvalues --   -0.70791  -0.68520  -0.67405  -0.64240  -0.59831
 Alpha  occ. eigenvalues --   -0.59239  -0.58244  -0.55729  -0.53819  -0.53196
 Alpha  occ. eigenvalues --   -0.50339  -0.43931  -0.42305  -0.39699  -0.38708
 Alpha  occ. eigenvalues --   -0.37091  -0.31625
 Alpha virt. eigenvalues --    0.03038   0.03543   0.04048   0.05198   0.05415
 Alpha virt. eigenvalues --    0.06056   0.06787   0.08335   0.08923   0.09576
 Alpha virt. eigenvalues --    0.10602   0.11039   0.11436   0.12247   0.12440

 Mulliken charges:
               1
     1  C    0.919251
     2  H   -0.498448
     3  C   -0.371281
     4  H   -0.383385
     5  C    0.870717
     6  H   -0.409724
     7  C    0.513757
     8  H   -0.363010
     9  N   -0.408223
    10  C    0.311794
    11  N   -0.559007
    12  C    0.755767
    13  H   -0.282887
    14  C    0.109217
    15  H   -0.369729
    16  S    0.515913
    17  C   -0.350724
 Sum of Mulliken charges =  -0.00000

 Dipole moment (field-independent basis, Debye):
    X=             -1.0542    Y=              0.3461    Z=             -0.7935  Tot=              1.3641

 Test job not archived.
 1\1\GINC-SE229\SP\RHF\Aug-CC-pVDZ\C8H6N2S1\OHZDE\09-Apr-2025\0\\#t hf
 aug-cc-pvdz iop(5/13=1,5/36=2,99/5=2) pseudo=read geom=check guess=(re
 ad,tcheck) scf=(maxcycle=1)\\title\\0,1\C,0,30.1281,-21.092,-0.0128\H,
 0,30.7123,-20.1771,-0.0127\C,0,28.7336,-21.0809,0.0078\H,0,28.1888,-20
 .1408,0.0151\C,0,28.0525,-22.3035,0.0086\H,0,26.9675,-22.3453,0.0217\C
 ,0,28.8011,-23.4852,-0.001\H,0,28.3056,-24.4539,0.0062\N,0,30.1447,-23
 .5189,-0.004\C,0,30.7864,-22.3328,-0.0203\N,0,32.9947,-21.5399,0.7284\
 C,0,34.3131,-21.8874,0.6416\H,0,35.0581,-21.2981,1.1641\C,0,34.5837,-2

 Normal termination of Gaussian 16 at Wed Apr  9 02:26:13 2025.
