 Gaussian 16, Revision C.01,

 ----------------------------------------------------------------------
 #t hf aug-cc-pvdz symm=none int=(grid=ultrafine) guess=(read,tcheck) s
 table=(opt,rrhf)
 ----------------------------------------------------------------------
 -----
 title
 -----
 Symbolic Z-matrix:
 Charge =  0 Multiplicity = 1

 SCF Done:  E(RHF) =  -681.462429610     A.U. after   13 cycles
 Normal termination of Gaussian 16 at Wed Apr  9 02:17:21 2025.
 Gaussian 16:  ES64L-G16RevC.01  3-Jul-2019

 ----------------------------------------------------------------------
 #t hf aug-cc-pvdz iop(5/13=1,5/36=2,99/5=2) pseudo=read geom=check gue
 ss=(read,tcheck) scf=(maxcycle=1)
 ----------------------------------------------------------------------
 -----
 title
 -----
 Structure from the checkpoint file:  "DCONF_16_30_mol1.chk"
 Charge =  0 Multiplicity = 1

                         Standard orientation:
 ---------------------------------------------------------------------
 Center     Atomic      Atomic             Coordinates (Angstroms)
 Number     Number       Type             X           Y           Z
 ---------------------------------------------------------------------
      1          6           0       -0.375968    1.587431   -0.418096
      2          1           0        0.318716    2.097174    0.248029
      3          1           0       -0.067744    1.666870   -1.461624
      4          1           0       -1.377685    2.001247   -0.291125
      5         16           0       -0.509307   -0.129452    0.057574
      6          8           0       -0.798272   -0.110194    1.479625
      7          7           0        1.016080   -0.795276   -0.144916
      8          1           0        1.021602   -1.273854   -1.041531
      9          8           0       -1.368323   -0.824222   -0.886955
     10          6           0        2.198110    0.055783    0.024621
     11          1           0        2.287819    0.842389   -0.733555
     12          1           0        2.175119    0.507549    1.018697
     13          1           0        3.078428   -0.587175   -0.026186
 ---------------------------------------------------------------------

 SCF Done:  E(RHF) =  -681.630349268     A.U. after    2 cycles

 The electronic state is 1-A.
 Alpha  occ. eigenvalues --  -93.80344 -20.56238 -20.55541 -15.67099 -11.30087
 Alpha  occ. eigenvalues --  -11.29191  -9.06709  -6.41345  -6.41211  -6.41063
 Alpha  occ. eigenvalues --   -1.42740  -1.30623  -1.20930  -1.03754  -0.96159
 Alpha  occ. eigenvalues --   -0.82717  -0.72896  -0.69408  -0.68577  -0.65198
 Alpha  occ. eigenvalues --   -0.62986  -0.61590  -0.60164  -0.57677  -0.52200
 Alpha  occ. eigenvalues --   -0.51948  -0.49545  -0.47821  -0.43308
 Alpha virt. eigenvalues --    0.02294   0.03730   0.04397   0.05092   0.06620
 Alpha virt. eigenvalues --    0.06969   0.08058   0.11022   0.11200   0.11777
 Alpha virt. eigenvalues --    0.13947   0.14605   0.15324   0.15554   0.16066

 Mulliken charges:
               1
     1  C   -0.033152
     2  H    0.011528
     3  H    0.040244
     4  H   -0.027878
     5  S    2.621887
     6  O   -1.036074
     7  N   -0.917051
     8  H    0.014154
     9  O   -1.026694
    10  C    0.768751
    11  H   -0.072335
    12  H   -0.132570
    13  H   -0.210809
 Sum of Mulliken charges =  -0.00000

 Dipole moment (field-independent basis, Debye):
    X=              4.5880    Y=              3.3929    Z=             -2.5439  Tot=              6.2476

 Test job not archived.
 1\1\GINC-SE080\SP\RHF\Aug-CC-pVDZ\C2H7N1O2S1\OHZDE\09-Apr-2025\0\\#t h
 f aug-cc-pvdz iop(5/13=1,5/36=2,99/5=2) pseudo=read geom=check guess=(
 read,tcheck) scf=(maxcycle=1)\\title\\0,1\C,0,-1.1708,-1.3749,-0.6099\
 H,0,-0.9664,-0.7558,0.2625\H,0,-0.5173,-1.1233,-1.4465\H,0,-2.2156,-1.
 2622,-0.904\S,0,-0.9842,-3.0981,-0.1769\O,0,-1.7962,-3.2831,1.0116\N,0
 ,0.6205,-3.3031,0.2636\H,0,1.1104,-3.6815,-0.5425\O,0,-1.1716,-3.9148,
 -1.3646\C,0,1.348,-2.1807,0.8646\H,0,1.4978,-1.336,0.1822\H,0,0.8125,-
 1.8413,1.7539\H,0,2.322,-2.5527,1.1869\\Version=ES64L-G16RevC.01\State

 Normal termination of Gaussian 16 at Wed Apr  9 02:17:25 2025.
