 Gaussian 16, Revision C.01,

 ----------------------------------------------------------------------
 #t hf aug-cc-pvdz symm=none int=(grid=ultrafine) guess=(read,tcheck) s
 table=(opt,rrhf)
 ----------------------------------------------------------------------
 -----
 title
 -----
 Symbolic Z-matrix:
 Charge =  0 Multiplicity = 1

 SCF Done:  E(RHF) =  -719.110119575     A.U. after   16 cycles
 Normal termination of Gaussian 16 at Wed Apr  9 02:18:37 2025.
 Gaussian 16:  ES64L-G16RevC.01  3-Jul-2019

 ----------------------------------------------------------------------
 #t hf aug-cc-pvdz iop(5/13=1,5/36=2,99/5=2) pseudo=read geom=check gue
 ss=(read,tcheck) scf=(maxcycle=1)
 ----------------------------------------------------------------------
 -----
 title
 -----
 Structure from the checkpoint file:  "DCONF_28_-130_mol1.chk"
 Charge =  0 Multiplicity = 1

                         Standard orientation:
 ---------------------------------------------------------------------
 Center     Atomic      Atomic             Coordinates (Angstroms)
 Number     Number       Type             X           Y           Z
 ---------------------------------------------------------------------
      1          8           0       -2.224450    1.122225   -0.631197
      2          6           0       -2.266810   -0.927973    0.631450
      3          1           0       -1.923870   -1.889503    0.233908
      4          1           0       -3.349838   -0.851568    0.529155
      5          1           0       -1.982651   -0.893014    1.687922
      6          6           0       -1.605034    0.222324   -0.092972
      7          7           0        0.573384    1.342331    0.300751
      8          6           0        1.911162    1.074174    0.323551
      9          1           0        2.610363    1.860349    0.584043
     10          6           0        2.269621   -0.223549    0.008755
     11          1           0        3.261204   -0.650481   -0.061026
     12         16           0        0.871035   -1.148233   -0.312741
     13          6           0       -0.103913    0.258662   -0.041755
 ---------------------------------------------------------------------

 SCF Done:  E(RHF) =  -719.227464416     A.U. after    2 cycles

 The electronic state is 1-A.
 Alpha  occ. eigenvalues --  -93.59769 -20.58126 -15.65853 -11.36901 -11.33665
 Alpha  occ. eigenvalues --  -11.29765 -11.29495 -11.26163  -8.89643  -6.23753
 Alpha  occ. eigenvalues --   -6.23632  -6.23283  -1.36585  -1.26779  -1.07119
 Alpha  occ. eigenvalues --   -1.05203  -0.99591  -0.86057  -0.80537  -0.73112
 Alpha  occ. eigenvalues --   -0.70776  -0.65197  -0.64262  -0.62785  -0.58711
 Alpha  occ. eigenvalues --   -0.57943  -0.56501  -0.52544  -0.51580  -0.46488
 Alpha  occ. eigenvalues --   -0.43608  -0.40424  -0.35452
 Alpha virt. eigenvalues --    0.02883   0.03635   0.04565   0.05296   0.06075
 Alpha virt. eigenvalues --    0.06381   0.08109   0.09383   0.10278   0.11263
 Alpha virt. eigenvalues --    0.11425   0.11926   0.12521   0.13207   0.13940

 Mulliken charges:
               1
     1  O   -0.514251
     2  C    0.366159
     3  H    0.029580
     4  H   -0.093082
     5  H    0.081100
     6  C    0.060921
     7  N   -0.550720
     8  C    0.705810
     9  H   -0.250902
    10  C    0.116438
    11  H   -0.360103
    12  S    0.540857
    13  C   -0.131806
 Sum of Mulliken charges =  -0.00000

 Dipole moment (field-independent basis, Debye):
    X=              2.5500    Y=             -3.7897    Z=              1.4130  Tot=              4.7813

 Test job not archived.
 1\1\GINC-SE253\SP\RHF\Aug-CC-pVDZ\C5H5N1O1S1\OHZDE\09-Apr-2025\0\\#t h
 f aug-cc-pvdz iop(5/13=1,5/36=2,99/5=2) pseudo=read geom=check guess=(
 read,tcheck) scf=(maxcycle=1)\\title\\0,1\O,0,21.2594,-18.3496,0.6879\
 C,0,21.6588,-16.7218,-1.0413\H,0,22.1963,-15.782,-0.8738\H,0,20.5838,-
 16.5469,-0.9862\H,0,21.9337,-17.0803,-2.0383\C,0,22.0581,-17.7614,-0.0
 187\N,0,23.9508,-19.3652,0.0025\C,0,25.3151,-19.3907,-0.0082\H,0,25.83
 26,-20.3429,-0.026\C,0,25.9395,-18.1571,-0.0027\H,0,26.9988,-17.9383,0
 .017\S,0,24.7677,-16.9156,-0.0005\C,0,23.5175,-18.1154,0.0276\\Version

 Normal termination of Gaussian 16 at Wed Apr  9 02:18:43 2025.
