 Gaussian 16, Revision C.01,

 ----------------------------------------------------------------------
 #t hf aug-cc-pvdz symm=none int=(grid=ultrafine) guess=(read,tcheck) s
 table=(opt,rrhf)
 ----------------------------------------------------------------------
 -----
 title
 -----
 Symbolic Z-matrix:
 Charge =  0 Multiplicity = 1

 SCF Done:  E(RHF) =  -703.109293793     A.U. after   16 cycles
 Normal termination of Gaussian 16 at Wed Apr  9 02:18:15 2025.
 Gaussian 16:  ES64L-G16RevC.01  3-Jul-2019

 ----------------------------------------------------------------------
 #t hf aug-cc-pvdz iop(5/13=1,5/36=2,99/5=2) pseudo=read geom=check gue
 ss=(read,tcheck) scf=(maxcycle=1)
 ----------------------------------------------------------------------
 -----
 title
 -----
 Structure from the checkpoint file:  "DCONF_24_-110_mol1.chk"
 Charge =  0 Multiplicity = 1

                         Standard orientation:
 ---------------------------------------------------------------------
 Center     Atomic      Atomic             Coordinates (Angstroms)
 Number     Number       Type             X           Y           Z
 ---------------------------------------------------------------------
      1          8           0       -2.296046    0.913219   -0.822855
      2          6           0       -2.241306   -0.788218    0.873823
      3          1           0       -1.925315   -0.475304    1.874064
      4          1           0       -3.328865   -0.761473    0.792989
      5          1           0       -1.877074   -1.810337    0.725916
      6          6           0       -1.627067    0.155484   -0.137249
      7          6           0        0.600668    1.336635    0.280945
      8          1           0        0.136319    2.292404    0.499433
      9          6           0        1.989661    1.065827    0.366506
     10          1           0        2.741377    1.792777    0.652969
     11          6           0        2.288886   -0.245005    0.042777
     12          1           0        3.262625   -0.713342   -0.021324
     13         16           0        0.881098   -1.137840   -0.352668
     14          6           0       -0.133886    0.237771   -0.143221
 ---------------------------------------------------------------------

 SCF Done:  E(RHF) =  -703.223596624     A.U. after    2 cycles

 The electronic state is 1-A.
 Alpha  occ. eigenvalues --  -93.58169 -20.57246 -11.36171 -11.28934 -11.28767
 Alpha  occ. eigenvalues --  -11.26749 -11.26384 -11.25339  -8.88008  -6.22140
 Alpha  occ. eigenvalues --   -6.22002  -6.21652  -1.35608  -1.17719  -1.03787
 Alpha  occ. eigenvalues --   -0.99521  -0.98222  -0.83802  -0.77482  -0.72820
 Alpha  occ. eigenvalues --   -0.70277  -0.64282  -0.62880  -0.61546  -0.57928
 Alpha  occ. eigenvalues --   -0.56416  -0.55218  -0.53267  -0.51239  -0.48777
 Alpha  occ. eigenvalues --   -0.44329  -0.36190  -0.34076
 Alpha virt. eigenvalues --    0.03125   0.03969   0.04291   0.05642   0.06022
 Alpha virt. eigenvalues --    0.06354   0.07618   0.09253   0.09701   0.10884
 Alpha virt. eigenvalues --    0.11293   0.12349   0.12755   0.13517   0.13552

 Mulliken charges:
               1
     1  O   -0.539093
     2  C    0.323125
     3  H    0.084323
     4  H   -0.091304
     5  H    0.023200
     6  C   -0.147549
     7  C    0.348745
     8  H   -0.377468
     9  C    0.274119
    10  H   -0.296263
    11  C    0.008192
    12  H   -0.341992
    13  S    0.767535
    14  C   -0.035569
 Sum of Mulliken charges =   0.00000

 Dipole moment (field-independent basis, Debye):
    X=              2.3513    Y=             -1.4020    Z=              2.4741  Tot=              3.6899

 Test job not archived.
 1\1\GINC-SE273\SP\RHF\Aug-CC-pVDZ\C6H6O1S1\OHZDE\09-Apr-2025\0\\#t hf
 aug-cc-pvdz iop(5/13=1,5/36=2,99/5=2) pseudo=read geom=check guess=(re
 ad,tcheck) scf=(maxcycle=1)\\title\\0,1\O,0,21.0732,-5.6202,0.734\C,0,
 21.5317,-4.4789,-1.3309\H,0,21.8005,-5.1034,-2.1888\H,0,20.4614,-4.268
 ,-1.3347\H,0,22.1001,-3.5471,-1.42\C,0,21.9053,-5.2204,-0.0657\C,0,23.
 8426,-6.8857,0.0146\H,0,23.1923,-7.754,0.0106\C,0,25.2592,-6.9271,-0.0
 24\H,0,25.8472,-7.8376,-0.053\C,0,25.8206,-5.6632,-0.0228\H,0,26.8694,
 -5.3964,-0.0015\S,0,24.6239,-4.4377,0.0154\C,0,23.3465,-5.591,0.0826\\

 Normal termination of Gaussian 16 at Wed Apr  9 02:18:22 2025.
