 Gaussian 16, Revision C.01,

 ----------------------------------------------------------------------
 #t hf aug-cc-pvdz symm=none int=(grid=ultrafine) guess=(read,tcheck) s
 table=(opt,rrhf)
 ----------------------------------------------------------------------
 -----
 title
 -----
 Symbolic Z-matrix:
 Charge =  0 Multiplicity = 1

 SCF Done:  E(RHF) =  -719.121627731     A.U. after   16 cycles
 Normal termination of Gaussian 16 at Wed Apr  9 02:18:36 2025.
 Gaussian 16:  ES64L-G16RevC.01  3-Jul-2019

 ----------------------------------------------------------------------
 #t hf aug-cc-pvdz iop(5/13=1,5/36=2,99/5=2) pseudo=read geom=check gue
 ss=(read,tcheck) scf=(maxcycle=1)
 ----------------------------------------------------------------------
 -----
 title
 -----
 Structure from the checkpoint file:  "DCONF_28_-100_mol2.chk"
 Charge =  0 Multiplicity = 1

                         Standard orientation:
 ---------------------------------------------------------------------
 Center     Atomic      Atomic             Coordinates (Angstroms)
 Number     Number       Type             X           Y           Z
 ---------------------------------------------------------------------
      1          8           0        1.961703   -1.336326   -0.000200
      2          6           0        2.509172    1.013518    0.000600
      3          1           0        2.317214    1.634829   -0.878200
      4          1           0        3.539846    0.657217    0.001100
      5          1           0        2.316310    1.634877    0.879200
      6          6           0        1.579180   -0.172854    0.000000
      7          7           0       -0.386655    1.356582   -0.000100
      8          6           0       -1.745955    1.295066    0.000000
      9          1           0       -2.327783    2.209731    0.000000
     10          6           0       -2.282309    0.016979   -0.000100
     11          1           0       -3.326445   -0.267616    0.000000
     12         16           0       -1.038294   -1.148322   -0.000100
     13          6           0        0.124333    0.130397   -0.000200
 ---------------------------------------------------------------------

 SCF Done:  E(RHF) =  -719.238827424     A.U. after    2 cycles

 The electronic state is 1-A.
 Alpha  occ. eigenvalues --  -93.59439 -20.57886 -15.66479 -11.36657 -11.33150
 Alpha  occ. eigenvalues --  -11.29764 -11.29641 -11.24962  -8.89254  -6.23342
 Alpha  occ. eigenvalues --   -6.23232  -6.22887  -1.36335  -1.27040  -1.07270
 Alpha  occ. eigenvalues --   -1.04457  -0.99249  -0.85954  -0.80578  -0.73011
 Alpha  occ. eigenvalues --   -0.70824  -0.64873  -0.63569  -0.62377  -0.59098
 Alpha  occ. eigenvalues --   -0.56927  -0.55446  -0.51961  -0.51948  -0.47173
 Alpha  occ. eigenvalues --   -0.43724  -0.40302  -0.35291
 Alpha virt. eigenvalues --    0.02958   0.03834   0.04081   0.04587   0.05826
 Alpha virt. eigenvalues --    0.06716   0.07858   0.09543   0.10820   0.11245
 Alpha virt. eigenvalues --    0.11534   0.11988   0.13124   0.13303   0.13545

 Mulliken charges:
               1
     1  O   -0.547562
     2  C    0.450119
     3  H    0.080942
     4  H   -0.082265
     5  H    0.080848
     6  C    0.061037
     7  N   -0.515425
     8  C    0.697641
     9  H   -0.277016
    10  C    0.169235
    11  H   -0.364698
    12  S    0.565757
    13  C   -0.318613
 Sum of Mulliken charges =  -0.00000

 Dipole moment (field-independent basis, Debye):
    X=             -2.3801    Y=              2.1013    Z=              0.0009  Tot=              3.1750

 Test job not archived.
 1\1\GINC-SE412\SP\RHF\Aug-CC-pVDZ\C5H5N1O1S1\OHZDE\09-Apr-2025\0\\#t h
 f aug-cc-pvdz iop(5/13=1,5/36=2,99/5=2) pseudo=read geom=check guess=(
 read,tcheck) scf=(maxcycle=1)\\title\\0,1\O,0,21.7654,-16.5574,-0.0001
 \C,0,21.0855,-18.8724,0.0007\H,0,21.2419,-19.5036,-0.8781\H,0,20.0767,
 -18.4582,0.0012\H,0,21.2428,-19.5037,0.8793\C,0,22.0813,-17.7407,0.000
 1\N,0,23.9572,-19.3792,0.\C,0,25.3178,-19.3949,0.0001\H,0,25.8468,-20.
 3411,0.0001\C,0,25.9258,-18.1493,0.\H,0,26.9844,-17.9244,0.0001\S,0,24
 .7499,-16.9153,0.\C,0,23.5166,-18.126,-0.0001\\Version=ES64L-G16RevC.0

 Normal termination of Gaussian 16 at Wed Apr  9 02:18:42 2025.
