 Gaussian 16, Revision C.01,

 ----------------------------------------------------------------------
 #t hf aug-cc-pvdz symm=none int=(grid=ultrafine) guess=(read,tcheck) s
 table=(opt,rrhf)
 ----------------------------------------------------------------------
 -----
 title
 -----
 Symbolic Z-matrix:
 Charge =  0 Multiplicity = 1

 SCF Done:  E(RHF) =  -796.902932782     A.U. after   17 cycles
 Normal termination of Gaussian 16 at Wed Apr  9 02:25:03 2025.
 Gaussian 16:  ES64L-G16RevC.01  3-Jul-2019

 ----------------------------------------------------------------------
 #t hf aug-cc-pvdz iop(5/13=1,5/36=2,99/5=2) pseudo=read geom=check gue
 ss=(read,tcheck) scf=(maxcycle=1)
 ----------------------------------------------------------------------
 -----
 title
 -----
 Structure from the checkpoint file:  "DCONF_55_-120_mol1.chk"
 Charge =  0 Multiplicity = 1

                         Standard orientation:
 ---------------------------------------------------------------------
 Center     Atomic      Atomic             Coordinates (Angstroms)
 Number     Number       Type             X           Y           Z
 ---------------------------------------------------------------------
      1          6           0       -1.430858    1.145376   -0.506486
      2          1           0       -0.917215    2.018074   -0.900829
      3          6           0       -2.826308    1.067354   -0.517921
      4          1           0       -3.408802    1.886746   -0.930733
      5          6           0       -3.474049   -0.059524    0.005733
      6          1           0       -4.559115   -0.117861   -0.004578
      7          6           0       -2.720401   -1.109318    0.544316
      8          1           0       -3.219425   -1.977261    0.967025
      9          6           0       -1.323685   -1.033569    0.563927
     10          1           0       -0.735951   -1.835201    1.005267
     11          6           0       -0.672371    0.086413    0.020297
     12          7           0        1.442543    1.183457    0.679729
     13          6           0        2.794419    0.987627    0.590454
     14          1           0        3.468943    1.708785    1.037945
     15          6           0        3.192473   -0.156793   -0.071835
     16          1           0        4.198223   -0.508874   -0.259844
     17         16           0        1.817442   -1.014537   -0.618763
     18          6           0        0.793527    0.201433    0.076161
 ---------------------------------------------------------------------

 SCF Done:  E(RHF) =  -797.038258719     A.U. after    2 cycles

 The electronic state is 1-A.
 Alpha  occ. eigenvalues --  -93.57804 -15.63807 -11.32744 -11.28327 -11.27597
 Alpha  occ. eigenvalues --  -11.26855 -11.25972 -11.25758 -11.25731 -11.25577
 Alpha  occ. eigenvalues --  -11.25495  -8.87677  -6.21794  -6.21667  -6.21321
 Alpha  occ. eigenvalues --   -1.25399  -1.15223  -1.05370  -1.04978  -1.01760
 Alpha  occ. eigenvalues --   -0.97254  -0.85255  -0.83990  -0.79078  -0.75741
 Alpha  occ. eigenvalues --   -0.70631  -0.68366  -0.64347  -0.63804  -0.60053
 Alpha  occ. eigenvalues --   -0.59480  -0.57906  -0.55595  -0.51572  -0.50933
 Alpha  occ. eigenvalues --   -0.50673  -0.50406  -0.42811  -0.39085  -0.36414
 Alpha  occ. eigenvalues --   -0.34788  -0.32081
 Alpha virt. eigenvalues --    0.03340   0.03528   0.04144   0.05069   0.05177
 Alpha virt. eigenvalues --    0.06160   0.07050   0.07708   0.08833   0.09758
 Alpha virt. eigenvalues --    0.10182   0.10508   0.11040   0.12025   0.12216

 Mulliken charges:
               1
     1  C    0.179242
     2  H   -0.523747
     3  C    0.352739
     4  H   -0.423086
     5  C    0.474914
     6  H   -0.436495
     7  C    0.324627
     8  H   -0.433376
     9  C    0.209230
    10  H   -0.558482
    11  C    1.548548
    12  N   -0.537481
    13  C    0.625187
    14  H   -0.276493
    15  C    0.148375
    16  H   -0.374403
    17  S    0.463661
    18  C   -0.762961
 Sum of Mulliken charges =   0.00000

 Dipole moment (field-independent basis, Debye):
    X=             -0.0427    Y=             -0.9703    Z=             -0.5496  Tot=              1.1159

 Test job not archived.
 1\1\GINC-SE029\SP\RHF\Aug-CC-pVDZ\C9H7N1S1\OHZDE\09-Apr-2025\0\\#t hf
 aug-cc-pvdz iop(5/13=1,5/36=2,99/5=2) pseudo=read geom=check guess=(re
 ad,tcheck) scf=(maxcycle=1)\\title\\0,1\C,0,21.8298,-21.141,-0.0049\H,
 0,22.3957,-20.2133,0.0033\C,0,20.4322,-21.1297,0.0043\H,0,19.9007,-20.
 1818,0.0147\C,0,19.7171,-22.3348,0.0061\H,0,18.6305,-22.3233,0.013\C,0
 ,20.4055,-23.5539,0.0012\H,0,19.8548,-24.4906,0.02\C,0,21.8043,-23.570
 9,-0.0017\H,0,22.3425,-24.5157,0.0211\C,0,22.5223,-22.3634,-0.0246\N,0
 ,24.7118,-21.7851,0.9668\C,0,26.0468,-21.9953,0.7489\H,0,26.7721,-21.5

 Normal termination of Gaussian 16 at Wed Apr  9 02:25:15 2025.
