 Gaussian 16, Revision C.01,

 ----------------------------------------------------------------------
 #t hf aug-cc-pvdz symm=none int=(grid=ultrafine) guess=(read,tcheck) s
 table=(opt,rrhf)
 ----------------------------------------------------------------------
 -----
 title
 -----
 Symbolic Z-matrix:
 Charge =  0 Multiplicity = 1

 SCF Done:  E(RHF) =  -703.107993134     A.U. after   16 cycles
 Normal termination of Gaussian 16 at Wed Apr  9 02:18:14 2025.
 Gaussian 16:  ES64L-G16RevC.01  3-Jul-2019

 ----------------------------------------------------------------------
 #t hf aug-cc-pvdz iop(5/13=1,5/36=2,99/5=2) pseudo=read geom=check gue
 ss=(read,tcheck) scf=(maxcycle=1)
 ----------------------------------------------------------------------
 -----
 title
 -----
 Structure from the checkpoint file:  "DCONF_24_-100_mol1.chk"
 Charge =  0 Multiplicity = 1

                         Standard orientation:
 ---------------------------------------------------------------------
 Center     Atomic      Atomic             Coordinates (Angstroms)
 Number     Number       Type             X           Y           Z
 ---------------------------------------------------------------------
      1          8           0       -2.272355    0.660030   -1.044482
      2          6           0       -2.276265   -0.548929    1.033799
      3          1           0       -2.028901    0.022734    1.934538
      4          1           0       -3.358037   -0.591358    0.897647
      5          1           0       -1.869453   -1.556102    1.170229
      6          6           0       -1.629249    0.127427   -0.154452
      7          6           0        0.599692    1.341220    0.240901
      8          1           0        0.137313    2.305960    0.421450
      9          6           0        1.992716    1.080366    0.319812
     10          1           0        2.743726    1.823237    0.564223
     11          6           0        2.295162   -0.239965    0.046339
     12          1           0        3.269538   -0.708396   -0.003302
     13         16           0        0.886572   -1.153881   -0.301113
     14          6           0       -0.132137    0.220843   -0.121586
 ---------------------------------------------------------------------

 SCF Done:  E(RHF) =  -703.222399262     A.U. after    2 cycles

 The electronic state is 1-A.
 Alpha  occ. eigenvalues --  -93.58109 -20.57610 -11.36343 -11.28877 -11.28670
 Alpha  occ. eigenvalues --  -11.26565 -11.26306 -11.25410  -8.87942  -6.22075
 Alpha  occ. eigenvalues --   -6.21935  -6.21583  -1.35903  -1.17632  -1.03804
 Alpha  occ. eigenvalues --   -0.99384  -0.98272  -0.83757  -0.77424  -0.72861
 Alpha  occ. eigenvalues --   -0.70319  -0.64516  -0.62896  -0.61602  -0.57828
 Alpha  occ. eigenvalues --   -0.56499  -0.55271  -0.53198  -0.51262  -0.48764
 Alpha  occ. eigenvalues --   -0.44465  -0.36119  -0.33961
 Alpha virt. eigenvalues --    0.03129   0.03915   0.04294   0.05645   0.06134
 Alpha virt. eigenvalues --    0.06310   0.08136   0.09106   0.09793   0.10959
 Alpha virt. eigenvalues --    0.11091   0.12176   0.12574   0.13417   0.13563

 Mulliken charges:
               1
     1  O   -0.528270
     2  C    0.328254
     3  H    0.070966
     4  H   -0.097988
     5  H    0.033742
     6  C   -0.192740
     7  C    0.372649
     8  H   -0.387950
     9  C    0.241768
    10  H   -0.301641
    11  C    0.040606
    12  H   -0.342489
    13  S    0.786655
    14  C   -0.023563
 Sum of Mulliken charges =  -0.00000

 Dipole moment (field-independent basis, Debye):
    X=              2.1128    Y=             -0.7697    Z=              2.9073  Tot=              3.6754

 Test job not archived.
 1\1\GINC-SE123\SP\RHF\Aug-CC-pVDZ\C6H6O1S1\OHZDE\09-Apr-2025\0\\#t hf
 aug-cc-pvdz iop(5/13=1,5/36=2,99/5=2) pseudo=read geom=check guess=(re
 ad,tcheck) scf=(maxcycle=1)\\title\\0,1\O,0,21.1341,-5.3894,0.886\C,0,
 21.445,-4.7154,-1.4009\H,0,21.5984,-5.5162,-2.132\H,0,20.3912,-4.4351,
 -1.3621\H,0,22.0541,-3.8647,-1.7231\C,0,21.901,-5.2108,-0.0464\C,0,23.
 8447,-6.8891,0.0094\H,0,23.2001,-7.7618,0.0097\C,0,25.2634,-6.9269,-0.
 0161\H,0,25.8533,-7.8365,-0.0321\C,0,25.8216,-5.6628,-0.0166\H,0,26.86
 93,-5.3923,0.0047\S,0,24.6203,-4.4396,0.0108\C,0,23.3473,-5.5959,0.058

 Normal termination of Gaussian 16 at Wed Apr  9 02:18:20 2025.
