 Gaussian 16, Revision C.01,

 ----------------------------------------------------------------------
 #t hf aug-cc-pvdz symm=none int=(grid=ultrafine) guess=(read,tcheck) s
 table=(opt,rrhf)
 ----------------------------------------------------------------------
 -----
 title
 -----
 Symbolic Z-matrix:
 Charge =  0 Multiplicity = 1

 SCF Done:  E(RHF) =  -758.167963940     A.U. after   16 cycles
 Normal termination of Gaussian 16 at Wed Apr  9 02:20:34 2025.
 Gaussian 16:  ES64L-G16RevC.01  3-Jul-2019

 ----------------------------------------------------------------------
 #t hf aug-cc-pvdz iop(5/13=1,5/36=2,99/5=2) pseudo=read geom=check gue
 ss=(read,tcheck) scf=(maxcycle=1)
 ----------------------------------------------------------------------
 -----
 title
 -----
 Structure from the checkpoint file:  "DCONF_38_0_mol1.chk"
 Charge =  0 Multiplicity = 1

                         Standard orientation:
 ---------------------------------------------------------------------
 Center     Atomic      Atomic             Coordinates (Angstroms)
 Number     Number       Type             X           Y           Z
 ---------------------------------------------------------------------
      1          6           0       -2.133714    0.162402   -0.044728
      2          7           0       -0.979536   -0.599602   -0.020078
      3          1           0       -1.091444   -1.580293    0.195531
      4          6           0        0.758730    1.226350    0.078548
      5          1           0        0.081587    2.067050    0.112863
      6          6           0        2.180087    1.308968    0.068533
      7          1           0        2.729371    2.242859    0.112220
      8          6           0        2.798065    0.079767    0.006668
      9          1           0        3.855393   -0.147629    0.006283
     10         16           0        1.649878   -1.199761   -0.056768
     11          6           0        0.325436   -0.087187    0.036254
     12          8           0       -2.129161    1.377837   -0.159135
     13          6           0       -3.408501   -0.645927    0.098832
     14          1           0       -3.277130   -1.701742   -0.150167
     15          1           0       -4.167791   -0.210257   -0.551691
     16          1           0       -3.758604   -0.565545    1.132229
 ---------------------------------------------------------------------

 SCF Done:  E(RHF) =  -758.300218713     A.U. after    2 cycles

 The electronic state is 1-A.
 Alpha  occ. eigenvalues --  -93.56937 -20.55036 -15.68307 -11.38302 -11.32212
 Alpha  occ. eigenvalues --  -11.26927 -11.26101 -11.25207 -11.23842  -8.86823
 Alpha  occ. eigenvalues --   -6.20971  -6.20830  -6.20450  -1.35998  -1.23498
 Alpha  occ. eigenvalues --   -1.14816  -1.02451  -0.98203  -0.95914  -0.83358
 Alpha  occ. eigenvalues --   -0.78824  -0.74311  -0.70684  -0.68663  -0.63857
 Alpha  occ. eigenvalues --   -0.63061  -0.60448  -0.57165  -0.56729  -0.56087
 Alpha  occ. eigenvalues --   -0.53484  -0.52001  -0.48289  -0.45535  -0.44768
 Alpha  occ. eigenvalues --   -0.35126  -0.30254
 Alpha virt. eigenvalues --    0.02800   0.03795   0.04626   0.05201   0.05465
 Alpha virt. eigenvalues --    0.06627   0.07723   0.08902   0.09090   0.10954
 Alpha virt. eigenvalues --    0.11765   0.12094   0.12628   0.12827   0.13634

 Mulliken charges:
               1
     1  C    0.245101
     2  N   -0.521474
     3  H   -0.050576
     4  C    0.408342
     5  H   -0.468923
     6  C    0.368576
     7  H   -0.320051
     8  C   -0.016867
     9  H   -0.358023
    10  S    0.757799
    11  C    0.155105
    12  O   -0.529647
    13  C    0.357614
    14  H   -0.107871
    15  H    0.014237
    16  H    0.066660
 Sum of Mulliken charges =   0.00000

 Dipole moment (field-independent basis, Debye):
    X=             -0.3931    Y=             -3.2549    Z=              0.6958  Tot=              3.3516

 Test job not archived.
 1\1\GINC-SE070\SP\RHF\Aug-CC-pVDZ\C6H7N1O1S1\OHZDE\09-Apr-2025\0\\#t h
 f aug-cc-pvdz iop(5/13=1,5/36=2,99/5=2) pseudo=read geom=check guess=(
 read,tcheck) scf=(maxcycle=1)\\title\\0,1\C,0,28.2598,-5.378,0.0923\N,
 0,29.4598,-4.6926,0.0322\H,0,29.4092,-3.717,-0.2255\C,0,31.0784,-6.627
 8,0.0092\H,0,30.3492,-7.4245,0.0128\C,0,32.4917,-6.8,0.0198\H,0,32.980
 5,-7.7679,0.0155\C,0,33.1866,-5.611,0.027\H,0,34.2562,-5.4514,0.0153\S
 ,0,32.1221,-4.2596,0.0373\C,0,30.7294,-5.2888,-0.0046\O,0,28.1879,-6.5
 852,0.2593\C,0,27.0381,-4.4973,-0.0835\H,0,27.2373,-3.4422,0.1192\H,0,

 Normal termination of Gaussian 16 at Wed Apr  9 02:20:42 2025.
