 Gaussian 16, Revision C.01,

 ----------------------------------------------------------------------
 #t hf aug-cc-pvdz symm=none int=(grid=ultrafine) guess=(read,tcheck) s
 table=(opt,rrhf)
 ----------------------------------------------------------------------
 -----
 title
 -----
 Symbolic Z-matrix:
 Charge =  0 Multiplicity = 1

 SCF Done:  E(RHF) =  -780.897781432     A.U. after   17 cycles

 1\1\GINC-SE423\Stability\RHF\Aug-CC-pVDZ\C10H8S1\OHZDE\09-Apr-2025\0\\
 #t hf aug-cc-pvdz symm=none int=(grid=ultrafine) guess=(read,tcheck) s
 table=(opt,rrhf)\\title\\0,1\C,0,21.7692,-10.9442,-0.0045\H,0,22.2917,
 -11.8978,-0.0271\C,0,20.3716,-10.9317,0.0058\H,0,19.8265,-11.8718,-0.0
 111\C,0,19.6772,-9.7162,-0.0127\H,0,18.5907,-9.705,-0.0158\C,0,20.3965
 ,-8.5146,-0.0037\H,0,19.8696,-7.564,-0.0155\C,0,21.7938,-8.5267,0.0051
 \H,0,22.3364,-7.5859,0.0396\C,0,22.5048,-9.7429,0.035\C,0,24.8296,-8.6
 893,-0.3016\H,0,24.4778,-7.7203,-0.6384\C,0,26.1979,-9.0227,-0.1496\H,

 Normal termination of Gaussian 16 at Wed Apr  9 02:23:44 2025.
 Gaussian 16:  ES64L-G16RevC.01  3-Jul-2019

 ----------------------------------------------------------------------
 #t hf aug-cc-pvdz iop(5/13=1,5/36=2,99/5=2) pseudo=read geom=check gue
 ss=(read,tcheck) scf=(maxcycle=1)
 ----------------------------------------------------------------------
 -----
 title
 -----
 Structure from the checkpoint file:  "DCONF_51_-10_mol1.chk"
 Charge =  0 Multiplicity = 1

                         Standard orientation:
 ---------------------------------------------------------------------
 Center     Atomic      Atomic             Coordinates (Angstroms)
 Number     Number       Type             X           Y           Z
 ---------------------------------------------------------------------
      1          6           0        1.338499   -1.129515    0.204801
      2          1           0        0.754064   -2.030050    0.378991
      3          6           0        2.732875   -1.217563    0.165954
      4          1           0        3.213907   -2.181140    0.312025
      5          6           0        3.507537   -0.064755   -0.009849
      6          1           0        4.591958   -0.130108   -0.029287
      7          6           0        2.870558    1.170301   -0.183660
      8          1           0        3.460193    2.072623   -0.323477
      9          6           0        1.475945    1.255914   -0.163762
     10          1           0        0.996935    2.217416   -0.327386
     11          6           0        0.684345    0.101913    0.001192
     12          6           0       -1.553574    1.355342    0.221877
     13          1           0       -1.127764    2.335992    0.404007
     14          6           0       -2.945047    1.100854    0.147423
     15          1           0       -3.714308    1.857552    0.255835
     16          6           0       -3.223168   -0.236909   -0.068427
     17          1           0       -4.190245   -0.716269   -0.150093
     18         16           0       -1.790707   -1.167999   -0.184510
     19          6           0       -0.776877    0.208078    0.089706
 ---------------------------------------------------------------------

 SCF Done:  E(RHF) =  -781.029815624     A.U. after    2 cycles

 The electronic state is 1-A.
 Alpha  occ. eigenvalues --  -93.56568 -11.28259 -11.27456 -11.26810 -11.25296
 Alpha  occ. eigenvalues --  -11.25277 -11.25273 -11.25167 -11.25144 -11.25059
 Alpha  occ. eigenvalues --  -11.25020  -8.86427  -6.20570  -6.20431  -6.20073
 Alpha  occ. eigenvalues --   -1.17227  -1.13988  -1.04166  -1.01470  -0.98085
 Alpha  occ. eigenvalues --   -0.95895  -0.84191  -0.83585  -0.75945  -0.74819
 Alpha  occ. eigenvalues --   -0.71490  -0.67771  -0.63511  -0.63363  -0.59626
 Alpha  occ. eigenvalues --   -0.58308  -0.55996  -0.54417  -0.53296  -0.51130
 Alpha  occ. eigenvalues --   -0.50303  -0.49965  -0.46918  -0.38061  -0.35167
 Alpha  occ. eigenvalues --   -0.34345  -0.29041
 Alpha virt. eigenvalues --    0.03391   0.03607   0.04041   0.04925   0.05250
 Alpha virt. eigenvalues --    0.05902   0.06733   0.07103   0.07776   0.09572
 Alpha virt. eigenvalues --    0.10125   0.10927   0.11361   0.11819   0.12242

 Mulliken charges:
               1
     1  C    0.372306
     2  H   -0.550703
     3  C    0.380662
     4  H   -0.433315
     5  C    0.494069
     6  H   -0.429055
     7  C    0.335132
     8  H   -0.439204
     9  C    0.584494
    10  H   -0.565241
    11  C    0.622627
    12  C    0.648090
    13  H   -0.498159
    14  C    0.261333
    15  H   -0.345249
    16  C   -0.116023
    17  H   -0.376828
    18  S    0.712516
    19  C   -0.657450
 Sum of Mulliken charges =   0.00000

 Dipole moment (field-independent basis, Debye):
    X=              0.0495    Y=              0.6760    Z=              0.0983  Tot=              0.6849

 Test job not archived.
 1\1\GINC-SE423\SP\RHF\Aug-CC-pVDZ\C10H8S1\OHZDE\09-Apr-2025\0\\#t hf a
 ug-cc-pvdz iop(5/13=1,5/36=2,99/5=2) pseudo=read geom=check guess=(rea
 d,tcheck) scf=(maxcycle=1)\\title\\0,1\C,0,21.7692,-10.9442,-0.0045\H,
 0,22.2917,-11.8978,-0.0271\C,0,20.3716,-10.9317,0.0058\H,0,19.8265,-11
 .8718,-0.0111\C,0,19.6772,-9.7162,-0.0127\H,0,18.5907,-9.705,-0.0158\C
 ,0,20.3965,-8.5146,-0.0037\H,0,19.8696,-7.564,-0.0155\C,0,21.7938,-8.5
 267,0.0051\H,0,22.3364,-7.5859,0.0396\C,0,22.5048,-9.7429,0.035\C,0,24
 .8296,-8.6893,-0.3016\H,0,24.4778,-7.7203,-0.6384\C,0,26.1979,-9.0227,

 Normal termination of Gaussian 16 at Wed Apr  9 02:23:56 2025.
