 Gaussian 16, Revision C.01,

 ----------------------------------------------------------------------
 #t hf aug-cc-pvdz symm=none int=(grid=ultrafine) guess=(read,tcheck) s
 table=(opt,rrhf)
 ----------------------------------------------------------------------
 -----
 title
 -----
 Symbolic Z-matrix:
 Charge =  0 Multiplicity = 1

 SCF Done:  E(RHF) =  -812.895772122     A.U. after   17 cycles
 Normal termination of Gaussian 16 at Wed Apr  9 02:26:28 2025.
 Gaussian 16:  ES64L-G16RevC.01  3-Jul-2019

 ----------------------------------------------------------------------
 #t hf aug-cc-pvdz iop(5/13=1,5/36=2,99/5=2) pseudo=read geom=check gue
 ss=(read,tcheck) scf=(maxcycle=1)
 ----------------------------------------------------------------------
 -----
 title
 -----
 Structure from the checkpoint file:  "DCONF_56_0_mol1.chk"
 Charge =  0 Multiplicity = 1

                         Standard orientation:
 ---------------------------------------------------------------------
 Center     Atomic      Atomic             Coordinates (Angstroms)
 Number     Number       Type             X           Y           Z
 ---------------------------------------------------------------------
      1          6           0        1.326853   -1.147038   -0.000146
      2          1           0        0.743137   -2.063623   -0.000146
      3          6           0        2.720098   -1.207255   -0.000146
      4          1           0        3.228520   -2.167583   -0.000146
      5          6           0        3.442117   -0.010849   -0.000046
      6          1           0        4.527935   -0.003739   -0.000046
      7          6           0        2.724646    1.191162   -0.000146
      8          1           0        3.250017    2.144517   -0.000046
      9          7           0        1.385808    1.270582   -0.000246
     10          6           0        0.697014    0.111334   -0.000246
     11          7           0       -1.430957    1.375169    0.000454
     12          6           0       -2.777307    1.160771    0.000654
     13          1           0       -3.453795    2.008127    0.001154
     14          6           0       -3.177244   -0.161511    0.000354
     15          1           0       -4.181398   -0.564430    0.000354
     16         16           0       -1.805478   -1.178464   -0.000246
     17          6           0       -0.774633    0.227036   -0.000046
 ---------------------------------------------------------------------

 SCF Done:  E(RHF) =  -813.034235837     A.U. after    2 cycles

 The electronic state is 1-A.
 Alpha  occ. eigenvalues --  -93.58017 -15.63965 -15.63833 -11.32718 -11.31140
 Alpha  occ. eigenvalues --  -11.29474 -11.28388 -11.27965 -11.27951 -11.26626
 Alpha  occ. eigenvalues --  -11.26218  -8.87911  -6.22034  -6.21915  -6.21548
 Alpha  occ. eigenvalues --   -1.26099  -1.23099  -1.08577  -1.06219  -1.05321
 Alpha  occ. eigenvalues --   -0.98279  -0.87653  -0.86893  -0.79290  -0.76834
 Alpha  occ. eigenvalues --   -0.71196  -0.68508  -0.67335  -0.64828  -0.60082
 Alpha  occ. eigenvalues --   -0.58250  -0.58161  -0.57065  -0.53700  -0.53643
 Alpha  occ. eigenvalues --   -0.50367  -0.43158  -0.41724  -0.40333  -0.38458
 Alpha  occ. eigenvalues --   -0.38074  -0.31195
 Alpha virt. eigenvalues --    0.02903   0.03330   0.04157   0.05035   0.05225
 Alpha virt. eigenvalues --    0.05449   0.06730   0.08419   0.09778   0.10057
 Alpha virt. eigenvalues --    0.10161   0.11360   0.11667   0.12149   0.12629

 Mulliken charges:
               1
     1  C    0.907081
     2  H   -0.524483
     3  C   -0.338396
     4  H   -0.392802
     5  C    0.913021
     6  H   -0.405275
     7  C    0.338292
     8  H   -0.399562
     9  N   -0.465156
    10  C    0.360081
    11  N   -0.541449
    12  C    0.831492
    13  H   -0.305250
    14  C    0.060863
    15  H   -0.394244
    16  S    0.592164
    17  C   -0.236377
 Sum of Mulliken charges =  -0.00000

 Dipole moment (field-independent basis, Debye):
    X=              0.7301    Y=             -2.8137    Z=              0.0001  Tot=              2.9069

 Test job not archived.
 1\1\GINC-SE041\SP\RHF\Aug-CC-pVDZ\C8H6N2S1\OHZDE\09-Apr-2025\0\\#t hf
 aug-cc-pvdz iop(5/13=1,5/36=2,99/5=2) pseudo=read geom=check guess=(re
 ad,tcheck) scf=(maxcycle=1)\\title\\0,1\C,0,30.1194,-21.0939,0.\H,0,30
 .6706,-20.1574,0.\C,0,28.7249,-21.0826,0.\H,0,28.1831,-20.1407,0.\C,0,
 28.0453,-22.3036,0.0001\H,0,26.9604,-22.3488,0.0001\C,0,28.8045,-23.47
 97,0.\H,0,28.3129,-24.4509,0.0001\N,0,30.1453,-23.5121,-0.0001\C,0,30.
 793,-22.3294,-0.0001\N,0,32.964,-23.5178,0.0006\C,0,34.302,-23.2563,0.
 0008\H,0,35.0078,-24.0794,0.0013\C,0,34.6553,-21.9208,0.0005\H,0,35.64

 Normal termination of Gaussian 16 at Wed Apr  9 02:26:39 2025.
