 Gaussian 16, Revision C.01,

 ----------------------------------------------------------------------
 #t hf aug-cc-pvdz symm=none int=(grid=ultrafine) guess=(read,tcheck) s
 table=(opt,rrhf)
 ----------------------------------------------------------------------
 -----
 title
 -----
 Symbolic Z-matrix:
 Charge =  0 Multiplicity = 1

 SCF Done:  E(RHF) =  -681.467035454     A.U. after   13 cycles
 Normal termination of Gaussian 16 at Wed Apr  9 02:17:20 2025.
 Gaussian 16:  ES64L-G16RevC.01  3-Jul-2019

 ----------------------------------------------------------------------
 #t hf aug-cc-pvdz iop(5/13=1,5/36=2,99/5=2) pseudo=read geom=check gue
 ss=(read,tcheck) scf=(maxcycle=1)
 ----------------------------------------------------------------------
 -----
 title
 -----
 Structure from the checkpoint file:  "DCONF_16_170_mol1.chk"
 Charge =  0 Multiplicity = 1

                         Standard orientation:
 ---------------------------------------------------------------------
 Center     Atomic      Atomic             Coordinates (Angstroms)
 Number     Number       Type             X           Y           Z
 ---------------------------------------------------------------------
      1          6           0        1.695915    0.971971   -0.257031
      2          1           0        1.544528    1.459744   -1.218786
      3          1           0        1.712444    1.691731    0.561852
      4          1           0        2.618288    0.389044   -0.257069
      5         16           0        0.380894   -0.190151    0.018444
      6          8           0        0.229409   -1.056168   -1.137825
      7          7           0       -0.943328    0.856688   -0.001544
      8          1           0       -0.888188    1.427303    0.841516
      9          8           0        0.580796   -0.767177    1.343710
     10          6           0       -2.238726    0.146604   -0.027684
     11          1           0       -2.312167   -0.409239   -0.962176
     12          1           0       -2.366637   -0.540567    0.815599
     13          1           0       -3.024047    0.902888   -0.004016
 ---------------------------------------------------------------------

 SCF Done:  E(RHF) =  -681.633685524     A.U. after    2 cycles

 The electronic state is 1-A.
 Alpha  occ. eigenvalues --  -93.80074 -20.56041 -20.55961 -15.67191 -11.29078
 Alpha  occ. eigenvalues --  -11.28475  -9.06529  -6.41144  -6.41015  -6.40887
 Alpha  occ. eigenvalues --   -1.42608  -1.30391  -1.20518  -1.04557  -0.93929
 Alpha  occ. eigenvalues --   -0.82512  -0.73040  -0.68678  -0.68288  -0.64687
 Alpha  occ. eigenvalues --   -0.62204  -0.61090  -0.58324  -0.57346  -0.52903
 Alpha  occ. eigenvalues --   -0.51813  -0.49670  -0.47671  -0.43296
 Alpha virt. eigenvalues --    0.02748   0.03770   0.04730   0.05396   0.06649
 Alpha virt. eigenvalues --    0.06962   0.07793   0.10989   0.12301   0.12637
 Alpha virt. eigenvalues --    0.13836   0.14186   0.15222   0.15887   0.16302

 Mulliken charges:
               1
     1  C    0.053905
     2  H    0.040688
     3  H   -0.020133
     4  H    0.046718
     5  S    2.626667
     6  O   -1.081851
     7  N   -1.006500
     8  H    0.064038
     9  O   -1.078623
    10  C    0.692382
    11  H   -0.086622
    12  H   -0.054558
    13  H   -0.196112
 Sum of Mulliken charges =  -0.00000

 Dipole moment (field-independent basis, Debye):
    X=             -0.5481    Y=              4.5843    Z=              0.3020  Tot=              4.6268

 Test job not archived.
 1\1\GINC-SE403\SP\RHF\Aug-CC-pVDZ\C2H7N1O2S1\OHZDE\09-Apr-2025\0\\#t h
 f aug-cc-pvdz iop(5/13=1,5/36=2,99/5=2) pseudo=read geom=check guess=(
 read,tcheck) scf=(maxcycle=1)\\title\\0,1\C,0,-1.0853,-1.4007,-0.6377\
 H,0,-0.8536,-0.7863,0.231\H,0,-0.3906,-1.2175,-1.4579\H,0,-2.1092,-1.2
 295,-0.9737\S,0,-1.,-3.1142,-0.1769\O,0,-1.7887,-3.3493,1.02\N,0,0.616
 8,-3.2087,0.2994\H,0,1.1842,-3.113,-0.5422\O,0,-1.245,-3.9012,-1.381\C
 ,0,0.9465,-4.4837,0.9692\H,0,0.3809,-4.545,1.8987\H,0,0.7268,-5.3607,0
 .3509\H,0,2.0111,-4.461,1.2045\\Version=ES64L-G16RevC.01\State=1-A\HF=

 Normal termination of Gaussian 16 at Wed Apr  9 02:17:24 2025.
