 Gaussian 16, Revision C.01,

 ----------------------------------------------------------------------
 #t hf aug-cc-pvdz symm=none int=(grid=ultrafine) guess=(read,tcheck) s
 table=(opt,rrhf)
 ----------------------------------------------------------------------
 -----
 title
 -----
 Symbolic Z-matrix:
 Charge =  0 Multiplicity = 1

 SCF Done:  E(RHF) =  -719.119352136     A.U. after   16 cycles
 Normal termination of Gaussian 16 at Wed Apr  9 02:18:44 2025.
 Gaussian 16:  ES64L-G16RevC.01  3-Jul-2019

 ----------------------------------------------------------------------
 #t hf aug-cc-pvdz iop(5/13=1,5/36=2,99/5=2) pseudo=read geom=check gue
 ss=(read,tcheck) scf=(maxcycle=1)
 ----------------------------------------------------------------------
 -----
 title
 -----
 Structure from the checkpoint file:  "DCONF_28_-30_mol1.chk"
 Charge =  0 Multiplicity = 1

                         Standard orientation:
 ---------------------------------------------------------------------
 Center     Atomic      Atomic             Coordinates (Angstroms)
 Number     Number       Type             X           Y           Z
 ---------------------------------------------------------------------
      1          8           0       -1.963114   -1.280345   -0.372174
      2          6           0       -2.506302    0.976273    0.286032
      3          1           0       -2.216653    1.893916   -0.230880
      4          1           0       -3.534076    0.697787    0.050555
      5          1           0       -2.408163    1.164131    1.360586
      6          6           0       -1.580896   -0.154389   -0.082842
      7          7           0        0.400225    1.346049   -0.178373
      8          6           0        1.759607    1.271112   -0.162538
      9          1           0        2.350607    2.169965   -0.296533
     10          6           0        2.282795    0.002310    0.027030
     11          1           0        3.323321   -0.287168    0.095595
     12         16           0        1.025081   -1.139437    0.173564
     13          6           0       -0.124037    0.140157    0.010592
 ---------------------------------------------------------------------

 SCF Done:  E(RHF) =  -719.236633924     A.U. after    2 cycles

 The electronic state is 1-A.
 Alpha  occ. eigenvalues --  -93.59448 -20.57953 -15.66412 -11.36733 -11.33250
 Alpha  occ. eigenvalues --  -11.29725 -11.29594 -11.25053  -8.89271  -6.23362
 Alpha  occ. eigenvalues --   -6.23250  -6.22903  -1.36416  -1.27004  -1.07227
 Alpha  occ. eigenvalues --   -1.04531  -0.99322  -0.85908  -0.80567  -0.73019
 Alpha  occ. eigenvalues --   -0.70788  -0.64924  -0.63691  -0.62432  -0.58972
 Alpha  occ. eigenvalues --   -0.57206  -0.55400  -0.52322  -0.51602  -0.47159
 Alpha  occ. eigenvalues --   -0.43684  -0.40266  -0.35294
 Alpha virt. eigenvalues --    0.02986   0.03850   0.04438   0.04653   0.05844
 Alpha virt. eigenvalues --    0.06969   0.07913   0.09605   0.10404   0.11069
 Alpha virt. eigenvalues --    0.11774   0.12050   0.12880   0.13282   0.13734

 Mulliken charges:
               1
     1  O   -0.543760
     2  C    0.389619
     3  H    0.060682
     4  H   -0.066801
     5  H    0.085407
     6  C    0.065984
     7  N   -0.498718
     8  C    0.655713
     9  H   -0.263620
    10  C    0.163487
    11  H   -0.361253
    12  S    0.551946
    13  C   -0.238685
 Sum of Mulliken charges =  -0.00000

 Dipole moment (field-independent basis, Debye):
    X=              2.3143    Y=              1.9602    Z=              1.0223  Tot=              3.2005

 Test job not archived.
 1\1\GINC-SE054\SP\RHF\Aug-CC-pVDZ\C5H5N1O1S1\OHZDE\09-Apr-2025\0\\#t h
 f aug-cc-pvdz iop(5/13=1,5/36=2,99/5=2) pseudo=read geom=check guess=(
 read,tcheck) scf=(maxcycle=1)\\title\\0,1\O,0,21.7614,-16.6433,0.4703\
 C,0,21.0972,-18.7505,-0.4988\H,0,21.3087,-19.7461,-0.1023\H,0,20.0819,
 -18.4357,-0.2551\H,0,21.2207,-18.801,-1.5859\C,0,22.0801,-17.7447,0.04
 26\N,0,23.9557,-19.377,-0.0122\C,0,25.3168,-19.3941,0.0178\H,0,25.8435
 ,-20.3412,0.0454\C,0,25.9271,-18.1503,0.014\H,0,26.9859,-17.9264,0.012
 2\S,0,24.7516,-16.9156,-0.0109\C,0,23.5173,-18.1236,-0.0513\\Version=E

 Normal termination of Gaussian 16 at Wed Apr  9 02:18:50 2025.
