 Gaussian 16, Revision C.01,

 ----------------------------------------------------------------------
 #t hf aug-cc-pvdz symm=none int=(grid=ultrafine) guess=(read,tcheck) s
 table=(opt,rrhf)
 ----------------------------------------------------------------------
 -----
 title
 -----
 Symbolic Z-matrix:
 Charge =  0 Multiplicity = 1

 SCF Done:  E(RHF) =  -812.898070409     A.U. after   16 cycles
 Normal termination of Gaussian 16 at Wed Apr  9 02:25:19 2025.
 Gaussian 16:  ES64L-G16RevC.01  3-Jul-2019

 ----------------------------------------------------------------------
 #t hf aug-cc-pvdz iop(5/13=1,5/36=2,99/5=2) pseudo=read geom=check gue
 ss=(read,tcheck) scf=(maxcycle=1)
 ----------------------------------------------------------------------
 -----
 title
 -----
 Structure from the checkpoint file:  "DCONF_56_-120_mol1.chk"
 Charge =  0 Multiplicity = 1

                         Standard orientation:
 ---------------------------------------------------------------------
 Center     Atomic      Atomic             Coordinates (Angstroms)
 Number     Number       Type             X           Y           Z
 ---------------------------------------------------------------------
      1          6           0       -1.469995    1.133524   -0.541572
      2          1           0       -0.979291    2.005890   -0.962445
      3          6           0       -2.860066    1.022853   -0.491249
      4          1           0       -3.493172    1.813264   -0.885206
      5          6           0       -3.417770   -0.128402    0.073826
      6          1           0       -4.493666   -0.261844    0.136683
      7          6           0       -2.557915   -1.114121    0.570292
      8          1           0       -2.958039   -2.018611    1.023905
      9          7           0       -1.216896   -1.021144    0.542974
     10          6           0       -0.693852    0.086858   -0.020137
     11          7           0        1.402485    1.220730    0.609895
     12          6           0        2.754328    1.017163    0.572091
     13          1           0        3.418596    1.752729    1.011496
     14          6           0        3.164765   -0.156421   -0.030991
     15          1           0        4.173948   -0.518866   -0.176068
     16         16           0        1.804438   -1.039978   -0.569645
     17          6           0        0.774086    0.216876    0.017054
 ---------------------------------------------------------------------

 SCF Done:  E(RHF) =  -813.036945211     A.U. after    2 cycles

 The electronic state is 1-A.
 Alpha  occ. eigenvalues --  -93.57721 -15.64512 -15.64065 -11.32478 -11.30900
 Alpha  occ. eigenvalues --  -11.29643 -11.28200 -11.27906 -11.27631 -11.26280
 Alpha  occ. eigenvalues --  -11.26277  -8.87585  -6.21694  -6.21573  -6.21224
 Alpha  occ. eigenvalues --   -1.26085  -1.23304  -1.08476  -1.06191  -1.05072
 Alpha  occ. eigenvalues --   -0.98241  -0.87492  -0.86767  -0.79301  -0.76883
 Alpha  occ. eigenvalues --   -0.70778  -0.68640  -0.67598  -0.64250  -0.59952
 Alpha  occ. eigenvalues --   -0.59303  -0.58264  -0.55391  -0.53990  -0.53181
 Alpha  occ. eigenvalues --   -0.50381  -0.43804  -0.42308  -0.39523  -0.38466
 Alpha  occ. eigenvalues --   -0.36704  -0.32463
 Alpha virt. eigenvalues --    0.03025   0.03526   0.04054   0.05173   0.05373
 Alpha virt. eigenvalues --    0.06467   0.07094   0.08247   0.08810   0.09680
 Alpha virt. eigenvalues --    0.10421   0.10792   0.11347   0.12024   0.12247

 Mulliken charges:
               1
     1  C    0.865432
     2  H   -0.467648
     3  C   -0.448582
     4  H   -0.385231
     5  C    0.909841
     6  H   -0.409212
     7  C    0.503395
     8  H   -0.371237
     9  N   -0.436794
    10  C    0.385497
    11  N   -0.580264
    12  C    0.749396
    13  H   -0.276817
    14  C    0.127572
    15  H   -0.366471
    16  S    0.486037
    17  C   -0.284916
 Sum of Mulliken charges =  -0.00000

 Dipole moment (field-independent basis, Debye):
    X=             -1.0459    Y=              0.3545    Z=             -1.2465  Tot=              1.6653

 Test job not archived.
 1\1\GINC-SE364\SP\RHF\Aug-CC-pVDZ\C8H6N2S1\OHZDE\09-Apr-2025\0\\#t hf
 aug-cc-pvdz iop(5/13=1,5/36=2,99/5=2) pseudo=read geom=check guess=(re
 ad,tcheck) scf=(maxcycle=1)\\title\\0,1\C,0,30.1275,-21.0949,-0.0154\H
 ,0,30.7105,-20.1789,-0.0137\C,0,28.7324,-21.0802,0.0082\H,0,28.1886,-2
 0.1395,0.02\C,0,28.0522,-22.3021,0.0128\H,0,26.9672,-22.3439,0.0312\C,
 0,28.8002,-23.4844,0.0013\H,0,28.3034,-24.4524,0.0128\N,0,30.1442,-23.
 5203,-0.0086\C,0,30.7857,-22.3344,-0.03\N,0,32.9646,-21.8097,0.9968\C,
 0,34.2911,-22.106,0.8453\H,0,35.0116,-21.7114,1.5528\C,0,34.602,-22.92

 Normal termination of Gaussian 16 at Wed Apr  9 02:25:29 2025.
