 Gaussian 16, Revision C.01,

 ----------------------------------------------------------------------
 #t hf aug-cc-pvdz symm=none int=(grid=ultrafine) guess=(read,tcheck) s
 table=(opt,rrhf)
 ----------------------------------------------------------------------
 -----
 title
 -----
 Symbolic Z-matrix:
 Charge =  0 Multiplicity = 1

 SCF Done:  E(RHF) =  -217.134794776     A.U. after   12 cycles
 Normal termination of Gaussian 16 at Wed Apr  9 02:25:08 2025.
 Gaussian 16:  ES64L-G16RevC.01  3-Jul-2019

 ----------------------------------------------------------------------
 #t hf aug-cc-pvdz iop(5/13=1,5/36=2,99/5=2) pseudo=read geom=check gue
 ss=(read,tcheck) scf=(maxcycle=1)
 ----------------------------------------------------------------------
 -----
 title
 -----
 Structure from the checkpoint file:  "DCONF_7_10_mol1.chk"
 Charge =  0 Multiplicity = 1

                         Standard orientation:
 ---------------------------------------------------------------------
 Center     Atomic      Atomic             Coordinates (Angstroms)
 Number     Number       Type             X           Y           Z
 ---------------------------------------------------------------------
      1          9           0        1.240285   -0.769063   -0.036638
      2          6           0        0.882983    0.580048    0.050455
      3          1           0        1.410442    1.101933   -0.751141
      4          1           0        1.262395    0.932139    1.013092
      5          6           0       -0.640856    0.767056   -0.048426
      6          1           0       -0.883046    1.262792   -0.993753
      7          1           0       -0.965071    1.439537    0.751642
      8          6           0       -1.425970   -0.545546    0.026947
      9          1           0       -1.154693   -1.212055   -0.793155
     10          1           0       -1.231881   -1.074122    0.963348
     11          1           0       -2.497655   -0.338000   -0.034146
 ---------------------------------------------------------------------

 SCF Done:  E(RHF) =  -217.209729236     A.U. after    2 cycles

 The electronic state is 1-A.
 Alpha  occ. eigenvalues --  -26.09473 -11.31720 -11.24101 -11.22596  -1.62635
 Alpha  occ. eigenvalues --   -1.05556  -0.94381  -0.82490  -0.73851  -0.73329
 Alpha  occ. eigenvalues --   -0.68678  -0.62191  -0.57437  -0.54701  -0.51182
 Alpha  occ. eigenvalues --   -0.49075  -0.47535
 Alpha virt. eigenvalues --    0.03492   0.04728   0.04851   0.05342   0.07232
 Alpha virt. eigenvalues --    0.07354   0.08000   0.10990   0.12530   0.14273
 Alpha virt. eigenvalues --    0.15071   0.15564   0.16823   0.16884   0.17198

 Mulliken charges:
               1
     1  F   -0.430016
     2  C    0.803489
     3  H   -0.118973
     4  H   -0.123762
     5  C   -0.204198
     6  H   -0.074069
     7  H   -0.049416
     8  C    0.382146
     9  H   -0.042705
    10  H   -0.064193
    11  H   -0.078303
 Sum of Mulliken charges =  -0.00000

 Dipole moment (field-independent basis, Debye):
    X=             -0.8253    Y=              2.0722    Z=              0.1140  Tot=              2.2334

 Test job not archived.
 1\1\GINC-SE188\SP\RHF\Aug-CC-pVDZ\C3H7F1\OHZDE\09-Apr-2025\0\\#t hf au
 g-cc-pvdz iop(5/13=1,5/36=2,99/5=2) pseudo=read geom=check guess=(read
 ,tcheck) scf=(maxcycle=1)\\title\\0,1\F,0,13.2427,-26.4697,0.005\C,0,1
 4.3984,-25.6825,0.0001\H,0,14.3471,-25.0354,0.8786\H,0,14.3401,-25.064
 8,-0.8997\C,0,15.6701,-26.5483,-0.0015\H,0,16.1822,-26.4392,0.9597\H,0
 ,16.3533,-26.1679,-0.767\C,0,15.3987,-28.0362,-0.2413\H,0,14.7594,-28.
 4489,0.5406\H,0,14.9013,-28.2023,-1.1999\H,0,16.343,-28.5872,-0.2447\\
 Version=ES64L-G16RevC.01\State=1-A\HF=-217.2097292\RMSD=4.925e-03\Dipo

 Normal termination of Gaussian 16 at Wed Apr  9 02:25:11 2025.
