 Gaussian 16, Revision C.01,

 ----------------------------------------------------------------------
 #t hf aug-cc-pvdz symm=none int=(grid=ultrafine) guess=(read,tcheck) s
 table=(opt,rrhf)
 ----------------------------------------------------------------------
 -----
 title
 -----
 Symbolic Z-matrix:
 Charge =  0 Multiplicity = 1

 SCF Done:  E(RHF) =  -559.159529121     A.U. after   17 cycles

 1\1\GINC-SE143\Stability\RHF\Aug-CC-pVDZ\C12H9F1\OHZDE\09-Apr-2025\0\\
 #t hf aug-cc-pvdz symm=none int=(grid=ultrafine) guess=(read,tcheck) s
 table=(opt,rrhf)\\title\\0,1\C,0,12.8425,-32.1539,-0.2418\H,0,13.3992,
 -31.2547,-0.4938\C,0,11.4459,-32.1108,-0.1972\H,0,10.9291,-31.1762,-0.
 399\C,0,10.7158,-33.2747,0.0708\H,0,9.6299,-33.2457,0.1001\C,0,11.3961
 ,-34.4759,0.3034\H,0,10.8378,-35.3858,0.5083\C,0,12.7931,-34.5221,0.25
 94\H,0,13.3038,-35.4582,0.4571\C,0,13.538,-33.3513,0.0187\C,0,17.1431,
 -32.2269,0.4526\H,0,17.6683,-31.3604,0.8441\C,0,15.7463,-32.253,0.4555

 Normal termination of Gaussian 16 at Wed Apr  9 02:26:04 2025.
 Gaussian 16:  ES64L-G16RevC.01  3-Jul-2019

 ----------------------------------------------------------------------
 #t hf aug-cc-pvdz iop(5/13=1,5/36=2,99/5=2) pseudo=read geom=check gue
 ss=(read,tcheck) scf=(maxcycle=1)
 ----------------------------------------------------------------------
 -----
 title
 -----
 Structure from the checkpoint file:  "DCONF_47_30_mol1.chk"
 Charge =  0 Multiplicity = 1

                         Standard orientation:
 ---------------------------------------------------------------------
 Center     Atomic      Atomic             Coordinates (Angstroms)
 Number     Number       Type             X           Y           Z
 ---------------------------------------------------------------------
      1          6           0        1.579432   -1.234283   -0.457561
      2          1           0        1.059896   -2.094364   -0.872679
      3          6           0        2.977187   -1.211739   -0.446969
      4          1           0        3.532587   -2.059847   -0.838794
      5          6           0        3.657559   -0.086527    0.033159
      6          1           0        4.743991   -0.063523    0.037017
      7          6           0        2.926932    1.007927    0.510806
      8          1           0        3.446248    1.887834    0.881853
      9          6           0        1.528645    0.988279    0.501423
     10          1           0        0.979150    1.838982    0.889419
     11          6           0        0.834583   -0.149839    0.046946
     12          6           0       -2.698848   -1.525806    0.313162
     13          1           0       -3.170711   -2.478815    0.534633
     14          6           0       -1.305377   -1.427298    0.296576
     15          1           0       -0.703378   -2.305204    0.515780
     16          6           0       -0.644150   -0.214484    0.009678
     17          6           0       -1.468374    0.905771   -0.182563
     18          6           0       -2.858333    0.838268   -0.169444
     19          1           0       -3.427727    1.744806   -0.351067
     20          6           0       -3.480740   -0.385771    0.092984
     21          1           0       -4.565083   -0.446219    0.112671
     22          9           0       -0.909563    2.105486   -0.466446
 ---------------------------------------------------------------------

 SCF Done:  E(RHF) =  -559.325961049     A.U. after    2 cycles

 The electronic state is 1-A.
 Alpha  occ. eigenvalues --  -26.13598 -11.34446 -11.26920 -11.26247 -11.26242
 Alpha  occ. eigenvalues --  -11.26086 -11.25824 -11.25445 -11.25074 -11.24988
 Alpha  occ. eigenvalues --  -11.24914 -11.24850 -11.24762  -1.67488  -1.16741
 Alpha  occ. eigenvalues --   -1.13794  -1.05678  -1.02570  -1.01023  -0.98819
 Alpha  occ. eigenvalues --   -0.87424  -0.86963  -0.82962  -0.81431  -0.76439
 Alpha  occ. eigenvalues --   -0.75160  -0.74192  -0.71438  -0.67868  -0.64711
 Alpha  occ. eigenvalues --   -0.64017  -0.61729  -0.61173  -0.59799  -0.59103
 Alpha  occ. eigenvalues --   -0.54615  -0.52662  -0.52581  -0.50070  -0.49849
 Alpha  occ. eigenvalues --   -0.49316  -0.38282  -0.34955  -0.34153  -0.30908
 Alpha virt. eigenvalues --    0.03278   0.03572   0.03961   0.04751   0.05015
 Alpha virt. eigenvalues --    0.05928   0.06273   0.06857   0.07527   0.07685
 Alpha virt. eigenvalues --    0.09968   0.10275   0.10471   0.11321   0.11599

 Mulliken charges:
               1
     1  C    0.192106
     2  H   -0.580247
     3  C    0.307399
     4  H   -0.444713
     5  C    0.568097
     6  H   -0.433064
     7  C    0.315096
     8  H   -0.447633
     9  C    0.491711
    10  H   -0.566729
    11  C    0.673012
    12  C    0.258008
    13  H   -0.439341
    14  C    0.138915
    15  H   -0.564890
    16  C    0.746717
    17  C   -0.217084
    18  C    0.633007
    19  H   -0.455165
    20  C    0.538912
    21  H   -0.413680
    22  F   -0.300433
 Sum of Mulliken charges =  -0.00000

 Dipole moment (field-independent basis, Debye):
    X=             -0.6688    Y=             -1.5750    Z=              0.4278  Tot=              1.7637

 Test job not archived.
 1\1\GINC-SE143\SP\RHF\Aug-CC-pVDZ\C12H9F1\OHZDE\09-Apr-2025\0\\#t hf a
 ug-cc-pvdz iop(5/13=1,5/36=2,99/5=2) pseudo=read geom=check guess=(rea
 d,tcheck) scf=(maxcycle=1)\\title\\0,1\C,0,12.8425,-32.1539,-0.2418\H,
 0,13.3992,-31.2547,-0.4938\C,0,11.4459,-32.1108,-0.1972\H,0,10.9291,-3
 1.1762,-0.399\C,0,10.7158,-33.2747,0.0708\H,0,9.6299,-33.2457,0.1001\C
 ,0,11.3961,-34.4759,0.3034\H,0,10.8378,-35.3858,0.5083\C,0,12.7931,-34
 .5221,0.2594\H,0,13.3038,-35.4582,0.4571\C,0,13.538,-33.3513,0.0187\C,
 0,17.1431,-32.2269,0.4526\H,0,17.6683,-31.3604,0.8441\C,0,15.7463,-32.

 Normal termination of Gaussian 16 at Wed Apr  9 02:26:22 2025.
