 Gaussian 16, Revision C.01,

 ----------------------------------------------------------------------
 #t hf aug-cc-pvdz symm=none int=(grid=ultrafine) guess=(read,tcheck) s
 table=(opt,rrhf)
 ----------------------------------------------------------------------
 -----
 title
 -----
 Symbolic Z-matrix:
 Charge =  0 Multiplicity = 1

 SCF Done:  E(RHF) =  -796.897644539     A.U. after   15 cycles
 Normal termination of Gaussian 16 at Wed Apr  9 02:24:27 2025.
 Gaussian 16:  ES64L-G16RevC.01  3-Jul-2019

 ----------------------------------------------------------------------
 #t hf aug-cc-pvdz iop(5/13=1,5/36=2,99/5=2) pseudo=read geom=check gue
 ss=(read,tcheck) scf=(maxcycle=1)
 ----------------------------------------------------------------------
 -----
 title
 -----
 Structure from the checkpoint file:  "DCONF_52_-150_mol1.chk"
 Charge =  0 Multiplicity = 1

                         Standard orientation:
 ---------------------------------------------------------------------
 Center     Atomic      Atomic             Coordinates (Angstroms)
 Number     Number       Type             X           Y           Z
 ---------------------------------------------------------------------
      1          6           0       -1.502725    1.238145   -0.305692
      2          1           0       -1.037668    2.181028   -0.578359
      3          6           0       -2.890491    1.105212   -0.269366
      4          1           0       -3.531607    1.951345   -0.501905
      5          6           0       -3.436898   -0.144130    0.041930
      6          1           0       -4.510978   -0.300133    0.073542
      7          6           0       -2.562357   -1.202793    0.308268
      8          1           0       -2.949052   -2.192820    0.542498
      9          7           0       -1.224478   -1.087224    0.305614
     10          6           0       -0.703171    0.124214    0.010430
     11          6           0        1.537368    1.342279    0.323158
     12          1           0        1.113297    2.305131    0.589412
     13          6           0        2.925320    1.066463    0.267768
     14          1           0        3.705850    1.790789    0.473459
     15          6           0        3.180300   -0.255901   -0.055133
     16          1           0        4.142605   -0.739608   -0.166896
     17         16           0        1.738157   -1.150511   -0.289426
     18          6           0        0.757387    0.230347    0.021931
 ---------------------------------------------------------------------

 SCF Done:  E(RHF) =  -797.033332402     A.U. after    2 cycles

 The electronic state is 1-A.
 Alpha  occ. eigenvalues --  -93.56365 -15.63525 -11.30605 -11.29232 -11.27678
 Alpha  occ. eigenvalues --  -11.27563 -11.27389 -11.25689 -11.25503 -11.25370
 Alpha  occ. eigenvalues --  -11.25008  -8.86166  -6.20293  -6.20157  -6.19804
 Alpha  occ. eigenvalues --   -1.23581  -1.16156  -1.07904  -1.05140  -0.98070
 Alpha  occ. eigenvalues --   -0.96827  -0.86325  -0.86205  -0.76389  -0.75645
 Alpha  occ. eigenvalues --   -0.71405  -0.67968  -0.66841  -0.63735  -0.59167
 Alpha  occ. eigenvalues --   -0.57959  -0.56713  -0.55709  -0.52889  -0.52271
 Alpha  occ. eigenvalues --   -0.51567  -0.47618  -0.41932  -0.39173  -0.37381
 Alpha  occ. eigenvalues --   -0.34605  -0.30005
 Alpha virt. eigenvalues --    0.03026   0.03486   0.04157   0.04985   0.05419
 Alpha virt. eigenvalues --    0.05875   0.06576   0.07182   0.08746   0.09430
 Alpha virt. eigenvalues --    0.10269   0.10739   0.11458   0.11675   0.12742

 Mulliken charges:
               1
     1  C    1.139906
     2  H   -0.521120
     3  C   -0.428305
     4  H   -0.396293
     5  C    0.896502
     6  H   -0.412177
     7  C    0.444807
     8  H   -0.378047
     9  N   -0.409632
    10  C   -0.414447
    11  C    0.531077
    12  H   -0.488434
    13  C    0.292189
    14  H   -0.327362
    15  C   -0.053598
    16  H   -0.363761
    17  S    0.663100
    18  C    0.225594
 Sum of Mulliken charges =  -0.00000

 Dipole moment (field-independent basis, Debye):
    X=             -1.0564    Y=              2.0332    Z=             -0.2176  Tot=              2.3016

 Test job not archived.
 1\1\GINC-SE131\SP\RHF\Aug-CC-pVDZ\C9H7N1S1\OHZDE\09-Apr-2025\0\\#t hf
 aug-cc-pvdz iop(5/13=1,5/36=2,99/5=2) pseudo=read geom=check guess=(re
 ad,tcheck) scf=(maxcycle=1)\\title\\0,1\C,0,30.1857,-8.3559,-0.0186\H,
 0,30.7524,-7.4302,-0.0584\C,0,28.7914,-8.3445,0.0075\H,0,28.2476,-7.40
 36,0.0016\C,0,28.1104,-9.5662,0.0106\H,0,27.0255,-9.6094,0.0211\C,0,28
 .863,-10.7451,-0.0071\H,0,28.3695,-11.7151,-0.0175\N,0,30.2055,-10.776
 2,-0.004\C,0,30.8573,-9.5923,-0.0004\C,0,33.2129,-8.7359,0.5646\H,0,32
 .8925,-7.8289,1.0671\C,0,34.5635,-9.1363,0.4193\H,0,35.4155,-8.5729,0.

 Normal termination of Gaussian 16 at Wed Apr  9 02:24:39 2025.
