 Gaussian 16, Revision C.01,

 ----------------------------------------------------------------------
 #t hf aug-cc-pvdz symm=none int=(grid=ultrafine) guess=(read,tcheck) s
 table=(opt,rrhf)
 ----------------------------------------------------------------------
 -----
 title
 -----
 Symbolic Z-matrix:
 Charge =  0 Multiplicity = 1

 SCF Done:  E(RHF) =  -796.897808508     A.U. after   16 cycles
 Normal termination of Gaussian 16 at Wed Apr  9 02:24:37 2025.
 Gaussian 16:  ES64L-G16RevC.01  3-Jul-2019

 ----------------------------------------------------------------------
 #t hf aug-cc-pvdz iop(5/13=1,5/36=2,99/5=2) pseudo=read geom=check gue
 ss=(read,tcheck) scf=(maxcycle=1)
 ----------------------------------------------------------------------
 -----
 title
 -----
 Structure from the checkpoint file:  "DCONF_52_0_mol1.chk"
 Charge =  0 Multiplicity = 1

                         Standard orientation:
 ---------------------------------------------------------------------
 Center     Atomic      Atomic             Coordinates (Angstroms)
 Number     Number       Type             X           Y           Z
 ---------------------------------------------------------------------
      1          6           0       -1.367046   -1.160382    0.073459
      2          1           0       -0.798429   -2.084038    0.137857
      3          6           0       -2.760794   -1.194426    0.041786
      4          1           0       -3.288057   -2.143696    0.083660
      5          6           0       -3.460063    0.013780   -0.023768
      6          1           0       -4.545196    0.041140   -0.043951
      7          6           0       -2.721297    1.201462   -0.063951
      8          1           0       -3.228509    2.163575   -0.109426
      9          7           0       -1.381105    1.252678   -0.046643
     10          6           0       -0.707677    0.081322    0.005612
     11          6           0        1.496857    1.368781    0.078251
     12          1           0        1.019098    2.340309    0.124982
     13          6           0        2.892402    1.137700    0.029418
     14          1           0        3.645442    1.917999    0.047969
     15          6           0        3.203309   -0.208648   -0.045176
     16          1           0        4.180984   -0.672389   -0.077232
     17         16           0        1.793758   -1.182975   -0.051246
     18          6           0        0.754688    0.193069    0.068131
 ---------------------------------------------------------------------

 SCF Done:  E(RHF) =  -797.033406461     A.U. after    2 cycles

 The electronic state is 1-A.
 Alpha  occ. eigenvalues --  -93.56759 -15.63324 -11.30668 -11.29165 -11.27831
 Alpha  occ. eigenvalues --  -11.27665 -11.27453 -11.25581 -11.25343 -11.25228
 Alpha  occ. eigenvalues --  -11.24996  -8.86618  -6.20763  -6.20628  -6.20264
 Alpha  occ. eigenvalues --   -1.23453  -1.16289  -1.07831  -1.05087  -0.98174
 Alpha  occ. eigenvalues --   -0.96904  -0.86294  -0.86169  -0.76595  -0.75415
 Alpha  occ. eigenvalues --   -0.71225  -0.68125  -0.66552  -0.63867  -0.58993
 Alpha  occ. eigenvalues --   -0.58041  -0.56256  -0.55720  -0.53535  -0.52498
 Alpha  occ. eigenvalues --   -0.51607  -0.47480  -0.41928  -0.39448  -0.37621
 Alpha  occ. eigenvalues --   -0.34896  -0.29655
 Alpha virt. eigenvalues --    0.03170   0.03541   0.04010   0.05011   0.05420
 Alpha virt. eigenvalues --    0.05796   0.06819   0.07306   0.08697   0.09828
 Alpha virt. eigenvalues --    0.10239   0.11356   0.11517   0.11926   0.12782

 Mulliken charges:
               1
     1  C    0.973843
     2  H   -0.524791
     3  C   -0.320975
     4  H   -0.412216
     5  C    0.860473
     6  H   -0.419324
     7  C    0.517115
     8  H   -0.390776
     9  N   -0.445462
    10  C   -0.160335
    11  C    0.379777
    12  H   -0.454996
    13  C    0.341064
    14  H   -0.322655
    15  C   -0.051439
    16  H   -0.393206
    17  S    0.775160
    18  C    0.048745
 Sum of Mulliken charges =  -0.00000

 Dipole moment (field-independent basis, Debye):
    X=             -0.6639    Y=             -0.8679    Z=              0.0515  Tot=              1.0939

 Test job not archived.
 1\1\GINC-SE273\SP\RHF\Aug-CC-pVDZ\C9H7N1S1\OHZDE\09-Apr-2025\0\\#t hf
 aug-cc-pvdz iop(5/13=1,5/36=2,99/5=2) pseudo=read geom=check guess=(re
 ad,tcheck) scf=(maxcycle=1)\\title\\0,1\C,0,30.1792,-8.353,-0.0021\H,0
 ,30.7313,-7.4172,-0.0109\C,0,28.7847,-8.3457,0.0015\H,0,28.2404,-7.405
 2,-0.0069\C,0,28.1074,-9.5681,-0.0047\H,0,27.0228,-9.616,-0.0089\C,0,2
 8.8677,-10.7428,-0.0047\H,0,28.3781,-11.715,-0.0153\N,0,30.2087,-10.76
 89,0.0041\C,0,30.8606,-9.5844,0.0213\C,0,33.0903,-10.8269,-0.0649\H,0,
 32.6322,-11.8036,-0.1674\C,0,34.4799,-10.5732,0.0244\H,0,35.2479,-11.3

 Normal termination of Gaussian 16 at Wed Apr  9 02:24:50 2025.
