 Gaussian 16, Revision C.01,

 ----------------------------------------------------------------------
 #t hf aug-cc-pvdz symm=none int=(grid=ultrafine) guess=(read,tcheck) s
 table=(opt,rrhf)
 ----------------------------------------------------------------------
 -----
 title
 -----
 Symbolic Z-matrix:
 Charge =  0 Multiplicity = 1

 SCF Done:  E(RHF) =  -774.176407573     A.U. after   16 cycles
 Normal termination of Gaussian 16 at Wed Apr  9 02:20:55 2025.
 Gaussian 16:  ES64L-G16RevC.01  3-Jul-2019

 ----------------------------------------------------------------------
 #t hf aug-cc-pvdz iop(5/13=1,5/36=2,99/5=2) pseudo=read geom=check gue
 ss=(read,tcheck) scf=(maxcycle=1)
 ----------------------------------------------------------------------
 -----
 title
 -----
 Structure from the checkpoint file:  "DCONF_42_-120_mol1.chk"
 Charge =  0 Multiplicity = 1

                         Standard orientation:
 ---------------------------------------------------------------------
 Center     Atomic      Atomic             Coordinates (Angstroms)
 Number     Number       Type             X           Y           Z
 ---------------------------------------------------------------------
      1          6           0       -1.990194   -0.151195    0.106600
      2          7           0       -0.991187    0.559202   -0.568777
      3          1           0       -1.221686    1.515864   -0.813775
      4          7           0        1.092350    1.437987    0.171386
      5          6           0        2.380972    1.024129    0.390351
      6          1           0        3.119007    1.739806    0.732214
      7          6           0        2.622164   -0.314479    0.170023
      8          1           0        3.540788   -0.865536    0.318348
      9         16           0        1.184675   -1.093025   -0.346556
     10          6           0        0.363836    0.418351   -0.234942
     11          8           0       -1.762534   -1.188473    0.701484
     12          6           0       -3.361609    0.477297   -0.008005
     13          1           0       -3.522865    0.910567   -0.998250
     14          1           0       -3.451973    1.272345    0.738990
     15          1           0       -4.116949   -0.281787    0.193066
 ---------------------------------------------------------------------

 SCF Done:  E(RHF) =  -774.311680121     A.U. after    2 cycles

 The electronic state is 1-A.
 Alpha  occ. eigenvalues --  -93.57852 -20.56107 -15.68089 -15.63892 -11.39012
 Alpha  occ. eigenvalues --  -11.36394 -11.28398 -11.27365 -11.26463  -8.87714
 Alpha  occ. eigenvalues --   -6.21826  -6.21699  -6.21332  -1.37022  -1.27878
 Alpha  occ. eigenvalues --   -1.20394  -1.05571  -1.03190  -0.97307  -0.84120
 Alpha  occ. eigenvalues --   -0.79703  -0.76983  -0.70190  -0.69765  -0.64652
 Alpha  occ. eigenvalues --   -0.64120  -0.61532  -0.58901  -0.57454  -0.56496
 Alpha  occ. eigenvalues --   -0.53747  -0.50655  -0.46419  -0.45391  -0.43888
 Alpha  occ. eigenvalues --   -0.38727  -0.32710
 Alpha virt. eigenvalues --    0.02936   0.03625   0.04599   0.04944   0.05791
 Alpha virt. eigenvalues --    0.07203   0.08630   0.09463   0.09717   0.11094
 Alpha virt. eigenvalues --    0.11435   0.12387   0.12817   0.13071   0.13795

 Mulliken charges:
               1
     1  C    0.359154
     2  N   -0.515990
     3  H   -0.028133
     4  N   -0.453491
     5  C    0.626923
     6  H   -0.273481
     7  C    0.183654
     8  H   -0.372833
     9  S    0.612469
    10  C    0.000447
    11  O   -0.478050
    12  C    0.303305
    13  H   -0.008902
    14  H    0.059323
    15  H   -0.014397
 Sum of Mulliken charges =  -0.00000

 Dipole moment (field-independent basis, Debye):
    X=             -0.7394    Y=              2.1005    Z=             -1.4438  Tot=              2.6540

 Test job not archived.
 1\1\GINC-SE412\SP\RHF\Aug-CC-pVDZ\C5H6N2O1S1\OHZDE\09-Apr-2025\0\\#t h
 f aug-cc-pvdz iop(5/13=1,5/36=2,99/5=2) pseudo=read geom=check guess=(
 read,tcheck) scf=(maxcycle=1)\\title\\0,1\C,0,28.8808,-16.0154,-1.0136
 \N,0,29.3081,-16.8665,0.012\H,0,28.6044,-17.4957,0.3825\N,0,30.7404,-1
 8.7663,-0.0105\C,0,32.0784,-19.0649,0.0086\H,0,32.3924,-20.1018,0.0068
 \C,0,32.9304,-17.982,0.0051\H,0,34.0114,-17.977,-0.0257\S,0,32.0277,-1
 6.5245,-0.0086\C,0,30.5794,-17.4588,-0.0067\O,0,29.6614,-15.42,-1.7332
 \C,0,27.376,-15.8908,-1.1083\H,0,26.9104,-15.8913,-0.1196\H,0,26.9841,

 Normal termination of Gaussian 16 at Wed Apr  9 02:21:01 2025.
