 Gaussian 16, Revision C.01,

 ----------------------------------------------------------------------
 #t hf aug-cc-pvdz symm=none int=(grid=ultrafine) guess=(read,tcheck) s
 table=(opt,rrhf)
 ----------------------------------------------------------------------
 -----
 title
 -----
 Symbolic Z-matrix:
 Charge =  0 Multiplicity = 1

 SCF Done:  E(RHF) =  -1153.54883500     A.U. after   15 cycles
 Normal termination of Gaussian 16 at Wed Apr  9 02:19:32 2025.
 Gaussian 16:  ES64L-G16RevC.01  3-Jul-2019

 ----------------------------------------------------------------------
 #t hf aug-cc-pvdz iop(5/13=1,5/36=2,99/5=2) pseudo=read geom=check gue
 ss=(read,tcheck) scf=(maxcycle=1)
 ----------------------------------------------------------------------
 -----
 title
 -----
 Structure from the checkpoint file:  "DCONF_29_-100_mol1.chk"
 Charge =  0 Multiplicity = 1

                         Standard orientation:
 ---------------------------------------------------------------------
 Center     Atomic      Atomic             Coordinates (Angstroms)
 Number     Number       Type             X           Y           Z
 ---------------------------------------------------------------------
      1          6           0        2.740971   -0.142952    0.069648
      2          1           0        3.747511   -0.539585    0.096363
      3          6           0        2.338657    1.181874    0.081949
      4          1           0        3.009595    2.032013    0.121352
      5          7           0        0.991464    1.388646    0.027241
      6          6           0        0.372062    0.225072   -0.014731
      7         16           0        1.381624   -1.171710   -0.034033
      8         16           0       -1.402455    0.063916   -0.176664
      9          6           0       -1.917866   -0.249365    1.500458
     10          1           0       -1.446110   -1.168745    1.848186
     11          1           0       -3.003519   -0.366058    1.467651
     12          1           0       -1.643696    0.607318    2.117962
     13          8           0       -1.610671   -1.168327   -0.931885
     14          8           0       -1.948539    1.337258   -0.604989
 ---------------------------------------------------------------------

 SCF Done:  E(RHF) =  -1153.75169714     A.U. after    2 cycles

 The electronic state is 1-A.
 Alpha  occ. eigenvalues --  -93.80009 -93.61291 -20.56813 -20.56771 -15.67960
 Alpha  occ. eigenvalues --  -11.35722 -11.31040 -11.30898 -11.29637  -9.06638
 Alpha  occ. eigenvalues --   -8.91090  -6.41269  -6.41089  -6.41011  -6.25186
 Alpha  occ. eigenvalues --   -6.25064  -6.24716  -1.42631  -1.31232  -1.28657
 Alpha  occ. eigenvalues --   -1.08593  -1.06624  -1.02162  -0.89173  -0.82275
 Alpha  occ. eigenvalues --   -0.76872  -0.72966  -0.68780  -0.67472  -0.66487
 Alpha  occ. eigenvalues --   -0.62143  -0.61573  -0.60868  -0.58490  -0.53829
 Alpha  occ. eigenvalues --   -0.52571  -0.52313  -0.49993  -0.48540  -0.45240
 Alpha  occ. eigenvalues --   -0.41713  -0.37146
 Alpha virt. eigenvalues --    0.02515   0.03493   0.04192   0.04841   0.05972
 Alpha virt. eigenvalues --    0.06029   0.07888   0.09756   0.10172   0.10671
 Alpha virt. eigenvalues --    0.11071   0.11556   0.12774   0.13167   0.13298

 Mulliken charges:
               1
     1  C    0.161067
     2  H   -0.349414
     3  C    0.743831
     4  H   -0.271064
     5  N   -0.548071
     6  C   -0.631978
     7  S    0.504603
     8  S    2.576258
     9  C   -0.018498
    10  H    0.006402
    11  H    0.015191
    12  H    0.007464
    13  O   -1.115405
    14  O   -1.080388
 Sum of Mulliken charges =  -0.00000

 Dipole moment (field-independent basis, Debye):
    X=              3.9455    Y=             -1.5802    Z=              4.3583  Tot=              6.0876

 Test job not archived.
 1\1\GINC-SE195\SP\RHF\Aug-CC-pVDZ\C4H5N1O2S2\OHZDE\09-Apr-2025\0\\#t h
 f aug-cc-pvdz iop(5/13=1,5/36=2,99/5=2) pseudo=read geom=check guess=(
 read,tcheck) scf=(maxcycle=1)\\title\\0,1\C,0,2.0288,-24.6278,-0.9033\
 H,0,0.9847,-24.6433,-1.1875\C,0,2.8202,-25.6824,-0.4806\H,0,2.4818,-26
 .7065,-0.375\N,0,4.1173,-25.3688,-0.198\C,0,4.3077,-24.0786,-0.3941\S,
 0,2.9476,-23.1896,-0.9689\S,0,5.9004,-23.2837,-0.2137\C,0,5.784,-22.54
 52,1.4042\H,0,4.9596,-21.8317,1.4074\H,0,6.7336,-22.0322,1.5728\H,0,5.
 6403,-23.3362,2.1418\O,0,5.9014,-22.1961,-1.188\O,0,6.9303,-24.3044,-0

 Normal termination of Gaussian 16 at Wed Apr  9 02:19:39 2025.
