 Gaussian 16, Revision C.01,

 ----------------------------------------------------------------------
 #t hf aug-cc-pvdz symm=none int=(grid=ultrafine) guess=(read,tcheck) s
 table=(opt,rrhf)
 ----------------------------------------------------------------------
 -----
 title
 -----
 Symbolic Z-matrix:
 Charge =  0 Multiplicity = 1

 SCF Done:  E(RHF) =  -217.142313576     A.U. after   12 cycles
 Normal termination of Gaussian 16 at Wed Apr  9 02:25:09 2025.
 Gaussian 16:  ES64L-G16RevC.01  3-Jul-2019

 ----------------------------------------------------------------------
 #t hf aug-cc-pvdz iop(5/13=1,5/36=2,99/5=2) pseudo=read geom=check gue
 ss=(read,tcheck) scf=(maxcycle=1)
 ----------------------------------------------------------------------
 -----
 title
 -----
 Structure from the checkpoint file:  "DCONF_7_180_mol1.chk"
 Charge =  0 Multiplicity = 1

                         Standard orientation:
 ---------------------------------------------------------------------
 Center     Atomic      Atomic             Coordinates (Angstroms)
 Number     Number       Type             X           Y           Z
 ---------------------------------------------------------------------
      1          9           0       -1.860904    0.152111   -0.000015
      2          6           0       -0.618836   -0.486278   -0.000036
      3          1           0       -0.576043   -1.118828    0.892084
      4          1           0       -0.575938   -1.118973   -0.891827
      5          6           0        0.496546    0.537740    0.000064
      6          1           0        0.387054    1.175929   -0.882444
      7          1           0        0.387103    1.176036    0.882267
      8          6           0        1.867201   -0.141358   -0.000020
      9          1           0        1.993521   -0.772360   -0.885361
     10          1           0        1.993648   -0.771953    0.885651
     11          1           0        2.669330    0.600519   -0.000289
 ---------------------------------------------------------------------

 SCF Done:  E(RHF) =  -217.217348232     A.U. after    2 cycles

 The electronic state is 1-A.
 Alpha  occ. eigenvalues --  -26.09527 -11.31656 -11.24054 -11.23775  -1.62621
 Alpha  occ. eigenvalues --   -1.06676  -0.94231  -0.83449  -0.73938  -0.72472
 Alpha  occ. eigenvalues --   -0.69622  -0.63012  -0.57861  -0.54104  -0.52330
 Alpha  occ. eigenvalues --   -0.49423  -0.48872
 Alpha virt. eigenvalues --    0.03445   0.04628   0.04798   0.05341   0.07386
 Alpha virt. eigenvalues --    0.07469   0.07942   0.10953   0.12110   0.15071
 Alpha virt. eigenvalues --    0.15372   0.15681   0.16621   0.17091   0.17311

 Mulliken charges:
               1
     1  F   -0.417218
     2  C    0.718793
     3  H   -0.149878
     4  H   -0.150342
     5  C   -0.074984
     6  H   -0.038107
     7  H   -0.038639
     8  C    0.338119
     9  H   -0.052538
    10  H   -0.052393
    11  H   -0.082813
 Sum of Mulliken charges =   0.00000

 Dipole moment (field-independent basis, Debye):
    X=              2.3180    Y=             -0.8211    Z=             -0.0001  Tot=              2.4591

 Test job not archived.
 1\1\GINC-SE328\SP\RHF\Aug-CC-pVDZ\C3H7F1\OHZDE\09-Apr-2025\0\\#t hf au
 g-cc-pvdz iop(5/13=1,5/36=2,99/5=2) pseudo=read geom=check guess=(read
 ,tcheck) scf=(maxcycle=1)\\title\\0,1\F,0,13.2588,-26.4751,0.005\C,0,1
 4.4059,-25.6786,0.0001\H,0,14.3625,-25.0479,-0.8933\H,0,14.3675,-25.04
 38,0.8906\C,0,15.6465,-26.5467,-0.0015\H,0,15.6245,-27.1918,0.8825\H,0
 ,15.6197,-27.1958,-0.8822\C,0,16.9157,-25.6929,-0.0068\H,0,16.9602,-25
 .0488,0.877\H,0,16.9555,-25.0531,-0.894\H,0,17.8086,-26.3226,-0.0076\\
 Version=ES64L-G16RevC.01\State=1-A\HF=-217.2173482\RMSD=5.047e-03\Dipo

 Normal termination of Gaussian 16 at Wed Apr  9 02:25:12 2025.
