 Gaussian 16, Revision C.01,

 ----------------------------------------------------------------------
 #t hf aug-cc-pvdz symm=none int=(grid=ultrafine) guess=(read,tcheck) s
 table=(opt,rrhf)
 ----------------------------------------------------------------------
 -----
 title
 -----
 Symbolic Z-matrix:
 Charge =  0 Multiplicity = 1

 SCF Done:  E(RHF) =  -911.019730347     A.U. after   16 cycles
 Normal termination of Gaussian 16 at Wed Apr  9 02:23:03 2025.
 Gaussian 16:  ES64L-G16RevC.01  3-Jul-2019

 ----------------------------------------------------------------------
 #t hf aug-cc-pvdz iop(5/13=1,5/36=2,99/5=2) pseudo=read geom=check gue
 ss=(read,tcheck) scf=(maxcycle=1)
 ----------------------------------------------------------------------
 -----
 title
 -----
 Structure from the checkpoint file:  "DCONF_30_110_mol1.chk"
 Charge =  0 Multiplicity = 1

                         Standard orientation:
 ---------------------------------------------------------------------
 Center     Atomic      Atomic             Coordinates (Angstroms)
 Number     Number       Type             X           Y           Z
 ---------------------------------------------------------------------
      1          6           0        2.809734   -0.938652    0.536165
      2          1           0        3.442506   -1.730292    0.928220
      3          6           0        1.459898   -1.197656    0.273476
      4          1           0        1.023590   -2.175849    0.451797
      5          6           0        0.658866   -0.168942   -0.235637
      6         16           0       -1.058585   -0.496447   -0.592115
      7          7           0       -1.925640    0.351122    0.560540
      8          6           0       -1.697907   -0.089533    1.940185
      9          1           0       -1.751442   -1.177147    1.992140
     10          1           0       -0.726406    0.255672    2.326242
     11          1           0       -2.494215    0.332366    2.558483
     12          6           0       -1.949870    1.809331    0.432300
     13          1           0       -2.072315    2.084018   -0.615553
     14          1           0       -2.813942    2.174464    0.993970
     15          1           0       -1.041188    2.273996    0.843326
     16          6           0        1.192159    1.094462   -0.527025
     17          1           0        0.573865    1.854953   -0.993736
     18          6           0        2.541370    1.340838   -0.252330
     19          1           0        2.965770    2.316070   -0.474768
     20          6           0        3.348828    0.328558    0.282463
     21          1           0        4.398277    0.523066    0.485854
     22          8           0       -1.368261    0.116997   -1.872230
     23          8           0       -1.290004   -1.906555   -0.333206
 ---------------------------------------------------------------------

 SCF Done:  E(RHF) =  -911.251037421     A.U. after    2 cycles

 The electronic state is 1-A.
 Alpha  occ. eigenvalues --  -93.80006 -20.55827 -20.55714 -15.66527 -11.28956
 Alpha  occ. eigenvalues --  -11.28204 -11.28071 -11.28048 -11.27754 -11.27648
 Alpha  occ. eigenvalues --  -11.27174 -11.27031  -9.06315  -6.40984  -6.40833
 Alpha  occ. eigenvalues --   -6.40710  -1.42549  -1.30583  -1.21948  -1.16929
 Alpha  occ. eigenvalues --   -1.05020  -1.03622  -0.97671  -0.94606  -0.87177
 Alpha  occ. eigenvalues --   -0.85640  -0.79341  -0.73867  -0.71544  -0.68806
 Alpha  occ. eigenvalues --   -0.67606  -0.65369  -0.65238  -0.63907  -0.61941
 Alpha  occ. eigenvalues --   -0.61748  -0.58469  -0.57120  -0.55477  -0.54212
 Alpha  occ. eigenvalues --   -0.53377  -0.52615  -0.51693  -0.51479  -0.49165
 Alpha  occ. eigenvalues --   -0.47378  -0.40938  -0.36823  -0.36399
 Alpha virt. eigenvalues --    0.02571   0.03391   0.03632   0.04824   0.05081
 Alpha virt. eigenvalues --    0.05767   0.06807   0.06955   0.07243   0.07954
 Alpha virt. eigenvalues --    0.08338   0.08929   0.09313   0.10300   0.11628

 Mulliken charges:
               1
     1  C    0.644845
     2  H   -0.441781
     3  C   -0.012850
     4  H   -0.576830
     5  C    0.521548
     6  S    2.772034
     7  N   -1.189747
     8  C    0.689290
     9  H   -0.148179
    10  H   -0.030675
    11  H   -0.159580
    12  C    0.769301
    13  H   -0.163916
    14  H   -0.188976
    15  H    0.008738
    16  C   -0.098844
    17  H   -0.586847
    18  C    0.583871
    19  H   -0.457216
    20  C    0.611228
    21  H   -0.439503
    22  O   -1.055939
    23  O   -1.049974
 Sum of Mulliken charges =  -0.00000

 Dipole moment (field-independent basis, Debye):
    X=              3.3841    Y=              3.3077    Z=              4.1946  Tot=              6.3235

 Test job not archived.
 1\1\GINC-SE364\SP\RHF\Aug-CC-pVDZ\C8H11N1O2S1\OHZDE\09-Apr-2025\0\\#t
 hf aug-cc-pvdz iop(5/13=1,5/36=2,99/5=2) pseudo=read geom=check guess=
 (read,tcheck) scf=(maxcycle=1)\\title\\0,1\C,0,3.7766,-2.34,-1.894\H,0
 ,4.397,-2.3322,-2.7861\C,0,2.5815,-1.6123,-1.8757\H,0,2.2542,-1.0351,-
 2.7352\C,0,1.7956,-1.6286,-0.7176\S,0,0.2802,-0.6873,-0.679\N,0,-0.951
 5,-1.8194,-0.6849\C,0,-1.0104,-2.6494,-1.892\H,0,-0.9243,-2.0181,-2.77
 66\H,0,-0.2205,-3.4162,-1.9018\H,0,-1.9844,-3.1449,-1.9062\C,0,-1.1447
 ,-2.5953,0.5415\H,0,-1.0432,-1.9428,1.4089\H,0,-2.162,-2.9954,0.5206\H

 Normal termination of Gaussian 16 at Wed Apr  9 02:23:22 2025.
