 Gaussian 16, Revision C.01,

 ----------------------------------------------------------------------
 #t hf aug-cc-pvdz symm=none int=(grid=ultrafine) guess=(read,tcheck) s
 table=(opt,rrhf)
 ----------------------------------------------------------------------
 -----
 title
 -----
 Symbolic Z-matrix:
 Charge =  0 Multiplicity = 1

 SCF Done:  E(RHF) =  -575.157977666     A.U. after   15 cycles
 Normal termination of Gaussian 16 at Wed Apr  9 02:25:47 2025.
 Gaussian 16:  ES64L-G16RevC.01  3-Jul-2019

 ----------------------------------------------------------------------
 #t hf aug-cc-pvdz iop(5/13=1,5/36=2,99/5=2) pseudo=read geom=check gue
 ss=(read,tcheck) scf=(maxcycle=1)
 ----------------------------------------------------------------------
 -----
 title
 -----
 Structure from the checkpoint file:  "DCONF_48_120_mol1.chk"
 Charge =  0 Multiplicity = 1

                         Standard orientation:
 ---------------------------------------------------------------------
 Center     Atomic      Atomic             Coordinates (Angstroms)
 Number     Number       Type             X           Y           Z
 ---------------------------------------------------------------------
      1          6           0       -1.549860    0.756598    0.861623
      2          1           0       -1.007163    1.444474    1.503644
      3          6           0       -2.944391    0.771681    0.796622
      4          1           0       -3.518587    1.477759    1.390281
      5          6           0       -3.581272   -0.141575   -0.048377
      6          1           0       -4.663260   -0.169426   -0.137218
      7          6           0       -2.792328   -1.029097   -0.788158
      8          1           0       -3.254851   -1.751533   -1.457909
      9          7           0       -1.448753   -1.055449   -0.740454
     10          6           0       -0.844106   -0.172781    0.081686
     11          6           0        2.714009   -1.461997    0.403039
     12          1           0        3.222227   -2.389415    0.650760
     13          6           0        1.317336   -1.406907    0.415515
     14          1           0        0.727528   -2.286669    0.659327
     15          6           0        0.637375   -0.216081    0.111172
     16          6           0        1.408537    0.895420   -0.242479
     17          6           0        2.799430    0.867740   -0.269768
     18          1           0        3.343545    1.761977   -0.557375
     19          6           0        3.454917   -0.323822    0.059164
     20          1           0        4.540567   -0.359936    0.042350
     21          9           0        0.781488    2.047316   -0.576768
 ---------------------------------------------------------------------

 SCF Done:  E(RHF) =  -575.328101905     A.U. after    2 cycles

 The electronic state is 1-A.
 Alpha  occ. eigenvalues --  -26.13595 -15.63581 -11.34444 -11.30028 -11.29001
 Alpha  occ. eigenvalues --  -11.27310 -11.26322 -11.26248 -11.25995 -11.25697
 Alpha  occ. eigenvalues --  -11.25520 -11.25481 -11.25217  -1.67397  -1.23397
 Alpha  occ. eigenvalues --   -1.15717  -1.07759  -1.06249  -1.02383  -0.99983
 Alpha  occ. eigenvalues --   -0.88540  -0.87117  -0.85385  -0.82959  -0.76651
 Alpha  occ. eigenvalues --   -0.75059  -0.74385  -0.71998  -0.68085  -0.66790
 Alpha  occ. eigenvalues --   -0.64703  -0.62415  -0.61950  -0.59975  -0.58222
 Alpha  occ. eigenvalues --   -0.55261  -0.54099  -0.52659  -0.51048  -0.50685
 Alpha  occ. eigenvalues --   -0.41963  -0.38693  -0.36857  -0.34741  -0.32828
 Alpha virt. eigenvalues --    0.03218   0.03406   0.04030   0.04551   0.05128
 Alpha virt. eigenvalues --    0.06173   0.06549   0.06612   0.08119   0.09200
 Alpha virt. eigenvalues --    0.09660   0.10157   0.10713   0.11663   0.11834

 Mulliken charges:
               1
     1  C    1.114403
     2  H   -0.531100
     3  C   -0.498905
     4  H   -0.402086
     5  C    0.973369
     6  H   -0.415498
     7  C    0.403694
     8  H   -0.388198
     9  N   -0.416913
    10  C   -0.529617
    11  C    0.209803
    12  H   -0.426733
    13  C    0.365270
    14  H   -0.520515
    15  C    1.226340
    16  C   -0.001503
    17  C    0.484984
    18  H   -0.433426
    19  C    0.526214
    20  H   -0.423086
    21  F   -0.316497
 Sum of Mulliken charges =   0.00000

 Dipole moment (field-independent basis, Debye):
    X=             -0.2584    Y=             -0.3402    Z=              1.5450  Tot=              1.6030

 Test job not archived.
 1\1\GINC-SE165\SP\RHF\Aug-CC-pVDZ\C11H8F1N1\OHZDE\09-Apr-2025\0\\#t hf
  aug-cc-pvdz iop(5/13=1,5/36=2,99/5=2) pseudo=read geom=check guess=(r
 ead,tcheck) scf=(maxcycle=1)\\title\\0,1\C,0,21.7676,-33.8962,-0.9826\
 H,0,22.2631,-34.4128,-1.7996\C,0,20.3752,-33.8351,-0.901\H,0,19.7551,-
 34.3076,-1.6579\C,0,19.8008,-33.1528,0.1752\H,0,18.7231,-33.0782,0.286
 4\C,0,20.6473,-32.5616,1.1193\H,0,20.2341,-32.025,1.9712\N,0,21.9896,-
 32.6133,1.0583\C,0,22.5339,-33.2705,0.0131\C,0,26.1735,-32.1848,0.0034
 \H,0,26.7453,-31.2614,0.0149\C,0,24.7764,-32.1403,-0.0005\H,0,24.2495,

 Normal termination of Gaussian 16 at Wed Apr  9 02:26:08 2025.
