 Gaussian 16, Revision C.01,

 ----------------------------------------------------------------------
 #t hf aug-cc-pvdz symm=none int=(grid=ultrafine) guess=(read,tcheck) s
 table=(opt,rrhf)
 ----------------------------------------------------------------------
 -----
 title
 -----
 Symbolic Z-matrix:
 Charge =  0 Multiplicity = 1

 SCF Done:  E(RHF) =  -703.109066879     A.U. after   16 cycles
 Normal termination of Gaussian 16 at Wed Apr  9 02:18:39 2025.
 Gaussian 16:  ES64L-G16RevC.01  3-Jul-2019

 ----------------------------------------------------------------------
 #t hf aug-cc-pvdz iop(5/13=1,5/36=2,99/5=2) pseudo=read geom=check gue
 ss=(read,tcheck) scf=(maxcycle=1)
 ----------------------------------------------------------------------
 -----
 title
 -----
 Structure from the checkpoint file:  "DCONF_24_-70_mol1.chk"
 Charge =  0 Multiplicity = 1

                         Standard orientation:
 ---------------------------------------------------------------------
 Center     Atomic      Atomic             Coordinates (Angstroms)
 Number     Number       Type             X           Y           Z
 ---------------------------------------------------------------------
      1          8           0       -1.999230   -0.935643   -0.935724
      2          6           0       -2.532297    0.733714    0.709826
      3          1           0       -2.396868    0.379626    1.737460
      4          1           0       -3.568749    0.590477    0.400295
      5          1           0       -2.271122    1.796451    0.698959
      6          6           0       -1.603876   -0.063867   -0.176827
      7          6           0        0.560525    1.334734   -0.312761
      8          1           0        0.072000    2.265197   -0.584011
      9          6           0        1.964497    1.151973   -0.256703
     10          1           0        2.694719    1.927272   -0.460356
     11          6           0        2.307370   -0.144029    0.087196
     12          1           0        3.297513   -0.551012    0.247702
     13         16           0        0.927877   -1.130955    0.313372
     14          6           0       -0.142833    0.182877    0.021234
 ---------------------------------------------------------------------

 SCF Done:  E(RHF) =  -703.223466178     A.U. after    2 cycles

 The electronic state is 1-A.
 Alpha  occ. eigenvalues --  -93.57834 -20.57193 -11.36190 -11.28779 -11.28615
 Alpha  occ. eigenvalues --  -11.26998 -11.26203 -11.25373  -8.87649  -6.21769
 Alpha  occ. eigenvalues --   -6.21635  -6.21281  -1.35642  -1.17548  -1.03773
 Alpha  occ. eigenvalues --   -0.99406  -0.98224  -0.83704  -0.77409  -0.72911
 Alpha  occ. eigenvalues --   -0.70294  -0.64260  -0.62770  -0.61604  -0.57687
 Alpha  occ. eigenvalues --   -0.56726  -0.55462  -0.52722  -0.50853  -0.48753
 Alpha  occ. eigenvalues --   -0.44343  -0.35879  -0.33976
 Alpha virt. eigenvalues --    0.03056   0.03754   0.04378   0.05462   0.06137
 Alpha virt. eigenvalues --    0.06825   0.07474   0.09089   0.10048   0.10898
 Alpha virt. eigenvalues --    0.11389   0.12321   0.12852   0.13169   0.13622

 Mulliken charges:
               1
     1  O   -0.543788
     2  C    0.326201
     3  H    0.089870
     4  H   -0.062411
     5  H   -0.018034
     6  C   -0.141579
     7  C    0.490742
     8  H   -0.430161
     9  C    0.234460
    10  H   -0.299849
    11  C    0.063955
    12  H   -0.338786
    13  S    0.743911
    14  C   -0.114533
 Sum of Mulliken charges =  -0.00000

 Dipole moment (field-independent basis, Debye):
    X=              1.5698    Y=              2.9618    Z=              1.9115  Tot=              3.8588

 Test job not archived.
 1\1\GINC-SE292\SP\RHF\Aug-CC-pVDZ\C6H6O1S1\OHZDE\09-Apr-2025\0\\#t hf
 aug-cc-pvdz iop(5/13=1,5/36=2,99/5=2) pseudo=read geom=check guess=(re
 ad,tcheck) scf=(maxcycle=1)\\title\\0,1\O,0,21.5884,-4.4675,1.0092\C,0
 ,20.9648,-5.6097,-1.012\H,0,21.2314,-5.0534,-1.9171\H,0,19.9365,-5.383
 7,-0.7255\H,0,21.0742,-6.6735,-1.2446\C,0,21.9195,-5.191,0.0823\C,0,23
 .8505,-6.8997,-0.0215\H,0,23.2171,-7.7809,-0.0046\C,0,25.2661,-6.9276,
 0.0331\H,0,25.8626,-7.832,0.0782\C,0,25.8124,-5.656,0.0268\H,0,26.8592
 ,-5.3806,0.0148\S,0,24.6063,-4.443,-0.0194\C,0,23.3434,-5.6076,-0.1013

 Normal termination of Gaussian 16 at Wed Apr  9 02:18:44 2025.
