 Gaussian 16, Revision C.01,

 ----------------------------------------------------------------------
 #t hf aug-cc-pvdz symm=none int=(grid=ultrafine) guess=(read,tcheck) s
 table=(opt,rrhf)
 ----------------------------------------------------------------------
 -----
 title
 -----
 Symbolic Z-matrix:
 Charge =  0 Multiplicity = 1

 SCF Done:  E(RHF) =  -575.154600528     A.U. after   15 cycles
 Normal termination of Gaussian 16 at Wed Apr  9 02:25:20 2025.
 Gaussian 16:  ES64L-G16RevC.01  3-Jul-2019

 ----------------------------------------------------------------------
 #t hf aug-cc-pvdz iop(5/13=1,5/36=2,99/5=2) pseudo=read geom=check gue
 ss=(read,tcheck) scf=(maxcycle=1)
 ----------------------------------------------------------------------
 -----
 title
 -----
 Structure from the checkpoint file:  "DCONF_48_-30_mol1.chk"
 Charge =  0 Multiplicity = 1

                         Standard orientation:
 ---------------------------------------------------------------------
 Center     Atomic      Atomic             Coordinates (Angstroms)
 Number     Number       Type             X           Y           Z
 ---------------------------------------------------------------------
      1          6           0        1.612113   -1.234814    0.480790
      2          1           0        1.115160   -2.096482    0.916594
      3          6           0        3.005365   -1.166485    0.434298
      4          1           0        3.611199   -1.983664    0.816509
      5          6           0        3.599200   -0.014840   -0.088887
      6          1           0        4.678629    0.091536   -0.142383
      7          6           0        2.765184    1.015283   -0.537493
      8          1           0        3.190973    1.932525   -0.940184
      9          7           0        1.423943    0.964031   -0.505894
     10          6           0        0.854748   -0.161808   -0.024881
     11          6           0       -2.678201   -1.527268   -0.298037
     12          1           0       -3.153026   -2.481133   -0.509305
     13          6           0       -1.285023   -1.436759   -0.257208
     14          1           0       -0.685460   -2.322812   -0.449479
     15          6           0       -0.625259   -0.220480    0.011871
     16          6           0       -1.436563    0.914632    0.176215
     17          6           0       -2.827478    0.847491    0.135895
     18          1           0       -3.395962    1.759484    0.291128
     19          6           0       -3.453558   -0.376346   -0.116987
     20          1           0       -4.537966   -0.429109   -0.155999
     21          9           0       -0.886035    2.105535    0.468991
 ---------------------------------------------------------------------

 SCF Done:  E(RHF) =  -575.324851997     A.U. after    2 cycles

 The electronic state is 1-A.
 Alpha  occ. eigenvalues --  -26.12687 -15.63199 -11.34471 -11.30235 -11.28912
 Alpha  occ. eigenvalues --  -11.27362 -11.26609 -11.26330 -11.26323 -11.25604
 Alpha  occ. eigenvalues --  -11.25512 -11.25447 -11.25334  -1.66756  -1.23265
 Alpha  occ. eigenvalues --   -1.15692  -1.07767  -1.06349  -1.02357  -0.99929
 Alpha  occ. eigenvalues --   -0.88607  -0.87489  -0.84782  -0.82993  -0.76517
 Alpha  occ. eigenvalues --   -0.74205  -0.73905  -0.72046  -0.67966  -0.66810
 Alpha  occ. eigenvalues --   -0.65242  -0.61876  -0.61518  -0.60260  -0.58055
 Alpha  occ. eigenvalues --   -0.55436  -0.54437  -0.52412  -0.51297  -0.50876
 Alpha  occ. eigenvalues --   -0.41504  -0.39236  -0.37580  -0.34725  -0.31789
 Alpha virt. eigenvalues --    0.02970   0.03324   0.04063   0.04752   0.05209
 Alpha virt. eigenvalues --    0.05831   0.06404   0.06908   0.07157   0.09085
 Alpha virt. eigenvalues --    0.09728   0.10144   0.10746   0.11272   0.11719

 Mulliken charges:
               1
     1  C    1.202745
     2  H   -0.529370
     3  C   -0.502625
     4  H   -0.401464
     5  C    0.912500
     6  H   -0.411099
     7  C    0.425874
     8  H   -0.389692
     9  N   -0.417264
    10  C   -0.574082
    11  C    0.204024
    12  H   -0.430141
    13  C    0.298252
    14  H   -0.589383
    15  C    1.150115
    16  C    0.034216
    17  C    0.647262
    18  H   -0.459522
    19  C    0.512367
    20  H   -0.413214
    21  F   -0.269498
 Sum of Mulliken charges =  -0.00000

 Dipole moment (field-independent basis, Debye):
    X=              0.3032    Y=             -3.0122    Z=              0.2370  Tot=              3.0366

 Test job not archived.
 1\1\GINC-SE252\SP\RHF\Aug-CC-pVDZ\C11H8F1N1\OHZDE\09-Apr-2025\0\\#t hf
  aug-cc-pvdz iop(5/13=1,5/36=2,99/5=2) pseudo=read geom=check guess=(r
 ead,tcheck) scf=(maxcycle=1)\\title\\0,1\C,0,21.8504,-32.2099,0.65\H,0
 ,22.4083,-31.5003,1.2538\C,0,20.4592,-32.1336,0.568\H,0,19.9174,-31.35
 1,1.0923\C,0,19.7815,-33.1002,-0.1797\H,0,18.6994,-33.0899,-0.2708\C,0
 ,20.5333,-34.0999,-0.8069\H,0,20.04,-34.877,-1.3879\N,0,21.8717,-34.18
 5,-0.7437\C,0,22.524,-33.2331,-0.0428\C,0,26.1741,-32.187,0.0144\H,0,2
 6.741,-31.2605,0.0013\C,0,24.7779,-32.1492,0.0137\H,0,24.2687,-31.1892

 Normal termination of Gaussian 16 at Wed Apr  9 02:25:36 2025.
