 Gaussian 16, Revision C.01,

 ----------------------------------------------------------------------
 #t hf aug-cc-pvdz symm=none int=(grid=ultrafine) guess=(read,tcheck) s
 table=(opt,rrhf)
 ----------------------------------------------------------------------
 -----
 title
 -----
 Symbolic Z-matrix:
 Charge =  0 Multiplicity = 1

 SCF Done:  E(RHF) =  -719.109527197     A.U. after   16 cycles
 Normal termination of Gaussian 16 at Wed Apr  9 02:19:10 2025.
 Gaussian 16:  ES64L-G16RevC.01  3-Jul-2019

 ----------------------------------------------------------------------
 #t hf aug-cc-pvdz iop(5/13=1,5/36=2,99/5=2) pseudo=read geom=check gue
 ss=(read,tcheck) scf=(maxcycle=1)
 ----------------------------------------------------------------------
 -----
 title
 -----
 Structure from the checkpoint file:  "DCONF_28_100_mol1.chk"
 Charge =  0 Multiplicity = 1

                         Standard orientation:
 ---------------------------------------------------------------------
 Center     Atomic      Atomic             Coordinates (Angstroms)
 Number     Number       Type             X           Y           Z
 ---------------------------------------------------------------------
      1          8           0        2.138527    0.456716   -1.210099
      2          6           0        2.360413   -0.340283    1.054646
      3          1           0        2.135869    0.332490    1.889050
      4          1           0        2.016581   -1.339855    1.341700
      5          1           0        3.432730   -0.352919    0.853969
      6          6           0        1.607498    0.128881   -0.164780
      7          7           0       -0.523380    1.342833    0.207201
      8          6           0       -1.876869    1.130685    0.245387
      9          1           0       -2.543587    1.965593    0.426082
     10          6           0       -2.282100   -0.171995    0.043674
     11          1           0       -3.287922   -0.569347    0.021624
     12         16           0       -0.917738   -1.175511   -0.202490
     13          6           0        0.105322    0.205824   -0.022626
 ---------------------------------------------------------------------

 SCF Done:  E(RHF) =  -719.227035078     A.U. after    2 cycles

 The electronic state is 1-A.
 Alpha  occ. eigenvalues --  -93.59515 -20.58733 -15.65543 -11.37273 -11.33854
 Alpha  occ. eigenvalues --  -11.29590 -11.29037 -11.26157  -8.89386  -6.23502
 Alpha  occ. eigenvalues --   -6.23373  -6.23017  -1.37116  -1.26674  -1.06781
 Alpha  occ. eigenvalues --   -1.05114  -0.99766  -0.85872  -0.80433  -0.73176
 Alpha  occ. eigenvalues --   -0.70671  -0.65641  -0.64344  -0.62722  -0.58742
 Alpha  occ. eigenvalues --   -0.57851  -0.56180  -0.52242  -0.51996  -0.47091
 Alpha  occ. eigenvalues --   -0.43306  -0.40297  -0.35294
 Alpha virt. eigenvalues --    0.02989   0.03670   0.04470   0.05978   0.06038
 Alpha virt. eigenvalues --    0.07789   0.08071   0.09522   0.10316   0.10659
 Alpha virt. eigenvalues --    0.10914   0.11888   0.12411   0.13247   0.13951

 Mulliken charges:
               1
     1  O   -0.516303
     2  C    0.321144
     3  H    0.074281
     4  H    0.054060
     5  H   -0.092033
     6  C    0.085684
     7  N   -0.570233
     8  C    0.675566
     9  H   -0.252595
    10  C    0.182337
    11  H   -0.359107
    12  S    0.524642
    13  C   -0.127443
 Sum of Mulliken charges =  -0.00000

 Dipole moment (field-independent basis, Debye):
    X=             -2.0890    Y=             -2.1956    Z=              2.8207  Tot=              4.1401

 Test job not archived.
 1\1\GINC-SE092\SP\RHF\Aug-CC-pVDZ\C5H5N1O1S1\OHZDE\09-Apr-2025\0\\#t h
 f aug-cc-pvdz iop(5/13=1,5/36=2,99/5=2) pseudo=read geom=check guess=(
 read,tcheck) scf=(maxcycle=1)\\title\\0,1\O,0,21.4383,-17.8041,-1.0655
 \C,0,21.4361,-17.3999,1.3115\H,0,21.5663,-18.2392,2.0028\H,0,21.9601,-
 16.5399,1.7423\H,0,20.3767,-17.172,1.1849\C,0,22.0534,-17.7625,-0.0157
 \N,0,23.9482,-19.3631,0.0067\C,0,25.3184,-19.3911,-0.0061\H,0,25.8332,
 -20.3446,-0.0135\C,0,25.9399,-18.16,-0.0081\H,0,26.9987,-17.9394,-0.02
 63\S,0,24.7663,-16.9144,0.0083\C,0,23.5224,-18.1143,0.0149\\Version=ES

 Normal termination of Gaussian 16 at Wed Apr  9 02:19:15 2025.
