 Gaussian 16, Revision C.01,

 ----------------------------------------------------------------------
 #t hf aug-cc-pvdz symm=none int=(grid=ultrafine) guess=(read,tcheck) s
 table=(opt,rrhf)
 ----------------------------------------------------------------------
 -----
 title
 -----
 Symbolic Z-matrix:
 Charge =  0 Multiplicity = 1

 SCF Done:  E(RHF) =  -1153.55235026     A.U. after   16 cycles
 Normal termination of Gaussian 16 at Wed Apr  9 02:19:54 2025.
 Gaussian 16:  ES64L-G16RevC.01  3-Jul-2019

 ----------------------------------------------------------------------
 #t hf aug-cc-pvdz iop(5/13=1,5/36=2,99/5=2) pseudo=read geom=check gue
 ss=(read,tcheck) scf=(maxcycle=1)
 ----------------------------------------------------------------------
 -----
 title
 -----
 Structure from the checkpoint file:  "DCONF_29_0_mol2.chk"
 Charge =  0 Multiplicity = 1

                         Standard orientation:
 ---------------------------------------------------------------------
 Center     Atomic      Atomic             Coordinates (Angstroms)
 Number     Number       Type             X           Y           Z
 ---------------------------------------------------------------------
      1          6           0        2.748234   -0.033849   -0.040982
      2          1           0        3.779586   -0.357066   -0.093524
      3          6           0        2.259233    1.256825    0.065091
      4          1           0        2.870285    2.150969    0.104719
      5          7           0        0.899960    1.363764    0.120255
      6          6           0        0.365500    0.158227    0.053370
      7         16           0        1.462401   -1.157574   -0.088405
      8         16           0       -1.397667   -0.111532    0.126341
      9          6           0       -1.983529    1.042966   -1.091393
     10          1           0       -1.674092    2.044286   -0.792533
     11          1           0       -3.071761    0.950807   -1.093637
     12          1           0       -1.571455    0.765847   -2.062092
     13          8           0       -1.893600    0.305739    1.428396
     14          8           0       -1.606980   -1.473302   -0.356924
 ---------------------------------------------------------------------

 SCF Done:  E(RHF) =  -1153.75502069     A.U. after    2 cycles

 The electronic state is 1-A.
 Alpha  occ. eigenvalues --  -93.79938 -93.61358 -20.56852 -20.56669 -15.68030
 Alpha  occ. eigenvalues --  -11.35837 -11.31087 -11.30840 -11.29304  -9.06601
 Alpha  occ. eigenvalues --   -8.91133  -6.41219  -6.41053  -6.40978  -6.25221
 Alpha  occ. eigenvalues --   -6.25100  -6.24753  -1.42568  -1.31034  -1.28811
 Alpha  occ. eigenvalues --   -1.08769  -1.06629  -1.02112  -0.89176  -0.82314
 Alpha  occ. eigenvalues --   -0.76897  -0.73026  -0.68574  -0.67524  -0.66428
 Alpha  occ. eigenvalues --   -0.62206  -0.61565  -0.60292  -0.58570  -0.53900
 Alpha  occ. eigenvalues --   -0.52634  -0.52248  -0.49965  -0.49041  -0.45300
 Alpha  occ. eigenvalues --   -0.41706  -0.37083
 Alpha virt. eigenvalues --    0.02571   0.03568   0.04174   0.05101   0.05833
 Alpha virt. eigenvalues --    0.06613   0.07830   0.09498   0.10285   0.10859
 Alpha virt. eigenvalues --    0.11239   0.11705   0.12679   0.12916   0.13584

 Mulliken charges:
               1
     1  C    0.248556
     2  H   -0.369312
     3  C    0.681918
     4  H   -0.273681
     5  N   -0.525865
     6  C   -0.710111
     7  S    0.515897
     8  S    2.582439
     9  C   -0.000976
    10  H    0.035499
    11  H    0.028731
    12  H    0.004442
    13  O   -1.103400
    14  O   -1.114137
 Sum of Mulliken charges =  -0.00000

 Dipole moment (field-independent basis, Debye):
    X=              3.8726    Y=              2.1410    Z=             -3.2609  Tot=              5.4968

 Test job not archived.
 1\1\GINC-SE292\SP\RHF\Aug-CC-pVDZ\C4H5N1O2S2\OHZDE\09-Apr-2025\0\\#t h
 f aug-cc-pvdz iop(5/13=1,5/36=2,99/5=2) pseudo=read geom=check guess=(
 read,tcheck) scf=(maxcycle=1)\\title\\0,1\C,0,2.0276,-24.6262,-0.8858\
 H,0,0.9754,-24.6379,-1.1381\C,0,2.8197,-25.6809,-0.4658\H,0,2.4774,-26
 .7008,-0.3351\N,0,4.1226,-25.3668,-0.2091\C,0,4.3132,-24.0803,-0.4372\
 S,0,2.9466,-23.1891,-0.9783\S,0,5.8923,-23.2876,-0.1824\C,0,6.9835,-24
 .3804,-1.0622\H,0,6.9073,-25.3728,-0.6183\H,0,7.987,-23.9682,-0.9364\H
 ,0,6.6984,-24.3858,-2.1146\O,0,6.2334,-23.3403,1.2305\O,0,5.8103,-22.0

 Normal termination of Gaussian 16 at Wed Apr  9 02:20:00 2025.
