 Gaussian 16, Revision C.01,

 ----------------------------------------------------------------------
 #t hf aug-cc-pvdz symm=none int=(grid=ultrafine) guess=(read,tcheck) s
 table=(opt,rrhf)
 ----------------------------------------------------------------------
 -----
 title
 -----
 Symbolic Z-matrix:
 Charge =  0 Multiplicity = 1

 SCF Done:  E(RHF) =  -774.177582128     A.U. after   15 cycles
 Normal termination of Gaussian 16 at Wed Apr  9 02:21:31 2025.
 Gaussian 16:  ES64L-G16RevC.01  3-Jul-2019

 ----------------------------------------------------------------------
 #t hf aug-cc-pvdz iop(5/13=1,5/36=2,99/5=2) pseudo=read geom=check gue
 ss=(read,tcheck) scf=(maxcycle=1)
 ----------------------------------------------------------------------
 -----
 title
 -----
 Structure from the checkpoint file:  "DCONF_42_0_mol1.chk"
 Charge =  0 Multiplicity = 1

                         Standard orientation:
 ---------------------------------------------------------------------
 Center     Atomic      Atomic             Coordinates (Angstroms)
 Number     Number       Type             X           Y           Z
 ---------------------------------------------------------------------
      1          6           0       -2.209914   -0.150252   -0.014674
      2          7           0       -0.937218   -0.742202    0.035570
      3          1           0       -0.977508   -1.725275   -0.210284
      4          7           0        0.538911    1.145087   -0.185405
      5          6           0        1.893944    1.388034   -0.167979
      6          1           0        2.249417    2.404361   -0.287699
      7          6           0        2.701573    0.287864   -0.021490
      8          1           0        3.781532    0.239079   -0.010407
      9         16           0        1.738299   -1.128256    0.135968
     10          6           0        0.314089   -0.138524   -0.043752
     11          8           0       -3.166264   -0.865322   -0.263769
     12          6           0       -2.319497    1.315880    0.306869
     13          1           0       -1.741516    1.566079    1.198597
     14          1           0       -3.375959    1.541533    0.451954
     15          1           0       -1.911655    1.910688   -0.512495
 ---------------------------------------------------------------------

 SCF Done:  E(RHF) =  -774.312771276     A.U. after    2 cycles

 The electronic state is 1-A.
 Alpha  occ. eigenvalues --  -93.59026 -20.55841 -15.68676 -15.64187 -11.38773
 Alpha  occ. eigenvalues --  -11.38457 -11.29734 -11.28284 -11.24637  -8.88932
 Alpha  occ. eigenvalues --   -6.23056  -6.22926  -6.22543  -1.36738  -1.28877
 Alpha  occ. eigenvalues --   -1.20588  -1.06840  -1.01508  -0.98968  -0.84846
 Alpha  occ. eigenvalues --   -0.82241  -0.75510  -0.71582  -0.68766  -0.65164
 Alpha  occ. eigenvalues --   -0.63945  -0.60880  -0.58559  -0.58278  -0.56798
 Alpha  occ. eigenvalues --   -0.53505  -0.51760  -0.46869  -0.45858  -0.44210
 Alpha  occ. eigenvalues --   -0.40457  -0.32813
 Alpha virt. eigenvalues --    0.02975   0.03835   0.04286   0.05217   0.05861
 Alpha virt. eigenvalues --    0.07255   0.08445   0.08860   0.09902   0.10693
 Alpha virt. eigenvalues --    0.11070   0.11847   0.12341   0.12755   0.12951

 Mulliken charges:
               1
     1  C    0.409858
     2  N   -0.443280
     3  H   -0.045810
     4  N   -0.356522
     5  C    0.631503
     6  H   -0.286167
     7  C    0.145981
     8  H   -0.375069
     9  S    0.517265
    10  C   -0.073313
    11  O   -0.534108
    12  C    0.351495
    13  H    0.039812
    14  H   -0.113277
    15  H    0.131633
 Sum of Mulliken charges =  -0.00000

 Dipole moment (field-independent basis, Debye):
    X=              3.7613    Y=              1.0030    Z=              0.5331  Tot=              3.9291

 Test job not archived.
 1\1\GINC-SE041\SP\RHF\Aug-CC-pVDZ\C5H6N2O1S1\OHZDE\09-Apr-2025\0\\#t h
 f aug-cc-pvdz iop(5/13=1,5/36=2,99/5=2) pseudo=read geom=check guess=(
 read,tcheck) scf=(maxcycle=1)\\title\\0,1\C,0,28.0372,-17.3884,-0.0684
 \N,0,29.327,-16.8351,-0.014\H,0,29.3077,-15.8893,0.3515\N,0,30.7426,-1
 8.7807,0.0051\C,0,32.0902,-19.0621,-0.0101\H,0,32.4134,-20.0961,-0.009
 6\C,0,32.9323,-17.9782,0.0011\H,0,34.0131,-17.9624,0.022\S,0,32.0141,-
 16.5239,-0.0015\C,0,30.5581,-17.483,0.0193\O,0,27.0949,-16.68,0.245\C,
 0,27.8952,-18.7992,-0.5728\H,0,28.4903,-18.955,-1.4747\H,0,26.8372,-18

 Normal termination of Gaussian 16 at Wed Apr  9 02:21:40 2025.
