 Gaussian 16, Revision C.01,

 ----------------------------------------------------------------------
 #t hf aug-cc-pvdz symm=none int=(grid=ultrafine) guess=(read,tcheck) s
 table=(opt,rrhf)
 ----------------------------------------------------------------------
 -----
 title
 -----
 Symbolic Z-matrix:
 Charge =  0 Multiplicity = 1

 SCF Done:  E(RHF) =  -453.940158646     A.U. after   11 cycles
 Normal termination of Gaussian 16 at Wed Apr  9 02:16:52 2025.
 Gaussian 16:  ES64L-G16RevC.01  3-Jul-2019

 ----------------------------------------------------------------------
 #t hf aug-cc-pvdz iop(5/13=1,5/36=2,99/5=2) pseudo=read geom=check gue
 ss=(read,tcheck) scf=(maxcycle=1)
 ----------------------------------------------------------------------
 -----
 title
 -----
 Structure from the checkpoint file:  "DCONF_10_-100_mol1.chk"
 Charge =  0 Multiplicity = 1

                         Standard orientation:
 ---------------------------------------------------------------------
 Center     Atomic      Atomic             Coordinates (Angstroms)
 Number     Number       Type             X           Y           Z
 ---------------------------------------------------------------------
      1          6           0        0.467290   -0.602574   -0.055241
      2          1           0        0.564160   -1.317011    0.766413
      3          1           0        0.552164   -1.162171   -0.991454
      4          6           0        1.570132    0.456180   -0.000510
      5          1           0        1.472704    1.121380   -0.862700
      6          1           0        1.444818    1.074446    0.894862
      7          6           0        2.952540   -0.195417    0.007148
      8          1           0        3.098234   -0.809512   -0.887338
      9          1           0        3.076112   -0.840188    0.882772
     10          1           0        3.741579    0.560775    0.029834
     11          6           0       -0.939740   -0.038245   -0.001107
     12          9           0       -1.007114    1.255169   -0.364599
     13          9           0       -1.773393   -0.715674   -0.820706
     14          9           0       -1.469616   -0.133649    1.237067
 ---------------------------------------------------------------------

 SCF Done:  E(RHF) =  -454.099794528     A.U. after    2 cycles

 The electronic state is 1-A.
 Alpha  occ. eigenvalues --  -26.15834 -26.15481 -26.15355 -11.51576 -11.26653
 Alpha  occ. eigenvalues --  -11.25244 -11.24037  -1.75234  -1.68273  -1.67845
 Alpha  occ. eigenvalues --   -1.10668  -1.02728  -0.95046  -0.87433  -0.87035
 Alpha  occ. eigenvalues --   -0.84484  -0.80092  -0.76593  -0.76146  -0.72008
 Alpha  occ. eigenvalues --   -0.71767  -0.70680  -0.65412  -0.61920  -0.58096
 Alpha  occ. eigenvalues --   -0.56271  -0.51624  -0.50669  -0.49694
 Alpha virt. eigenvalues --    0.03259   0.04522   0.04724   0.05427   0.07058
 Alpha virt. eigenvalues --    0.07366   0.08023   0.09072   0.11265   0.12923
 Alpha virt. eigenvalues --    0.13334   0.13393   0.15246   0.15553   0.16496

 Mulliken charges:
               1
     1  C   -0.000608
     2  H   -0.083023
     3  H   -0.061132
     4  C    0.130506
     5  H   -0.091111
     6  H   -0.113032
     7  C    0.351863
     8  H   -0.046340
     9  H   -0.058482
    10  H   -0.058481
    11  C    1.008321
    12  F   -0.336950
    13  F   -0.315470
    14  F   -0.326059
 Sum of Mulliken charges =  -0.00000

 Dipole moment (field-independent basis, Debye):
    X=              2.9606    Y=             -0.7388    Z=             -0.1146  Tot=              3.0535

 Test job not archived.
 1\1\GINC-SE334\SP\RHF\Aug-CC-pVDZ\C4H7F3\OHZDE\09-Apr-2025\0\\#t hf au
 g-cc-pvdz iop(5/13=1,5/36=2,99/5=2) pseudo=read geom=check guess=(read
 ,tcheck) scf=(maxcycle=1)\\title\\0,1\C,0,-0.1421,0.0053,0.1881\H,0,0.
 1048,-0.6029,1.0622\H,0,0.1606,-0.5557,-0.701\C,0,0.6013,1.342,0.2165\
 H,0,0.3707,1.9008,-0.6945\H,0,0.2456,1.9449,1.0589\C,0,2.1097,1.1254,0
 .3327\H,0,2.4836,0.5325,-0.5082\H,0,2.3585,0.5945,1.2568\H,0,2.643,2.0
 796,0.3367\C,0,-1.6527,0.1348,0.1386\F,0,-2.0682,1.3296,-0.319\F,0,-2.
 2006,-0.8013,-0.6671\F,0,-2.2101,-0.0431,1.3554\\Version=ES64L-G16RevC

 Normal termination of Gaussian 16 at Wed Apr  9 02:16:57 2025.
