 Gaussian 16, Revision C.01,

 ----------------------------------------------------------------------
 #t hf aug-cc-pvdz symm=none int=(grid=ultrafine) guess=(read,tcheck) s
 table=(opt,rrhf)
 ----------------------------------------------------------------------
 -----
 title
 -----
 Symbolic Z-matrix:
 Charge =  0 Multiplicity = 1

 SCF Done:  E(RHF) =  -559.161063600     A.U. after   17 cycles

 1\1\GINC-SE253\Stability\RHF\Aug-CC-pVDZ\C12H9F1\OHZDE\09-Apr-2025\0\\
 #t hf aug-cc-pvdz symm=none int=(grid=ultrafine) guess=(read,tcheck) s
 table=(opt,rrhf)\\title\\0,1\C,0,12.8196,-33.7918,-1.1444\H,0,13.3493,
 -34.1771,-2.0106\C,0,11.4233,-33.7178,-1.1561\H,0,10.8749,-34.056,-2.0
 315\C,0,10.7322,-33.2001,-0.0534\H,0,9.6469,-33.1448,-0.0658\C,0,11.44
 67,-32.7579,1.0664\H,0,10.918,-32.3606,1.9292\C,0,12.8433,-32.8311,1.0
 809\H,0,13.3954,-32.5111,1.9617\C,0,13.5449,-33.3553,-0.0206\C,0,17.14
 4,-32.2319,0.468\H,0,17.6722,-31.3557,0.8328\C,0,15.7463,-32.2491,0.46

 Normal termination of Gaussian 16 at Wed Apr  9 02:25:24 2025.
 Gaussian 16:  ES64L-G16RevC.01  3-Jul-2019

 ----------------------------------------------------------------------
 #t hf aug-cc-pvdz iop(5/13=1,5/36=2,99/5=2) pseudo=read geom=check gue
 ss=(read,tcheck) scf=(maxcycle=1)
 ----------------------------------------------------------------------
 -----
 title
 -----
 Structure from the checkpoint file:  "DCONF_47_0_mol2.chk"
 Charge =  0 Multiplicity = 1

                         Standard orientation:
 ---------------------------------------------------------------------
 Center     Atomic      Atomic             Coordinates (Angstroms)
 Number     Number       Type             X           Y           Z
 ---------------------------------------------------------------------
      1          6           0       -1.515219    0.933769    0.613678
      2          1           0       -0.952535    1.736829    1.080392
      3          6           0       -2.913170    0.956750    0.635429
      4          1           0       -3.429290    1.785611    1.112980
      5          6           0       -3.647769   -0.086241    0.057403
      6          1           0       -4.734180   -0.064614    0.075591
      7          6           0       -2.975123   -1.154798   -0.547359
      8          1           0       -3.537440   -1.965362   -1.004067
      9          6           0       -1.576958   -1.180129   -0.570843
     10          1           0       -1.056190   -1.998037   -1.063642
     11          6           0       -0.831526   -0.133274    0.002530
     12          6           0        2.691138   -1.512728    0.379652
     13          1           0        3.163816   -2.457079    0.633770
     14          6           0        1.296891   -1.419733    0.342932
     15          1           0        0.687286   -2.288576    0.578903
     16          6           0        0.645390   -0.212733    0.021789
     17          6           0        1.466065    0.897283   -0.224329
     18          6           0        2.855542    0.834420   -0.193180
     19          1           0        3.428606    1.730853   -0.409690
     20          6           0        3.473237   -0.381118    0.119096
     21          1           0        4.557329   -0.441140    0.151054
     22          9           0        0.895734    2.079190   -0.552898
 ---------------------------------------------------------------------

 SCF Done:  E(RHF) =  -559.327586426     A.U. after    2 cycles

 The electronic state is 1-A.
 Alpha  occ. eigenvalues --  -26.13523 -11.34352 -11.26748 -11.26230 -11.26122
 Alpha  occ. eigenvalues --  -11.26085 -11.25819 -11.25439 -11.25081 -11.25000
 Alpha  occ. eigenvalues --  -11.24944 -11.24878 -11.24806  -1.67393  -1.16751
 Alpha  occ. eigenvalues --   -1.13790  -1.05656  -1.02540  -1.01037  -0.98796
 Alpha  occ. eigenvalues --   -0.87365  -0.86884  -0.82954  -0.81406  -0.76403
 Alpha  occ. eigenvalues --   -0.75063  -0.74126  -0.71443  -0.67850  -0.64580
 Alpha  occ. eigenvalues --   -0.63923  -0.61865  -0.61366  -0.59736  -0.59204
 Alpha  occ. eigenvalues --   -0.54623  -0.52640  -0.52379  -0.49957  -0.49872
 Alpha  occ. eigenvalues --   -0.49464  -0.37836  -0.34947  -0.34177  -0.31236
 Alpha virt. eigenvalues --    0.03287   0.03589   0.03993   0.04697   0.05011
 Alpha virt. eigenvalues --    0.05901   0.06232   0.06793   0.07453   0.07981
 Alpha virt. eigenvalues --    0.09953   0.10288   0.10366   0.11523   0.11747

 Mulliken charges:
               1
     1  C    0.237215
     2  H   -0.578498
     3  C    0.343703
     4  H   -0.447592
     5  C    0.544096
     6  H   -0.435176
     7  C    0.249534
     8  H   -0.442455
     9  C    0.285981
    10  H   -0.568770
    11  C    0.901764
    12  C    0.189621
    13  H   -0.440346
    14  C    0.236305
    15  H   -0.550311
    16  C    0.746712
    17  C   -0.214805
    18  C    0.553648
    19  H   -0.442874
    20  C    0.548928
    21  H   -0.415196
    22  F   -0.301485
 Sum of Mulliken charges =  -0.00000

 Dipole moment (field-independent basis, Debye):
    X=              0.6642    Y=             -1.5888    Z=              0.5354  Tot=              1.8034

 Test job not archived.
 1\1\GINC-SE253\SP\RHF\Aug-CC-pVDZ\C12H9F1\OHZDE\09-Apr-2025\0\\#t hf a
 ug-cc-pvdz iop(5/13=1,5/36=2,99/5=2) pseudo=read geom=check guess=(rea
 d,tcheck) scf=(maxcycle=1)\\title\\0,1\C,0,12.8196,-33.7918,-1.1444\H,
 0,13.3493,-34.1771,-2.0106\C,0,11.4233,-33.7178,-1.1561\H,0,10.8749,-3
 4.056,-2.0315\C,0,10.7322,-33.2001,-0.0534\H,0,9.6469,-33.1448,-0.0658
 \C,0,11.4467,-32.7579,1.0664\H,0,10.918,-32.3606,1.9292\C,0,12.8433,-3
 2.8311,1.0809\H,0,13.3954,-32.5111,1.9617\C,0,13.5449,-33.3553,-0.0206
 \C,0,17.144,-32.2319,0.468\H,0,17.6722,-31.3557,0.8328\C,0,15.7463,-32

 Normal termination of Gaussian 16 at Wed Apr  9 02:25:42 2025.
