 Gaussian 16, Revision C.01,

 ----------------------------------------------------------------------
 #t hf aug-cc-pvdz symm=none int=(grid=ultrafine) guess=(read,tcheck) s
 table=(opt,rrhf)
 ----------------------------------------------------------------------
 -----
 title
 -----
 Symbolic Z-matrix:
 Charge =  0 Multiplicity = 1

 SCF Done:  E(RHF) =  -758.167063421     A.U. after   15 cycles
 Normal termination of Gaussian 16 at Wed Apr  9 02:20:36 2025.
 Gaussian 16:  ES64L-G16RevC.01  3-Jul-2019

 ----------------------------------------------------------------------
 #t hf aug-cc-pvdz iop(5/13=1,5/36=2,99/5=2) pseudo=read geom=check gue
 ss=(read,tcheck) scf=(maxcycle=1)
 ----------------------------------------------------------------------
 -----
 title
 -----
 Structure from the checkpoint file:  "DCONF_38_-110_mol1.chk"
 Charge =  0 Multiplicity = 1

                         Standard orientation:
 ---------------------------------------------------------------------
 Center     Atomic      Atomic             Coordinates (Angstroms)
 Number     Number       Type             X           Y           Z
 ---------------------------------------------------------------------
      1          6           0       -2.153911    0.072258   -0.000111
      2          7           0       -1.046748    0.533889   -0.699481
      3          1           0       -1.248694    0.844150   -1.643353
      4          6           0        1.142584    1.398433    0.129705
      5          1           0        0.805858    2.422450    0.250682
      6          6           0        2.451759    0.926297    0.399916
      7          1           0        3.265172    1.543874    0.763443
      8          6           0        2.583421   -0.429807    0.159243
      9          1           0        3.460758   -1.048249    0.299395
     10         16           0        1.125335   -1.123681   -0.411725
     11          6           0        0.293204    0.393500   -0.302209
     12          8           0       -3.267927    0.124004   -0.496963
     13          6           0       -1.878113   -0.471053    1.385143
     14          1           0       -1.107662    0.107095    1.900287
     15          1           0       -2.812119   -0.451056    1.946280
     16          1           0       -1.531691   -1.506379    1.312808
 ---------------------------------------------------------------------

 SCF Done:  E(RHF) =  -758.298487692     A.U. after    2 cycles

 The electronic state is 1-A.
 Alpha  occ. eigenvalues --  -93.57950 -20.54253 -15.66585 -11.37454 -11.32418
 Alpha  occ. eigenvalues --  -11.28926 -11.26627 -11.26509 -11.24792  -8.87804
 Alpha  occ. eigenvalues --   -6.21930  -6.21795  -6.21456  -1.35088  -1.22865
 Alpha  occ. eigenvalues --   -1.15445  -1.00760  -0.99640  -0.97630  -0.82280
 Alpha  occ. eigenvalues --   -0.77858  -0.76645  -0.72028  -0.68202  -0.63909
 Alpha  occ. eigenvalues --   -0.62634  -0.59460  -0.58074  -0.56773  -0.56408
 Alpha  occ. eigenvalues --   -0.53703  -0.52603  -0.49357  -0.44819  -0.41096
 Alpha  occ. eigenvalues --   -0.36389  -0.33933
 Alpha virt. eigenvalues --    0.02906   0.03820   0.04331   0.04577   0.05769
 Alpha virt. eigenvalues --    0.06596   0.07303   0.08376   0.09208   0.09763
 Alpha virt. eigenvalues --    0.11188   0.12059   0.12641   0.13095   0.13229

 Mulliken charges:
               1
     1  C    0.403512
     2  N   -0.532025
     3  H   -0.084830
     4  C    0.365083
     5  H   -0.416236
     6  C    0.279545
     7  H   -0.302331
     8  C   -0.041656
     9  H   -0.332856
    10  S    0.780171
    11  C    0.131834
    12  O   -0.539688
    13  C    0.272697
    14  H    0.032918
    15  H   -0.086495
    16  H    0.070356
 Sum of Mulliken charges =  -0.00000

 Dipole moment (field-independent basis, Debye):
    X=              4.3793    Y=              0.4668    Z=              1.4007  Tot=              4.6215

 Test job not archived.
 1\1\GINC-SE253\SP\RHF\Aug-CC-pVDZ\C6H7N1O1S1\OHZDE\09-Apr-2025\0\\#t h
 f aug-cc-pvdz iop(5/13=1,5/36=2,99/5=2) pseudo=read geom=check guess=(
 read,tcheck) scf=(maxcycle=1)\\title\\0,1\C,0,28.7971,-4.0798,-1.016\N
 ,0,29.4384,-4.7262,0.0323\H,0,28.9691,-4.6382,0.9267\C,0,31.0795,-6.60
 62,0.0089\H,0,30.3312,-7.3914,-0.0029\C,0,32.4827,-6.8081,0.0205\H,0,3
 2.9641,-7.7794,0.0156\C,0,33.1868,-5.6171,0.0266\H,0,34.2604,-5.4789,0
 .0158\S,0,32.1455,-4.2573,0.0375\C,0,30.7351,-5.2649,-0.0048\O,0,27.72
 27,-3.5272,-0.8403\C,0,29.5086,-4.1244,-2.3509\H,0,29.9948,-5.0882,-2.

 Normal termination of Gaussian 16 at Wed Apr  9 02:20:44 2025.
