 Gaussian 16, Revision C.01,

 ----------------------------------------------------------------------
 #t hf aug-cc-pvdz symm=none int=(grid=ultrafine) guess=(read,tcheck) s
 table=(opt,rrhf)
 ----------------------------------------------------------------------
 -----
 title
 -----
 Symbolic Z-matrix:
 Charge = -1 Multiplicity = 1

 SCF Done:  E(RHF) =  -1292.99051364     A.U. after   15 cycles
 Normal termination of Gaussian 16 at Wed Apr  9 02:39:52 2025.
 Gaussian 16:  ES64L-G16RevC.01  3-Jul-2019

 ----------------------------------------------------------------------
 #t hf aug-cc-pvdz iop(5/13=1,5/36=2,99/5=2) pseudo=read geom=check gue
 ss=(read,tcheck) scf=(maxcycle=1)
 ----------------------------------------------------------------------
 -----
 title
 -----
 Structure from the checkpoint file:  "E2SN2_209_mol2.chk"
 Charge = -1 Multiplicity = 1

                         Standard orientation:
 ---------------------------------------------------------------------
 Center     Atomic      Atomic             Coordinates (Angstroms)
 Number     Number       Type             X           Y           Z
 ---------------------------------------------------------------------
      1          6           0        0.027259   -0.263863    0.213330
      2          6           0       -0.017005    1.212719   -0.106517
      3         17           0       -0.721269   -0.627404    1.773018
      4          1           0        0.520694    1.372768   -1.040853
      5          1           0        1.086936   -0.553840    0.239958
      6          1           0        0.566987    1.716141    0.665898
      7          7           0       -0.634154   -1.091916   -0.864447
      8          8           0       -0.852575   -0.532554   -1.937401
      9          8           0       -0.836639   -2.275875   -0.625094
     10          6           0       -1.369974    1.759571   -0.174074
     11          7           0       -2.447847    2.221524   -0.217552
     12         17           0        3.137235    0.378847   -0.089929
 ---------------------------------------------------------------------

 SCF Done:  E(RHF) =  -1293.13318110     A.U. after    2 cycles

 The electronic state is 1-A.
 Alpha  occ. eigenvalues -- -103.57867-103.39131 -20.53037 -20.52799 -15.82359
 Alpha  occ. eigenvalues --  -15.54833 -11.27132 -11.20152 -11.19498 -10.61212
 Alpha  occ. eigenvalues --  -10.42219  -8.26946  -8.26629  -8.26618  -8.07820
 Alpha  occ. eigenvalues --   -8.07784  -8.07779  -1.45369  -1.27241  -1.11872
 Alpha  occ. eigenvalues --   -1.08486  -0.98035  -0.89799  -0.84539  -0.74384
 Alpha  occ. eigenvalues --   -0.68441  -0.64899  -0.63616  -0.58989  -0.53498
 Alpha  occ. eigenvalues --   -0.52868  -0.47497  -0.45028  -0.43520  -0.41986
 Alpha  occ. eigenvalues --   -0.38707  -0.37892  -0.37208  -0.35781  -0.35504
 Alpha  occ. eigenvalues --   -0.22593  -0.22301  -0.22240
 Alpha virt. eigenvalues --    0.13849   0.15166   0.15776   0.16803   0.17707
 Alpha virt. eigenvalues --    0.18557   0.21155   0.21771   0.22912   0.23601
 Alpha virt. eigenvalues --    0.24784   0.25074   0.26340   0.26765   0.26979

 Mulliken charges:
               1
     1  C    0.436090
     2  C    0.559212
     3  Cl  -0.100217
     4  H    0.119696
     5  H    0.023999
     6  H    0.042108
     7  N    0.437477
     8  O   -0.595342
     9  O   -0.597098
    10  C   -0.136324
    11  N   -0.264126
    12  Cl  -0.925473
 Sum of Mulliken charges =  -1.00000

 Dipole moment (field-independent basis, Debye):
    X=             -6.1330    Y=             -0.5688    Z=              1.8551  Tot=              6.4326

 Test job not archived.
 1\1\GINC-SE016\SP\RHF\Aug-CC-pVDZ\C3H3Cl2N2O2(1-)\OHZDE\09-Apr-2025\0\
 \#t hf aug-cc-pvdz iop(5/13=1,5/36=2,99/5=2) pseudo=read geom=check gu
 ess=(read,tcheck) scf=(maxcycle=1)\\title\\-1,1\C,0,-0.252793,0.13106,
 0.013267\C,0,-0.677609,0.086941,-1.436609\Cl,0,1.322956,-0.629296,0.26
 6164\H,0,-1.681168,0.505857,-1.508011\H,0,-1.01688,-0.411601,0.587202\
 H,0,-0.773047,-0.967611,-1.701025\N,0,-0.217212,1.545476,0.545154\O,0,
 -0.781462,2.405328,-0.128715\O,0,0.300385,1.72603,1.64039\C,0,0.245757
 ,0.767819,-2.341008\N,0,0.98266,1.29614,-3.085959\Cl,0,-2.994359,-1.48

 Normal termination of Gaussian 16 at Wed Apr  9 02:39:59 2025.
