 Gaussian 16, Revision C.01,

 ----------------------------------------------------------------------
 #t hf aug-cc-pvdz symm=none int=(grid=ultrafine) guess=(read,tcheck) s
 table=(opt,rrhf)
 ----------------------------------------------------------------------
 -----
 title
 -----
 Symbolic Z-matrix:
 Charge = -1 Multiplicity = 1

 SCF Done:  E(RHF) =  -567.943166044     A.U. after   16 cycles
 Normal termination of Gaussian 16 at Wed Apr  9 02:32:26 2025.
 Gaussian 16:  ES64L-G16RevC.01  3-Jul-2019

 ----------------------------------------------------------------------
 #t hf aug-cc-pvdz iop(5/13=1,5/36=2,99/5=2) pseudo=read geom=check gue
 ss=(read,tcheck) scf=(maxcycle=1)
 ----------------------------------------------------------------------
 -----
 title
 -----
 Structure from the checkpoint file:  "E2SN2_125_mol2.chk"
 Charge = -1 Multiplicity = 1

                         Standard orientation:
 ---------------------------------------------------------------------
 Center     Atomic      Atomic             Coordinates (Angstroms)
 Number     Number       Type             X           Y           Z
 ---------------------------------------------------------------------
      1          6           0       -0.171034   -0.540453   -0.135429
      2          6           0        0.778908    0.470342    0.533173
      3          9           0        0.061704   -0.549918   -1.490729
      4          1           0        0.705948    0.240261    1.608970
      5          7           0       -0.181680   -1.826292    0.403804
      6          1           0        0.161351   -1.767447    1.445881
      7          1           0        0.489842   -2.387399   -0.108338
      8          7           0       -1.588365    0.059575    0.024174
      9          8           0       -1.994858    0.140158    1.176506
     10          8           0       -2.191828    0.428684   -0.979198
     11          6           0        0.479193    1.933669    0.201695
     12          1           0        1.256861    2.579222    0.615355
     13          1           0        0.432842    2.090894   -0.878422
     14          1           0       -0.473855    2.229077    0.643696
     15          6           0        2.137367    0.126145    0.123522
     16          7           0        3.237538   -0.099036   -0.221411
     17          1           0        0.746109   -1.464028    2.727235
 ---------------------------------------------------------------------

 SCF Done:  E(RHF) =  -568.118921402     A.U. after    2 cycles

 The electronic state is 1-A.
 Alpha  occ. eigenvalues --  -26.03205 -20.51167 -20.50930 -15.79573 -15.53179
 Alpha  occ. eigenvalues --  -15.48239 -11.32110 -11.18510 -11.17945 -11.14960
 Alpha  occ. eigenvalues --   -1.57456  -1.43172  -1.25235  -1.09413  -1.06599
 Alpha  occ. eigenvalues --   -0.97433  -0.89139  -0.81477  -0.74652  -0.70072
 Alpha  occ. eigenvalues --   -0.67306  -0.64711  -0.61754  -0.60951  -0.58202
 Alpha  occ. eigenvalues --   -0.54613  -0.51939  -0.49023  -0.48005  -0.45691
 Alpha  occ. eigenvalues --   -0.43924  -0.42806  -0.40828  -0.39558  -0.36395
 Alpha  occ. eigenvalues --   -0.34647  -0.33900  -0.28852  -0.11197
 Alpha virt. eigenvalues --    0.11862   0.13836   0.14547   0.14844   0.18004
 Alpha virt. eigenvalues --    0.18641   0.19126   0.19266   0.20339   0.21501
 Alpha virt. eigenvalues --    0.22310   0.22675   0.23839   0.24338   0.24947

 Mulliken charges:
               1
     1  C    1.285049
     2  C   -0.174250
     3  F   -0.332979
     4  H    0.015225
     5  N   -0.425775
     6  H    0.110674
     7  H    0.001371
     8  N    0.250094
     9  O   -0.575734
    10  O   -0.614047
    11  C    0.665001
    12  H   -0.069671
    13  H    0.020171
    14  H    0.026168
    15  C   -0.325899
    16  N   -0.267355
    17  H   -0.588041
 Sum of Mulliken charges =  -1.00000

 Dipole moment (field-independent basis, Debye):
    X=             -1.7918    Y=              5.3300    Z=             -6.6271  Tot=              8.6913

 Test job not archived.
 1\1\GINC-SE419\SP\RHF\Aug-CC-pVDZ\C4H7F1N3O2(1-)\OHZDE\09-Apr-2025\0\\
 #t hf aug-cc-pvdz iop(5/13=1,5/36=2,99/5=2) pseudo=read geom=check gue
 ss=(read,tcheck) scf=(maxcycle=1)\\title\\-1,1\C,0,-0.210752,0.216706,
 -1.433335\C,0,0.062066,-0.10798,0.04696\F,0,-1.489798,0.705784,-1.5595
 89\H,0,1.154262,-0.250325,0.096423\N,0,0.726739,1.029878,-2.069046\H,0
 ,1.68198,0.940605,-1.533692\H,0,0.417157,1.991695,-1.984555\N,0,-0.230
 693,-1.150697,-2.157314\O,0,0.836995,-1.750242,-2.170952\O,0,-1.286772
 ,-1.55071,-2.638825\C,0,-0.732313,-1.297763,0.589555\H,0,-0.574258,-1.

 Normal termination of Gaussian 16 at Wed Apr  9 02:32:35 2025.
