 Gaussian 16, Revision C.01,

 ----------------------------------------------------------------------
 #t hf aug-cc-pvdz symm=none int=(grid=ultrafine) guess=(read,tcheck) s
 table=(opt,rrhf)
 ----------------------------------------------------------------------
 -----
 title
 -----
 Symbolic Z-matrix:
 Charge = -1 Multiplicity = 1

 SCF Done:  E(RHF) =  -971.977273168     A.U. after   16 cycles
 Normal termination of Gaussian 16 at Wed Apr  9 02:42:18 2025.
 Gaussian 16:  ES64L-G16RevC.01  3-Jul-2019

 ----------------------------------------------------------------------
 #t hf aug-cc-pvdz iop(5/13=1,5/36=2,99/5=2) pseudo=read geom=check gue
 ss=(read,tcheck) scf=(maxcycle=1)
 ----------------------------------------------------------------------
 -----
 title
 -----
 Structure from the checkpoint file:  "E2SN2_232_mol2.chk"
 Charge = -1 Multiplicity = 1

                         Standard orientation:
 ---------------------------------------------------------------------
 Center     Atomic      Atomic             Coordinates (Angstroms)
 Number     Number       Type             X           Y           Z
 ---------------------------------------------------------------------
      1          6           0       -0.623373   -0.504442    0.256600
      2          6           0       -0.651825    0.642646   -0.733312
      3          9           0       -1.848582   -1.158756    0.247461
      4          1           0       -0.834536    0.251692   -1.734794
      5          1           0        0.340527    1.129018   -0.704927
      6          7           0        0.332037   -1.576912   -0.279695
      7          8           0        0.319221   -1.770005   -1.492188
      8          8           0        0.963837   -2.235330    0.538889
      9          6           0       -0.252084   -0.110490    1.652356
     10          1           0        0.737059    0.352446    1.630291
     11          1           0       -0.252681   -0.984077    2.301663
     12          1           0       -0.986556    0.614054    2.009318
     13          6           0       -1.701496    1.589195   -0.379282
     14          7           0       -2.553491    2.347610   -0.101772
     15         17           0        2.487753    1.530119   -0.012366
 ---------------------------------------------------------------------

 SCF Done:  E(RHF) =  -972.148719692     A.U. after    2 cycles

 The electronic state is 1-A.
 Alpha  occ. eigenvalues -- -103.38291 -26.04984 -20.52824 -20.52551 -15.81640
 Alpha  occ. eigenvalues --  -15.54595 -11.31532 -11.20092 -11.18074 -11.13956
 Alpha  occ. eigenvalues --  -10.41371  -8.06971  -8.06942  -8.06931  -1.58698
 Alpha  occ. eigenvalues --   -1.44732  -1.26851  -1.09042  -1.03838  -0.91034
 Alpha  occ. eigenvalues --   -0.86930  -0.83616  -0.75863  -0.71053  -0.68143
 Alpha  occ. eigenvalues --   -0.66287  -0.64043  -0.60602  -0.58954  -0.57594
 Alpha  occ. eigenvalues --   -0.50980  -0.48901  -0.46381  -0.45251  -0.44510
 Alpha  occ. eigenvalues --   -0.41814  -0.40556  -0.37570  -0.35778  -0.35482
 Alpha  occ. eigenvalues --   -0.21658  -0.21437  -0.21374
 Alpha virt. eigenvalues --    0.12410   0.13096   0.14884   0.16283   0.16980
 Alpha virt. eigenvalues --    0.17438   0.18290   0.19501   0.21832   0.22735
 Alpha virt. eigenvalues --    0.23596   0.23956   0.24069   0.24948   0.25563

 Mulliken charges:
               1
     1  C    0.228313
     2  C    0.626461
     3  F   -0.468820
     4  H    0.139429
     5  H   -0.025133
     6  N    0.304672
     7  O   -0.596589
     8  O   -0.578008
     9  C    0.468669
    10  H    0.143322
    11  H    0.057794
    12  H    0.003001
    13  C   -0.048842
    14  N   -0.322095
    15  Cl  -0.932174
 Sum of Mulliken charges =  -1.00000

 Dipole moment (field-independent basis, Debye):
    X=             -6.6716    Y=             -4.8138    Z=              0.8885  Tot=              8.2748

 Test job not archived.
 1\1\GINC-SE092\SP\RHF\Aug-CC-pVDZ\C4H5Cl1F1N2O2(1-)\OHZDE\09-Apr-2025\
 0\\#t hf aug-cc-pvdz iop(5/13=1,5/36=2,99/5=2) pseudo=read geom=check
 guess=(read,tcheck) scf=(maxcycle=1)\\title\\-1,1\C,0,0.000373,0.00431
 8,0.009174\C,0,-0.585029,-0.176729,-1.376853\F,0,1.387312,0.003173,-0.
 066625\H,0,-0.266756,0.648642,-2.014552\H,0,-1.685787,-0.158948,-1.276
 142\N,0,-0.307395,1.431597,0.476899\O,0,-0.242674,2.315969,-0.372386\O
 ,0,-0.494647,1.608552,1.675393\C,0,-0.468438,-0.998862,1.016664\H,0,-1
 .556471,-0.934699,1.08924\H,0,-0.007081,-0.804027,1.983071\H,0,-0.1837

 Normal termination of Gaussian 16 at Wed Apr  9 02:42:27 2025.
