 Gaussian 16, Revision C.01,

 ----------------------------------------------------------------------
 #t hf aug-cc-pvdz symm=none int=(grid=ultrafine) guess=(read,tcheck) s
 table=(opt,rrhf)
 ----------------------------------------------------------------------
 -----
 title
 -----
 Symbolic Z-matrix:
 Charge = -1 Multiplicity = 1

 SCF Done:  E(RHF) =  -1404.70731515     A.U. after   16 cycles
 Normal termination of Gaussian 16 at Wed Apr  9 02:36:22 2025.
 Gaussian 16:  ES64L-G16RevC.01  3-Jul-2019

 ----------------------------------------------------------------------
 #t hf aug-cc-pvdz iop(5/13=1,5/36=2,99/5=2) pseudo=read geom=check gue
 ss=(read,tcheck) scf=(maxcycle=1)
 ----------------------------------------------------------------------
 -----
 title
 -----
 Structure from the checkpoint file:  "E2SN2_168_mol1.chk"
 Charge = -1 Multiplicity = 1

                         Standard orientation:
 ---------------------------------------------------------------------
 Center     Atomic      Atomic             Coordinates (Angstroms)
 Number     Number       Type             X           Y           Z
 ---------------------------------------------------------------------
      1          6           0       -0.349641    0.004856   -0.224830
      2          1           0        0.655086   -1.053648    1.364424
      3         17           0        0.006554    2.255099   -0.483601
      4         17           0       -0.751762   -2.251016   -0.386577
      5          6           0        0.749340   -0.138100    0.786419
      6          1           0       -0.242798   -0.039393   -1.288345
      7          1           0        0.802219    0.715933    1.452619
      8          7           0       -1.695705    0.241310    0.317663
      9          8           0       -1.795199    0.282945    1.543049
     10          8           0       -2.609146    0.375159   -0.484198
     11          7           0        2.083297   -0.220893    0.122119
     12          8           0        3.047284   -0.147093    0.882380
     13          8           0        2.149895   -0.390481   -1.089191
 ---------------------------------------------------------------------

 SCF Done:  E(RHF) =  -1404.88216437     A.U. after    2 cycles

 The electronic state is 1-A.
 Alpha  occ. eigenvalues -- -103.46298-103.46178 -20.52325 -20.51563 -20.51438
 Alpha  occ. eigenvalues --  -20.51345 -15.82208 -15.81651 -11.30761 -11.22417
 Alpha  occ. eigenvalues --  -10.49564 -10.49440  -8.15208  -8.15083  -8.15059
 Alpha  occ. eigenvalues --   -8.15052  -8.14935  -8.14928  -1.44499  -1.44272
 Alpha  occ. eigenvalues --   -1.26246  -1.26024  -1.05603  -0.95548  -0.93023
 Alpha  occ. eigenvalues --   -0.90112  -0.77828  -0.72395  -0.68148  -0.66007
 Alpha  occ. eigenvalues --   -0.64041  -0.63631  -0.62661  -0.61682  -0.52302
 Alpha  occ. eigenvalues --   -0.51278  -0.42860  -0.42238  -0.40776  -0.40063
 Alpha  occ. eigenvalues --   -0.37618  -0.36949  -0.34578  -0.29392  -0.29246
 Alpha  occ. eigenvalues --   -0.28998  -0.28645  -0.25485
 Alpha virt. eigenvalues --    0.13464   0.14009   0.15224   0.15478   0.18511
 Alpha virt. eigenvalues --    0.20355   0.20658   0.20978   0.23284   0.23797
 Alpha virt. eigenvalues --    0.24658   0.25331   0.26443   0.27927   0.28104

 Mulliken charges:
               1
     1  C    0.947135
     2  H    0.007197
     3  Cl  -0.608069
     4  Cl  -0.604605
     5  C    1.010771
     6  H   -0.277400
     7  H   -0.043594
     8  N    0.635531
     9  O   -0.649223
    10  O   -0.644099
    11  N    0.423212
    12  O   -0.614705
    13  O   -0.582152
 Sum of Mulliken charges =  -1.00000

 Dipole moment (field-independent basis, Debye):
    X=              1.2763    Y=             -0.2844    Z=              1.9218  Tot=              2.3245

 Test job not archived.
 1\1\GINC-SE149\SP\RHF\Aug-CC-pVDZ\C2H3Cl2N2O4(1-)\OHZDE\09-Apr-2025\0\
 \#t hf aug-cc-pvdz iop(5/13=1,5/36=2,99/5=2) pseudo=read geom=check gu
 ess=(read,tcheck) scf=(maxcycle=1)\\title\\-1,1\C,0,0.58968643,-0.0470
 1876,0.02226801\H,0,1.45781371,1.89948651,0.35858203\Cl,0,-1.68776493,
 -0.29766819,0.11070797\Cl,0,2.85482598,-0.10489272,-0.35537336\C,0,0.5
 1101486,1.45042107,0.07028726\H,0,0.52903566,-0.65767953,-0.85400418\H
 ,0,-0.27769659,1.79500264,0.72997625\N,0,0.75302516,-0.72406804,1.3172
 6642\O,0,0.82572102,-0.00155705,2.31018993\O,0,0.80668597,-1.94567983,

 Normal termination of Gaussian 16 at Wed Apr  9 02:36:29 2025.
