 Gaussian 16, Revision C.01,

 ----------------------------------------------------------------------
 #t hf aug-cc-pvdz symm=none int=(grid=ultrafine) guess=(read,tcheck) s
 table=(opt,rrhf)
 ----------------------------------------------------------------------
 -----
 title
 -----
 Symbolic Z-matrix:
 Charge = -1 Multiplicity = 1

 SCF Done:  E(RHF) =  -364.385718509     A.U. after   17 cycles
 Normal termination of Gaussian 16 at Wed Apr  9 02:36:48 2025.
 Gaussian 16:  ES64L-G16RevC.01  3-Jul-2019

 ----------------------------------------------------------------------
 #t hf aug-cc-pvdz iop(5/13=1,5/36=2,99/5=2) pseudo=read geom=check gue
 ss=(read,tcheck) scf=(maxcycle=1)
 ----------------------------------------------------------------------
 -----
 title
 -----
 Structure from the checkpoint file:  "E2SN2_178_mol1.chk"
 Charge = -1 Multiplicity = 1

                         Standard orientation:
 ---------------------------------------------------------------------
 Center     Atomic      Atomic             Coordinates (Angstroms)
 Number     Number       Type             X           Y           Z
 ---------------------------------------------------------------------
      1          6           0       -0.322322   -0.524851    0.538331
      2          1           0        0.950839    0.944470    1.442319
      3          9           0       -0.039960   -1.299066   -0.887499
      4          1           0       -0.936295    0.234835    2.184190
      5          6           0        0.887375    0.417217    0.494875
      6          1           0       -0.250489   -1.376261    1.197699
      7          6           0       -1.641968    0.010471    0.337154
      8          7           0       -2.678941    0.365643   -0.113582
      9          6           0        0.721589    1.435004   -0.633398
     10          1           0        0.596845    0.910858   -1.581828
     11          1           0       -0.153641    2.069347   -0.469025
     12          1           0        1.607828    2.078066   -0.688772
     13          7           0        2.086842   -0.422561    0.364212
     14          1           0        2.881976    0.185145    0.194861
     15          1           0        1.939226   -0.983492   -0.468141
 ---------------------------------------------------------------------

 SCF Done:  E(RHF) =  -364.496837053     A.U. after    2 cycles

 The electronic state is 1-A.
 Alpha  occ. eigenvalues --  -25.88466 -15.47685 -15.45866 -11.20408 -11.13889
 Alpha  occ. eigenvalues --  -11.13812 -11.09591  -1.38956  -1.03498  -1.00230
 Alpha  occ. eigenvalues --   -0.88646  -0.82161  -0.68564  -0.58944  -0.55746
 Alpha  occ. eigenvalues --   -0.51263  -0.47008  -0.46619  -0.46161  -0.43628
 Alpha  occ. eigenvalues --   -0.42226  -0.38373  -0.37283  -0.36623  -0.30612
 Alpha  occ. eigenvalues --   -0.27964  -0.26281  -0.10701
 Alpha virt. eigenvalues --    0.11970   0.13582   0.14562   0.15509   0.16704
 Alpha virt. eigenvalues --    0.17303   0.17765   0.20071   0.21221   0.23314
 Alpha virt. eigenvalues --    0.24411   0.25418   0.25939   0.26734   0.26921

 Mulliken charges:
               1
     1  C    1.188463
     2  H   -0.151064
     3  F   -0.747555
     4  H   -0.369014
     5  C    0.059115
     6  H   -0.292879
     7  C   -0.496801
     8  N   -0.383468
     9  C    0.611560
    10  H    0.018850
    11  H   -0.055555
    12  H   -0.115665
    13  N   -0.331575
    14  H   -0.039999
    15  H    0.105586
 Sum of Mulliken charges =  -1.00000

 Dipole moment (field-independent basis, Debye):
    X=              6.5357    Y=              1.2164    Z=             -3.2631  Tot=              7.4056

 Test job not archived.
 1\1\GINC-SE227\SP\RHF\Aug-CC-pVDZ\C4H8F1N2(1-)\OHZDE\09-Apr-2025\0\\#t
  hf aug-cc-pvdz iop(5/13=1,5/36=2,99/5=2) pseudo=read geom=check guess
 =(read,tcheck) scf=(maxcycle=1)\\title\\-1,1\C,0,0.51151591,-0.0152867
 5,-0.01268062\H,0,1.69109195,1.77409737,-0.07386473\F,0,-1.12961314,-0
 .09247236,-0.12611124\H,0,2.40205641,-0.23627581,0.18720777\C,0,0.6383
 5256,1.51332453,-0.01544713\H,0,0.75783842,-0.52400372,-0.93211397\C,0
 ,0.766634,-0.74295412,1.20137137\N,0,0.67707992,-1.32258583,2.23124047
 \C,0,0.05059983,2.09255109,1.27118359\H,0,-0.99134851,1.78439882,1.367

 Normal termination of Gaussian 16 at Wed Apr  9 02:36:53 2025.
