 Gaussian 16, Revision C.01,

 ----------------------------------------------------------------------
 #t hf aug-cc-pvdz symm=none int=(grid=ultrafine) guess=(read,tcheck) s
 table=(opt,rrhf)
 ----------------------------------------------------------------------
 -----
 title
 -----
 Symbolic Z-matrix:
 Charge = -1 Multiplicity = 1

 SCF Done:  E(RHF) =  -821.089726635     A.U. after   16 cycles
 Normal termination of Gaussian 16 at Wed Apr  9 02:42:33 2025.
 Gaussian 16:  ES64L-G16RevC.01  3-Jul-2019

 ----------------------------------------------------------------------
 #t hf aug-cc-pvdz iop(5/13=1,5/36=2,99/5=2) pseudo=read geom=check gue
 ss=(read,tcheck) scf=(maxcycle=1)
 ----------------------------------------------------------------------
 -----
 title
 -----
 Structure from the checkpoint file:  "E2SN2_248_mol1.chk"
 Charge = -1 Multiplicity = 1

                         Standard orientation:
 ---------------------------------------------------------------------
 Center     Atomic      Atomic             Coordinates (Angstroms)
 Number     Number       Type             X           Y           Z
 ---------------------------------------------------------------------
      1          6           0        0.558769    0.293423   -0.502284
      2          1           0        0.436746   -1.674086   -1.223904
      3         17           0       -1.064034    1.678555   -0.247676
      4          9           0        2.180172   -0.728785   -0.886811
      5          6           0       -0.273232   -0.896300   -0.947688
      6          1           0        1.017361    0.912824   -1.247480
      7          1           0       -0.868846   -0.605188   -1.814721
      8          6           0        1.078197    0.337079    0.840400
      9          7           0        1.446230    0.392122    1.955507
     10          6           0       -1.182276   -1.408687    0.074171
     11          7           0       -1.904367   -1.901124    0.857394
 ---------------------------------------------------------------------

 SCF Done:  E(RHF) =  -821.210463529     A.U. after    2 cycles

 The electronic state is 1-A.
 Alpha  occ. eigenvalues -- -103.47248 -25.81644 -15.52705 -15.51398 -11.26353
 Alpha  occ. eigenvalues --  -11.18191 -11.18000 -11.17554 -10.50526  -8.16179
 Alpha  occ. eigenvalues --   -8.16005  -8.15997  -1.31363  -1.07245  -1.05428
 Alpha  occ. eigenvalues --   -0.99267  -0.91928  -0.82497  -0.64125  -0.55969
 Alpha  occ. eigenvalues --   -0.53250  -0.51759  -0.44353  -0.43344  -0.42165
 Alpha  occ. eigenvalues --   -0.40926  -0.40082  -0.34463  -0.33777  -0.33289
 Alpha  occ. eigenvalues --   -0.32625  -0.29820  -0.29214  -0.28527
 Alpha virt. eigenvalues --    0.13068   0.14933   0.15484   0.17770   0.19336
 Alpha virt. eigenvalues --    0.19946   0.21810   0.22897   0.23437   0.24316
 Alpha virt. eigenvalues --    0.25038   0.25514   0.26081   0.26448   0.27619

 Mulliken charges:
               1
     1  C    0.984013
     2  H    0.117170
     3  Cl  -0.534884
     4  F   -0.846921
     5  C    0.365584
     6  H   -0.289380
     7  H    0.085665
     8  C   -0.395826
     9  N   -0.244985
    10  C    0.074867
    11  N   -0.315302
 Sum of Mulliken charges =  -1.00000

 Dipole moment (field-independent basis, Debye):
    X=             -2.2921    Y=              0.2274    Z=             -3.6758  Tot=              4.3378

 Test job not archived.
 1\1\GINC-SE229\SP\RHF\Aug-CC-pVDZ\C4H3Cl1F1N2(1-)\OHZDE\09-Apr-2025\0\
 \#t hf aug-cc-pvdz iop(5/13=1,5/36=2,99/5=2) pseudo=read geom=check gu
 ess=(read,tcheck) scf=(maxcycle=1)\\title\\-1,1\C,0,0.58574367,-0.0527
 2391,-0.02467827\H,0,1.74342304,1.69818,-0.05345023\Cl,0,-1.54848676,-
 0.18646941,0.18527357\F,0,2.53789134,-0.14865266,0.0157518\C,0,0.68049
 701,1.4625921,-0.05450053\H,0,0.74474753,-0.56345088,0.90438452\H,0,0.
 20525483,1.86328239,0.84262877\C,0,0.71850675,-0.79926066,-1.24924727\
 N,0,0.76738494,-1.39529164,-2.26132403\C,0,0.04691138,2.08039653,-1.21

 Normal termination of Gaussian 16 at Wed Apr  9 02:42:39 2025.
