 Gaussian 16, Revision C.01,

 ----------------------------------------------------------------------
 #t hf aug-cc-pvdz symm=none int=(grid=ultrafine) guess=(read,tcheck) s
 table=(opt,rrhf)
 ----------------------------------------------------------------------
 -----
 title
 -----
 Symbolic Z-matrix:
 Charge = -1 Multiplicity = 1

 SCF Done:  E(RHF) =  -1044.69569314     A.U. after   15 cycles
 Normal termination of Gaussian 16 at Wed Apr  9 02:40:17 2025.
 Gaussian 16:  ES64L-G16RevC.01  3-Jul-2019

 ----------------------------------------------------------------------
 #t hf aug-cc-pvdz iop(5/13=1,5/36=2,99/5=2) pseudo=read geom=check gue
 ss=(read,tcheck) scf=(maxcycle=1)
 ----------------------------------------------------------------------
 -----
 title
 -----
 Structure from the checkpoint file:  "E2SN2_212_mol2.chk"
 Charge = -1 Multiplicity = 1

                         Standard orientation:
 ---------------------------------------------------------------------
 Center     Atomic      Atomic             Coordinates (Angstroms)
 Number     Number       Type             X           Y           Z
 ---------------------------------------------------------------------
      1          6           0       -0.196854   -0.639593   -0.393111
      2          6           0        0.725797   -0.080718    0.649438
      3          9           0        0.247193   -1.875424   -0.818982
      4          1           0        0.806920   -0.727318    1.517907
      5          1           0       -0.343088    0.023727   -1.237865
      6          1           0        0.364940    0.921610    0.907081
      7          7           0       -1.556615   -0.910000    0.193951
      8          8           0       -2.457630   -1.080677   -0.619360
      9          8           0       -1.650368   -1.038586    1.412663
     10          7           0        2.095231    0.065612    0.087590
     11          8           0        3.026151   -0.006850    0.888838
     12          8           0        2.214661    0.283945   -1.114976
     13         17           0       -1.121176    2.448865   -0.109551
 ---------------------------------------------------------------------

 SCF Done:  E(RHF) =  -1044.89174690     A.U. after    2 cycles

 The electronic state is 1-A.
 Alpha  occ. eigenvalues -- -103.38481 -26.05333 -20.52653 -20.52631 -20.52551
 Alpha  occ. eigenvalues --  -20.52261 -15.81966 -15.81852 -11.30466 -11.21019
 Alpha  occ. eigenvalues --  -10.41576  -8.07176  -8.07145  -8.07136  -1.59093
 Alpha  occ. eigenvalues --   -1.44799  -1.44690  -1.26821  -1.26563  -1.04459
 Alpha  occ. eigenvalues --   -0.94722  -0.83937  -0.79447  -0.75645  -0.70949
 Alpha  occ. eigenvalues --   -0.70652  -0.68651  -0.64735  -0.64642  -0.63789
 Alpha  occ. eigenvalues --   -0.62222  -0.60055  -0.58720  -0.49015  -0.47913
 Alpha  occ. eigenvalues --   -0.43058  -0.42571  -0.41031  -0.40251  -0.37811
 Alpha  occ. eigenvalues --   -0.37441  -0.22161  -0.21704  -0.21619
 Alpha virt. eigenvalues --    0.13002   0.15236   0.16524   0.17100   0.18487
 Alpha virt. eigenvalues --    0.20193   0.20513   0.21995   0.22429   0.24080
 Alpha virt. eigenvalues --    0.24609   0.26069   0.26518   0.27436   0.28896

 Mulliken charges:
               1
     1  C    1.383131
     2  C    0.788496
     3  F   -0.388856
     4  H   -0.065782
     5  H   -0.178251
     6  H   -0.021825
     7  N    0.384001
     8  O   -0.582145
     9  O   -0.603701
    10  N    0.432965
    11  O   -0.609976
    12  O   -0.596781
    13  Cl  -0.941277
 Sum of Mulliken charges =  -1.00000

 Dipole moment (field-independent basis, Debye):
    X=              3.1536    Y=             -7.1281    Z=              0.9438  Tot=              7.8515

 Test job not archived.
 1\1\GINC-SE322\SP\RHF\Aug-CC-pVDZ\C2H3Cl1F1N2O4(1-)\OHZDE\09-Apr-2025\
 0\\#t hf aug-cc-pvdz iop(5/13=1,5/36=2,99/5=2) pseudo=read geom=check
 guess=(read,tcheck) scf=(maxcycle=1)\\title\\-1,1\C,0,-0.063548,0.0034
 77,0.014263\C,0,-0.452713,0.12749,-1.429242\F,0,1.301123,-0.167353,0.1
 33901\H,0,0.03589,0.965062,-1.91776\H,0,-0.592728,-0.785737,0.535892\H
 ,0,-1.545594,0.198497,-1.471998\N,0,-0.34847,1.28517,0.751009\O,0,-0.3
 5101,1.201064,1.973855\O,0,-0.455963,2.321155,0.098504\N,0,-0.053106,-
 1.099752,-2.168583\O,0,0.187658,-0.962483,-3.367354\O,0,-0.023497,-2.1

 Normal termination of Gaussian 16 at Wed Apr  9 02:40:24 2025.
