 Gaussian 16, Revision C.01,

 ----------------------------------------------------------------------
 #t hf aug-cc-pvdz symm=none int=(grid=ultrafine) guess=(read,tcheck) s
 table=(opt,rrhf)
 ----------------------------------------------------------------------
 -----
 title
 -----
 Symbolic Z-matrix:
 Charge = -1 Multiplicity = 1

 SCF Done:  E(RHF) =  -585.601135526     A.U. after   17 cycles
 Normal termination of Gaussian 16 at Wed Apr  9 02:39:57 2025.
 Gaussian 16:  ES64L-G16RevC.01  3-Jul-2019

 ----------------------------------------------------------------------
 #t hf aug-cc-pvdz iop(5/13=1,5/36=2,99/5=2) pseudo=read geom=check gue
 ss=(read,tcheck) scf=(maxcycle=1)
 ----------------------------------------------------------------------
 -----
 title
 -----
 Structure from the checkpoint file:  "E2SN2_210_mol1.chk"
 Charge = -1 Multiplicity = 1

                         Standard orientation:
 ---------------------------------------------------------------------
 Center     Atomic      Atomic             Coordinates (Angstroms)
 Number     Number       Type             X           Y           Z
 ---------------------------------------------------------------------
      1          6           0        0.549637   -0.629016    0.382070
      2          1           0       -0.946237   -0.412391    1.904618
      3          9           0        0.086194   -0.867138   -1.073412
      4          1           0        1.219231   -0.283403    2.108282
      5          6           0       -0.601921    0.107744    1.018761
      6          1           0        0.778650   -1.633130    0.693087
      7          1           0       -0.339491    1.140029    1.217920
      8          7           0        1.762593    0.149533    0.075718
      9          8           0        1.643752    1.364890   -0.099470
     10          8           0        2.792308   -0.490940   -0.146910
     11          7           0       -1.808495    0.162520    0.090427
     12          8           0       -1.977173    1.176227   -0.583309
     13          8           0       -2.565498   -0.808127    0.100789
 ---------------------------------------------------------------------

 SCF Done:  E(RHF) =  -585.782825332     A.U. after    2 cycles

 The electronic state is 1-A.
 Alpha  occ. eigenvalues --  -25.93936 -20.49260 -20.49026 -20.46843 -20.46768
 Alpha  occ. eigenvalues --  -15.77871 -15.77500 -11.27065 -11.19093  -1.45824
 Alpha  occ. eigenvalues --   -1.41008  -1.39054  -1.22993  -1.20961  -0.99838
 Alpha  occ. eigenvalues --   -0.90516  -0.75113  -0.69981  -0.64227  -0.63360
 Alpha  occ. eigenvalues --   -0.62733  -0.60989  -0.59745  -0.57855  -0.54178
 Alpha  occ. eigenvalues --   -0.51622  -0.51244  -0.47707  -0.44820  -0.38562
 Alpha  occ. eigenvalues --   -0.38241  -0.37017  -0.36283  -0.34628  -0.33054
 Alpha  occ. eigenvalues --   -0.14692
 Alpha virt. eigenvalues --    0.13899   0.14616   0.16002   0.17835   0.20565
 Alpha virt. eigenvalues --    0.21826   0.22230   0.22572   0.23608   0.24312
 Alpha virt. eigenvalues --    0.25251   0.26646   0.27079   0.28318   0.29554

 Mulliken charges:
               1
     1  C    1.101649
     2  H   -0.120038
     3  F   -0.612229
     4  H   -0.256935
     5  C    0.891135
     6  H   -0.348191
     7  H   -0.074927
     8  N    0.367169
     9  O   -0.646469
    10  O   -0.623806
    11  N    0.642177
    12  O   -0.646213
    13  O   -0.673323
 Sum of Mulliken charges =  -1.00000

 Dipole moment (field-independent basis, Debye):
    X=             -2.9344    Y=             -0.3909    Z=              0.4626  Tot=              2.9962

 Test job not archived.
 1\1\GINC-SE188\SP\RHF\Aug-CC-pVDZ\C2H4F1N2O4(1-)\OHZDE\09-Apr-2025\0\\
 #t hf aug-cc-pvdz iop(5/13=1,5/36=2,99/5=2) pseudo=read geom=check gue
 ss=(read,tcheck) scf=(maxcycle=1)\\title\\-1,1\C,0,0.51928765,-0.13593
 49,0.07215553\H,0,1.81833622,1.26869023,1.04283374\F,0,-0.99371532,-0.
 07239567,0.38311648\H,0,2.33266768,-0.26049238,-0.42155404\C,0,1.00611
 544,1.26867807,0.32580212\H,0,0.83064202,-0.93468486,0.72213915\H,0,1.
 27046222,1.76126892,-0.60243308\N,0,0.41185876,-0.57008685,-1.33184735
 \O,0,0.2567199,0.29544549,-2.19711807\O,0,0.32006974,-1.78305419,-1.53

 Normal termination of Gaussian 16 at Wed Apr  9 02:40:02 2025.
