 Gaussian 16, Revision C.01,

 ----------------------------------------------------------------------
 #t hf aug-cc-pvdz symm=none int=(grid=ultrafine) guess=(read,tcheck) s
 table=(opt,rrhf)
 ----------------------------------------------------------------------
 -----
 title
 -----
 Symbolic Z-matrix:
 Charge = -1 Multiplicity = 1

 SCF Done:  E(RHF) =  -1222.53598093     A.U. after   17 cycles
 Normal termination of Gaussian 16 at Wed Apr  9 03:01:03 2025.
 Gaussian 16:  ES64L-G16RevC.01  3-Jul-2019

 ----------------------------------------------------------------------
 #t hf aug-cc-pvdz iop(5/13=1,5/36=2,99/5=2) pseudo=read geom=check gue
 ss=(read,tcheck) scf=(maxcycle=1)
 ----------------------------------------------------------------------
 -----
 title
 -----
 Structure from the checkpoint file:  "E2SN2_8_mol1.chk"
 Charge = -1 Multiplicity = 1

                         Standard orientation:
 ---------------------------------------------------------------------
 Center     Atomic      Atomic             Coordinates (Angstroms)
 Number     Number       Type             X           Y           Z
 ---------------------------------------------------------------------
      1          6           0        0.433193    0.272878   -0.323295
      2          6           0       -0.327974   -0.549238    0.506069
      3         17           0        2.714927   -0.569486   -0.108001
      4         17           0       -3.063476    0.143822   -0.309271
      5          1           0       -1.608000   -0.026260    0.102067
      6          6           0        0.695147    1.611556    0.135201
      7          7           0        0.850095    2.728185    0.478342
      8          6           0       -0.308984   -0.340385    1.995957
      9          1           0       -0.335557    0.715809    2.271009
     10          1           0       -1.165875   -0.851985    2.438365
     11          1           0        0.611061   -0.784239    2.394213
     12          7           0       -0.473063   -1.937610    0.132769
     13          1           0        0.443726   -2.257922   -0.176295
     14          1           0       -1.129247   -2.039750   -0.633115
     15          6           0        0.396251    0.120688   -1.817699
     16          1           0        0.517137   -0.923863   -2.096931
     17          1           0       -0.573205    0.484690   -2.184105
     18          1           0        1.200288    0.692787   -2.276769
 ---------------------------------------------------------------------

 SCF Done:  E(RHF) =  -1222.65567565     A.U. after    2 cycles

 The electronic state is 1-A.
 Alpha  occ. eigenvalues -- -103.47657-103.42596 -15.54365 -15.49681 -11.23265
 Alpha  occ. eigenvalues --  -11.19329 -11.15093 -11.14256 -11.11169 -10.50948
 Alpha  occ. eigenvalues --  -10.45757  -8.16618  -8.16445  -8.16442  -8.11378
 Alpha  occ. eigenvalues --   -8.11286  -8.11280  -1.08914  -1.06082  -0.96650
 Alpha  occ. eigenvalues --   -0.95007  -0.88282  -0.87626  -0.79742  -0.70191
 Alpha  occ. eigenvalues --   -0.57638  -0.55990  -0.52956  -0.49078  -0.46496
 Alpha  occ. eigenvalues --   -0.46214  -0.44211  -0.41631  -0.41218  -0.40922
 Alpha  occ. eigenvalues --   -0.38058  -0.35526  -0.30568  -0.30479  -0.29048
 Alpha  occ. eigenvalues --   -0.28595  -0.25577  -0.25484  -0.19391
 Alpha virt. eigenvalues --    0.12550   0.13029   0.14074   0.15232   0.15601
 Alpha virt. eigenvalues --    0.15947   0.16610   0.16849   0.17986   0.18810
 Alpha virt. eigenvalues --    0.19878   0.21140   0.22668   0.23172   0.24511

 Mulliken charges:
               1
     1  C    0.320449
     2  C   -0.989023
     3  Cl  -0.750979
     4  Cl  -0.621952
     5  H    0.766154
     6  C   -0.850891
     7  N   -0.268545
     8  C    0.773429
     9  H   -0.022116
    10  H   -0.033363
    11  H    0.039156
    12  N   -0.291015
    13  H    0.076868
    14  H    0.008285
    15  C    0.740742
    16  H   -0.038908
    17  H    0.156628
    18  H   -0.014918
 Sum of Mulliken charges =  -1.00000

 Dipole moment (field-independent basis, Debye):
    X=             -1.9192    Y=             -1.1831    Z=             -1.6939  Tot=              2.8200

 Test job not archived.
 1\1\GINC-SE228\SP\RHF\Aug-CC-pVDZ\C5H9Cl2N2(1-)\OHZDE\09-Apr-2025\0\\#
 t hf aug-cc-pvdz iop(5/13=1,5/36=2,99/5=2) pseudo=read geom=check gues
 s=(read,tcheck) scf=(maxcycle=1)\\title\\-1,1\C,0,-0.41967927,0.025472
 38,-0.2478838\C,0,-0.10656288,0.07254233,1.10962758\Cl,0,1.72078737,-0
 .33298865,-1.36687617\Cl,0,-2.76413387,-0.12327649,2.3453685\H,0,-1.46
 890204,0.0975893,1.57716845\C,0,-0.7497859,1.26909698,-0.89233847\N,0,
 -1.08775915,2.27599671,-1.40277264\C,0,0.49843591,1.31718757,1.7000339
 2\H,0,0.03541546,2.22930457,1.31850984\H,0,0.39301843,1.2839135,2.7860

 Normal termination of Gaussian 16 at Wed Apr  9 03:01:14 2025.
