 Gaussian 16, Revision C.01,

 ----------------------------------------------------------------------
 #t hf aug-cc-pvdz symm=none int=(grid=ultrafine) guess=(read,tcheck) s
 table=(opt,rrhf)
 ----------------------------------------------------------------------
 -----
 title
 -----
 Symbolic Z-matrix:
 Charge = -1 Multiplicity = 1

 SCF Done:  E(RHF) =  -1384.71072489     A.U. after   16 cycles
 Normal termination of Gaussian 16 at Wed Apr  9 02:40:39 2025.
 Gaussian 16:  ES64L-G16RevC.01  3-Jul-2019

 ----------------------------------------------------------------------
 #t hf aug-cc-pvdz iop(5/13=1,5/36=2,99/5=2) pseudo=read geom=check gue
 ss=(read,tcheck) scf=(maxcycle=1)
 ----------------------------------------------------------------------
 -----
 title
 -----
 Structure from the checkpoint file:  "E2SN2_216_mol2.chk"
 Charge = -1 Multiplicity = 1

                         Standard orientation:
 ---------------------------------------------------------------------
 Center     Atomic      Atomic             Coordinates (Angstroms)
 Number     Number       Type             X           Y           Z
 ---------------------------------------------------------------------
      1          6           0        0.018896   -0.357764   -0.506713
      2          6           0        0.342395    0.776286    0.461628
      3         17           0        1.430413   -0.838958   -1.462817
      4          1           0       -0.606590    0.961181    0.994039
      5          1           0       -0.795047   -0.047324   -1.159170
      6          7           0       -0.490101   -1.570350    0.235684
      7          8           0       -0.936637   -2.468165   -0.464669
      8          8           0       -0.417711   -1.566276    1.459622
      9          6           0        0.665070    1.982148   -0.305394
     10          7           0        0.954677    2.947421   -0.907159
     11          6           0        1.447776    0.472381    1.372649
     12          7           0        2.350137    0.280064    2.098783
     13         17           0       -2.742847    0.987395    0.055837
 ---------------------------------------------------------------------

 SCF Done:  E(RHF) =  -1384.87724108     A.U. after    2 cycles

 The electronic state is 1-A.
 Alpha  occ. eigenvalues -- -103.59950-103.39996 -20.53898 -20.53482 -15.83407
 Alpha  occ. eigenvalues --  -15.56793 -15.56745 -11.30053 -11.25329 -11.22140
 Alpha  occ. eigenvalues --  -11.21976 -10.63284 -10.43127  -8.29017  -8.28698
 Alpha  occ. eigenvalues --   -8.28685  -8.08732  -8.08698  -8.08683  -1.46279
 Alpha  occ. eigenvalues --   -1.28289  -1.14852  -1.10562  -1.09680  -1.01427
 Alpha  occ. eigenvalues --   -0.93163  -0.85680  -0.76381  -0.71556  -0.66364
 Alpha  occ. eigenvalues --   -0.65223  -0.64730  -0.60840  -0.56929  -0.50170
 Alpha  occ. eigenvalues --   -0.47419  -0.46756  -0.45018  -0.43217  -0.40636
 Alpha  occ. eigenvalues --   -0.39912  -0.39131  -0.38340  -0.37681  -0.36826
 Alpha  occ. eigenvalues --   -0.36657  -0.23759  -0.23337  -0.23242
 Alpha virt. eigenvalues --    0.13928   0.14645   0.15582   0.16539   0.17397
 Alpha virt. eigenvalues --    0.18443   0.20236   0.21024   0.22051   0.22614
 Alpha virt. eigenvalues --    0.23085   0.23498   0.24320   0.24702   0.25168

 Mulliken charges:
               1
     1  C    0.720585
     2  C    1.160498
     3  Cl  -0.072805
     4  H    0.174383
     5  H   -0.200615
     6  N    0.437874
     7  O   -0.595307
     8  O   -0.578674
     9  C   -0.321971
    10  N   -0.244196
    11  C   -0.351867
    12  N   -0.219954
    13  Cl  -0.907949
 Sum of Mulliken charges =  -1.00000

 Dipole moment (field-independent basis, Debye):
    X=              6.3780    Y=             -2.9847    Z=             -1.7035  Tot=              7.2450

 Test job not archived.
 1\1\GINC-SE435\SP\RHF\Aug-CC-pVDZ\C4H2Cl2N3O2(1-)\OHZDE\09-Apr-2025\0\
 \#t hf aug-cc-pvdz iop(5/13=1,5/36=2,99/5=2) pseudo=read geom=check gu
 ess=(read,tcheck) scf=(maxcycle=1)\\title\\-1,1\C,0,-0.09029,0.033808,
 0.007215\C,0,-0.569878,0.022504,-1.441326\Cl,0,1.649015,-0.277159,0.13
 4428\H,0,-1.649641,0.241219,-1.374272\H,0,-0.651876,-0.706564,0.573824
 \N,0,-0.386337,1.362254,0.661573\O,0,-0.195195,1.409457,1.868717\O,0,-
 0.785936,2.276643,-0.050813\C,0,-0.422325,-1.330779,-1.982989\N,0,-0.2
 81906,-2.403106,-2.439216\C,0,0.142588,0.968484,-2.302544\N,0,0.711464

 Normal termination of Gaussian 16 at Wed Apr  9 02:40:46 2025.
