 Gaussian 16, Revision C.01,

 ----------------------------------------------------------------------
 #t hf aug-cc-pvdz symm=none int=(grid=ultrafine) guess=(read,tcheck) s
 table=(opt,rrhf)
 ----------------------------------------------------------------------
 -----
 title
 -----
 Symbolic Z-matrix:
 Charge = -1 Multiplicity = 1

 SCF Done:  E(RHF) =  -1236.20461156     A.U. after   16 cycles
 Normal termination of Gaussian 16 at Wed Apr  9 02:44:16 2025.
 Gaussian 16:  ES64L-G16RevC.01  3-Jul-2019

 ----------------------------------------------------------------------
 #t hf aug-cc-pvdz iop(5/13=1,5/36=2,99/5=2) pseudo=read geom=check gue
 ss=(read,tcheck) scf=(maxcycle=1)
 ----------------------------------------------------------------------
 -----
 title
 -----
 Structure from the checkpoint file:  "E2SN2_262_mol1.chk"
 Charge = -1 Multiplicity = 1

                         Standard orientation:
 ---------------------------------------------------------------------
 Center     Atomic      Atomic             Coordinates (Angstroms)
 Number     Number       Type             X           Y           Z
 ---------------------------------------------------------------------
      1          6           0        0.404114    0.303915   -0.296939
      2          1           0        0.580833   -1.226930    1.135476
      3         17           0       -1.727250    1.109145   -1.076628
      4         17           0        2.577776   -0.223868   -0.137110
      5          6           0       -0.067900   -1.030307    0.270613
      6          1           0        0.543744    0.416465   -1.354125
      7          6           0        0.473768    1.430032    0.587594
      8          7           0        0.574661    2.301782    1.372410
      9          7           0        0.056408   -2.046978   -0.769769
     10          1           0       -0.284324   -2.929680   -0.406493
     11          1           0        1.049146   -2.145310   -0.956394
     12          6           0       -1.432370   -1.049134    0.815474
     13          7           0       -2.433071   -1.267846    1.390877
 ---------------------------------------------------------------------

 SCF Done:  E(RHF) =  -1236.32320720     A.U. after    2 cycles

 The electronic state is 1-A.
 Alpha  occ. eigenvalues -- -103.48229-103.43050 -15.53838 -15.53292 -15.53184
 Alpha  occ. eigenvalues --  -11.28037 -11.23690 -11.19620 -11.18832 -10.51482
 Alpha  occ. eigenvalues --  -10.46292  -8.17125  -8.16975  -8.16961  -8.11918
 Alpha  occ. eigenvalues --   -8.11800  -8.11790  -1.11494  -1.07421  -1.05899
 Alpha  occ. eigenvalues --   -0.97907  -0.92582  -0.88167  -0.81987  -0.66458
 Alpha  occ. eigenvalues --   -0.62179  -0.54760  -0.53139  -0.51735  -0.44219
 Alpha  occ. eigenvalues --   -0.43990  -0.41098  -0.35996  -0.35439  -0.34693
 Alpha  occ. eigenvalues --   -0.32525  -0.31819  -0.30802  -0.29861  -0.25673
 Alpha  occ. eigenvalues --   -0.25532  -0.24243
 Alpha virt. eigenvalues --    0.11772   0.13978   0.14566   0.15722   0.16684
 Alpha virt. eigenvalues --    0.18751   0.19089   0.21365   0.21964   0.22429
 Alpha virt. eigenvalues --    0.23438   0.24135   0.25004   0.25458   0.25937

 Mulliken charges:
               1
     1  C    1.090057
     2  H    0.060373
     3  Cl  -0.671855
     4  Cl  -0.550095
     5  C    1.097460
     6  H   -0.384921
     7  C   -0.486841
     8  N   -0.235722
     9  N   -0.417772
    10  H   -0.003939
    11  H    0.067316
    12  C   -0.266834
    13  N   -0.297227
 Sum of Mulliken charges =  -1.00000

 Dipole moment (field-independent basis, Debye):
    X=              3.0872    Y=             -5.0580    Z=             -0.0100  Tot=              5.9257

 Test job not archived.
 1\1\GINC-SE453\SP\RHF\Aug-CC-pVDZ\C4H4Cl2N3(1-)\OHZDE\09-Apr-2025\0\\#
 t hf aug-cc-pvdz iop(5/13=1,5/36=2,99/5=2) pseudo=read geom=check gues
 s=(read,tcheck) scf=(maxcycle=1)\\title\\-1,1\C,0,0.55764377,-0.048278
 83,-0.02954537\H,0,1.58404098,1.71691256,-0.53662968\Cl,0,-1.7916448,-
 0.35124014,-0.46322987\Cl,0,2.62553606,-0.20028299,0.8246348\C,0,0.595
 96116,1.47324103,-0.12211221\H,0,0.19158424,-0.52127425,0.86044534\C,0
 ,0.84448155,-0.80659388,-1.21194664\N,0,1.1526599,-1.37712492,-2.19458
 756\N,0,0.39406935,2.02452476,1.21459749\H,0,0.38887239,3.03619332,1.1

 Normal termination of Gaussian 16 at Wed Apr  9 02:44:22 2025.
