 Gaussian 16, Revision C.01,

 ----------------------------------------------------------------------
 #t hf aug-cc-pvdz symm=none int=(grid=ultrafine) guess=(read,tcheck) s
 table=(opt,rrhf)
 ----------------------------------------------------------------------
 -----
 title
 -----
 Symbolic Z-matrix:
 Charge = -1 Multiplicity = 1

 SCF Done:  E(RHF) =  -539.087215378     A.U. after   16 cycles
 Normal termination of Gaussian 16 at Wed Apr  9 02:51:48 2025.
 Gaussian 16:  ES64L-G16RevC.01  3-Jul-2019

 ----------------------------------------------------------------------
 #t hf aug-cc-pvdz iop(5/13=1,5/36=2,99/5=2) pseudo=read geom=check gue
 ss=(read,tcheck) scf=(maxcycle=1)
 ----------------------------------------------------------------------
 -----
 title
 -----
 Structure from the checkpoint file:  "E2SN2_335_mol1.chk"
 Charge = -1 Multiplicity = 1

                         Standard orientation:
 ---------------------------------------------------------------------
 Center     Atomic      Atomic             Coordinates (Angstroms)
 Number     Number       Type             X           Y           Z
 ---------------------------------------------------------------------
      1          6           0       -0.435731   -0.403202    0.034725
      2          1           0        0.708908    0.201611    1.700909
      3          9           0        0.189003   -0.079200   -1.639544
      4          9           0       -1.243771   -0.525613    1.641729
      5          6           0        0.704149    0.424743    0.632149
      6          6           0       -0.280015   -1.902167   -0.071861
      7          1           0        0.411301   -2.143349   -0.875950
      8          1           0        0.077227   -2.285634    0.883783
      9          1           0       -1.252602   -2.353559   -0.270541
     10          6           0       -1.652812    0.247490   -0.419618
     11          7           0       -2.642793    0.768303   -0.779388
     12          6           0        0.493027    1.923355    0.431433
     13          1           0        0.426652    2.129406   -0.635669
     14          1           0       -0.437973    2.217160    0.919315
     15          1           0        1.318542    2.491838    0.868366
     16          6           0        2.006521    0.010488    0.098048
     17          7           0        3.104225   -0.285217   -0.197632
 ---------------------------------------------------------------------

 SCF Done:  E(RHF) =  -539.247761369     A.U. after    2 cycles

 The electronic state is 1-A.
 Alpha  occ. eigenvalues --  -25.84793 -25.84106 -15.51112 -15.49465 -11.26061
 Alpha  occ. eigenvalues --  -11.16932 -11.16845 -11.16132 -11.12098 -11.11270
 Alpha  occ. eigenvalues --   -1.35343  -1.34495  -1.05792  -1.03872  -0.98053
 Alpha  occ. eigenvalues --   -0.89601  -0.78151  -0.76937  -0.59884  -0.56817
 Alpha  occ. eigenvalues --   -0.52816  -0.51358  -0.47943  -0.46178  -0.44643
 Alpha  occ. eigenvalues --   -0.43731  -0.43241  -0.42831  -0.42035  -0.40252
 Alpha  occ. eigenvalues --   -0.39692  -0.39203  -0.38875  -0.37402  -0.33291
 Alpha  occ. eigenvalues --   -0.31951  -0.30921  -0.30408
 Alpha virt. eigenvalues --    0.12426   0.13536   0.14647   0.15593   0.15849
 Alpha virt. eigenvalues --    0.16588   0.17020   0.19065   0.20064   0.21147
 Alpha virt. eigenvalues --    0.22361   0.23529   0.24418   0.24676   0.24980

 Mulliken charges:
               1
     1  C    0.915773
     2  H    0.027977
     3  F   -0.751924
     4  F   -0.759964
     5  C   -0.097194
     6  C    0.403447
     7  H    0.117578
     8  H    0.082941
     9  H    0.004031
    10  C   -1.127500
    11  N   -0.237392
    12  C    0.907507
    13  H    0.131926
    14  H    0.012337
    15  H   -0.104399
    16  C   -0.203263
    17  N   -0.321883
 Sum of Mulliken charges =  -1.00000

 Dipole moment (field-independent basis, Debye):
    X=              1.6383    Y=              0.1718    Z=              2.3097  Tot=              2.8370

 Test job not archived.
 1\1\GINC-SE227\SP\RHF\Aug-CC-pVDZ\C6H7F2N2(1-)\OHZDE\09-Apr-2025\0\\#t
  hf aug-cc-pvdz iop(5/13=1,5/36=2,99/5=2) pseudo=read geom=check guess
 =(read,tcheck) scf=(maxcycle=1)\\title\\-1,1\C,0,0.63342896,-0.0519183
 9,-0.04005924\H,0,1.5499042,1.82588389,-0.33348542\F,0,-1.17901918,-0.
 16799894,-0.04160789\F,0,2.41371943,0.01628289,0.23614893\C,0,0.546619
 22,1.47527563,-0.08338239\C,0,0.79937778,-0.81724815,-1.33204843\H,0,-
 0.1382266,-0.81548783,-1.8829959\H,0,1.59851046,-0.3556837,-1.91193594
 \H,0,1.09724302,-1.84236581,-1.10942068\C,0,0.56076243,-0.75340015,1.2

 Normal termination of Gaussian 16 at Wed Apr  9 02:51:57 2025.
