 Gaussian 16, Revision C.01,

 ----------------------------------------------------------------------
 #t hf aug-cc-pvdz symm=none int=(grid=ultrafine) guess=(read,tcheck) s
 table=(opt,rrhf)
 ----------------------------------------------------------------------
 -----
 title
 -----
 Symbolic Z-matrix:
 Charge = -1 Multiplicity = 1

 SCF Done:  E(RHF) =  -990.266415503     A.U. after   16 cycles
 Normal termination of Gaussian 16 at Wed Apr  9 02:56:03 2025.
 Gaussian 16:  ES64L-G16RevC.01  3-Jul-2019

 ----------------------------------------------------------------------
 #t hf aug-cc-pvdz iop(5/13=1,5/36=2,99/5=2) pseudo=read geom=check gue
 ss=(read,tcheck) scf=(maxcycle=1)
 ----------------------------------------------------------------------
 -----
 title
 -----
 Structure from the checkpoint file:  "E2SN2_381_mol2.chk"
 Charge = -1 Multiplicity = 1

                         Standard orientation:
 ---------------------------------------------------------------------
 Center     Atomic      Atomic             Coordinates (Angstroms)
 Number     Number       Type             X           Y           Z
 ---------------------------------------------------------------------
      1          6           0        0.222632    0.119454    0.174371
      2          6           0       -0.667477   -0.242392   -1.010747
      3         17           0        1.078520    1.814928   -0.241967
      4          1           0       -0.031880   -0.218818   -1.897923
      5          7           0       -0.389847    0.059153    1.364035
      6          1           0        0.161485    0.328719    2.162175
      7          1           0       -1.475571    0.128648    1.401333
      8          7           0        1.521248   -0.736621    0.180434
      9          8           0        2.074492   -0.888374    1.265064
     10          8           0        1.921111   -1.205320   -0.881518
     11          7           0       -1.702459    0.777123   -1.145025
     12          1           0       -2.212438    0.577463   -1.998528
     13          1           0       -2.350598    0.646409   -0.355828
     14          6           0       -1.241318   -1.651155   -0.798696
     15          1           0       -0.474449   -2.397561   -0.572608
     16          1           0       -1.755285   -1.962095   -1.715347
     17          1           0       -1.968186   -1.587730    0.012040
     18          9           0       -2.897595    0.036412    1.224899
 ---------------------------------------------------------------------

 SCF Done:  E(RHF) =  -990.442958839     A.U. after    2 cycles

 The electronic state is 1-A.
 Alpha  occ. eigenvalues -- -103.50577 -25.79278 -20.50064 -20.50054 -15.78909
 Alpha  occ. eigenvalues --  -15.47511 -15.45957 -11.27611 -11.15354 -11.09761
 Alpha  occ. eigenvalues --  -10.53881  -8.19570  -8.19321  -8.19318  -1.42319
 Alpha  occ. eigenvalues --   -1.28959  -1.24189  -1.10488  -1.01270  -0.97609
 Alpha  occ. eigenvalues --   -0.88215  -0.84000  -0.74558  -0.68000  -0.63031
 Alpha  occ. eigenvalues --   -0.61793  -0.60045  -0.56430  -0.51094  -0.49552
 Alpha  occ. eigenvalues --   -0.46992  -0.45118  -0.43473  -0.40864  -0.39876
 Alpha  occ. eigenvalues --   -0.39639  -0.38627  -0.37730  -0.35985  -0.35272
 Alpha  occ. eigenvalues --   -0.34350  -0.32178  -0.31516  -0.25309  -0.25080
 Alpha virt. eigenvalues --    0.12273   0.13949   0.14532   0.14764   0.15918
 Alpha virt. eigenvalues --    0.18153   0.18528   0.18945   0.19470   0.20713
 Alpha virt. eigenvalues --    0.22652   0.23533   0.24670   0.25594   0.26262

 Mulliken charges:
               1
     1  C    0.908357
     2  C    0.167154
     3  Cl  -0.281825
     4  H   -0.133986
     5  N   -0.535490
     6  H    0.001745
     7  H    0.206958
     8  N    0.430503
     9  O   -0.629487
    10  O   -0.652289
    11  N   -0.335235
    12  H   -0.012581
    13  H    0.103347
    14  C    0.825861
    15  H   -0.046895
    16  H   -0.086378
    17  H   -0.025743
    18  F   -0.904016
 Sum of Mulliken charges =  -1.00000

 Dipole moment (field-independent basis, Debye):
    X=              2.9844    Y=             -1.3066    Z=             -2.8183  Tot=              4.3077

 Test job not archived.
 1\1\GINC-SE149\SP\RHF\Aug-CC-pVDZ\C3H8Cl1F1N3O2(1-)\OHZDE\09-Apr-2025\
 0\\#t hf aug-cc-pvdz iop(5/13=1,5/36=2,99/5=2) pseudo=read geom=check
 guess=(read,tcheck) scf=(maxcycle=1)\\title\\-1,1\C,0,-0.159288,-0.077
 519,-0.036608\C,0,-0.5152,-0.247593,-1.510423\Cl,0,1.452317,1.006999,0
 .04745\H,0,0.372577,-0.649687,-2.002149\N,0,-1.174427,0.337033,0.73261
 7\H,0,-0.960871,0.494541,1.703825\H,0,-2.011217,0.854138,0.266354\N,0,
 0.47244,-1.376761,0.539757\O,0,0.375892,-1.544214,1.751437\O,0,1.02839
 7,-2.15256,-0.232485\N,0,-0.811852,1.065449,-2.073049\H,0,-0.937912,0.

 Normal termination of Gaussian 16 at Wed Apr  9 02:56:13 2025.
