 Gaussian 16, Revision C.01,

 ----------------------------------------------------------------------
 #t hf aug-cc-pvdz symm=none int=(grid=ultrafine) guess=(read,tcheck) s
 table=(opt,rrhf)
 ----------------------------------------------------------------------
 -----
 title
 -----
 Symbolic Z-matrix:
 Charge = -1 Multiplicity = 1

 SCF Done:  E(RHF) =  -825.785247632     A.U. after   14 cycles
 Normal termination of Gaussian 16 at Wed Apr  9 02:28:45 2025.
 Gaussian 16:  ES64L-G16RevC.01  3-Jul-2019

 ----------------------------------------------------------------------
 #t hf aug-cc-pvdz iop(5/13=1,5/36=2,99/5=2) pseudo=read geom=check gue
 ss=(read,tcheck) scf=(maxcycle=1)
 ----------------------------------------------------------------------
 -----
 title
 -----
 Structure from the checkpoint file:  "E2SN2_111_mol2.chk"
 Charge = -1 Multiplicity = 1

                         Standard orientation:
 ---------------------------------------------------------------------
 Center     Atomic      Atomic             Coordinates (Angstroms)
 Number     Number       Type             X           Y           Z
 ---------------------------------------------------------------------
      1          6           0       -0.869705    0.328046    0.035651
      2          6           0        0.623183    0.006573   -0.138009
      3         17           0       -1.831989   -1.150909   -0.408932
      4          1           0        0.759114   -0.387023   -1.150069
      5          6           0       -1.229314    0.664207    1.473004
      6          1           0       -2.294340    0.895699    1.559301
      7          1           0       -0.659046    1.540093    1.798248
      8          1           0       -1.004146   -0.178342    2.127843
      9          6           0       -1.304073    1.428223   -0.918162
     10          1           0       -2.384494    1.589418   -0.855089
     11          1           0       -0.764527    2.343327   -0.676289
     12          1           0       -1.048046    1.152787   -1.943633
     13          7           0        1.090626   -1.044344    0.758234
     14          1           0        2.075576   -1.128027    0.431323
     15          1           0        1.163318   -0.629749    1.685830
     16          7           0        1.408603    1.247626   -0.097165
     17          1           0        1.466213    1.521601    0.883186
     18          1           0        2.354980    0.852519   -0.312467
     19          9           0        3.407118   -0.443568   -0.437637
 ---------------------------------------------------------------------

 SCF Done:  E(RHF) =  -825.913300243     A.U. after    2 cycles

 The electronic state is 1-A.
 Alpha  occ. eigenvalues -- -103.51118 -25.74596 -15.43409 -15.43184 -11.17789
 Alpha  occ. eigenvalues --  -11.13959 -11.12223 -11.11113 -10.54482  -8.20189
 Alpha  occ. eigenvalues --   -8.19938  -8.19928  -1.23544  -1.06482  -1.01178
 Alpha  occ. eigenvalues --   -0.92047  -0.90074  -0.82762  -0.73692  -0.61263
 Alpha  occ. eigenvalues --   -0.54931  -0.50531  -0.48488  -0.46172  -0.45542
 Alpha  occ. eigenvalues --   -0.44330  -0.42896  -0.40226  -0.37877  -0.36198
 Alpha  occ. eigenvalues --   -0.35941  -0.33463  -0.32702  -0.32231  -0.31250
 Alpha  occ. eigenvalues --   -0.30726  -0.26956  -0.21171
 Alpha virt. eigenvalues --    0.11527   0.12889   0.13778   0.14745   0.15387
 Alpha virt. eigenvalues --    0.15807   0.16804   0.17610   0.18095   0.19407
 Alpha virt. eigenvalues --    0.20856   0.21282   0.22904   0.23309   0.25225

 Mulliken charges:
               1
     1  C   -1.811226
     2  C    1.108951
     3  Cl  -0.312006
     4  H   -0.270095
     5  C    0.865837
     6  H   -0.072340
     7  H   -0.033906
     8  H   -0.035075
     9  C    0.963767
    10  H   -0.039366
    11  H    0.087613
    12  H   -0.012774
    13  N   -0.361767
    14  H    0.137454
    15  H   -0.011882
    16  N   -0.380699
    17  H    0.010397
    18  H    0.122454
    19  F   -0.955339
 Sum of Mulliken charges =  -1.00000

 Dipole moment (field-independent basis, Debye):
    X=             -9.2173    Y=              3.4616    Z=              2.8097  Tot=             10.2389

 Test job not archived.
 1\1\GINC-SE024\SP\RHF\Aug-CC-pVDZ\C4H11Cl1F1N2(1-)\OHZDE\09-Apr-2025\0
 \\#t hf aug-cc-pvdz iop(5/13=1,5/36=2,99/5=2) pseudo=read geom=check g
 uess=(read,tcheck) scf=(maxcycle=1)\\title\\-1,1\C,0,-0.452022,-0.0116
 06,-1.598607\C,0,0.222204,-0.045361,-0.217847\Cl,0,0.007181,-1.524086,
 -2.499989\H,0,1.290384,-0.22157,-0.377852\C,0,-1.968482,-0.004905,-1.5
 0581\H,0,-2.415039,0.028059,-2.503215\H,0,-2.297867,0.879698,-0.951601
 \H,0,-2.321884,-0.903003,-0.997941\C,0,0.05969,1.155777,-2.425765\H,0,
 -0.354131,1.12224,-3.438138\H,0,-0.210098,2.088403,-1.931344\H,0,1.149

 Normal termination of Gaussian 16 at Wed Apr  9 02:28:55 2025.
