 Gaussian 16, Revision C.01,

 ----------------------------------------------------------------------
 #t hf aug-cc-pvdz symm=none int=(grid=ultrafine) guess=(read,tcheck) s
 table=(opt,rrhf)
 ----------------------------------------------------------------------
 -----
 title
 -----
 Symbolic Z-matrix:
 Charge = -1 Multiplicity = 1

 SCF Done:  E(RHF) =  -1387.07491430     A.U. after   16 cycles
 Normal termination of Gaussian 16 at Wed Apr  9 02:58:39 2025.
 Gaussian 16:  ES64L-G16RevC.01  3-Jul-2019

 ----------------------------------------------------------------------
 #t hf aug-cc-pvdz iop(5/13=1,5/36=2,99/5=2) pseudo=read geom=check gue
 ss=(read,tcheck) scf=(maxcycle=1)
 ----------------------------------------------------------------------
 -----
 title
 -----
 Structure from the checkpoint file:  "E2SN2_43_mol2.chk"
 Charge = -1 Multiplicity = 1

                         Standard orientation:
 ---------------------------------------------------------------------
 Center     Atomic      Atomic             Coordinates (Angstroms)
 Number     Number       Type             X           Y           Z
 ---------------------------------------------------------------------
      1          6           0       -0.282250   -0.483355   -0.027146
      2          6           0        0.212259    0.956837   -0.155181
      3         17           0       -0.667604   -0.780391    1.770831
      4          1           0        1.162112    0.952680    0.396217
      5          7           0       -1.655854   -0.717389   -0.676228
      6          8           0       -1.987218   -1.887732   -0.823146
      7          8           0       -2.316646    0.261012   -1.008299
      8          7           0        0.605968   -1.368020   -0.595451
      9          1           0        1.588392   -1.133627   -0.375313
     10          1           0        0.373900   -2.333750   -0.412361
     11          6           0       -0.675508    1.932368    0.476029
     12          7           0       -1.311419    2.791900    0.961630
     13          6           0        0.535146    1.350534   -1.600352
     14          1           0       -0.353137    1.308969   -2.231443
     15          1           0        0.927390    2.369501   -1.606391
     16          1           0        1.309587    0.688111   -1.980894
     17         17           0        3.444893   -0.179719    0.045168
 ---------------------------------------------------------------------

 SCF Done:  E(RHF) =  -1387.24358180     A.U. after    2 cycles

 The electronic state is 1-A.
 Alpha  occ. eigenvalues -- -103.56142-103.39941 -20.53762 -20.53298 -15.82647
 Alpha  occ. eigenvalues --  -15.53714 -15.52678 -11.32355 -11.19876 -11.19191
 Alpha  occ. eigenvalues --  -11.14089 -10.59481 -10.43070  -8.25185  -8.24901
 Alpha  occ. eigenvalues --   -8.24898  -8.08679  -8.08639  -8.08624  -1.46017
 Alpha  occ. eigenvalues --   -1.27955  -1.15334  -1.07842  -1.03406  -0.97805
 Alpha  occ. eigenvalues --   -0.90669  -0.85538  -0.81108  -0.73290  -0.69281
 Alpha  occ. eigenvalues --   -0.65514  -0.63996  -0.58513  -0.56914  -0.54322
 Alpha  occ. eigenvalues --   -0.52334  -0.47634  -0.45353  -0.44811  -0.43829
 Alpha  occ. eigenvalues --   -0.43002  -0.42139  -0.38769  -0.37503  -0.36725
 Alpha  occ. eigenvalues --   -0.34842  -0.34276  -0.31260  -0.23619  -0.23243
 Alpha  occ. eigenvalues --   -0.23099
 Alpha virt. eigenvalues --    0.12643   0.13138   0.14522   0.15380   0.15940
 Alpha virt. eigenvalues --    0.16614   0.18175   0.18809   0.19141   0.21181
 Alpha virt. eigenvalues --    0.22084   0.23052   0.23563   0.24130   0.24836

 Mulliken charges:
               1
     1  C    0.841990
     2  C    0.297678
     3  Cl  -0.129082
     4  H    0.068527
     5  N    0.293637
     6  O   -0.617058
     7  O   -0.573823
     8  N   -0.381670
     9  H    0.040801
    10  H    0.039295
    11  C   -0.318047
    12  N   -0.280884
    13  C    0.698699
    14  H   -0.020738
    15  H   -0.051297
    16  H    0.001842
    17  Cl  -0.909872
 Sum of Mulliken charges =  -1.00000

 Dipole moment (field-independent basis, Debye):
    X=             -5.8310    Y=             -1.5396    Z=             -1.6564  Tot=              6.2541

 Test job not archived.
 1\1\GINC-SE459\SP\RHF\Aug-CC-pVDZ\C4H6Cl2N3O2(1-)\OHZDE\09-Apr-2025\0\
 \#t hf aug-cc-pvdz iop(5/13=1,5/36=2,99/5=2) pseudo=read geom=check gu
 ess=(read,tcheck) scf=(maxcycle=1)\\title\\-1,1\C,0,-0.291236,-0.02392
 4,-1.469668\C,0,-0.04353,-0.110147,0.035753\Cl,0,-0.022377,-1.726724,-
 2.175101\H,0,1.028363,-0.338586,0.107437\N,0,-1.763505,0.227778,-1.832
 9\O,0,-1.981712,0.550534,-2.994495\O,0,-2.609326,0.101781,-0.953754\N,
 0,0.458807,0.978328,-2.04191\H,0,1.423116,1.007565,-1.670679\H,0,0.418
 005,0.975642,-3.051038\C,0,-0.783283,-1.192498,0.683441\N,0,-1.321422,

 Normal termination of Gaussian 16 at Wed Apr  9 02:58:49 2025.
