 Gaussian 16, Revision C.01,

 ----------------------------------------------------------------------
 #t hf aug-cc-pvdz symm=none int=(grid=ultrafine) guess=(read,tcheck) s
 table=(opt,rrhf)
 ----------------------------------------------------------------------
 -----
 title
 -----
 Symbolic Z-matrix:
 Charge = -1 Multiplicity = 1

 SCF Done:  E(RHF) =  -1083.66515163     A.U. after   16 cycles
 Normal termination of Gaussian 16 at Wed Apr  9 02:36:56 2025.
 Gaussian 16:  ES64L-G16RevC.01  3-Jul-2019

 ----------------------------------------------------------------------
 #t hf aug-cc-pvdz iop(5/13=1,5/36=2,99/5=2) pseudo=read geom=check gue
 ss=(read,tcheck) scf=(maxcycle=1)
 ----------------------------------------------------------------------
 -----
 title
 -----
 Structure from the checkpoint file:  "E2SN2_171_mol2.chk"
 Charge = -1 Multiplicity = 1

                         Standard orientation:
 ---------------------------------------------------------------------
 Center     Atomic      Atomic             Coordinates (Angstroms)
 Number     Number       Type             X           Y           Z
 ---------------------------------------------------------------------
      1          6           0       -0.513413    0.335970   -0.239317
      2          6           0        0.722223    0.354614    0.656623
      3         17           0       -1.587440    1.761159    0.252738
      4          1           0        0.783196    1.354619    1.104840
      5          1           0       -0.263047    0.498650   -1.273894
      6          7           0       -1.462051   -0.821103   -0.207244
      7          8           0       -2.082786   -1.011593   -1.245129
      8          8           0       -1.682874   -1.382892    0.859581
      9          7           0        1.942140    0.358455   -0.241901
     10          8           0        1.891132    1.080930   -1.233355
     11          8           0        2.954208   -0.206277    0.151389
     12          6           0        0.850851   -0.688308    1.741752
     13          1           0        0.858845   -1.659952    1.258080
     14          1           0        0.010932   -0.608786    2.430494
     15          1           0        1.781651   -0.518452    2.284041
     16          9           0        0.606541   -1.513582   -0.907816
 ---------------------------------------------------------------------

 SCF Done:  E(RHF) =  -1083.87140382     A.U. after    2 cycles

 The electronic state is 1-A.
 Alpha  occ. eigenvalues -- -103.55022 -25.76578 -20.48340 -20.47953 -20.47925
 Alpha  occ. eigenvalues --  -20.47904 -15.78754 -15.78086 -11.25562 -11.20641
 Alpha  occ. eigenvalues --  -11.10734 -10.58323  -8.24036  -8.23770  -8.23753
 Alpha  occ. eigenvalues --   -1.41119  -1.40839  -1.26125  -1.22634  -1.22602
 Alpha  occ. eigenvalues --   -1.07639  -0.98577  -0.89939  -0.82167  -0.74099
 Alpha  occ. eigenvalues --   -0.68754  -0.64243  -0.62541  -0.60904  -0.60155
 Alpha  occ. eigenvalues --   -0.58982  -0.57297  -0.50653  -0.47047  -0.45658
 Alpha  occ. eigenvalues --   -0.42377  -0.41904  -0.38291  -0.37658  -0.37191
 Alpha  occ. eigenvalues --   -0.37013  -0.36129  -0.35691  -0.34947  -0.34549
 Alpha  occ. eigenvalues --   -0.34162  -0.33863  -0.32868
 Alpha virt. eigenvalues --    0.12359   0.13811   0.14764   0.16020   0.17957
 Alpha virt. eigenvalues --    0.18093   0.20295   0.21429   0.22410   0.22995
 Alpha virt. eigenvalues --    0.23815   0.24612   0.25754   0.26391   0.26598

 Mulliken charges:
               1
     1  C    0.569760
     2  C    0.477174
     3  Cl  -0.262942
     4  H   -0.205009
     5  H    0.039646
     6  N    0.759052
     7  O   -0.691627
     8  O   -0.715744
     9  N    0.640829
    10  O   -0.697594
    11  O   -0.674871
    12  C    0.507779
    13  H    0.204349
    14  H    0.027187
    15  H   -0.014781
    16  F   -0.963206
 Sum of Mulliken charges =  -1.00000

 Dipole moment (field-independent basis, Debye):
    X=             -1.1464    Y=              5.1468    Z=              4.5893  Tot=              6.9904

 Test job not archived.
 1\1\GINC-SE435\SP\RHF\Aug-CC-pVDZ\C3H5Cl1F1N2O4(1-)\OHZDE\09-Apr-2025\
 0\\#t hf aug-cc-pvdz iop(5/13=1,5/36=2,99/5=2) pseudo=read geom=check
 guess=(read,tcheck) scf=(maxcycle=1)\\title\\-1,1\C,0,-0.042437,0.0021
 99,-0.014964\C,0,-0.44941,-0.028758,-1.485769\Cl,0,1.806203,-0.059663,
 0.059317\H,0,0.437979,0.238293,-2.073861\H,0,-0.326135,0.925013,0.4619
 28\N,0,-0.448937,-1.099522,0.912792\O,0,-0.547882,-0.776445,2.089497\O
 ,0,-0.491355,-2.249833,0.491521\N,0,-1.34409,1.167061,-1.740955\O,0,-1
 .006909,2.225987,-1.218903\O,0,-2.232855,1.059172,-2.575423\C,0,-1.059

 Normal termination of Gaussian 16 at Wed Apr  9 02:37:04 2025.
