 Gaussian 16, Revision C.01,

 ----------------------------------------------------------------------
 #t hf aug-cc-pvdz symm=none int=(grid=ultrafine) guess=(read,tcheck) s
 table=(opt,rrhf)
 ----------------------------------------------------------------------
 -----
 title
 -----
 Symbolic Z-matrix:
 Charge = -1 Multiplicity = 1

 SCF Done:  E(RHF) =  -821.092706929     A.U. after   16 cycles
 Normal termination of Gaussian 16 at Wed Apr  9 02:42:34 2025.
 Gaussian 16:  ES64L-G16RevC.01  3-Jul-2019

 ----------------------------------------------------------------------
 #t hf aug-cc-pvdz iop(5/13=1,5/36=2,99/5=2) pseudo=read geom=check gue
 ss=(read,tcheck) scf=(maxcycle=1)
 ----------------------------------------------------------------------
 -----
 title
 -----
 Structure from the checkpoint file:  "E2SN2_251_mol1.chk"
 Charge = -1 Multiplicity = 1

                         Standard orientation:
 ---------------------------------------------------------------------
 Center     Atomic      Atomic             Coordinates (Angstroms)
 Number     Number       Type             X           Y           Z
 ---------------------------------------------------------------------
      1          6           0        0.268560   -0.144023   -0.252003
      2          1           0       -0.786575   -1.039280    1.357391
      3         17           0        1.000057    1.832115   -0.193806
      4          9           0       -0.436919   -1.958502   -0.592092
      5          6           0       -0.786514   -0.081377    0.840920
      6          1           0       -0.015243   -0.076344   -1.284574
      7          1           0       -0.593565    0.728591    1.546813
      8          6           0        1.487271   -0.846816    0.066203
      9          7           0        2.503356   -1.352447    0.372254
     10          6           0       -2.112053    0.108567    0.260179
     11          7           0       -3.191485    0.302374   -0.156238
 ---------------------------------------------------------------------

 SCF Done:  E(RHF) =  -821.213652865     A.U. after    2 cycles

 The electronic state is 1-A.
 Alpha  occ. eigenvalues -- -103.48367 -25.80716 -15.52434 -15.51774 -11.26062
 Alpha  occ. eigenvalues --  -11.18151 -11.18067 -11.18056 -10.51647  -8.17305
 Alpha  occ. eigenvalues --   -8.17121  -8.17113  -1.30450  -1.07061  -1.05939
 Alpha  occ. eigenvalues --   -0.99727  -0.92678  -0.82521  -0.62840  -0.57404
 Alpha  occ. eigenvalues --   -0.53787  -0.50213  -0.44190  -0.43289  -0.42508
 Alpha  occ. eigenvalues --   -0.40360  -0.39024  -0.34892  -0.33894  -0.33727
 Alpha  occ. eigenvalues --   -0.32818  -0.30391  -0.30177  -0.29331
 Alpha virt. eigenvalues --    0.13634   0.15121   0.15524   0.17620   0.19291
 Alpha virt. eigenvalues --    0.19601   0.20865   0.22529   0.23513   0.23943
 Alpha virt. eigenvalues --    0.24328   0.25042   0.26389   0.27332   0.28402

 Mulliken charges:
               1
     1  C    0.882020
     2  H    0.087844
     3  Cl  -0.474920
     4  F   -0.837700
     5  C    0.544859
     6  H   -0.252345
     7  H    0.055561
     8  C   -0.412844
     9  N   -0.249461
    10  C   -0.036299
    11  N   -0.306715
 Sum of Mulliken charges =  -1.00000

 Dipole moment (field-independent basis, Debye):
    X=             -0.0426    Y=              2.9066    Z=              2.4242  Tot=              3.7851

 Test job not archived.
 1\1\GINC-SE342\SP\RHF\Aug-CC-pVDZ\C4H3Cl1F1N2(1-)\OHZDE\09-Apr-2025\0\
 \#t hf aug-cc-pvdz iop(5/13=1,5/36=2,99/5=2) pseudo=read geom=check gu
 ess=(read,tcheck) scf=(maxcycle=1)\\title\\-1,1\C,0,0.39446067,-0.0530
 3569,-0.05503894\H,0,1.43426959,1.73118842,-0.54522568\Cl,0,-1.6653004
 ,-0.32268759,-0.41318664\F,0,2.28981382,0.01587725,0.50046096\C,0,0.48
 477493,1.46436889,-0.08523867\H,0,0.36518062,-0.57624909,0.88129322\H,
 0,-0.34263407,1.91027264,-0.64033007\C,0,0.91807825,-0.75423172,-1.201
 58977\N,0,1.27523563,-1.30186954,-2.17846755\C,0,0.4833272,2.00268098,

 Normal termination of Gaussian 16 at Wed Apr  9 02:42:39 2025.
