 Gaussian 16, Revision C.01,

 ----------------------------------------------------------------------
 #t hf aug-cc-pvdz symm=none int=(grid=ultrafine) guess=(read,tcheck) s
 table=(opt,rrhf)
 ----------------------------------------------------------------------
 -----
 title
 -----
 Symbolic Z-matrix:
 Charge = -1 Multiplicity = 1

 SCF Done:  E(RHF) =  -852.893582977     A.U. after   17 cycles
 Normal termination of Gaussian 16 at Wed Apr  9 02:59:46 2025.
 Gaussian 16:  ES64L-G16RevC.01  3-Jul-2019

 ----------------------------------------------------------------------
 #t hf aug-cc-pvdz iop(5/13=1,5/36=2,99/5=2) pseudo=read geom=check gue
 ss=(read,tcheck) scf=(maxcycle=1)
 ----------------------------------------------------------------------
 -----
 title
 -----
 Structure from the checkpoint file:  "E2SN2_68_mol2.chk"
 Charge = -1 Multiplicity = 1

                         Standard orientation:
 ---------------------------------------------------------------------
 Center     Atomic      Atomic             Coordinates (Angstroms)
 Number     Number       Type             X           Y           Z
 ---------------------------------------------------------------------
      1          6           0       -0.407728    0.162840    0.027334
      2          6           0        0.749151   -0.613503   -0.621351
      3         17           0       -1.992392   -0.478769   -0.554581
      4          1           0        0.609898   -0.603179   -1.708581
      5          6           0       -0.397920    0.030539    1.489289
      6          7           0       -0.361888   -0.110272    2.656508
      7          6           0       -0.352402    1.587912   -0.318912
      8          7           0       -0.323085    2.737378   -0.562188
      9          6           0        0.772908   -2.089465   -0.247626
     10          1           0       -0.150309   -2.558035   -0.591326
     11          1           0        1.588815   -2.553012   -0.805801
     12          1           0        0.914157   -2.261282    0.823302
     13          6           0        1.993413    0.046843   -0.272071
     14          7           0        3.020837    0.563651   -0.018858
     15          1           0        0.412535   -0.971707   -3.157925
 ---------------------------------------------------------------------

 SCF Done:  E(RHF) =  -853.024461714     A.U. after    2 cycles

 The electronic state is 1-A.
 Alpha  occ. eigenvalues -- -103.59475 -15.58458 -15.57688 -15.53991 -11.31887
 Alpha  occ. eigenvalues --  -11.23377 -11.22500 -11.18975 -11.17907 -11.14287
 Alpha  occ. eigenvalues --  -10.62718  -8.28442  -8.28115  -8.28102  -1.15867
 Alpha  occ. eigenvalues --   -1.10751  -1.09261  -1.07799  -0.99895  -0.91410
 Alpha  occ. eigenvalues --   -0.79545  -0.71394  -0.64488  -0.57254  -0.53639
 Alpha  occ. eigenvalues --   -0.48811  -0.48691  -0.47620  -0.45384  -0.44365
 Alpha  occ. eigenvalues --   -0.42962  -0.41429  -0.40807  -0.39225  -0.38158
 Alpha  occ. eigenvalues --   -0.37578  -0.37177  -0.34700  -0.34302  -0.10094
 Alpha virt. eigenvalues --    0.12556   0.14209   0.14872   0.15566   0.16390
 Alpha virt. eigenvalues --    0.17925   0.18088   0.18865   0.19723   0.20003
 Alpha virt. eigenvalues --    0.21514   0.21638   0.22352   0.22530   0.23560

 Mulliken charges:
               1
     1  C    0.518995
     2  C   -0.182641
     3  Cl   0.025368
     4  H   -0.512519
     5  C   -0.234869
     6  N   -0.251733
     7  C   -0.255877
     8  N   -0.219898
     9  C    1.021485
    10  H   -0.017299
    11  H    0.058637
    12  H   -0.036116
    13  C   -0.059194
    14  N   -0.340497
    15  H   -0.513842
 Sum of Mulliken charges =  -1.00000

 Dipole moment (field-independent basis, Debye):
    X=             -3.9937    Y=             -0.9463    Z=              8.3677  Tot=              9.3200

 Test job not archived.
 1\1\GINC-SE115\SP\RHF\Aug-CC-pVDZ\C6H5Cl1N3(1-)\OHZDE\09-Apr-2025\0\\#
 t hf aug-cc-pvdz iop(5/13=1,5/36=2,99/5=2) pseudo=read geom=check gues
 s=(read,tcheck) scf=(maxcycle=1)\\title\\-1,1\C,0,-0.459719,0.027276,-
 1.492681\C,0,0.002809,0.037842,-0.027135\Cl,0,0.315381,-1.340839,-2.38
 0899\H,0,1.098731,0.026821,-0.007089\C,0,-1.912387,-0.153491,-1.602184
 \N,0,-3.077027,-0.311998,-1.647083\C,0,-0.084795,1.269706,-2.177938\N,
 0,0.184058,2.261691,-2.748025\C,0,-0.411555,-1.205732,0.7478\H,0,0.042
 011,-2.081992,0.282544\H,0,0.01668,-1.122703,1.74873\H,0,-1.496098,-1.

 Normal termination of Gaussian 16 at Wed Apr  9 02:59:54 2025.
