 Gaussian 16, Revision C.01,

 ----------------------------------------------------------------------
 #t hf aug-cc-pvdz symm=none int=(grid=ultrafine) guess=(read,tcheck) s
 table=(opt,rrhf)
 ----------------------------------------------------------------------
 -----
 title
 -----
 Symbolic Z-matrix:
 Charge = -1 Multiplicity = 1

 SCF Done:  E(RHF) =  -722.144242007     A.U. after   16 cycles
 Normal termination of Gaussian 16 at Wed Apr  9 02:59:40 2025.
 Gaussian 16:  ES64L-G16RevC.01  3-Jul-2019

 ----------------------------------------------------------------------
 #t hf aug-cc-pvdz iop(5/13=1,5/36=2,99/5=2) pseudo=read geom=check gue
 ss=(read,tcheck) scf=(maxcycle=1)
 ----------------------------------------------------------------------
 -----
 title
 -----
 Structure from the checkpoint file:  "E2SN2_96_mol1.chk"
 Charge = -1 Multiplicity = 1

                         Standard orientation:
 ---------------------------------------------------------------------
 Center     Atomic      Atomic             Coordinates (Angstroms)
 Number     Number       Type             X           Y           Z
 ---------------------------------------------------------------------
      1          6           0        0.532239    0.037205    0.615892
      2          6           0       -0.765706   -0.690156    0.872063
      3         17           0        1.666974   -0.833129   -0.488267
      4          1           0       -0.381590    0.085690    3.285171
      5          1           0       -0.979446   -0.295031    1.963535
      6          1           0        1.006324    0.100397    1.611220
      7          1           0       -0.557000   -1.751649    1.030020
      8          6           0       -1.794221   -0.514099   -0.124864
      9          7           0       -2.669126   -0.384302   -0.902229
     10          6           0        0.339490    1.390054    0.108135
     11          7           0        0.198033    2.482269   -0.300164
 ---------------------------------------------------------------------

 SCF Done:  E(RHF) =  -722.238991857     A.U. after    2 cycles

 The electronic state is 1-A.
 Alpha  occ. eigenvalues -- -103.56326 -15.54251 -15.52331 -11.23948 -11.19296
 Alpha  occ. eigenvalues --  -11.17921 -11.15362 -10.59632  -8.25350  -8.25060
 Alpha  occ. eigenvalues --   -8.25047  -1.10232  -1.06475  -1.05874  -0.94729
 Alpha  occ. eigenvalues --   -0.81548  -0.64381  -0.53992  -0.52983  -0.51062
 Alpha  occ. eigenvalues --   -0.44963  -0.43486  -0.42867  -0.37673  -0.37097
 Alpha  occ. eigenvalues --   -0.34647  -0.34403  -0.33254  -0.32566  -0.11286
 Alpha virt. eigenvalues --    0.13499   0.15480   0.17227   0.17866   0.18823
 Alpha virt. eigenvalues --    0.19143   0.20493   0.22574   0.23124   0.23805
 Alpha virt. eigenvalues --    0.24428   0.24864   0.25577   0.26260   0.27191

 Mulliken charges:
               1
     1  C   -0.071877
     2  C    0.303114
     3  Cl  -0.161524
     4  H   -0.557586
     5  H   -0.005698
     6  H    0.109894
     7  H    0.007855
     8  C   -0.129968
     9  N   -0.307485
    10  C    0.062560
    11  N   -0.249286
 Sum of Mulliken charges =  -1.00000

 Dipole moment (field-independent basis, Debye):
    X=              3.7712    Y=             -3.0981    Z=             -6.7257  Tot=              8.3100

 Test job not archived.
 1\1\GINC-SE457\SP\RHF\Aug-CC-pVDZ\C4H4Cl1N2(1-)\OHZDE\09-Apr-2025\0\\#
 t hf aug-cc-pvdz iop(5/13=1,5/36=2,99/5=2) pseudo=read geom=check gues
 s=(read,tcheck) scf=(maxcycle=1)\\title\\-1,1\C,0,-0.37026507,-0.00303
 758,-0.36021763\C,0,-0.09536779,-0.21236477,1.10946078\Cl,0,0.98097888
 ,0.78464715,-1.26463184\H,0,-2.52332878,0.56775581,1.3721205\H,0,-1.20
 161324,-0.12693997,1.51200616\H,0,-1.23656796,0.68155015,-0.3771454\H,
 0,0.38505839,0.68182895,1.51551937\C,0,0.65821249,-1.39584879,1.447373
 79\N,0,1.25351238,-2.35863008,1.77183103\C,0,-0.73717262,-1.23133747,-

 Normal termination of Gaussian 16 at Wed Apr  9 02:59:44 2025.
