 Gaussian 16, Revision C.01,

 ----------------------------------------------------------------------
 #t hf aug-cc-pvdz symm=none int=(grid=ultrafine) guess=(read,tcheck) s
 table=(opt,rrhf)
 ----------------------------------------------------------------------
 -----
 title
 -----
 Symbolic Z-matrix:
 Charge = -1 Multiplicity = 1

 SCF Done:  E(RHF) =  -971.873585688     A.U. after   17 cycles
 Normal termination of Gaussian 16 at Wed Apr  9 02:51:47 2025.
 Gaussian 16:  ES64L-G16RevC.01  3-Jul-2019

 ----------------------------------------------------------------------
 #t hf aug-cc-pvdz iop(5/13=1,5/36=2,99/5=2) pseudo=read geom=check gue
 ss=(read,tcheck) scf=(maxcycle=1)
 ----------------------------------------------------------------------
 -----
 title
 -----
 Structure from the checkpoint file:  "E2SN2_32_mol2.chk"
 Charge = -1 Multiplicity = 1

                         Standard orientation:
 ---------------------------------------------------------------------
 Center     Atomic      Atomic             Coordinates (Angstroms)
 Number     Number       Type             X           Y           Z
 ---------------------------------------------------------------------
      1          6           0       -0.219707    0.117689    0.024404
      2          6           0       -0.742122   -0.846795   -1.026432
      3         17           0       -0.322068   -0.554738    1.656846
      4          1           0       -0.016194   -1.671557   -0.929612
      5          1           0       -0.569101   -0.362823   -1.990644
      6          7           0        1.229949    0.561750   -0.284239
      7          8           0        1.967212    0.809426    0.649704
      8          8           0        1.403761    0.873281   -1.455729
      9          6           0       -0.988120    1.372754    0.030326
     10          7           0       -1.637088    2.352615   -0.006355
     11          6           0       -2.212037   -1.196969   -0.845746
     12          1           0       -2.864253   -0.317117   -0.879105
     13          1           0       -2.383648   -1.712288    0.101268
     14          1           0       -2.522719   -1.870590   -1.649347
     15          9           0        1.631686   -1.686372   -0.381322
 ---------------------------------------------------------------------

 SCF Done:  E(RHF) =  -972.046096348     A.U. after    2 cycles

 The electronic state is 1-A.
 Alpha  occ. eigenvalues -- -103.55450 -25.74063 -20.48123 -20.47629 -15.79030
 Alpha  occ. eigenvalues --  -15.55404 -11.28577 -11.20437 -11.12524 -11.11535
 Alpha  occ. eigenvalues --  -10.58759  -8.24493  -8.24168  -8.24157  -1.41130
 Alpha  occ. eigenvalues --   -1.23164  -1.23033  -1.11353  -1.07032  -0.95416
 Alpha  occ. eigenvalues --   -0.88908  -0.76339  -0.73639  -0.65525  -0.60360
 Alpha  occ. eigenvalues --   -0.59133  -0.54908  -0.50755  -0.48276  -0.45624
 Alpha  occ. eigenvalues --   -0.44589  -0.41862  -0.40316  -0.39109  -0.37879
 Alpha  occ. eigenvalues --   -0.36519  -0.35222  -0.35059  -0.34050  -0.33671
 Alpha  occ. eigenvalues --   -0.32699  -0.32026  -0.30388
 Alpha virt. eigenvalues --    0.11899   0.13836   0.14392   0.15729   0.17396
 Alpha virt. eigenvalues --    0.18680   0.19095   0.20355   0.21613   0.22406
 Alpha virt. eigenvalues --    0.23391   0.24055   0.25238   0.25653   0.26341

 Mulliken charges:
               1
     1  C    0.480581
     2  C    0.386127
     3  Cl  -0.104419
     4  H    0.035872
     5  H    0.007448
     6  N    0.856457
     7  O   -0.713717
     8  O   -0.716686
     9  C   -0.308803
    10  N   -0.262479
    11  C    0.547170
    12  H   -0.106303
    13  H   -0.055123
    14  H   -0.057908
    15  F   -0.988218
 Sum of Mulliken charges =  -1.00000

 Dipole moment (field-independent basis, Debye):
    X=             -6.6377    Y=              1.1181    Z=              0.7549  Tot=              6.7734

 Test job not archived.
 1\1\GINC-SE042\SP\RHF\Aug-CC-pVDZ\C4H5Cl1F1N2O2(1-)\OHZDE\09-Apr-2025\
 0\\#t hf aug-cc-pvdz iop(5/13=1,5/36=2,99/5=2) pseudo=read geom=check
 guess=(read,tcheck) scf=(maxcycle=1)\\title\\-1,1\C,0,-0.264479,0.0672
 75,-1.351247\C,0,-0.012123,0.057562,0.146627\Cl,0,0.397621,1.510419,-2
 .130003\H,0,1.089462,0.007466,0.17067\H,0,-0.39661,-0.898595,0.509674\
 N,0,0.287902,-1.209983,-2.027592\O,0,0.699138,-1.125376,-3.168151\O,0,
 0.006314,-2.238895,-1.426178\C,0,-1.704588,0.041512,-1.653084\N,0,-2.8
 65922,0.023372,-1.836404\C,0,-0.665647,1.222607,0.875665\H,0,-1.753056

 Normal termination of Gaussian 16 at Wed Apr  9 02:51:55 2025.
