 Gaussian 16, Revision C.01,

 ----------------------------------------------------------------------
 #t hf aug-cc-pvdz symm=none int=(grid=ultrafine) guess=(read,tcheck) s
 table=(opt,rrhf)
 ----------------------------------------------------------------------
 -----
 title
 -----
 Symbolic Z-matrix:
 Charge = -1 Multiplicity = 1

 SCF Done:  E(RHF) =  -403.419189249     A.U. after   17 cycles
 Normal termination of Gaussian 16 at Wed Apr  9 02:49:22 2025.
 Gaussian 16:  ES64L-G16RevC.01  3-Jul-2019

 ----------------------------------------------------------------------
 #t hf aug-cc-pvdz iop(5/13=1,5/36=2,99/5=2) pseudo=read geom=check gue
 ss=(read,tcheck) scf=(maxcycle=1)
 ----------------------------------------------------------------------
 -----
 title
 -----
 Structure from the checkpoint file:  "E2SN2_314_mol1.chk"
 Charge = -1 Multiplicity = 1

                         Standard orientation:
 ---------------------------------------------------------------------
 Center     Atomic      Atomic             Coordinates (Angstroms)
 Number     Number       Type             X           Y           Z
 ---------------------------------------------------------------------
      1          6           0       -0.325980   -0.383411   -0.274484
      2          1           0        1.175879    0.322825   -1.602974
      3          9           0       -0.103859   -0.676540    1.354544
      4          1           0       -0.882136    0.058978   -1.979419
      5          6           0        0.997928    0.357890   -0.529536
      6          6           0       -1.555118    0.365824   -0.126420
      7          7           0       -2.547122    0.922728    0.198791
      8          7           0       -0.383323   -1.789191   -0.635446
      9          1           0       -0.957699   -1.870201   -1.460437
     10          1           0       -0.811334   -2.262725    0.151893
     11          6           0        2.173259   -0.335163    0.158335
     12          1           0        2.148461   -0.184395    1.236906
     13          1           0        2.136109   -1.408013   -0.038502
     14          1           0        3.113218    0.065443   -0.241789
     15          6           0        0.875484    1.812742   -0.099787
     16          1           0        0.100721    2.322153   -0.678679
     17          1           0        0.606602    1.862786    0.958186
     18          1           0        1.824579    2.339955   -0.248144
 ---------------------------------------------------------------------

 SCF Done:  E(RHF) =  -403.542207817     A.U. after    2 cycles

 The electronic state is 1-A.
 Alpha  occ. eigenvalues --  -25.86954 -15.47442 -15.46025 -11.23916 -11.13574
 Alpha  occ. eigenvalues --  -11.10295 -11.08843 -11.08530  -1.37765  -1.03817
 Alpha  occ. eigenvalues --   -0.99414  -0.92888  -0.80068  -0.78241  -0.66395
 Alpha  occ. eigenvalues --   -0.57567  -0.54111  -0.52222  -0.48046  -0.46573
 Alpha  occ. eigenvalues --   -0.43966  -0.42950  -0.41692  -0.39923  -0.38120
 Alpha  occ. eigenvalues --   -0.37090  -0.34318  -0.34107  -0.30736  -0.28884
 Alpha  occ. eigenvalues --   -0.26598  -0.11466
 Alpha virt. eigenvalues --    0.12375   0.13323   0.14242   0.14745   0.16023
 Alpha virt. eigenvalues --    0.16813   0.17070   0.17247   0.17392   0.20263
 Alpha virt. eigenvalues --    0.21123   0.23347   0.24783   0.25143   0.25679

 Mulliken charges:
               1
     1  C    0.342173
     2  H   -0.193696
     3  F   -0.675087
     4  H   -0.244139
     5  C   -0.917234
     6  C   -0.091102
     7  N   -0.410646
     8  N   -0.278938
     9  H    0.061499
    10  H    0.053505
    11  C    0.724590
    12  H    0.016761
    13  H   -0.020304
    14  H   -0.080061
    15  C    0.706248
    16  H    0.001266
    17  H    0.090161
    18  H   -0.084995
 Sum of Mulliken charges =  -1.00000

 Dipole moment (field-independent basis, Debye):
    X=              4.9555    Y=             -1.0113    Z=              0.8746  Tot=              5.1327

 Test job not archived.
 1\1\GINC-SE454\SP\RHF\Aug-CC-pVDZ\C5H10F1N2(1-)\OHZDE\09-Apr-2025\0\\#
 t hf aug-cc-pvdz iop(5/13=1,5/36=2,99/5=2) pseudo=read geom=check gues
 s=(read,tcheck) scf=(maxcycle=1)\\title\\-1,1\C,0,0.54483342,-0.052482
 81,0.07854724\H,0,1.66800463,1.74872443,0.19420086\F,0,-1.08520325,-0.
 18889257,0.4152481\H,0,2.28111378,-0.127778,-0.54713958\C,0,0.62041636
 ,1.48416671,0.06103007\C,0,0.50310575,-0.78674233,-1.16771812\N,0,0.26
 714728,-1.42614785,-2.13490972\N,0,0.9679629,-0.72710599,1.29330829\H,
 0,1.8542408,-1.16985528,1.10471988\H,0,0.25331647,-1.41755445,1.493037

 Normal termination of Gaussian 16 at Wed Apr  9 02:49:29 2025.
