 Gaussian 16, Revision C.01,

 ----------------------------------------------------------------------
 #t hf aug-cc-pvdz symm=none int=(grid=ultrafine) guess=(read,tcheck) s
 table=(opt,rrhf)
 ----------------------------------------------------------------------
 -----
 title
 -----
 Symbolic Z-matrix:
 Charge = -1 Multiplicity = 1

 SCF Done:  E(RHF) =  -836.223852924     A.U. after   17 cycles
 Normal termination of Gaussian 16 at Wed Apr  9 02:40:41 2025.
 Gaussian 16:  ES64L-G16RevC.01  3-Jul-2019

 ----------------------------------------------------------------------
 #t hf aug-cc-pvdz iop(5/13=1,5/36=2,99/5=2) pseudo=read geom=check gue
 ss=(read,tcheck) scf=(maxcycle=1)
 ----------------------------------------------------------------------
 -----
 title
 -----
 Structure from the checkpoint file:  "E2SN2_220_mol1.chk"
 Charge = -1 Multiplicity = 1

                         Standard orientation:
 ---------------------------------------------------------------------
 Center     Atomic      Atomic             Coordinates (Angstroms)
 Number     Number       Type             X           Y           Z
 ---------------------------------------------------------------------
      1          6           0       -0.119014   -0.009605    0.549301
      2          1           0        0.884179   -1.778696    0.070368
      3         17           0       -0.069855    1.782326   -0.175716
      4          1           0       -0.346957   -1.804779    1.916156
      5          6           0        1.131136   -0.721301    0.044726
      6          1           0       -0.197843    0.173528    1.605297
      7          7           0       -1.415025   -0.562698    0.074596
      8          8           0       -1.403027   -1.328843   -0.888103
      9          8           0       -2.429576   -0.100330    0.596445
     10          6           0        2.253626   -0.452671    1.042322
     11          1           0        2.457637    0.620895    1.114003
     12          1           0        1.958530   -0.838992    2.020799
     13          1           0        3.170976   -0.955088    0.717419
     14          7           0        1.457627   -0.382179   -1.343004
     15          1           0        2.104357   -1.083662   -1.683698
     16          1           0        1.924762    0.516237   -1.379143
 ---------------------------------------------------------------------

 SCF Done:  E(RHF) =  -836.355754025     A.U. after    2 cycles

 The electronic state is 1-A.
 Alpha  occ. eigenvalues -- -103.51545 -20.46858 -20.46428 -15.77019 -15.48860
 Alpha  occ. eigenvalues --  -11.23151 -11.15142 -11.10732 -10.54798  -8.20493
 Alpha  occ. eigenvalues --   -8.20255  -8.20239  -1.39071  -1.20777  -1.06141
 Alpha  occ. eigenvalues --   -1.00222  -0.91367  -0.85939  -0.73595  -0.66722
 Alpha  occ. eigenvalues --   -0.61529  -0.59122  -0.57602  -0.54851  -0.48454
 Alpha  occ. eigenvalues --   -0.47223  -0.44484  -0.41940  -0.39947  -0.37029
 Alpha  occ. eigenvalues --   -0.36110  -0.35801  -0.33007  -0.32546  -0.31576
 Alpha  occ. eigenvalues --   -0.26930  -0.09344
 Alpha virt. eigenvalues --    0.11578   0.13400   0.13773   0.15621   0.16724
 Alpha virt. eigenvalues --    0.17393   0.17706   0.19528   0.20512   0.21882
 Alpha virt. eigenvalues --    0.23070   0.24586   0.25550   0.25929   0.26410

 Mulliken charges:
               1
     1  C    0.854834
     2  H   -0.027710
     3  Cl  -0.325741
     4  H   -0.601494
     5  C    0.173640
     6  H   -0.362671
     7  N    0.508178
     8  O   -0.652602
     9  O   -0.643866
    10  C    0.519385
    11  H   -0.011602
    12  H   -0.005729
    13  H   -0.098995
    14  N   -0.330723
    15  H   -0.029673
    16  H    0.034770
 Sum of Mulliken charges =  -1.00000

 Dipole moment (field-independent basis, Debye):
    X=              6.1153    Y=              4.5854    Z=             -4.0984  Tot=              8.6730

 Test job not archived.
 1\1\GINC-SE131\SP\RHF\Aug-CC-pVDZ\C3H8Cl1N2O2(1-)\OHZDE\09-Apr-2025\0\
 \#t hf aug-cc-pvdz iop(5/13=1,5/36=2,99/5=2) pseudo=read geom=check gu
 ess=(read,tcheck) scf=(maxcycle=1)\\title\\-1,1\C,0,0.22530015,-0.0219
 017,-0.14105939\H,0,1.51091316,1.5982537,-0.43728488\Cl,0,-1.66682864,
 -0.28683862,-0.4389561\H,0,2.34944515,-0.1490814,0.64298927\C,0,0.4662
 2259,1.4832387,-0.16319887\H,0,0.38497737,-0.53988663,0.78688201\N,0,0
 .88053319,-0.79853613,-1.22660537\O,0,1.30525877,-0.18595821,-2.205516
 04\O,0,0.82545545,-2.02454412,-1.13019435\C,0,0.26817692,2.00669136,1.

 Normal termination of Gaussian 16 at Wed Apr  9 02:40:48 2025.
