 Gaussian 16, Revision C.01,

 ----------------------------------------------------------------------
 #t hf aug-cc-pvdz symm=none int=(grid=ultrafine) guess=(read,tcheck) s
 table=(opt,rrhf)
 ----------------------------------------------------------------------
 -----
 title
 -----
 Symbolic Z-matrix:
 Charge = -1 Multiplicity = 1

 SCF Done:  E(RHF) =  -536.138459738     A.U. after   15 cycles
 Normal termination of Gaussian 16 at Wed Apr  9 02:37:41 2025.
 Gaussian 16:  ES64L-G16RevC.01  3-Jul-2019

 ----------------------------------------------------------------------
 #t hf aug-cc-pvdz iop(5/13=1,5/36=2,99/5=2) pseudo=read geom=check gue
 ss=(read,tcheck) scf=(maxcycle=1)
 ----------------------------------------------------------------------
 -----
 title
 -----
 Structure from the checkpoint file:  "E2SN2_195_mol2.chk"
 Charge = -1 Multiplicity = 1

                         Standard orientation:
 ---------------------------------------------------------------------
 Center     Atomic      Atomic             Coordinates (Angstroms)
 Number     Number       Type             X           Y           Z
 ---------------------------------------------------------------------
      1          6           0        0.687400    0.792555    0.242704
      2          6           0       -0.082506   -0.323144   -0.418300
      3          9           0        0.135969    2.034480   -0.170059
      4          1           0       -0.091001   -0.184000   -1.496985
      5          1           0        0.510437    0.778442    1.323789
      6          1           0        0.454670   -1.265203   -0.155553
      7          7           0        2.041797    0.688635   -0.164028
      8          1           0        2.628796    1.170060    0.505772
      9          1           0        2.263112   -0.341577   -0.136681
     10          7           0       -1.491375   -0.357840    0.020320
     11          8           0       -1.728235   -0.277090    1.227078
     12          8           0       -2.363527   -0.509947   -0.838811
     13          9           0        2.029116   -1.922641    0.049288
 ---------------------------------------------------------------------

 SCF Done:  E(RHF) =  -536.306298499     A.U. after    2 cycles

 The electronic state is 1-A.
 Alpha  occ. eigenvalues --  -25.96572 -25.76880 -20.49051 -20.48905 -15.78235
 Alpha  occ. eigenvalues --  -15.45755 -11.21963 -11.14672  -1.49631  -1.41114
 Alpha  occ. eigenvalues --   -1.25984  -1.22711  -1.03646  -0.94572  -0.77876
 Alpha  occ. eigenvalues --   -0.70825  -0.64254  -0.61997  -0.61026  -0.60382
 Alpha  occ. eigenvalues --   -0.57093  -0.54380  -0.49795  -0.47094  -0.43489
 Alpha  occ. eigenvalues --   -0.41372  -0.38205  -0.37295  -0.35919  -0.34785
 Alpha  occ. eigenvalues --   -0.34055  -0.33314  -0.26352
 Alpha virt. eigenvalues --    0.13616   0.14940   0.15885   0.17649   0.19297
 Alpha virt. eigenvalues --    0.21016   0.22290   0.22599   0.24136   0.25504
 Alpha virt. eigenvalues --    0.26000   0.26586   0.29326   0.29866   0.30551

 Mulliken charges:
               1
     1  C    0.924113
     2  C    0.971065
     3  F   -0.447995
     4  H   -0.118813
     5  H   -0.169777
     6  H   -0.061412
     7  N   -0.514474
     8  H   -0.011467
     9  H    0.202131
    10  N    0.414571
    11  O   -0.635955
    12  O   -0.627266
    13  F   -0.924722
 Sum of Mulliken charges =  -1.00000

 Dipole moment (field-independent basis, Debye):
    X=             -2.1496    Y=              3.8679    Z=              0.6661  Tot=              4.4750

 Test job not archived.
 1\1\GINC-SE455\SP\RHF\Aug-CC-pVDZ\C2H5F2N2O2(1-)\OHZDE\09-Apr-2025\0\\
 #t hf aug-cc-pvdz iop(5/13=1,5/36=2,99/5=2) pseudo=read geom=check gue
 ss=(read,tcheck) scf=(maxcycle=1)\\title\\-1,1\C,0,0.068558,-0.003793,
 -0.011473\C,0,-0.586227,-0.002284,-1.370046\F,0,1.453072,-0.275867,-0.
 172483\H,0,-0.380194,-0.937478,-1.885757\H,0,0.05185,1.006555,0.41182\
 H,0,-1.681424,0.101653,-1.183473\N,0,-0.550165,-1.012374,0.769915\H,0,
 -0.398674,-0.813755,1.751022\H,0,-1.580123,-0.93619,0.559089\N,0,-0.07
 3686,1.082787,-2.229363\O,0,0.011552,2.214952,-1.749962\O,0,0.204273,0

 Normal termination of Gaussian 16 at Wed Apr  9 02:37:46 2025.
