 Gaussian 16, Revision C.01,

 ----------------------------------------------------------------------
 #t hf aug-cc-pvdz symm=none int=(grid=ultrafine) guess=(read,tcheck) s
 table=(opt,rrhf)
 ----------------------------------------------------------------------
 -----
 title
 -----
 Symbolic Z-matrix:
 Charge = -1 Multiplicity = 1

 SCF Done:  E(RHF) =  -931.247012711     A.U. after   15 cycles
 Normal termination of Gaussian 16 at Wed Apr  9 02:49:47 2025.
 Gaussian 16:  ES64L-G16RevC.01  3-Jul-2019

 ----------------------------------------------------------------------
 #t hf aug-cc-pvdz iop(5/13=1,5/36=2,99/5=2) pseudo=read geom=check gue
 ss=(read,tcheck) scf=(maxcycle=1)
 ----------------------------------------------------------------------
 -----
 title
 -----
 Structure from the checkpoint file:  "E2SN2_313_mol2.chk"
 Charge = -1 Multiplicity = 1

                         Standard orientation:
 ---------------------------------------------------------------------
 Center     Atomic      Atomic             Coordinates (Angstroms)
 Number     Number       Type             X           Y           Z
 ---------------------------------------------------------------------
      1          6           0        0.691109   -0.454018   -0.473058
      2          6           0        0.353731    0.587216    0.593473
      3          9           0        2.000153   -0.193994   -0.921874
      4          1           0       -0.687166    0.401386    0.893071
      5          6           0        0.783417   -1.804631    0.143558
      6          7           0        0.844334   -2.915183    0.520995
      7          7           0       -0.206423   -0.349511   -1.556723
      8          1           0       -1.167340   -0.256024   -1.199289
      9          1           0       -0.150647   -1.163787   -2.155219
     10          6           0        0.430861    1.930683   -0.011150
     11          7           0        0.570323    3.036984   -0.380932
     12          7           0        1.248142    0.429130    1.730937
     13          1           0        2.163266    0.795714    1.498333
     14          1           0        0.885598    0.952011    2.517620
     15         17           0       -2.929084   -0.114635    0.177969
 ---------------------------------------------------------------------

 SCF Done:  E(RHF) =  -931.401008768     A.U. after    2 cycles

 The electronic state is 1-A.
 Alpha  occ. eigenvalues -- -103.39218 -26.02795 -15.55056 -15.54054 -15.53998
 Alpha  occ. eigenvalues --  -15.51652 -11.31099 -11.21846 -11.19588 -11.19016
 Alpha  occ. eigenvalues --  -10.42328  -8.07933  -8.07902  -8.07880  -1.56246
 Alpha  occ. eigenvalues --   -1.13151  -1.08908  -1.06906  -1.06312  -0.90498
 Alpha  occ. eigenvalues --   -0.84941  -0.82596  -0.70936  -0.67169  -0.64823
 Alpha  occ. eigenvalues --   -0.60820  -0.58532  -0.57443  -0.52413  -0.49250
 Alpha  occ. eigenvalues --   -0.46904  -0.45567  -0.44788  -0.38233  -0.37183
 Alpha  occ. eigenvalues --   -0.36327  -0.34769  -0.32618  -0.31502  -0.22799
 Alpha  occ. eigenvalues --   -0.22478  -0.22291
 Alpha virt. eigenvalues --    0.11433   0.13251   0.14025   0.16587   0.17730
 Alpha virt. eigenvalues --    0.18550   0.19356   0.19859   0.21439   0.21929
 Alpha virt. eigenvalues --    0.22834   0.23625   0.24111   0.24482   0.25375

 Mulliken charges:
               1
     1  C    1.330115
     2  C    1.201378
     3  F   -0.477830
     4  H   -0.211161
     5  C   -0.468563
     6  N   -0.201825
     7  N   -0.495158
     8  H    0.096720
     9  H    0.011969
    10  C   -0.216544
    11  N   -0.285561
    12  N   -0.424667
    13  H    0.031503
    14  H    0.033059
    15  Cl  -0.923437
 Sum of Mulliken charges =  -1.00000

 Dipole moment (field-independent basis, Debye):
    X=              7.6346    Y=              0.1797    Z=              0.6253  Tot=              7.6623

 Test job not archived.
 1\1\GINC-SE419\SP\RHF\Aug-CC-pVDZ\C4H5Cl1F1N4(1-)\OHZDE\09-Apr-2025\0\
 \#t hf aug-cc-pvdz iop(5/13=1,5/36=2,99/5=2) pseudo=read geom=check gu
 ess=(read,tcheck) scf=(maxcycle=1)\\title\\-1,1\C,0,0.02259,0.037541,0
 .006812\C,0,-0.524784,-0.09288,-1.414051\F,0,1.418508,-0.135281,-0.057
 922\H,0,-1.617743,-0.007973,-1.336655\C,0,-0.145333,1.433646,0.492181\
 N,0,-0.262381,2.493333,0.984988\N,0,-0.535867,-0.957316,0.836992\H,0,-
 1.549668,-1.016618,0.668021\H,0,-0.371859,-0.750161,1.813999\C,0,-0.19
 7989,-1.436178,-1.929004\N,0,0.109,-2.440704,-2.4551\N,0,0.012485,0.97

 Normal termination of Gaussian 16 at Wed Apr  9 02:49:54 2025.
