 Gaussian 16, Revision C.01,

 ----------------------------------------------------------------------
 #t hf aug-cc-pvdz symm=none int=(grid=ultrafine) guess=(read,tcheck) s
 table=(opt,rrhf)
 ----------------------------------------------------------------------
 -----
 title
 -----
 Symbolic Z-matrix:
 Charge = -1 Multiplicity = 1

 SCF Done:  E(RHF) =  -1144.49150122     A.U. after   15 cycles
 Normal termination of Gaussian 16 at Wed Apr  9 02:35:34 2025.
 Gaussian 16:  ES64L-G16RevC.01  3-Jul-2019

 ----------------------------------------------------------------------
 #t hf aug-cc-pvdz iop(5/13=1,5/36=2,99/5=2) pseudo=read geom=check gue
 ss=(read,tcheck) scf=(maxcycle=1)
 ----------------------------------------------------------------------
 -----
 title
 -----
 Structure from the checkpoint file:  "E2SN2_166_mol1.chk"
 Charge = -1 Multiplicity = 1

                         Standard orientation:
 ---------------------------------------------------------------------
 Center     Atomic      Atomic             Coordinates (Angstroms)
 Number     Number       Type             X           Y           Z
 ---------------------------------------------------------------------
      1          6           0       -0.430300   -0.625176   -0.120566
      2          1           0       -0.906449    1.246938    0.740556
      3         17           0        1.723793   -1.474030   -0.324350
      4         17           0       -2.715559   -0.199979   -0.203298
      5          6           0       -0.002101    0.675387    0.528735
      6          1           0       -0.658949   -1.453670    0.522302
      7          1           0       -0.486685   -0.718062   -1.186791
      8          6           0        0.788576    1.501466   -0.412115
      9          7           0        1.394758    2.253332   -1.081132
     10          7           0        0.657710    0.436414    1.805612
     11          1           0        0.897983    1.326250    2.225723
     12          1           0        1.509792   -0.081588    1.620546
 ---------------------------------------------------------------------

 SCF Done:  E(RHF) =  -1144.58573830     A.U. after    2 cycles

 The electronic state is 1-A.
 Alpha  occ. eigenvalues -- -103.43821-103.43176 -15.52739 -15.51366 -11.22497
 Alpha  occ. eigenvalues --  -11.21072 -11.17868 -10.47082 -10.46412  -8.12711
 Alpha  occ. eigenvalues --   -8.12609  -8.12587  -8.12040  -8.11933  -8.11920
 Alpha  occ. eigenvalues --   -1.09230  -1.05080  -0.93617  -0.90019  -0.86755
 Alpha  occ. eigenvalues --   -0.75941  -0.61314  -0.58588  -0.51916  -0.48606
 Alpha  occ. eigenvalues --   -0.45990  -0.43653  -0.35865  -0.34167  -0.31771
 Alpha  occ. eigenvalues --   -0.30620  -0.27136  -0.26898  -0.26108  -0.25906
 Alpha  occ. eigenvalues --   -0.23368
 Alpha virt. eigenvalues --    0.12368   0.14566   0.15693   0.16345   0.17624
 Alpha virt. eigenvalues --    0.18780   0.20395   0.21661   0.23469   0.23650
 Alpha virt. eigenvalues --    0.24866   0.25396   0.25872   0.26453   0.27827

 Mulliken charges:
               1
     1  C    0.696763
     2  H   -0.064852
     3  Cl  -0.720266
     4  Cl  -0.737070
     5  C    1.293423
     6  H   -0.136869
     7  H   -0.277506
     8  C   -0.420192
     9  N   -0.256459
    10  N   -0.456443
    11  H   -0.008445
    12  H    0.087915
 Sum of Mulliken charges =  -1.00000

 Dipole moment (field-independent basis, Debye):
    X=              1.2889    Y=              1.7688    Z=              3.0523  Tot=              3.7558

 Test job not archived.
 1\1\GINC-SE108\SP\RHF\Aug-CC-pVDZ\C3H5Cl2N2(1-)\OHZDE\09-Apr-2025\0\\#
 t hf aug-cc-pvdz iop(5/13=1,5/36=2,99/5=2) pseudo=read geom=check gues
 s=(read,tcheck) scf=(maxcycle=1)\\title\\-1,1\C,0,0.63914643,-0.006423
 05,-0.01674207\H,0,1.70152637,1.82234538,-0.01294133\Cl,0,-1.67782014,
 -0.18613605,-0.0563626\Cl,0,2.9371345,-0.35028282,0.08839741\C,0,0.656
 97583,1.50884422,-0.00914415\H,0,0.65945721,-0.50213192,-0.96848885\H,
 0,0.59128792,-0.56298803,0.89790912\C,0,0.07919881,2.03864923,1.247142
 36\N,0,-0.32539729,2.56851398,2.21455546\N,0,0.04692474,2.05056923,-1.

 Normal termination of Gaussian 16 at Wed Apr  9 02:35:40 2025.
