 Gaussian 16, Revision C.01,

 ----------------------------------------------------------------------
 #t hf aug-cc-pvdz symm=none int=(grid=ultrafine) guess=(read,tcheck) s
 table=(opt,rrhf)
 ----------------------------------------------------------------------
 -----
 title
 -----
 Symbolic Z-matrix:
 Charge = -1 Multiplicity = 1

 SCF Done:  E(RHF) =  -987.868552404     A.U. after   17 cycles
 Normal termination of Gaussian 16 at Wed Apr  9 02:45:32 2025.
 Gaussian 16:  ES64L-G16RevC.01  3-Jul-2019

 ----------------------------------------------------------------------
 #t hf aug-cc-pvdz iop(5/13=1,5/36=2,99/5=2) pseudo=read geom=check gue
 ss=(read,tcheck) scf=(maxcycle=1)
 ----------------------------------------------------------------------
 -----
 title
 -----
 Structure from the checkpoint file:  "E2SN2_265_mol1.chk"
 Charge = -1 Multiplicity = 1

                         Standard orientation:
 ---------------------------------------------------------------------
 Center     Atomic      Atomic             Coordinates (Angstroms)
 Number     Number       Type             X           Y           Z
 ---------------------------------------------------------------------
      1          6           0        0.141929    0.017743   -0.035448
      2          1           0        0.719576    0.897697   -1.913095
      3          9           0        1.162329   -1.491885    0.522040
      4         17           0       -1.270333    1.627443   -0.521756
      5          6           0        1.041444    0.091139   -1.257526
      6          1           0        0.902873   -0.864551   -1.769395
      7          6           0        0.515433    0.597236    1.228955
      8          7           0        0.814856    1.092028    2.252463
      9          7           0       -0.968326   -0.989813    0.002175
     10          8           0       -1.223064   -1.563937   -1.047905
     11          8           0       -1.545993   -1.145913    1.065939
     12          7           0        2.408986    0.354117   -0.823164
     13          1           0        3.000065    0.434426   -1.641284
     14          1           0        2.683194   -0.459378   -0.285228
 ---------------------------------------------------------------------

 SCF Done:  E(RHF) =  -988.040483334     A.U. after    2 cycles

 The electronic state is 1-A.
 Alpha  occ. eigenvalues -- -103.47646 -25.85182 -20.49520 -20.49438 -15.80582
 Alpha  occ. eigenvalues --  -15.51978 -15.49357 -11.32262 -11.18204 -11.16866
 Alpha  occ. eigenvalues --  -10.50906  -8.16563  -8.16377  -8.16374  -1.42896
 Alpha  occ. eigenvalues --   -1.35123  -1.24449  -1.07543  -1.04335  -0.99109
 Alpha  occ. eigenvalues --   -0.91633  -0.81140  -0.76199  -0.67392  -0.61918
 Alpha  occ. eigenvalues --   -0.60873  -0.58263  -0.51337  -0.50005  -0.47873
 Alpha  occ. eigenvalues --   -0.45978  -0.43570  -0.42898  -0.41387  -0.40144
 Alpha  occ. eigenvalues --   -0.39084  -0.35195  -0.34510  -0.33263  -0.30459
 Alpha  occ. eigenvalues --   -0.30070  -0.28477  -0.27474
 Alpha virt. eigenvalues --    0.11719   0.14459   0.14882   0.16576   0.17126
 Alpha virt. eigenvalues --    0.19447   0.20677   0.21809   0.22980   0.23153
 Alpha virt. eigenvalues --    0.24291   0.24976   0.25933   0.26609   0.27248

 Mulliken charges:
               1
     1  C    0.724880
     2  H   -0.144037
     3  F   -0.762801
     4  Cl  -0.479545
     5  C    1.040195
     6  H    0.095647
     7  C   -0.207928
     8  N   -0.299416
     9  N    0.649900
    10  O   -0.678054
    11  O   -0.666735
    12  N   -0.343170
    13  H   -0.028006
    14  H    0.099070
 Sum of Mulliken charges =  -1.00000

 Dipole moment (field-independent basis, Debye):
    X=              1.8942    Y=              0.2997    Z=             -4.4952  Tot=              4.8872

 Test job not archived.
 1\1\GINC-SE015\SP\RHF\Aug-CC-pVDZ\C3H4Cl1F1N3O2(1-)\OHZDE\09-Apr-2025\
 0\\#t hf aug-cc-pvdz iop(5/13=1,5/36=2,99/5=2) pseudo=read geom=check
 guess=(read,tcheck) scf=(maxcycle=1)\\title\\-1,1\C,0,0.78489324,0.027
 32994,-0.02333299\H,0,1.63509781,2.0033184,0.05524837\F,0,-1.11863236,
 -0.05641854,-0.0470694\Cl,0,2.96673493,-0.15218021,0.14829082\C,0,0.65
 197091,1.54055271,-0.00145185\H,0,0.09703098,1.7632363,0.91342981\C,0,
 0.72257254,-0.73146654,-1.24578007\N,0,0.69417102,-1.34405591,-2.24876
 074\N,0,0.58824232,-0.74752362,1.24559522\O,0,0.53553739,-0.09836021,2

 Normal termination of Gaussian 16 at Wed Apr  9 02:45:39 2025.
