 Gaussian 16, Revision C.01,

 ----------------------------------------------------------------------
 #t hf aug-cc-pvdz symm=none int=(grid=ultrafine) guess=(read,tcheck) s
 table=(opt,rrhf)
 ----------------------------------------------------------------------
 -----
 title
 -----
 Symbolic Z-matrix:
 Charge = -1 Multiplicity = 1

 SCF Done:  E(RHF) =  -927.987578858     A.U. after   16 cycles
 Normal termination of Gaussian 16 at Wed Apr  9 02:45:44 2025.
 Gaussian 16:  ES64L-G16RevC.01  3-Jul-2019

 ----------------------------------------------------------------------
 #t hf aug-cc-pvdz iop(5/13=1,5/36=2,99/5=2) pseudo=read geom=check gue
 ss=(read,tcheck) scf=(maxcycle=1)
 ----------------------------------------------------------------------
 -----
 title
 -----
 Structure from the checkpoint file:  "E2SN2_26_mol2.chk"
 Charge = -1 Multiplicity = 1

                         Standard orientation:
 ---------------------------------------------------------------------
 Center     Atomic      Atomic             Coordinates (Angstroms)
 Number     Number       Type             X           Y           Z
 ---------------------------------------------------------------------
      1          6           0        0.391100    0.038967    0.466130
      2          6           0       -0.614631   -1.060188    0.044955
      3         17           0        2.051251   -0.560198    0.175722
      4          1           0       -0.492654   -1.767293    0.876828
      5          7           0        0.190808    1.255131   -0.471816
      6          8           0        0.546027    1.143775   -1.641866
      7          8           0       -0.398356    2.222766    0.001116
      8          7           0        0.278601    0.433670    1.808813
      9          1           0       -0.598741    0.930698    1.928308
     10          1           0        0.207330   -0.487158    2.348446
     11          6           0       -0.445418   -1.735948   -1.313701
     12          1           0        0.537994   -2.200055   -1.377724
     13          1           0       -1.201934   -2.518565   -1.415548
     14          1           0       -0.555040   -1.029664   -2.138020
     15          6           0       -1.959759   -0.505679    0.169276
     16          7           0       -3.053693   -0.079967    0.239088
     17          1           0       -0.087352   -2.021691    2.683887
 ---------------------------------------------------------------------

 SCF Done:  E(RHF) =  -928.145322103     A.U. after    2 cycles

 The electronic state is 1-A.
 Alpha  occ. eigenvalues -- -103.55689 -20.52335 -20.51849 -15.80904 -15.53598
 Alpha  occ. eigenvalues --  -15.49099 -11.30236 -11.18665 -11.17975 -11.14253
 Alpha  occ. eigenvalues --  -10.59065  -8.24791  -8.24486  -8.24472  -1.44327
 Alpha  occ. eigenvalues --   -1.26234  -1.13688  -1.07461  -1.01758  -0.96657
 Alpha  occ. eigenvalues --   -0.88760  -0.80449  -0.71714  -0.66302  -0.63835
 Alpha  occ. eigenvalues --   -0.62947  -0.57928  -0.53583  -0.51799  -0.49835
 Alpha  occ. eigenvalues --   -0.46528  -0.45776  -0.43715  -0.43076  -0.42075
 Alpha  occ. eigenvalues --   -0.39912  -0.38013  -0.36721  -0.35614  -0.34238
 Alpha  occ. eigenvalues --   -0.33777  -0.29295  -0.11289
 Alpha virt. eigenvalues --    0.11990   0.14203   0.14596   0.15418   0.17202
 Alpha virt. eigenvalues --    0.18049   0.18250   0.19734   0.20143   0.20993
 Alpha virt. eigenvalues --    0.21750   0.22123   0.22919   0.23820   0.24924

 Mulliken charges:
               1
     1  C    1.116748
     2  C   -0.203021
     3  Cl  -0.136431
     4  H   -0.041083
     5  N    0.262728
     6  O   -0.645226
     7  O   -0.567181
     8  N   -0.561643
     9  H    0.066219
    10  H    0.134988
    11  C    0.736454
    12  H   -0.068750
    13  H   -0.018167
    14  H    0.011751
    15  C   -0.167677
    16  N   -0.322789
    17  H   -0.596922
 Sum of Mulliken charges =  -1.00000

 Dipole moment (field-independent basis, Debye):
    X=              2.0293    Y=              2.4623    Z=             -7.6750  Tot=              8.3118

 Test job not archived.
 1\1\GINC-SE042\SP\RHF\Aug-CC-pVDZ\C4H7Cl1N3O2(1-)\OHZDE\09-Apr-2025\0\
 \#t hf aug-cc-pvdz iop(5/13=1,5/36=2,99/5=2) pseudo=read geom=check gu
 ess=(read,tcheck) scf=(maxcycle=1)\\title\\-1,1\C,0,-0.176773,0.021184
 ,-1.485428\C,0,0.010192,-0.029531,0.050637\Cl,0,0.136571,-1.607211,-2.
 155937\H,0,1.10577,-0.080825,0.113618\N,0,-1.664625,0.338846,-1.775772
 \O,0,-2.496214,-0.531941,-1.535383\O,0,-1.921018,1.48182,-2.143156\N,0
 ,0.656059,0.947522,-2.133142\H,0,0.357629,1.884451,-1.87987\H,0,1.6195
 23,0.783906,-1.698199\C,0,-0.664267,-1.148249,0.841085\H,0,-0.328107,-

 Normal termination of Gaussian 16 at Wed Apr  9 02:45:54 2025.
