 Gaussian 16, Revision C.01,

 ----------------------------------------------------------------------
 #t hf aug-cc-pvdz symm=none int=(grid=ultrafine) guess=(read,tcheck) s
 table=(opt,rrhf)
 ----------------------------------------------------------------------
 -----
 title
 -----
 Symbolic Z-matrix:
 Charge = -1 Multiplicity = 1

 SCF Done:  E(RHF) =  -1220.26265076     A.U. after   15 cycles
 Normal termination of Gaussian 16 at Wed Apr  9 02:46:40 2025.
 Gaussian 16:  ES64L-G16RevC.01  3-Jul-2019

 ----------------------------------------------------------------------
 #t hf aug-cc-pvdz iop(5/13=1,5/36=2,99/5=2) pseudo=read geom=check gue
 ss=(read,tcheck) scf=(maxcycle=1)
 ----------------------------------------------------------------------
 -----
 title
 -----
 Structure from the checkpoint file:  "E2SN2_279_mol2.chk"
 Charge = -1 Multiplicity = 1

                         Standard orientation:
 ---------------------------------------------------------------------
 Center     Atomic      Atomic             Coordinates (Angstroms)
 Number     Number       Type             X           Y           Z
 ---------------------------------------------------------------------
      1          6           0       -0.598030   -0.398801    0.139584
      2          6           0        0.003949    0.629373   -0.826027
      3         17           0       -2.410938   -0.264036    0.115223
      4          1           0        1.104653    0.527681   -0.751158
      5          1           0       -0.314454    0.417937   -1.850071
      6          6           0       -0.291846   -1.746686   -0.346454
      7          7           0       -0.095670   -2.841659   -0.723837
      8          6           0       -0.094323   -0.202637    1.559781
      9          1           0        0.998508   -0.256869    1.534330
     10          1           0       -0.504275   -0.969931    2.218407
     11          1           0       -0.401540    0.781711    1.918220
     12          6           0       -0.384387    1.989738   -0.473533
     13          7           0       -0.702775    3.086353   -0.200701
     14         17           0        3.169411    0.038194    0.066067
 ---------------------------------------------------------------------

 SCF Done:  E(RHF) =  -1220.38017360     A.U. after    2 cycles

 The electronic state is 1-A.
 Alpha  occ. eigenvalues -- -103.57500-103.38205 -15.55648 -15.54387 -11.27344
 Alpha  occ. eigenvalues --  -11.20508 -11.19771 -11.18766 -11.14642 -10.60831
 Alpha  occ. eigenvalues --  -10.41289  -8.26542  -8.26253  -8.26249  -8.06888
 Alpha  occ. eigenvalues --   -8.06860  -8.06846  -1.12624  -1.08484  -1.07382
 Alpha  occ. eigenvalues --   -0.97855  -0.89340  -0.83564  -0.79736  -0.61314
 Alpha  occ. eigenvalues --   -0.59591  -0.56266  -0.51830  -0.48408  -0.46372
 Alpha  occ. eigenvalues --   -0.45047  -0.44740  -0.43737  -0.38607  -0.37858
 Alpha  occ. eigenvalues --   -0.37204  -0.35762  -0.35097  -0.34538  -0.21504
 Alpha  occ. eigenvalues --   -0.21369  -0.21262
 Alpha virt. eigenvalues --    0.12419   0.12785   0.14904   0.16111   0.17333
 Alpha virt. eigenvalues --    0.17840   0.17988   0.19038   0.21486   0.21905
 Alpha virt. eigenvalues --    0.22245   0.23111   0.24030   0.24775   0.24954

 Mulliken charges:
               1
     1  C   -0.870698
     2  C    1.087201
     3  Cl  -0.174408
     4  H   -0.138175
     5  H   -0.015227
     6  C   -0.187014
     7  N   -0.227418
     8  C    0.923206
     9  H    0.037338
    10  H   -0.016041
    11  H   -0.069308
    12  C   -0.103286
    13  N   -0.316914
    14  Cl  -0.929257
 Sum of Mulliken charges =  -1.00000

 Dipole moment (field-independent basis, Debye):
    X=             -9.5498    Y=             -0.6025    Z=              0.5287  Tot=              9.5834

 Test job not archived.
 1\1\GINC-SE322\SP\RHF\Aug-CC-pVDZ\C5H5Cl2N2(1-)\OHZDE\09-Apr-2025\0\\#
 t hf aug-cc-pvdz iop(5/13=1,5/36=2,99/5=2) pseudo=read geom=check gues
 s=(read,tcheck) scf=(maxcycle=1)\\title\\-1,1\C,0,0.032378,0.007472,0.
 023888\C,0,-0.562096,-0.163365,-1.379444\Cl,0,1.846222,-0.069959,-0.07
 2887\H,0,-1.663512,-0.139727,-1.261884\H,0,-0.245273,0.658385,-2.02682
 5\C,0,-0.283661,1.350871,0.515999\N,0,-0.487844,2.431279,0.929395\C,0,
 -0.469845,-1.058143,0.983782\H,0,-1.563043,-1.006373,0.994013\H,0,-0.0
 65494,-0.891053,1.983367\H,0,-0.155433,-2.040988,0.627463\C,0,-0.16381

 Normal termination of Gaussian 16 at Wed Apr  9 02:46:47 2025.
