 Gaussian 16, Revision C.01,

 ----------------------------------------------------------------------
 #t hf aug-cc-pvdz symm=none int=(grid=ultrafine) guess=(read,tcheck) s
 table=(opt,rrhf)
 ----------------------------------------------------------------------
 -----
 title
 -----
 Symbolic Z-matrix:
 Charge = -1 Multiplicity = 1

 SCF Done:  E(RHF) =  -852.254563741     A.U. after   16 cycles
 Normal termination of Gaussian 16 at Wed Apr  9 02:30:52 2025.
 Gaussian 16:  ES64L-G16RevC.01  3-Jul-2019

 ----------------------------------------------------------------------
 #t hf aug-cc-pvdz iop(5/13=1,5/36=2,99/5=2) pseudo=read geom=check gue
 ss=(read,tcheck) scf=(maxcycle=1)
 ----------------------------------------------------------------------
 -----
 title
 -----
 Structure from the checkpoint file:  "E2SN2_119_mol2.chk"
 Charge = -1 Multiplicity = 1

                         Standard orientation:
 ---------------------------------------------------------------------
 Center     Atomic      Atomic             Coordinates (Angstroms)
 Number     Number       Type             X           Y           Z
 ---------------------------------------------------------------------
      1          6           0       -0.743600    0.518875   -0.252796
      2          6           0        0.357348   -0.365402    0.363363
      3         17           0       -2.311029   -0.405804   -0.270008
      4          1           0        0.362190   -0.126983    1.435588
      5          1           0       -0.529174    0.709819   -1.305365
      6          7           0       -0.938212    1.744428    0.457154
      7          1           0       -0.187307    2.365241    0.179446
      8          1           0       -0.809017    1.537739    1.458580
      9          7           0        1.672540    0.108256   -0.134308
     10          8           0        2.633744   -0.655621   -0.002179
     11          8           0        1.774379    1.263580   -0.566481
     12          7           0        0.274903   -1.784789    0.062300
     13          1           0       -0.554124   -2.123995    0.536363
     14          1           0        1.069897   -2.218642    0.518851
     15          1           0       -0.077069    0.495717    2.956536
 ---------------------------------------------------------------------

 SCF Done:  E(RHF) =  -852.391788377     A.U. after    2 cycles

 The electronic state is 1-A.
 Alpha  occ. eigenvalues -- -103.52885 -20.50331 -20.50312 -15.79271 -15.50913
 Alpha  occ. eigenvalues --  -15.47967 -11.22332 -11.19892 -10.56254  -8.21966
 Alpha  occ. eigenvalues --   -8.21700  -8.21680  -1.42271  -1.23957  -1.10495
 Alpha  occ. eigenvalues --   -1.04940  -0.99249  -0.91112  -0.76977  -0.69833
 Alpha  occ. eigenvalues --   -0.65580  -0.62208  -0.60586  -0.55677  -0.52784
 Alpha  occ. eigenvalues --   -0.50351  -0.48195  -0.44979  -0.42270  -0.39886
 Alpha  occ. eigenvalues --   -0.39444  -0.36167  -0.33653  -0.33421  -0.29881
 Alpha  occ. eigenvalues --   -0.27759  -0.10030
 Alpha virt. eigenvalues --    0.13020   0.13491   0.15397   0.15860   0.18624
 Alpha virt. eigenvalues --    0.19212   0.19902   0.21160   0.22054   0.22688
 Alpha virt. eigenvalues --    0.23881   0.24621   0.25845   0.26136   0.26984

 Mulliken charges:
               1
     1  C    0.620238
     2  C    1.023193
     3  Cl  -0.213832
     4  H   -0.365799
     5  H    0.101699
     6  N   -0.421359
     7  H    0.098362
     8  H    0.026886
     9  N    0.452620
    10  O   -0.641453
    11  O   -0.663577
    12  N   -0.551785
    13  H    0.075838
    14  H    0.062877
    15  H   -0.603909
 Sum of Mulliken charges =  -1.00000

 Dipole moment (field-independent basis, Debye):
    X=             -0.3744    Y=             -2.2540    Z=             -7.9774  Tot=              8.2982

 Test job not archived.
 1\1\GINC-SE412\SP\RHF\Aug-CC-pVDZ\C2H7Cl1N3O2(1-)\OHZDE\09-Apr-2025\0\
 \#t hf aug-cc-pvdz iop(5/13=1,5/36=2,99/5=2) pseudo=read geom=check gu
 ess=(read,tcheck) scf=(maxcycle=1)\\title\\-1,1\C,0,-0.365863,-0.14988
 3,-1.457113\C,0,0.009045,-0.000642,0.029781\Cl,0,-0.55419,1.503773,-2.
 193399\H,0,1.106999,-0.011163,0.060113\H,0,-1.353048,-0.60431,-1.55355
 7\N,0,0.606441,-0.88152,-2.207589\H,0,0.458233,-1.862015,-2.000097\H,0
 ,1.532183,-0.626626,-1.833026\N,0,-0.399845,-1.236043,0.742769\O,0,-0.
 465946,-1.18042,1.974603\O,0,-0.562749,-2.279806,0.097835\N,0,-0.60218

 Normal termination of Gaussian 16 at Wed Apr  9 02:30:59 2025.
