 Gaussian 16, Revision C.01,

 ----------------------------------------------------------------------
 #t hf aug-cc-pvdz symm=none int=(grid=ultrafine) guess=(read,tcheck) s
 table=(opt,rrhf)
 ----------------------------------------------------------------------
 -----
 title
 -----
 Symbolic Z-matrix:
 Charge = -1 Multiplicity = 1

 SCF Done:  E(RHF) =  -915.204569902     A.U. after   16 cycles
 Normal termination of Gaussian 16 at Wed Apr  9 02:56:56 2025.
 Gaussian 16:  ES64L-G16RevC.01  3-Jul-2019

 ----------------------------------------------------------------------
 #t hf aug-cc-pvdz iop(5/13=1,5/36=2,99/5=2) pseudo=read geom=check gue
 ss=(read,tcheck) scf=(maxcycle=1)
 ----------------------------------------------------------------------
 -----
 title
 -----
 Structure from the checkpoint file:  "E2SN2_403_mol2.chk"
 Charge = -1 Multiplicity = 1

                         Standard orientation:
 ---------------------------------------------------------------------
 Center     Atomic      Atomic             Coordinates (Angstroms)
 Number     Number       Type             X           Y           Z
 ---------------------------------------------------------------------
      1          6           0       -0.436214   -0.672723    0.030889
      2          6           0        0.639998    0.447140    0.087502
      3         17           0       -2.055321    0.073829   -0.331859
      4          1           0        1.583856   -0.251566    0.233802
      5          7           0       -0.133264   -1.635589   -0.994915
      6          1           0       -0.120010   -1.165261   -1.895484
      7          1           0        0.837321   -1.908811   -0.766161
      8          6           0       -0.498927   -1.375773    1.371459
      9          1           0       -1.222877   -2.188573    1.305452
     10          1           0        0.504353   -1.773334    1.540313
     11          1           0       -0.781518   -0.692000    2.173268
     12          6           0        0.473487    1.383532    1.182745
     13          7           0        0.352810    2.120985    2.091244
     14          6           0        0.768846    1.137335   -1.183650
     15          7           0        0.889774    1.661282   -2.229500
     16          9           0        2.298995   -1.535484    0.227659
 ---------------------------------------------------------------------

 SCF Done:  E(RHF) =  -915.354087414     A.U. after    2 cycles

 The electronic state is 1-A.
 Alpha  occ. eigenvalues -- -103.53252 -25.80802 -15.53399 -15.53263 -15.48833
 Alpha  occ. eigenvalues --  -11.24054 -11.19066 -11.18910 -11.18011 -11.11525
 Alpha  occ. eigenvalues --  -10.56645  -8.22352  -8.22088  -8.22084  -1.30343
 Alpha  occ. eigenvalues --   -1.11376  -1.07255  -1.06603  -0.99772  -0.94150
 Alpha  occ. eigenvalues --   -0.86817  -0.68319  -0.64617  -0.59272  -0.55998
 Alpha  occ. eigenvalues --   -0.52517  -0.48214  -0.45004  -0.44528  -0.42878
 Alpha  occ. eigenvalues --   -0.42500  -0.41745  -0.40196  -0.39448  -0.37798
 Alpha  occ. eigenvalues --   -0.36132  -0.35965  -0.34331  -0.33835  -0.33471
 Alpha  occ. eigenvalues --   -0.30064  -0.27697
 Alpha virt. eigenvalues --    0.12993   0.14437   0.15234   0.15984   0.16515
 Alpha virt. eigenvalues --    0.17826   0.18626   0.19100   0.19501   0.22675
 Alpha virt. eigenvalues --    0.23107   0.23815   0.24117   0.25053   0.25427

 Mulliken charges:
               1
     1  C   -1.064087
     2  C    1.486728
     3  Cl  -0.304153
     4  H    0.263004
     5  N   -0.411747
     6  H    0.004088
     7  H    0.191377
     8  C    1.052338
     9  H    0.006388
    10  H    0.043226
    11  H   -0.066122
    12  C   -0.393197
    13  N   -0.283754
    14  C   -0.318835
    15  N   -0.299891
    16  F   -0.905364
 Sum of Mulliken charges =  -1.00000

 Dipole moment (field-independent basis, Debye):
    X=             -4.3683    Y=             -0.3158    Z=              0.2748  Tot=              4.3883

 Test job not archived.
 1\1\GINC-SE419\SP\RHF\Aug-CC-pVDZ\C5H6Cl1F1N3(1-)\OHZDE\09-Apr-2025\0\
 \#t hf aug-cc-pvdz iop(5/13=1,5/36=2,99/5=2) pseudo=read geom=check gu
 ess=(read,tcheck) scf=(maxcycle=1)\\title\\-1,1\C,0,-0.014011,-0.01516
 8,0.022919\C,0,-0.601191,-0.231989,-1.399663\Cl,0,1.798115,0.101485,-0
 .091193\H,0,-1.74613,-0.18407,-1.104231\N,0,-0.516699,1.196218,0.61538
 3\H,0,-0.241702,1.985194,0.037193\H,0,-1.540371,1.080733,0.527222\C,0,
 -0.384842,-1.191447,0.902801\H,0,-0.008171,-1.006494,1.909288\H,0,-1.4
 76723,-1.221875,0.905361\H,0,0.02497,-2.127252,0.519886\C,0,-0.242754,

 Normal termination of Gaussian 16 at Wed Apr  9 02:57:05 2025.
