 Gaussian 16, Revision C.01,

 ----------------------------------------------------------------------
 #t hf aug-cc-pvdz symm=none int=(grid=ultrafine) guess=(read,tcheck) s
 table=(opt,rrhf)
 ----------------------------------------------------------------------
 -----
 title
 -----
 Symbolic Z-matrix:
 Charge = -1 Multiplicity = 1

 SCF Done:  E(RHF) =  -839.439797367     A.U. after   16 cycles
 Normal termination of Gaussian 16 at Wed Apr  9 02:40:02 2025.
 Gaussian 16:  ES64L-G16RevC.01  3-Jul-2019

 ----------------------------------------------------------------------
 #t hf aug-cc-pvdz iop(5/13=1,5/36=2,99/5=2) pseudo=read geom=check gue
 ss=(read,tcheck) scf=(maxcycle=1)
 ----------------------------------------------------------------------
 -----
 title
 -----
 Structure from the checkpoint file:  "E2SN2_207_mol1.chk"
 Charge = -1 Multiplicity = 1

                         Standard orientation:
 ---------------------------------------------------------------------
 Center     Atomic      Atomic             Coordinates (Angstroms)
 Number     Number       Type             X           Y           Z
 ---------------------------------------------------------------------
      1          6           0        0.387318   -0.424102   -0.355370
      2          1           0        0.040487    0.739075    1.408581
      3          9           0       -1.136095   -1.415542   -1.124049
      4         17           0        2.160655    0.861504    0.017982
      5          6           0       -0.564534    0.221849    0.662772
      6          1           0        0.413764   -0.083948   -1.375407
      7          7           0        0.968975   -1.658787    0.072983
      8          1           0        1.934872   -1.683246   -0.223064
      9          1           0        0.427620   -2.349375   -0.436159
     10          7           0       -1.435336   -0.716806    1.360133
     11          1           0       -0.808438   -1.327619    1.874727
     12          1           0       -1.811706   -1.280946    0.597977
     13          6           0       -1.375207    1.238613   -0.019861
     14          7           0       -2.017687    2.070195   -0.541852
 ---------------------------------------------------------------------

 SCF Done:  E(RHF) =  -839.565519909     A.U. after    2 cycles

 The electronic state is 1-A.
 Alpha  occ. eigenvalues -- -103.44117 -25.81916 -15.50844 -15.49568 -15.48238
 Alpha  occ. eigenvalues --  -11.24684 -11.18604 -11.16140 -10.47432  -8.13068
 Alpha  occ. eigenvalues --   -8.12943  -8.12930  -1.31918  -1.08200  -1.04642
 Alpha  occ. eigenvalues --   -1.02025  -0.91405  -0.85021  -0.71474  -0.60627
 Alpha  occ. eigenvalues --   -0.56321  -0.54142  -0.50345  -0.48246  -0.45332
 Alpha  occ. eigenvalues --   -0.41290  -0.40642  -0.40488  -0.39721  -0.32937
 Alpha  occ. eigenvalues --   -0.32409  -0.30290  -0.28530  -0.27301  -0.26874
 Alpha  occ. eigenvalues --   -0.26710
 Alpha virt. eigenvalues --    0.12924   0.14078   0.14907   0.16308   0.17058
 Alpha virt. eigenvalues --    0.17742   0.19969   0.21181   0.23445   0.24027
 Alpha virt. eigenvalues --    0.24681   0.25703   0.25990   0.27127   0.27763

 Mulliken charges:
               1
     1  C    0.631420
     2  H   -0.047280
     3  F   -0.866402
     4  Cl  -0.625380
     5  C    1.135301
     6  H   -0.164639
     7  N   -0.472302
     8  H    0.059301
     9  H    0.133130
    10  N   -0.438495
    11  H    0.086639
    12  H    0.104505
    13  C   -0.254911
    14  N   -0.280888
 Sum of Mulliken charges =  -1.00000

 Dipole moment (field-independent basis, Debye):
    X=              1.8680    Y=             -3.0445    Z=              1.9680  Tot=              4.0782

 Test job not archived.
 1\1\GINC-SE097\SP\RHF\Aug-CC-pVDZ\C3H6Cl1F1N3(1-)\OHZDE\09-Apr-2025\0\
 \#t hf aug-cc-pvdz iop(5/13=1,5/36=2,99/5=2) pseudo=read geom=check gu
 ess=(read,tcheck) scf=(maxcycle=1)\\title\\-1,1\C,0,0.7872479,0.038908
 58,0.08559519\H,0,1.72181291,1.96375928,0.00599691\F,0,-1.16391557,-0.
 03090854,0.37316079\Cl,0,2.87452347,-0.20486154,-0.63603982\C,0,0.7047
 0031,1.56997267,-0.00882493\H,0,0.47953792,-0.5797601,-0.7386879\N,0,0
 .99568189,-0.46599344,1.40767248\H,0,1.64171319,-1.24169138,1.36145758
 \H,0,0.07191709,-0.79298064,1.67023689\N,0,-0.04103322,2.20544465,1.07

 Normal termination of Gaussian 16 at Wed Apr  9 02:40:07 2025.
