 Gaussian 16, Revision C.01,

 ----------------------------------------------------------------------
 #t hf aug-cc-pvdz symm=none int=(grid=ultrafine) guess=(read,tcheck) s
 table=(opt,rrhf)
 ----------------------------------------------------------------------
 -----
 title
 -----
 Symbolic Z-matrix:
 Charge = -1 Multiplicity = 1

 SCF Done:  E(RHF) =  -852.267932824     A.U. after   16 cycles
 Normal termination of Gaussian 16 at Wed Apr  9 02:38:57 2025.
 Gaussian 16:  ES64L-G16RevC.01  3-Jul-2019

 ----------------------------------------------------------------------
 #t hf aug-cc-pvdz iop(5/13=1,5/36=2,99/5=2) pseudo=read geom=check gue
 ss=(read,tcheck) scf=(maxcycle=1)
 ----------------------------------------------------------------------
 -----
 title
 -----
 Structure from the checkpoint file:  "E2SN2_204_mol2.chk"
 Charge = -1 Multiplicity = 1

                         Standard orientation:
 ---------------------------------------------------------------------
 Center     Atomic      Atomic             Coordinates (Angstroms)
 Number     Number       Type             X           Y           Z
 ---------------------------------------------------------------------
      1          6           0       -0.890708   -0.007537    0.631328
      2          6           0        0.267779    0.847539    0.087629
      3         17           0       -1.055357   -1.505636   -0.376578
      4          1           0        0.378445    1.660264    0.817733
      5          1           0       -0.627680   -0.369297    1.626387
      6          7           0       -2.136776    0.709724    0.648217
      7          1           0       -2.524887    0.683268   -0.289473
      8          1           0       -1.904442    1.720480    0.781995
      9          7           0        0.106047    1.445838   -1.179408
     10          1           0       -0.416472    2.313929   -0.978292
     11          1           0       -0.405139    0.848169   -1.816162
     12          7           0        1.530869    0.026544    0.186584
     13          8           0        2.106396   -0.325801   -0.837483
     14          8           0        1.877413   -0.284544    1.330433
     15          1           0       -1.192643    3.307015    0.414531
 ---------------------------------------------------------------------

 SCF Done:  E(RHF) =  -852.404520029     A.U. after    2 cycles

 The electronic state is 1-A.
 Alpha  occ. eigenvalues -- -103.54306 -20.50258 -20.49509 -15.78599 -15.48685
 Alpha  occ. eigenvalues --  -15.48613 -11.22833 -11.21105 -10.57687  -8.23398
 Alpha  occ. eigenvalues --   -8.23130  -8.23126  -1.41962  -1.23739  -1.11299
 Alpha  occ. eigenvalues --   -1.04577  -0.99632  -0.90389  -0.77473  -0.69451
 Alpha  occ. eigenvalues --   -0.64096  -0.61733  -0.60617  -0.56406  -0.53392
 Alpha  occ. eigenvalues --   -0.50473  -0.48306  -0.45862  -0.39831  -0.39566
 Alpha  occ. eigenvalues --   -0.38444  -0.35988  -0.35135  -0.34672  -0.29752
 Alpha  occ. eigenvalues --   -0.27651  -0.11469
 Alpha virt. eigenvalues --    0.13773   0.14239   0.15605   0.16695   0.17823
 Alpha virt. eigenvalues --    0.19164   0.19769   0.20498   0.21899   0.22450
 Alpha virt. eigenvalues --    0.22846   0.25056   0.26133   0.26419   0.26967

 Mulliken charges:
               1
     1  C    0.424457
     2  C    1.050662
     3  Cl  -0.195264
     4  H   -0.125611
     5  H   -0.041323
     6  N   -0.510896
     7  H    0.057551
     8  H    0.102317
     9  N   -0.311061
    10  H    0.134167
    11  H    0.023099
    12  N    0.338677
    13  O   -0.584248
    14  O   -0.646239
    15  H   -0.716286
 Sum of Mulliken charges =  -1.00000

 Dipole moment (field-independent basis, Debye):
    X=              0.7699    Y=             -7.8258    Z=             -1.6307  Tot=              8.0309

 Test job not archived.
 1\1\GINC-SE455\SP\RHF\Aug-CC-pVDZ\C2H7Cl1N3O2(1-)\OHZDE\09-Apr-2025\0\
 \#t hf aug-cc-pvdz iop(5/13=1,5/36=2,99/5=2) pseudo=read geom=check gu
 ess=(read,tcheck) scf=(maxcycle=1)\\title\\-1,1\C,0,0.05977,0.096436,0
 .014319\C,0,-0.57051,0.209569,-1.385254\Cl,0,1.817813,-0.315091,-0.150
 648\H,0,-1.588548,0.577899,-1.201534\H,0,0.047383,1.078569,0.489142\N,
 0,-0.598103,-0.88741,0.830827\H,0,-0.239935,-1.800475,0.568874\H,0,-1.
 595642,-0.923891,0.519237\N,0,-0.686527,-0.968551,-2.152113\H,0,-1.561
 685,-1.399673,-1.81257\H,0,0.103897,-1.585773,-2.017047\N,0,0.143879,1

 Normal termination of Gaussian 16 at Wed Apr  9 02:39:03 2025.
