 Gaussian 16, Revision C.01,

 ----------------------------------------------------------------------
 #t hf aug-cc-pvdz symm=none int=(grid=ultrafine) guess=(read,tcheck) s
 table=(opt,rrhf)
 ----------------------------------------------------------------------
 -----
 title
 -----
 Symbolic Z-matrix:
 Charge = -1 Multiplicity = 1

 SCF Done:  E(RHF) =  -611.817195182     A.U. after   16 cycles
 Normal termination of Gaussian 16 at Wed Apr  9 02:44:34 2025.
 Gaussian 16:  ES64L-G16RevC.01  3-Jul-2019

 ----------------------------------------------------------------------
 #t hf aug-cc-pvdz iop(5/13=1,5/36=2,99/5=2) pseudo=read geom=check gue
 ss=(read,tcheck) scf=(maxcycle=1)
 ----------------------------------------------------------------------
 -----
 title
 -----
 Structure from the checkpoint file:  "E2SN2_255_mol1.chk"
 Charge = -1 Multiplicity = 1

                         Standard orientation:
 ---------------------------------------------------------------------
 Center     Atomic      Atomic             Coordinates (Angstroms)
 Number     Number       Type             X           Y           Z
 ---------------------------------------------------------------------
      1          6           0        0.812984    0.497752    0.386124
      2          1           0       -0.229934    0.792473   -1.440797
      3          9           0        0.027526   -0.531703    1.634639
      4          9           0        1.613463    1.628307   -0.675160
      5          6           0       -0.481466    0.635540   -0.392765
      6          1           0        1.019318    1.167851    1.200823
      7          6           0        1.768216   -0.553013    0.098607
      8          7           0        2.590150   -1.365070   -0.110563
      9          6           0       -1.298146    1.775111    0.167598
     10          1           0       -1.531191    1.563349    1.210373
     11          1           0       -0.687910    2.676174    0.089534
     12          1           0       -2.228677    1.915930   -0.384265
     13          7           0       -1.270078   -0.646788   -0.403055
     14          8           0       -2.407333   -0.657318    0.059958
     15          8           0       -0.737735   -1.596999   -0.969088
 ---------------------------------------------------------------------

 SCF Done:  E(RHF) =  -612.002177521     A.U. after    2 cycles

 The electronic state is 1-A.
 Alpha  occ. eigenvalues --  -25.86433 -25.84041 -20.48511 -20.48219 -15.77857
 Alpha  occ. eigenvalues --  -15.50029 -11.25565 -11.19576 -11.16161 -11.12632
 Alpha  occ. eigenvalues --   -1.40942  -1.36849  -1.34329  -1.22616  -1.04140
 Alpha  occ. eigenvalues --   -1.00328  -0.86123  -0.82987  -0.69950  -0.64441
 Alpha  occ. eigenvalues --   -0.61906  -0.60475  -0.59069  -0.51789  -0.50036
 Alpha  occ. eigenvalues --   -0.48079  -0.46071  -0.45020  -0.44574  -0.43069
 Alpha  occ. eigenvalues --   -0.42340  -0.40636  -0.40362  -0.37653  -0.36863
 Alpha  occ. eigenvalues --   -0.36632  -0.33908  -0.31430  -0.31167
 Alpha virt. eigenvalues --    0.12150   0.13723   0.14646   0.15619   0.16730
 Alpha virt. eigenvalues --    0.19277   0.21399   0.21439   0.22366   0.23005
 Alpha virt. eigenvalues --    0.24248   0.24479   0.25294   0.25856   0.26919

 Mulliken charges:
               1
     1  C    1.950314
     2  H   -0.090195
     3  F   -0.803765
     4  F   -0.759294
     5  C    0.256169
     6  H   -0.412064
     7  C   -0.889837
     8  N   -0.177939
     9  C    0.556159
    10  H    0.158475
    11  H    0.077427
    12  H   -0.016781
    13  N    0.428747
    14  O   -0.639938
    15  O   -0.637477
 Sum of Mulliken charges =  -1.00000

 Dipole moment (field-independent basis, Debye):
    X=             -3.7703    Y=              4.2522    Z=             -0.9778  Tot=              5.7665

 Test job not archived.
 1\1\GINC-SE016\SP\RHF\Aug-CC-pVDZ\C4H5F2N2O2(1-)\OHZDE\09-Apr-2025\0\\
 #t hf aug-cc-pvdz iop(5/13=1,5/36=2,99/5=2) pseudo=read geom=check gue
 ss=(read,tcheck) scf=(maxcycle=1)\\title\\-1,1\C,0,0.51786762,-0.03604
 692,-0.01772577\H,0,1.6529599,1.71734053,-0.40421652\F,0,-1.24312026,0
 .0172843,-0.38048169\F,0,2.17503329,-0.17242155,0.51184584\C,0,0.63590
 14,1.47411671,-0.09974649\H,0,0.21980478,-0.49851338,0.9056515\C,0,0.7
 4546439,-0.88284731,-1.17114234\N,0,0.9473785,-1.61787621,-2.0642976\C
 ,0,0.2844696,2.08899037,1.23367855\H,0,-0.74224634,1.82547382,1.484570

 Normal termination of Gaussian 16 at Wed Apr  9 02:44:41 2025.
