 Gaussian 16, Revision C.01,

 ----------------------------------------------------------------------
 #t hf aug-cc-pvdz symm=none int=(grid=ultrafine) guess=(read,tcheck) s
 table=(opt,rrhf)
 ----------------------------------------------------------------------
 -----
 title
 -----
 Symbolic Z-matrix:
 Charge = -1 Multiplicity = 1

 SCF Done:  E(RHF) =  -492.164719681     A.U. after   17 cycles
 Normal termination of Gaussian 16 at Wed Apr  9 02:32:52 2025.
 Gaussian 16:  ES64L-G16RevC.01  3-Jul-2019

 ----------------------------------------------------------------------
 #t hf aug-cc-pvdz iop(5/13=1,5/36=2,99/5=2) pseudo=read geom=check gue
 ss=(read,tcheck) scf=(maxcycle=1)
 ----------------------------------------------------------------------
 -----
 title
 -----
 Structure from the checkpoint file:  "E2SN2_140_mol1.chk"
 Charge = -1 Multiplicity = 1

                         Standard orientation:
 ---------------------------------------------------------------------
 Center     Atomic      Atomic             Coordinates (Angstroms)
 Number     Number       Type             X           Y           Z
 ---------------------------------------------------------------------
      1          6           0        0.147968   -0.100851    0.281165
      2          6           0        0.993826   -0.037926   -0.911501
      3          9           0        0.139768   -1.351329    0.972954
      4          1           0        1.391491    2.339966   -1.035735
      5          1           0        1.032823    1.386269   -1.156814
      6          1           0        0.636024   -0.673963   -1.723849
      7          7           0        0.396242    0.875015    1.299597
      8          1           0        0.648125    1.740495    0.819469
      9          1           0        1.219739    0.560928    1.797305
     10          7           0        2.414411   -0.154807   -0.660239
     11          1           0        2.623253   -0.728525    0.148825
     12          1           0        2.786890    0.786608   -0.500122
     13          7           0       -1.293518    0.065192   -0.192698
     14          8           0       -1.830414   -0.919269   -0.699773
     15          8           0       -1.802956    1.179900   -0.106511
 ---------------------------------------------------------------------

 SCF Done:  E(RHF) =  -492.319446201     A.U. after    2 cycles

 The electronic state is 1-A.
 Alpha  occ. eigenvalues --  -25.97623 -20.48122 -20.47891 -15.76691 -15.48895
 Alpha  occ. eigenvalues --  -15.46232 -11.27086 -11.06810  -1.50734  -1.39906
 Alpha  occ. eigenvalues --   -1.21891  -1.06871  -0.98540  -0.89231  -0.75152
 Alpha  occ. eigenvalues --   -0.69188  -0.65735  -0.61084  -0.59216  -0.58049
 Alpha  occ. eigenvalues --   -0.55491  -0.53772  -0.51281  -0.48844  -0.46352
 Alpha  occ. eigenvalues --   -0.41649  -0.37876  -0.36360  -0.34910  -0.33219
 Alpha  occ. eigenvalues --   -0.29081  -0.24320  -0.11200
 Alpha virt. eigenvalues --    0.12973   0.14723   0.15528   0.16930   0.18460
 Alpha virt. eigenvalues --    0.19765   0.20143   0.20684   0.21824   0.23526
 Alpha virt. eigenvalues --    0.24145   0.25609   0.26516   0.27413   0.28237

 Mulliken charges:
               1
     1  C    1.466815
     2  C    0.186582
     3  F   -0.435154
     4  H   -0.867160
     5  H    0.670607
     6  H   -0.287605
     7  N   -0.483445
     8  H    0.109844
     9  H    0.020129
    10  N   -0.375917
    11  H   -0.009563
    12  H    0.003800
    13  N    0.156065
    14  O   -0.592481
    15  O   -0.562517
 Sum of Mulliken charges =  -1.00000

 Dipole moment (field-independent basis, Debye):
    X=              0.0883    Y=             -3.0318    Z=              3.5942  Tot=              4.7029

 Test job not archived.
 1\1\GINC-SE073\SP\RHF\Aug-CC-pVDZ\C2H7F1N3O2(1-)\OHZDE\09-Apr-2025\0\\
 #t hf aug-cc-pvdz iop(5/13=1,5/36=2,99/5=2) pseudo=read geom=check gue
 ss=(read,tcheck) scf=(maxcycle=1)\\title\\-1,1\C,0,-0.09752505,0.01441
 917,-0.35793035\C,0,-0.12371327,0.153072,1.09877027\F,0,1.19916477,-0.
 08619854,-0.95021919\H,0,-2.33383402,-0.69342591,1.57495513\H,0,-1.518
 21564,-0.10120207,1.38291721\H,0,0.29065592,1.10194767,1.44577047\N,0,
 -0.83598839,-1.07915881,-0.91463274\H,0,-1.67545589,-1.18574434,-0.342
 8312\H,0,-0.27024045,-1.90567974,-0.76867762\N,0,0.35926687,-0.9981073

 Normal termination of Gaussian 16 at Wed Apr  9 02:32:58 2025.
