 Gaussian 16, Revision C.01,

 ----------------------------------------------------------------------
 #t hf aug-cc-pvdz symm=none int=(grid=ultrafine) guess=(read,tcheck) s
 table=(opt,rrhf)
 ----------------------------------------------------------------------
 -----
 title
 -----
 Symbolic Z-matrix:
 Charge = -1 Multiplicity = 1

 SCF Done:  E(RHF) =  -891.288355395     A.U. after   17 cycles
 Normal termination of Gaussian 16 at Wed Apr  9 02:35:41 2025.
 Gaussian 16:  ES64L-G16RevC.01  3-Jul-2019

 ----------------------------------------------------------------------
 #t hf aug-cc-pvdz iop(5/13=1,5/36=2,99/5=2) pseudo=read geom=check gue
 ss=(read,tcheck) scf=(maxcycle=1)
 ----------------------------------------------------------------------
 -----
 title
 -----
 Structure from the checkpoint file:  "E2SN2_158_mol1.chk"
 Charge = -1 Multiplicity = 1

                         Standard orientation:
 ---------------------------------------------------------------------
 Center     Atomic      Atomic             Coordinates (Angstroms)
 Number     Number       Type             X           Y           Z
 ---------------------------------------------------------------------
      1          6           0       -0.843948    0.244085    0.305130
      2          6           0        0.488409   -0.401600    0.612813
      3         17           0       -1.352236   -0.200625   -1.448094
      4          1           0        0.340567   -0.296286    3.044696
      5          1           0        0.571669   -0.181479    1.866454
      6          7           0       -1.875804   -0.308888    1.162013
      7          1           0       -1.499297   -0.190397    2.111861
      8          1           0       -1.890023   -1.313029    1.013544
      9          6           0       -0.905300    1.751188    0.410381
     10          1           0       -1.946481    2.053142    0.285680
     11          1           0       -0.554496    2.034866    1.407205
     12          1           0       -0.275234    2.240517   -0.326462
     13          7           0        1.624082    0.203887   -0.088126
     14          8           0        2.344096   -0.488158   -0.816517
     15          8           0        1.843274    1.408324    0.129007
     16          7           0        0.540225   -1.815781    0.560172
     17          1           0       -0.024285   -2.227802   -0.170710
     18          1           0        0.312138   -2.186800    1.477066
 ---------------------------------------------------------------------

 SCF Done:  E(RHF) =  -891.435617652     A.U. after    2 cycles

 The electronic state is 1-A.
 Alpha  occ. eigenvalues -- -103.51509 -20.46608 -20.45999 -15.75669 -15.49340
 Alpha  occ. eigenvalues --  -15.48455 -11.22590 -11.15983 -11.10839 -10.54868
 Alpha  occ. eigenvalues --   -8.20560  -8.20326  -8.20317  -1.38228  -1.19702
 Alpha  occ. eigenvalues --   -1.10293  -1.02926  -0.98378  -0.89665  -0.85202
 Alpha  occ. eigenvalues --   -0.72088  -0.65640  -0.60727  -0.58741  -0.57982
 Alpha  occ. eigenvalues --   -0.54642  -0.52930  -0.51482  -0.47644  -0.42557
 Alpha  occ. eigenvalues --   -0.41764  -0.40385  -0.37005  -0.36452  -0.35668
 Alpha  occ. eigenvalues --   -0.32828  -0.32619  -0.32069  -0.29256  -0.27574
 Alpha  occ. eigenvalues --   -0.12720
 Alpha virt. eigenvalues --    0.12897   0.13147   0.14833   0.15527   0.16236
 Alpha virt. eigenvalues --    0.17138   0.18305   0.19056   0.19910   0.20277
 Alpha virt. eigenvalues --    0.22385   0.23152   0.25268   0.25364   0.25780

 Mulliken charges:
               1
     1  C   -0.939946
     2  C    1.204432
     3  Cl  -0.367119
     4  H   -0.498230
     5  H   -0.047362
     6  N   -0.450861
     7  H    0.071183
     8  H    0.045712
     9  C    1.033043
    10  H   -0.026749
    11  H    0.069681
    12  H    0.044180
    13  N    0.252887
    14  O   -0.598362
    15  O   -0.682911
    16  N   -0.188681
    17  H    0.014851
    18  H    0.064250
 Sum of Mulliken charges =  -1.00000

 Dipole moment (field-independent basis, Debye):
    X=             -3.9150    Y=             -0.5023    Z=             -3.8115  Tot=              5.4870

 Test job not archived.
 1\1\GINC-SE164\SP\RHF\Aug-CC-pVDZ\C3H9Cl1N3O2(1-)\OHZDE\09-Apr-2025\0\
 \#t hf aug-cc-pvdz iop(5/13=1,5/36=2,99/5=2) pseudo=read geom=check gu
 ess=(read,tcheck) scf=(maxcycle=1)\\title\\-1,1\C,0,-0.24632065,0.0276
 9534,-0.31039349\C,0,-0.19203239,0.04233492,1.20076219\Cl,0,1.48961775
 ,-0.21868311,-0.98547303\H,0,-2.54362902,-0.45727986,1.60988681\H,0,-1
 .43587926,0.00204502,1.48044524\N,0,-1.00949493,-1.11696285,-0.7709124
 6\H,0,-1.9016998,-1.04009893,-0.26487859\H,0,-0.56912002,-1.94962725,-
 0.39238484\C,0,-0.80534205,1.26333259,-0.9788973\H,0,-0.89656405,1.054

 Normal termination of Gaussian 16 at Wed Apr  9 02:35:51 2025.
