 Gaussian 16, Revision C.01,

 ----------------------------------------------------------------------
 #t hf aug-cc-pvdz symm=none int=(grid=ultrafine) guess=(read,tcheck) s
 table=(opt,rrhf)
 ----------------------------------------------------------------------
 -----
 title
 -----
 Symbolic Z-matrix:
 Charge = -1 Multiplicity = 1

 SCF Done:  E(RHF) =  -971.882864279     A.U. after   17 cycles
 Normal termination of Gaussian 16 at Wed Apr  9 02:41:37 2025.
 Gaussian 16:  ES64L-G16RevC.01  3-Jul-2019

 ----------------------------------------------------------------------
 #t hf aug-cc-pvdz iop(5/13=1,5/36=2,99/5=2) pseudo=read geom=check gue
 ss=(read,tcheck) scf=(maxcycle=1)
 ----------------------------------------------------------------------
 -----
 title
 -----
 Structure from the checkpoint file:  "E2SN2_229_mol2.chk"
 Charge = -1 Multiplicity = 1

                         Standard orientation:
 ---------------------------------------------------------------------
 Center     Atomic      Atomic             Coordinates (Angstroms)
 Number     Number       Type             X           Y           Z
 ---------------------------------------------------------------------
      1          6           0        0.081345    0.128886   -0.032483
      2          6           0        0.878744   -0.116567   -1.300060
      3         17           0        0.234389    1.926219    0.381769
      4          1           0        0.476738   -1.043572   -1.697965
      5          1           0        0.685706    0.708835   -1.989111
      6          7           0       -1.410712   -0.043668   -0.249728
      7          8           0       -1.811488    0.043560   -1.403932
      8          8           0       -2.109065   -0.136854    0.747370
      9          6           0        0.512517   -0.619062    1.142086
     10          7           0        1.031948   -0.857458    2.174019
     11          6           0        2.363699   -0.266022   -1.003028
     12          1           0        2.522827   -1.168570   -0.411691
     13          1           0        2.761166    0.589048   -0.450110
     14          1           0        2.924678   -0.360333   -1.937519
     15          9           0       -0.261977   -2.131145   -0.117813
 ---------------------------------------------------------------------

 SCF Done:  E(RHF) =  -972.053673223     A.U. after    2 cycles

 The electronic state is 1-A.
 Alpha  occ. eigenvalues -- -103.55352 -25.77555 -20.48854 -20.48829 -15.79242
 Alpha  occ. eigenvalues --  -15.49230 -11.28338 -11.17155 -11.12640 -11.11784
 Alpha  occ. eigenvalues --  -10.58633  -8.24345  -8.24062  -8.24052  -1.41823
 Alpha  occ. eigenvalues --   -1.27017  -1.23611  -1.09154  -1.02496  -0.95387
 Alpha  occ. eigenvalues --   -0.89124  -0.76314  -0.73206  -0.66040  -0.60954
 Alpha  occ. eigenvalues --   -0.60153  -0.54234  -0.51421  -0.46964  -0.44211
 Alpha  occ. eigenvalues --   -0.41878  -0.41535  -0.39777  -0.39298  -0.37967
 Alpha  occ. eigenvalues --   -0.37356  -0.36136  -0.35958  -0.35142  -0.34508
 Alpha  occ. eigenvalues --   -0.33776  -0.31021  -0.27908
 Alpha virt. eigenvalues --    0.11840   0.14031   0.14260   0.16824   0.17235
 Alpha virt. eigenvalues --    0.17847   0.19748   0.20323   0.22063   0.23118
 Alpha virt. eigenvalues --    0.24441   0.24810   0.24997   0.25347   0.26148

 Mulliken charges:
               1
     1  C    0.333331
     2  C    0.421803
     3  Cl  -0.245674
     4  H    0.151568
     5  H   -0.023170
     6  N    0.595601
     7  O   -0.657965
     8  O   -0.670836
     9  C    0.165960
    10  N   -0.385746
    11  C    0.380523
    12  H    0.009840
    13  H   -0.053333
    14  H   -0.095147
    15  F   -0.926756
 Sum of Mulliken charges =  -1.00000

 Dipole moment (field-independent basis, Debye):
    X=              3.0341    Y=              6.0015    Z=             -3.2578  Tot=              7.4724

 Test job not archived.
 1\1\GINC-SE341\SP\RHF\Aug-CC-pVDZ\C4H5Cl1F1N2O2(1-)\OHZDE\09-Apr-2025\
 0\\#t hf aug-cc-pvdz iop(5/13=1,5/36=2,99/5=2) pseudo=read geom=check
 guess=(read,tcheck) scf=(maxcycle=1)\\title\\-1,1\C,0,-0.069105,0.0032
 38,-0.020953\C,0,-0.41156,0.083529,-1.497138\Cl,0,1.775037,-0.066742,0
 .119317\H,0,-1.420867,0.483599,-1.519891\H,0,0.284535,0.779457,-1.9709
 3\N,0,-0.417793,1.280877,0.720166\O,0,-0.535299,2.294441,0.04245\O,0,-
 0.437406,1.226705,1.939701\C,0,-0.59645,-1.155141,0.68969\N,0,-0.63340
 8,-2.214888,1.206505\C,0,-0.369413,-1.288729,-2.153484\H,0,-1.158709,-

 Normal termination of Gaussian 16 at Wed Apr  9 02:41:45 2025.
