 Gaussian 16, Revision C.01,

 ----------------------------------------------------------------------
 #t hf aug-cc-pvdz symm=none int=(grid=ultrafine) guess=(read,tcheck) s
 table=(opt,rrhf)
 ----------------------------------------------------------------------
 -----
 title
 -----
 Symbolic Z-matrix:
 Charge = -1 Multiplicity = 1

 SCF Done:  E(RHF) =  -984.675546817     A.U. after   17 cycles
 Normal termination of Gaussian 16 at Wed Apr  9 02:32:26 2025.
 Gaussian 16:  ES64L-G16RevC.01  3-Jul-2019

 ----------------------------------------------------------------------
 #t hf aug-cc-pvdz iop(5/13=1,5/36=2,99/5=2) pseudo=read geom=check gue
 ss=(read,tcheck) scf=(maxcycle=1)
 ----------------------------------------------------------------------
 -----
 title
 -----
 Structure from the checkpoint file:  "E2SN2_127_mol2.chk"
 Charge = -1 Multiplicity = 1

                         Standard orientation:
 ---------------------------------------------------------------------
 Center     Atomic      Atomic             Coordinates (Angstroms)
 Number     Number       Type             X           Y           Z
 ---------------------------------------------------------------------
      1          6           0       -0.026755   -0.201189    0.022209
      2          6           0       -0.864857   -0.947878   -0.950242
      3         17           0       -0.324250   -0.654511    1.689392
      4          1           0       -0.811439   -2.033273   -0.765525
      5          1           0       -0.459602   -0.758105   -1.947568
      6          7           0        1.477662   -0.364864   -0.230645
      7          8           0        1.828972   -1.170843   -1.080512
      8          8           0        2.211259    0.334965    0.460090
      9          7           0       -0.231777    1.311564   -0.150751
     10          8           0       -0.960154    1.910761    0.629040
     11          8           0        0.280289    1.774303   -1.168642
     12          6           0       -2.337043   -0.573661   -0.872431
     13          1           0       -2.550607    0.420694   -1.278017
     14          1           0       -2.886416   -1.329529   -1.438359
     15          1           0       -2.701702   -0.620299    0.155320
     16          1           0       -1.310168   -3.636814   -0.692770
 ---------------------------------------------------------------------

 SCF Done:  E(RHF) =  -984.854881366     A.U. after    2 cycles

 The electronic state is 1-A.
 Alpha  occ. eigenvalues -- -103.59264 -20.55077 -20.54540 -20.54388 -20.53558
 Alpha  occ. eigenvalues --  -15.84149 -15.83689 -11.34213 -11.12658 -11.12159
 Alpha  occ. eigenvalues --  -10.62599  -8.28340  -8.28000  -8.27982  -1.47753
 Alpha  occ. eigenvalues --   -1.45871  -1.29074  -1.28453  -1.14268  -1.00334
 Alpha  occ. eigenvalues --   -0.91904  -0.86454  -0.77735  -0.72984  -0.71080
 Alpha  occ. eigenvalues --   -0.66823  -0.65502  -0.65183  -0.62855  -0.59903
 Alpha  occ. eigenvalues --   -0.51658  -0.50295  -0.46931  -0.45551  -0.44318
 Alpha  occ. eigenvalues --   -0.42911  -0.41271  -0.40741  -0.40075  -0.38958
 Alpha  occ. eigenvalues --   -0.38586  -0.37761  -0.37519  -0.08202
 Alpha virt. eigenvalues --    0.12860   0.14497   0.14570   0.15205   0.15984
 Alpha virt. eigenvalues --    0.16438   0.17549   0.19449   0.20469   0.21892
 Alpha virt. eigenvalues --    0.22481   0.23802   0.23878   0.24901   0.25638

 Mulliken charges:
               1
     1  C    1.094594
     2  C    0.163899
     3  Cl  -0.045406
     4  H   -0.245069
     5  H    0.068903
     6  N    0.268528
     7  O   -0.527206
     8  O   -0.627181
     9  N    0.357341
    10  O   -0.602594
    11  O   -0.634322
    12  C    0.559306
    13  H   -0.024706
    14  H   -0.014014
    15  H   -0.059568
    16  H   -0.732506
 Sum of Mulliken charges =  -1.00000

 Dipole moment (field-independent basis, Debye):
    X=              2.0514    Y=             11.1777    Z=              2.5435  Tot=             11.6455

 Test job not archived.
 1\1\GINC-SE334\SP\RHF\Aug-CC-pVDZ\C3H6Cl1N2O4(1-)\OHZDE\09-Apr-2025\0\
 \#t hf aug-cc-pvdz iop(5/13=1,5/36=2,99/5=2) pseudo=read geom=check gu
 ess=(read,tcheck) scf=(maxcycle=1)\\title\\-1,1\C,0,-0.518733,0.101819
 ,-1.427743\C,0,0.019556,-0.031347,-0.050016\Cl,0,0.17416,1.44317,-2.31
 8911\H,0,1.121773,-0.01885,-0.054075\H,0,-0.302392,-1.001825,0.336542\
 N,0,-0.315843,-1.159802,-2.276946\O,0,0.364379,-2.060672,-1.806813\O,0
 ,-0.857825,-1.151717,-3.377505\N,0,-2.048707,0.236454,-1.390025\O,0,-2
 .556387,1.342724,-1.516809\O,0,-2.637293,-0.804943,-1.104545\C,0,-0.41

 Normal termination of Gaussian 16 at Wed Apr  9 02:32:35 2025.
