 Gaussian 16, Revision C.01,

 ----------------------------------------------------------------------
 #t hf aug-cc-pvdz symm=none int=(grid=ultrafine) guess=(read,tcheck) s
 table=(opt,rrhf)
 ----------------------------------------------------------------------
 -----
 title
 -----
 Symbolic Z-matrix:
 Charge = -1 Multiplicity = 1

 SCF Done:  E(RHF) =  -515.178104086     A.U. after   18 cycles
 Normal termination of Gaussian 16 at Wed Apr  9 02:53:23 2025.
 Gaussian 16:  ES64L-G16RevC.01  3-Jul-2019

 ----------------------------------------------------------------------
 #t hf aug-cc-pvdz iop(5/13=1,5/36=2,99/5=2) pseudo=read geom=check gue
 ss=(read,tcheck) scf=(maxcycle=1)
 ----------------------------------------------------------------------
 -----
 title
 -----
 Structure from the checkpoint file:  "E2SN2_358_mol1.chk"
 Charge = -1 Multiplicity = 1

                         Standard orientation:
 ---------------------------------------------------------------------
 Center     Atomic      Atomic             Coordinates (Angstroms)
 Number     Number       Type             X           Y           Z
 ---------------------------------------------------------------------
      1          6           0       -0.964533   -0.367124   -0.177642
      2          1           0        0.342783    0.401264   -1.690258
      3          9           0       -1.187176    0.373414    1.297794
      4          1           0       -0.784756   -1.320852   -1.808804
      5          6           0        0.250325    0.487524   -0.613551
      6          6           0       -2.294542    0.076391   -0.784182
      7          1           0       -2.765191    0.830630   -0.140284
      8          1           0       -2.154017    0.473049   -1.789139
      9          1           0       -2.953146   -0.787266   -0.872208
     10          7           0       -0.718847   -1.650146    0.447720
     11          1           0       -0.997673   -2.367975   -0.199414
     12          1           0       -1.235497   -1.671396    1.318760
     13          7           0        1.500670   -0.143797   -0.088901
     14          8           0        2.188118   -0.790067   -0.879849
     15          8           0        1.783071    0.026142    1.095797
     16          6           0        0.230880    1.944215   -0.174403
     17          1           0       -0.695804    2.410800   -0.516584
     18          1           0        0.278476    2.017559    0.906613
     19          1           0        1.074353    2.476430   -0.629478
 ---------------------------------------------------------------------

 SCF Done:  E(RHF) =  -515.336569235     A.U. after    2 cycles

 The electronic state is 1-A.
 Alpha  occ. eigenvalues --  -25.86514 -20.46613 -20.46369 -15.75599 -15.45562
 Alpha  occ. eigenvalues --  -11.22888 -11.16001 -11.10821 -11.09226  -1.38772
 Alpha  occ. eigenvalues --   -1.37618  -1.20326  -1.01959  -0.95611  -0.84711
 Alpha  occ. eigenvalues --   -0.80756  -0.71217  -0.64908  -0.59813  -0.57605
 Alpha  occ. eigenvalues --   -0.57015  -0.53607  -0.51689  -0.50405  -0.45066
 Alpha  occ. eigenvalues --   -0.44038  -0.42977  -0.42348  -0.42155  -0.39151
 Alpha  occ. eigenvalues --   -0.38338  -0.37060  -0.35521  -0.34251  -0.31916
 Alpha  occ. eigenvalues --   -0.25089  -0.10060
 Alpha virt. eigenvalues --    0.12492   0.13366   0.14273   0.14753   0.15460
 Alpha virt. eigenvalues --    0.16457   0.16846   0.17824   0.18450   0.20751
 Alpha virt. eigenvalues --    0.22713   0.23142   0.23653   0.24884   0.25153

 Mulliken charges:
               1
     1  C   -1.130996
     2  H   -0.266430
     3  F   -0.691512
     4  H   -0.424610
     5  C    1.141036
     6  C    0.867773
     7  H    0.037960
     8  H   -0.009624
     9  H   -0.104270
    10  N   -0.038732
    11  H    0.037203
    12  H   -0.052996
    13  N    0.313978
    14  O   -0.627373
    15  O   -0.653199
    16  C    0.574048
    17  H   -0.037857
    18  H    0.112881
    19  H   -0.047280
 Sum of Mulliken charges =  -1.00000

 Dipole moment (field-independent basis, Debye):
    X=             -1.3820    Y=              4.3719    Z=              1.2486  Tot=              4.7520

 Test job not archived.
 1\1\GINC-SE059\SP\RHF\Aug-CC-pVDZ\C4H10F1N2O2(1-)\OHZDE\09-Apr-2025\0\
 \#t hf aug-cc-pvdz iop(5/13=1,5/36=2,99/5=2) pseudo=read geom=check gu
 ess=(read,tcheck) scf=(maxcycle=1)\\title\\-1,1\C,0,0.56279004,-0.0941
 6307,-0.04213962\H,0,1.58304048,1.74479702,-0.44811922\F,0,-1.08486678
 ,-0.27824734,-0.20405315\H,0,2.44312845,-0.01220241,0.20325001\C,0,0.5
 7479383,1.44736939,-0.18304473\C,0,0.93621082,-0.84455817,-1.31923989\
 H,0,0.03660077,-1.02739759,-1.92112257\H,0,1.67174049,-0.28849643,-1.8
 9959694\H,0,1.39448459,-1.79680367,-1.05348643\N,0,0.54593837,-0.66699

 Normal termination of Gaussian 16 at Wed Apr  9 02:53:33 2025.
