 Gaussian 16, Revision C.01,

 ----------------------------------------------------------------------
 #t hf aug-cc-pvdz symm=none int=(grid=ultrafine) guess=(read,tcheck) s
 table=(opt,rrhf)
 ----------------------------------------------------------------------
 -----
 title
 -----
 Symbolic Z-matrix:
 Charge = -1 Multiplicity = 1

 SCF Done:  E(RHF) =  -896.150929265     A.U. after   16 cycles
 Normal termination of Gaussian 16 at Wed Apr  9 02:36:19 2025.
 Gaussian 16:  ES64L-G16RevC.01  3-Jul-2019

 ----------------------------------------------------------------------
 #t hf aug-cc-pvdz iop(5/13=1,5/36=2,99/5=2) pseudo=read geom=check gue
 ss=(read,tcheck) scf=(maxcycle=1)
 ----------------------------------------------------------------------
 -----
 title
 -----
 Structure from the checkpoint file:  "E2SN2_173_mol1.chk"
 Charge = -1 Multiplicity = 1

                         Standard orientation:
 ---------------------------------------------------------------------
 Center     Atomic      Atomic             Coordinates (Angstroms)
 Number     Number       Type             X           Y           Z
 ---------------------------------------------------------------------
      1          6           0        0.078967    0.065586   -0.603863
      2          1           0        0.295870    2.118041   -0.308005
      3         17           0       -1.552993   -1.212452   -0.325004
      4          9           0        1.787421    0.954449   -1.102561
      5          6           0       -0.547536    1.440437   -0.389035
      6          1           0        0.314001   -0.331687   -1.569910
      7          1           0       -1.077471    1.665680   -1.319235
      8          7           0        0.947926   -0.479300    0.458327
      9          8           0        0.971886    0.122209    1.532803
     10          8           0        1.558623   -1.512328    0.220468
     11          7           0       -1.451731    1.656079    0.730772
     12          1           0       -0.930717    1.447502    1.573394
     13          1           0       -2.193620    0.969471    0.679407
 ---------------------------------------------------------------------

 SCF Done:  E(RHF) =  -896.298556672     A.U. after    2 cycles

 The electronic state is 1-A.
 Alpha  occ. eigenvalues -- -103.48052 -25.79073 -20.47703 -20.47557 -15.78083
 Alpha  occ. eigenvalues --  -15.47777 -11.25343 -11.14263 -10.51339  -8.17000
 Alpha  occ. eigenvalues --   -8.16820  -8.16813  -1.40473  -1.28659  -1.22040
 Alpha  occ. eigenvalues --   -1.04057  -0.97446  -0.90584  -0.79011  -0.68624
 Alpha  occ. eigenvalues --   -0.62035  -0.59579  -0.58244  -0.54057  -0.50777
 Alpha  occ. eigenvalues --   -0.45907  -0.42254  -0.39667  -0.38599  -0.37368
 Alpha  occ. eigenvalues --   -0.36844  -0.35604  -0.33336  -0.30758  -0.30168
 Alpha  occ. eigenvalues --   -0.29748  -0.27280
 Alpha virt. eigenvalues --    0.13927   0.14416   0.15630   0.15964   0.18017
 Alpha virt. eigenvalues --    0.19290   0.20976   0.22809   0.23996   0.24671
 Alpha virt. eigenvalues --    0.27032   0.27490   0.28274   0.28635   0.29024

 Mulliken charges:
               1
     1  C    1.015150
     2  H    0.006697
     3  Cl  -0.550448
     4  F   -0.859511
     5  C    0.711878
     6  H   -0.271444
     7  H   -0.080184
     8  N    0.733486
     9  O   -0.714041
    10  O   -0.687198
    11  N   -0.416007
    12  H    0.083067
    13  H    0.028556
 Sum of Mulliken charges =  -1.00000

 Dipole moment (field-independent basis, Debye):
    X=             -3.9351    Y=             -0.1524    Z=              0.5385  Tot=              3.9748

 Test job not archived.
 1\1\GINC-SE041\SP\RHF\Aug-CC-pVDZ\C2H5Cl1F1N2O2(1-)\OHZDE\09-Apr-2025\
 0\\#t hf aug-cc-pvdz iop(5/13=1,5/36=2,99/5=2) pseudo=read geom=check
 guess=(read,tcheck) scf=(maxcycle=1)\\title\\-1,1\C,0,0.58636156,0.028
 22385,0.08694952\H,0,1.81059156,1.71218154,0.19964326\Cl,0,-1.48873718
 ,-0.19159385,0.22866087\F,0,2.5433876,-0.15832157,-0.2177535\C,0,0.748
 56702,1.54527927,0.05371253\H,0,0.66281464,-0.59288071,-0.78178478\H,0
 ,0.4943721,1.84132025,-0.96833528\N,0,0.95173086,-0.68593497,1.3265946
 2\O,0,1.19225762,-0.00244782,2.32252537\O,0,0.95543618,-1.90900952,1.2

 Normal termination of Gaussian 16 at Wed Apr  9 02:36:25 2025.
