 Gaussian 16, Revision C.01,

 ----------------------------------------------------------------------
 #t hf aug-cc-pvdz symm=none int=(grid=ultrafine) guess=(read,tcheck) s
 table=(opt,rrhf)
 ----------------------------------------------------------------------
 -----
 title
 -----
 Symbolic Z-matrix:
 Charge = -1 Multiplicity = 1

 SCF Done:  E(RHF) =  -502.452123384     A.U. after   15 cycles
 Normal termination of Gaussian 16 at Wed Apr  9 02:53:43 2025.
 Gaussian 16:  ES64L-G16RevC.01  3-Jul-2019

 ----------------------------------------------------------------------
 #t hf aug-cc-pvdz iop(5/13=1,5/36=2,99/5=2) pseudo=read geom=check gue
 ss=(read,tcheck) scf=(maxcycle=1)
 ----------------------------------------------------------------------
 -----
 title
 -----
 Structure from the checkpoint file:  "E2SN2_363_mol2.chk"
 Charge = -1 Multiplicity = 1

                         Standard orientation:
 ---------------------------------------------------------------------
 Center     Atomic      Atomic             Coordinates (Angstroms)
 Number     Number       Type             X           Y           Z
 ---------------------------------------------------------------------
      1          6           0       -0.408414    0.682197    0.119515
      2          6           0        0.448925   -0.591784    0.179908
      3          9           0        0.262807    1.714095    0.819211
      4          1           0       -0.181768   -1.321516   -0.370035
      5          6           0       -0.596835    1.149848   -1.312093
      6          1           0        0.353330    1.364642   -1.807655
      7          1           0       -1.206956    2.059041   -1.313444
      8          1           0       -1.131372    0.339353   -1.811819
      9          7           0       -1.638957    0.390280    0.793619
     10          1           0       -1.986793   -0.446882    0.259701
     11          1           0       -2.277950    1.158711    0.609667
     12          6           0        0.676226   -1.067899    1.616340
     13          1           0       -0.290412   -1.280948    2.068581
     14          1           0        1.289593   -1.973061    1.626310
     15          1           0        1.175647   -0.293939    2.203697
     16          6           0        1.729342   -0.396748   -0.492540
     17          7           0        2.776120   -0.263511   -1.010840
     18          9           0       -1.907133   -1.619258   -0.887125
 ---------------------------------------------------------------------

 SCF Done:  E(RHF) =  -502.607203966     A.U. after    2 cycles

 The electronic state is 1-A.
 Alpha  occ. eigenvalues --  -25.96305 -25.76264 -15.50758 -15.45109 -11.21790
 Alpha  occ. eigenvalues --  -11.16258 -11.12878 -11.10765 -11.09237  -1.49529
 Alpha  occ. eigenvalues --   -1.25290  -1.05621  -1.03280  -0.92530  -0.85426
 Alpha  occ. eigenvalues --   -0.76298  -0.70416  -0.61618  -0.59072  -0.58151
 Alpha  occ. eigenvalues --   -0.50878  -0.47975  -0.47187  -0.46350  -0.43825
 Alpha  occ. eigenvalues --   -0.42637  -0.41354  -0.40153  -0.39909  -0.36434
 Alpha  occ. eigenvalues --   -0.35171  -0.34875  -0.33793  -0.31489  -0.29962
 Alpha  occ. eigenvalues --   -0.25401
 Alpha virt. eigenvalues --    0.12841   0.13187   0.14446   0.15069   0.15990
 Alpha virt. eigenvalues --    0.16820   0.17396   0.18576   0.19507   0.20193
 Alpha virt. eigenvalues --    0.20977   0.22469   0.24604   0.25553   0.25848

 Mulliken charges:
               1
     1  C   -0.245037
     2  C    0.172368
     3  F   -0.547264
     4  H   -0.036427
     5  C    0.719693
     6  H   -0.020062
     7  H   -0.038990
     8  H    0.128969
     9  N   -0.451223
    10  H    0.270341
    11  H   -0.055672
    12  C    0.740189
    13  H   -0.000265
    14  H   -0.043312
    15  H   -0.011607
    16  C   -0.285380
    17  N   -0.325315
    18  F   -0.971007
 Sum of Mulliken charges =  -1.00000

 Dipole moment (field-independent basis, Debye):
    X=              1.1110    Y=              3.3384    Z=              2.2449  Tot=              4.1736

 Test job not archived.
 1\1\GINC-SE284\SP\RHF\Aug-CC-pVDZ\C5H9F2N2(1-)\OHZDE\09-Apr-2025\0\\#t
  hf aug-cc-pvdz iop(5/13=1,5/36=2,99/5=2) pseudo=read geom=check guess
 =(read,tcheck) scf=(maxcycle=1)\\title\\-1,1\C,0,-0.008171,0.026539,0.
 005989\C,0,-0.51972,0.289224,-1.419149\F,0,1.405871,-0.040211,-0.02487
 7\H,0,-1.620283,0.294808,-1.27269\C,0,-0.3909,1.156916,0.943789\H,0,0.
 010045,2.120345,0.618862\H,0,-0.006267,0.936154,1.94489\H,0,-1.482766,
 1.164363,0.955299\N,0,-0.523249,-1.249474,0.406429\H,0,-1.55966,-1.113
 486,0.287021\H,0,-0.340099,-1.354716,1.40042\C,0,-0.122271,-0.824562,-

 Normal termination of Gaussian 16 at Wed Apr  9 02:53:51 2025.
