 Gaussian 16, Revision C.01,

 ----------------------------------------------------------------------
 #t hf aug-cc-pvdz symm=none int=(grid=ultrafine) guess=(read,tcheck) s
 table=(opt,rrhf)
 ----------------------------------------------------------------------
 -----
 title
 -----
 Symbolic Z-matrix:
 Charge = -1 Multiplicity = 1

 SCF Done:  E(RHF) =  -1348.03784385     A.U. after   16 cycles
 Normal termination of Gaussian 16 at Wed Apr  9 02:42:34 2025.
 Gaussian 16:  ES64L-G16RevC.01  3-Jul-2019

 ----------------------------------------------------------------------
 #t hf aug-cc-pvdz iop(5/13=1,5/36=2,99/5=2) pseudo=read geom=check gue
 ss=(read,tcheck) scf=(maxcycle=1)
 ----------------------------------------------------------------------
 -----
 title
 -----
 Structure from the checkpoint file:  "E2SN2_240_mol2.chk"
 Charge = -1 Multiplicity = 1

                         Standard orientation:
 ---------------------------------------------------------------------
 Center     Atomic      Atomic             Coordinates (Angstroms)
 Number     Number       Type             X           Y           Z
 ---------------------------------------------------------------------
      1          6           0        0.479307   -0.146446   -0.208212
      2          6           0        0.147364    0.896067    0.845617
      3         17           0        2.268348   -0.271554   -0.449636
      4          1           0       -0.949288    0.903375    0.937357
      5          1           0        0.590557    0.614545    1.799854
      6          7           0        0.146541   -1.559706    0.401755
      7          8           0        0.229586   -1.704841    1.615524
      8          8           0       -0.133437   -2.431971   -0.409906
      9          7           0       -0.167529    0.095958   -1.409331
     10          1           0       -0.051762   -0.682987   -2.045397
     11          1           0       -1.170287    0.249769   -1.214695
     12          6           0        0.622138    2.215834    0.449669
     13          7           0        1.016171    3.290193    0.189815
     14         17           0       -3.071145    0.355787   -0.133904
 ---------------------------------------------------------------------

 SCF Done:  E(RHF) =  -1348.19528121     A.U. after    2 cycles

 The electronic state is 1-A.
 Alpha  occ. eigenvalues -- -103.57927-103.39520 -20.52589 -20.52556 -15.81367
 Alpha  occ. eigenvalues --  -15.54226 -15.52291 -11.32191 -11.19736 -11.19087
 Alpha  occ. eigenvalues --  -10.61288 -10.42645  -8.27006  -8.26706  -8.26699
 Alpha  occ. eigenvalues --   -8.08250  -8.08215  -8.08196  -1.44805  -1.26937
 Alpha  occ. eigenvalues --   -1.15689  -1.08074  -1.04512  -0.95445  -0.87853
 Alpha  occ. eigenvalues --   -0.85102  -0.72674  -0.67457  -0.64822  -0.63663
 Alpha  occ. eigenvalues --   -0.59913  -0.57874  -0.55372  -0.49614  -0.46389
 Alpha  occ. eigenvalues --   -0.44865  -0.44236  -0.42098  -0.39114  -0.38041
 Alpha  occ. eigenvalues --   -0.37461  -0.35373  -0.35092  -0.32449  -0.23076
 Alpha  occ. eigenvalues --   -0.22799  -0.22659
 Alpha virt. eigenvalues --    0.12981   0.13463   0.15899   0.16624   0.17401
 Alpha virt. eigenvalues --    0.18173   0.19274   0.21135   0.21602   0.23299
 Alpha virt. eigenvalues --    0.23871   0.24853   0.25491   0.25795   0.26120

 Mulliken charges:
               1
     1  C    0.584590
     2  C    0.864173
     3  Cl  -0.181023
     4  H    0.007088
     5  H    0.074514
     6  N    0.483792
     7  O   -0.632947
     8  O   -0.610072
     9  N   -0.397313
    10  H    0.063845
    11  H    0.051177
    12  C   -0.109909
    13  N   -0.285767
    14  Cl  -0.912146
 Sum of Mulliken charges =  -1.00000

 Dipole moment (field-independent basis, Debye):
    X=              8.1639    Y=             -2.3426    Z=              0.2155  Tot=              8.4961

 Test job not archived.
 1\1\GINC-SE419\SP\RHF\Aug-CC-pVDZ\C3H4Cl2N3O2(1-)\OHZDE\09-Apr-2025\0\
 \#t hf aug-cc-pvdz iop(5/13=1,5/36=2,99/5=2) pseudo=read geom=check gu
 ess=(read,tcheck) scf=(maxcycle=1)\\title\\-1,1\C,0,-0.010035,0.012399
 ,0.005144\C,0,-0.524997,0.365379,-1.3797\Cl,0,1.796733,-0.088156,0.014
 383\H,0,-1.621319,0.414891,-1.297584\H,0,-0.138524,1.337219,-1.683688\
 N,0,-0.258574,1.258714,0.935209\O,0,-0.263839,2.373486,0.426828\O,0,-0
 .386858,1.010502,2.126831\N,0,-0.574278,-1.154892,0.493925\H,0,-0.3333
 42,-1.292288,1.46748\H,0,-1.599765,-1.091195,0.387233\C,0,-0.144663,-0

 Normal termination of Gaussian 16 at Wed Apr  9 02:42:41 2025.
