 Gaussian 16, Revision C.01,

 ----------------------------------------------------------------------
 #t hf aug-cc-pvdz symm=none int=(grid=ultrafine) guess=(read,tcheck) s
 table=(opt,rrhf)
 ----------------------------------------------------------------------
 -----
 title
 -----
 Symbolic Z-matrix:
 Charge = -1 Multiplicity = 1

 SCF Done:  E(RHF) =  -896.175835757     A.U. after   15 cycles
 Normal termination of Gaussian 16 at Wed Apr  9 02:36:18 2025.
 Gaussian 16:  ES64L-G16RevC.01  3-Jul-2019

 ----------------------------------------------------------------------
 #t hf aug-cc-pvdz iop(5/13=1,5/36=2,99/5=2) pseudo=read geom=check gue
 ss=(read,tcheck) scf=(maxcycle=1)
 ----------------------------------------------------------------------
 -----
 title
 -----
 Structure from the checkpoint file:  "E2SN2_173_mol2.chk"
 Charge = -1 Multiplicity = 1

                         Standard orientation:
 ---------------------------------------------------------------------
 Center     Atomic      Atomic             Coordinates (Angstroms)
 Number     Number       Type             X           Y           Z
 ---------------------------------------------------------------------
      1          6           0       -0.012889    0.000338   -0.065964
      2          6           0        0.839319   -0.224341    1.172655
      3         17           0       -0.196411    1.747326   -0.422983
      4          1           0        0.752383   -1.290040    1.400124
      5          1           0        0.517738   -0.508877   -0.908299
      6          1           0        0.449564    0.342479    2.023405
      7          7           0       -1.404192   -0.541672    0.077002
      8          8           0       -2.042222   -0.733961   -0.956092
      9          8           0       -1.829462   -0.770729    1.212104
     10          7           0        2.244371    0.062247    0.928432
     11          1           0        2.327621    1.045769    0.692887
     12          1           0        2.434729   -0.473918    0.058617
     13          9           0        1.887845   -1.342493   -1.311367
 ---------------------------------------------------------------------

 SCF Done:  E(RHF) =  -896.326081321     A.U. after    2 cycles

 The electronic state is 1-A.
 Alpha  occ. eigenvalues -- -103.54660 -25.76280 -20.50116 -20.50040 -15.79192
 Alpha  occ. eigenvalues --  -15.45226 -11.21069 -11.13934 -10.57980  -8.23706
 Alpha  occ. eigenvalues --   -8.23424  -8.23400  -1.42143  -1.25341  -1.23859
 Alpha  occ. eigenvalues --   -1.07639  -1.00166  -0.91336  -0.77499  -0.69092
 Alpha  occ. eigenvalues --   -0.62947  -0.61562  -0.60146  -0.54191  -0.48047
 Alpha  occ. eigenvalues --   -0.45422  -0.42178  -0.40974  -0.39552  -0.38703
 Alpha  occ. eigenvalues --   -0.36228  -0.35701  -0.35170  -0.34482  -0.33485
 Alpha  occ. eigenvalues --   -0.31110  -0.25047
 Alpha virt. eigenvalues --    0.13825   0.15081   0.15867   0.17206   0.18356
 Alpha virt. eigenvalues --    0.19619   0.19876   0.22172   0.23071   0.24742
 Alpha virt. eigenvalues --    0.26608   0.27052   0.27648   0.28595   0.29006

 Mulliken charges:
               1
     1  C    0.588272
     2  C    0.765772
     3  Cl  -0.218811
     4  H   -0.004645
     5  H    0.024939
     6  H   -0.066011
     7  N    0.411275
     8  O   -0.609579
     9  O   -0.612837
    10  N   -0.515863
    11  H    0.027849
    12  H    0.154055
    13  F   -0.944416
 Sum of Mulliken charges =  -1.00000

 Dipole moment (field-independent basis, Debye):
    X=             -3.5094    Y=              4.4709    Z=              3.0762  Tot=              6.4628

 Test job not archived.
 1\1\GINC-SE090\SP\RHF\Aug-CC-pVDZ\C2H5Cl1F1N2O2(1-)\OHZDE\09-Apr-2025\
 0\\#t hf aug-cc-pvdz iop(5/13=1,5/36=2,99/5=2) pseudo=read geom=check
 guess=(read,tcheck) scf=(maxcycle=1)\\title\\-1,1\C,0,-0.273957,-0.099
 471,0.071178\C,0,-0.622424,-0.373196,-1.382975\Cl,0,1.260259,0.81665,0
 .212657\H,0,-1.465708,-1.06835,-1.357504\H,0,-1.119084,0.502368,0.4882
 45\H,0,0.210075,-0.860183,-1.89946\N,0,-0.082812,-1.35373,0.871325\O,0
 ,-0.155389,-1.25739,2.094759\O,0,0.128281,-2.407747,0.266125\N,0,-1.06
 1123,0.828603,-2.075197\H,0,-0.28912,1.487171,-2.080358\H,0,-1.779598,

 Normal termination of Gaussian 16 at Wed Apr  9 02:36:23 2025.
