 Gaussian 16, Revision C.01,

 ----------------------------------------------------------------------
 #t hf aug-cc-pvdz symm=none int=(grid=ultrafine) guess=(read,tcheck) s
 table=(opt,rrhf)
 ----------------------------------------------------------------------
 -----
 title
 -----
 Symbolic Z-matrix:
 Charge = -1 Multiplicity = 1

 SCF Done:  E(RHF) =  -876.218077273     A.U. after   15 cycles
 Normal termination of Gaussian 16 at Wed Apr  9 02:55:20 2025.
 Gaussian 16:  ES64L-G16RevC.01  3-Jul-2019

 ----------------------------------------------------------------------
 #t hf aug-cc-pvdz iop(5/13=1,5/36=2,99/5=2) pseudo=read geom=check gue
 ss=(read,tcheck) scf=(maxcycle=1)
 ----------------------------------------------------------------------
 -----
 title
 -----
 Structure from the checkpoint file:  "E2SN2_383_mol2.chk"
 Charge = -1 Multiplicity = 1

                         Standard orientation:
 ---------------------------------------------------------------------
 Center     Atomic      Atomic             Coordinates (Angstroms)
 Number     Number       Type             X           Y           Z
 ---------------------------------------------------------------------
      1          6           0       -0.494206   -0.599609   -0.449231
      2          6           0       -0.243567    0.897949   -0.297777
      3          9           0       -1.570879   -0.766279   -1.340271
      4          1           0        0.577286    1.062668    0.408546
      5          1           0        0.110946    1.254779   -1.268158
      6          7           0        0.656990   -1.218150   -0.970838
      7          1           0        0.688679   -2.205730   -0.758355
      8          1           0        1.518177   -0.758069   -0.641316
      9          6           0       -0.989821   -1.191401    0.824194
     10          7           0       -1.348596   -1.701416    1.819806
     11          6           0       -1.450118    1.621401    0.085508
     12          7           0       -2.414607    2.219891    0.383427
     13         17           0        3.061917    0.474738    0.277576
 ---------------------------------------------------------------------

 SCF Done:  E(RHF) =  -876.357141861     A.U. after    2 cycles

 The electronic state is 1-A.
 Alpha  occ. eigenvalues -- -103.39556 -26.02644 -15.56211 -15.54848 -15.51896
 Alpha  occ. eigenvalues --  -11.31927 -11.20457 -11.20121 -11.19034 -10.42667
 Alpha  occ. eigenvalues --   -8.08271  -8.08236  -8.08221  -1.56148  -1.12074
 Alpha  occ. eigenvalues --   -1.08796  -1.07937  -0.95772  -0.85384  -0.83456
 Alpha  occ. eigenvalues --   -0.71220  -0.66594  -0.65741  -0.60464  -0.54840
 Alpha  occ. eigenvalues --   -0.53861  -0.51080  -0.49042  -0.46029  -0.45030
 Alpha  occ. eigenvalues --   -0.38874  -0.37800  -0.35881  -0.35688  -0.32143
 Alpha  occ. eigenvalues --   -0.23150  -0.22817  -0.22657
 Alpha virt. eigenvalues --    0.13085   0.13849   0.15873   0.17288   0.17932
 Alpha virt. eigenvalues --    0.18799   0.19352   0.21472   0.21854   0.23563
 Alpha virt. eigenvalues --    0.23874   0.24192   0.25261   0.25536   0.25959

 Mulliken charges:
               1
     1  C    0.996005
     2  C    0.590588
     3  F   -0.442421
     4  H   -0.013650
     5  H    0.056333
     6  N   -0.454000
     7  H    0.016949
     8  H    0.120544
     9  C   -0.479451
    10  N   -0.176241
    11  C   -0.023021
    12  N   -0.282705
    13  Cl  -0.908929
 Sum of Mulliken charges =  -1.00000

 Dipole moment (field-independent basis, Debye):
    X=             -4.8467    Y=             -2.1513    Z=             -2.6081  Tot=              5.9094

 Test job not archived.
 1\1\GINC-SE112\SP\RHF\Aug-CC-pVDZ\C4H4Cl1F1N3(1-)\OHZDE\09-Apr-2025\0\
 \#t hf aug-cc-pvdz iop(5/13=1,5/36=2,99/5=2) pseudo=read geom=check gu
 ess=(read,tcheck) scf=(maxcycle=1)\\title\\-1,1\C,0,0.040347,-0.050035
 ,0.017223\C,0,-0.565389,0.194913,-1.361734\F,0,1.412149,0.256054,-0.05
 6433\H,0,-1.631581,-0.055539,-1.343536\H,0,-0.50654,1.271379,-1.541746
 \N,0,-0.585167,0.786161,0.960317\H,0,-0.49812,0.430456,1.902317\H,0,-1
 .577903,0.941256,0.731575\C,0,0.015799,-1.498073,0.363698\N,0,-0.01809
 8,-2.626727,0.687843\C,0,0.148492,-0.522675,-2.411257\N,0,0.718692,-1.

 Normal termination of Gaussian 16 at Wed Apr  9 02:55:25 2025.
