 Gaussian 16, Revision C.01,

 ----------------------------------------------------------------------
 #t hf aug-cc-pvdz symm=none int=(grid=ultrafine) guess=(read,tcheck) s
 table=(opt,rrhf)
 ----------------------------------------------------------------------
 -----
 title
 -----
 Symbolic Z-matrix:
 Charge = -1 Multiplicity = 1

 SCF Done:  E(RHF) =  -1332.02550180     A.U. after   17 cycles
 Normal termination of Gaussian 16 at Wed Apr  9 02:47:25 2025.
 Gaussian 16:  ES64L-G16RevC.01  3-Jul-2019

 ----------------------------------------------------------------------
 #t hf aug-cc-pvdz iop(5/13=1,5/36=2,99/5=2) pseudo=read geom=check gue
 ss=(read,tcheck) scf=(maxcycle=1)
 ----------------------------------------------------------------------
 -----
 title
 -----
 Structure from the checkpoint file:  "E2SN2_277_mol2.chk"
 Charge = -1 Multiplicity = 1

                         Standard orientation:
 ---------------------------------------------------------------------
 Center     Atomic      Atomic             Coordinates (Angstroms)
 Number     Number       Type             X           Y           Z
 ---------------------------------------------------------------------
      1          6           0        0.388410   -0.759625   -0.203743
      2          6           0       -0.148516    0.642201   -0.428068
      3         17           0        2.072384   -0.855801   -0.880137
      4          1           0       -1.171476    0.713763   -0.018366
      5          1           0       -0.188887    0.850463   -1.495411
      6          6           0        0.475318   -1.152124    1.204417
      7          7           0        0.531564   -1.582593    2.295882
      8          6           0       -0.499840   -1.748420   -0.951040
      9          1           0       -0.469306   -1.524732   -2.019081
     10          1           0       -1.528206   -1.625681   -0.598674
     11          1           0       -0.146741   -2.767348   -0.786012
     12          7           0        0.699638    1.703385    0.169235
     13          8           0        1.121765    1.529255    1.309997
     14          8           0        0.895864    2.709258   -0.511644
     15         17           0       -3.398682    0.132724   -0.087774
 ---------------------------------------------------------------------

 SCF Done:  E(RHF) =  -1332.17867088     A.U. after    2 cycles

 The electronic state is 1-A.
 Alpha  occ. eigenvalues -- -103.58072-103.38704 -20.52326 -20.52256 -15.81684
 Alpha  occ. eigenvalues --  -15.55302 -11.27878 -11.21279 -11.20425 -11.15540
 Alpha  occ. eigenvalues --  -10.61396 -10.41782  -8.27109  -8.26822  -8.26815
 Alpha  occ. eigenvalues --   -8.07382  -8.07353  -8.07340  -1.44645  -1.26434
 Alpha  occ. eigenvalues --   -1.12944  -1.07701  -1.00503  -0.93330  -0.84066
 Alpha  occ. eigenvalues --   -0.80919  -0.75762  -0.67708  -0.64528  -0.64439
 Alpha  occ. eigenvalues --   -0.58276  -0.54396  -0.51152  -0.48868  -0.47446
 Alpha  occ. eigenvalues --   -0.45674  -0.44026  -0.41869  -0.41204  -0.39091
 Alpha  occ. eigenvalues --   -0.38229  -0.37549  -0.35633  -0.35258  -0.22047
 Alpha  occ. eigenvalues --   -0.21856  -0.21758
 Alpha virt. eigenvalues --    0.11841   0.13441   0.15068   0.15984   0.17015
 Alpha virt. eigenvalues --    0.17524   0.18211   0.18898   0.20528   0.21648
 Alpha virt. eigenvalues --    0.22572   0.23061   0.23870   0.24573   0.25455

 Mulliken charges:
               1
     1  C   -0.679402
     2  C    1.482310
     3  Cl  -0.213214
     4  H   -0.114666
     5  H   -0.166834
     6  C   -0.317096
     7  N   -0.239801
     8  C    1.046529
     9  H   -0.055505
    10  H    0.042126
    11  H   -0.034750
    12  N    0.370580
    13  O   -0.615677
    14  O   -0.588916
    15  Cl  -0.915683
 Sum of Mulliken charges =  -1.00000

 Dipole moment (field-independent basis, Debye):
    X=              8.6416    Y=             -2.4049    Z=             -3.9907  Tot=              9.8176

 Test job not archived.
 1\1\GINC-SE102\SP\RHF\Aug-CC-pVDZ\C4H5Cl2N2O2(1-)\OHZDE\09-Apr-2025\0\
 \#t hf aug-cc-pvdz iop(5/13=1,5/36=2,99/5=2) pseudo=read geom=check gu
 ess=(read,tcheck) scf=(maxcycle=1)\\title\\-1,1\C,0,0.040331,0.021538,
 0.019768\C,0,-0.605111,-0.205778,-1.335024\Cl,0,1.832705,-0.234537,-0.
 136274\H,0,-1.695324,-0.050252,-1.25335\H,0,-0.425739,-1.229715,-1.656
 898\C,0,-0.148833,1.370548,0.557272\N,0,-0.290076,2.402768,1.099798\C,
 0,-0.519175,-0.999041,1.004922\H,0,-0.273193,-2.005248,0.660363\H,0,-1
 .607978,-0.895905,1.030124\H,0,-0.08635,-0.840867,1.993745\N,0,-0.0591

 Normal termination of Gaussian 16 at Wed Apr  9 02:47:34 2025.
