 Gaussian 16, Revision C.01,

 ----------------------------------------------------------------------
 #t hf aug-cc-pvdz symm=none int=(grid=ultrafine) guess=(read,tcheck) s
 table=(opt,rrhf)
 ----------------------------------------------------------------------
 -----
 title
 -----
 Symbolic Z-matrix:
 Charge = -1 Multiplicity = 1

 SCF Done:  E(RHF) =  -567.891691655     A.U. after   17 cycles
 Normal termination of Gaussian 16 at Wed Apr  9 02:55:51 2025.
 Gaussian 16:  ES64L-G16RevC.01  3-Jul-2019

 ----------------------------------------------------------------------
 #t hf aug-cc-pvdz iop(5/13=1,5/36=2,99/5=2) pseudo=read geom=check gue
 ss=(read,tcheck) scf=(maxcycle=1)
 ----------------------------------------------------------------------
 -----
 title
 -----
 Structure from the checkpoint file:  "E2SN2_390_mol1.chk"
 Charge = -1 Multiplicity = 1

                         Standard orientation:
 ---------------------------------------------------------------------
 Center     Atomic      Atomic             Coordinates (Angstroms)
 Number     Number       Type             X           Y           Z
 ---------------------------------------------------------------------
      1          6           0        0.737695   -0.430277   -0.013345
      2          1           0       -0.318439    0.462767   -1.664372
      3          9           0        0.815152    0.211859    1.491734
      4          1           0        0.923016   -1.165632   -1.679116
      5          6           0       -0.343422    0.520733   -0.582339
      6          7           0        0.349635   -1.740496    0.455245
      7          1           0        0.783182   -1.870458    1.360972
      8          1           0        0.652550   -2.425606   -0.217741
      9          6           0        2.074115   -0.130413   -0.469278
     10          7           0        3.185890    0.240915   -0.635254
     11          6           0       -0.251999    1.955286   -0.098091
     12          1           0       -0.444281    2.011687    0.967858
     13          1           0        0.755507    2.328775   -0.294666
     14          1           0       -0.969293    2.575472   -0.646348
     15          7           0       -1.678552   -0.054886   -0.222105
     16          8           0       -2.250239   -0.724166   -1.082017
     17          8           0       -2.126731    0.169860    0.899632
 ---------------------------------------------------------------------

 SCF Done:  E(RHF) =  -568.062298519     A.U. after    2 cycles

 The electronic state is 1-A.
 Alpha  occ. eigenvalues --  -25.89658 -20.48754 -20.48719 -15.77886 -15.48935
 Alpha  occ. eigenvalues --  -15.48257 -11.27377 -11.18700 -11.15791 -11.12024
 Alpha  occ. eigenvalues --   -1.41200  -1.40552  -1.22664  -1.06285  -1.01576
 Alpha  occ. eigenvalues --   -0.98109  -0.82624  -0.82299  -0.69640  -0.63140
 Alpha  occ. eigenvalues --   -0.61959  -0.60059  -0.58528  -0.55173  -0.54119
 Alpha  occ. eigenvalues --   -0.49701  -0.46306  -0.45429  -0.44939  -0.42768
 Alpha  occ. eigenvalues --   -0.40582  -0.40063  -0.37891  -0.36961  -0.34055
 Alpha  occ. eigenvalues --   -0.33029  -0.31073  -0.28517  -0.13501
 Alpha virt. eigenvalues --    0.12358   0.13596   0.14573   0.15415   0.16484
 Alpha virt. eigenvalues --    0.16859   0.18903   0.19902   0.21102   0.22576
 Alpha virt. eigenvalues --    0.22686   0.23946   0.24480   0.25236   0.25492

 Mulliken charges:
               1
     1  C    0.452260
     2  H   -0.281327
     3  F   -0.669229
     4  H   -0.233085
     5  C    0.741830
     6  N   -0.255988
     7  H   -0.001703
     8  H    0.033772
     9  C   -0.071602
    10  N   -0.424332
    11  C    0.532572
    12  H    0.116725
    13  H   -0.020949
    14  H   -0.034609
    15  N    0.411514
    16  O   -0.644607
    17  O   -0.651242
 Sum of Mulliken charges =  -1.00000

 Dipole moment (field-independent basis, Debye):
    X=             -2.9357    Y=              2.0763    Z=              1.0517  Tot=              3.7464

 Test job not archived.
 1\1\GINC-SE114\SP\RHF\Aug-CC-pVDZ\C4H7F1N3O2(1-)\OHZDE\09-Apr-2025\0\\
 #t hf aug-cc-pvdz iop(5/13=1,5/36=2,99/5=2) pseudo=read geom=check gue
 ss=(read,tcheck) scf=(maxcycle=1)\\title\\-1,1\C,0,0.53062612,-0.08492
 494,0.03529274\H,0,1.60530749,1.76869576,0.25434809\F,0,-1.06633857,-0
 .27147745,0.34914318\H,0,2.35099434,-0.09405038,-0.15460054\C,0,0.5742
 7443,1.46001826,0.12601868\N,0,0.4530366,-0.71404895,-1.26279213\H,0,-
 0.27699291,-1.41356339,-1.20865577\H,0,1.35165728,-1.11244222,-1.48144
 161\C,0,1.08009071,-0.75107424,1.19207565\N,0,1.29906096,-1.30561275,2

 Normal termination of Gaussian 16 at Wed Apr  9 02:56:00 2025.
