 Gaussian 16, Revision C.01,

 ----------------------------------------------------------------------
 #t hf aug-cc-pvdz symm=none int=(grid=ultrafine) guess=(read,tcheck) s
 table=(opt,rrhf)
 ----------------------------------------------------------------------
 -----
 title
 -----
 Symbolic Z-matrix:
 Charge = -1 Multiplicity = 1

 SCF Done:  E(RHF) =  -784.417843905     A.U. after   15 cycles
 Normal termination of Gaussian 16 at Wed Apr  9 02:35:31 2025.
 Gaussian 16:  ES64L-G16RevC.01  3-Jul-2019

 ----------------------------------------------------------------------
 #t hf aug-cc-pvdz iop(5/13=1,5/36=2,99/5=2) pseudo=read geom=check gue
 ss=(read,tcheck) scf=(maxcycle=1)
 ----------------------------------------------------------------------
 -----
 title
 -----
 Structure from the checkpoint file:  "E2SN2_167_mol2.chk"
 Charge = -1 Multiplicity = 1

                         Standard orientation:
 ---------------------------------------------------------------------
 Center     Atomic      Atomic             Coordinates (Angstroms)
 Number     Number       Type             X           Y           Z
 ---------------------------------------------------------------------
      1          6           0       -0.308516    0.541127   -0.774852
      2          6           0        0.054320   -0.826791   -0.197149
      3         17           0        0.347296    1.881242    0.234451
      4          1           0       -0.389530   -1.530108   -0.910414
      5          1           0        0.092048    0.685045   -1.780383
      6          1           0       -1.406975    0.543841   -0.734874
      7          7           0       -0.562190   -1.125802    1.084087
      8          1           0       -0.335801   -0.366905    1.719905
      9          1           0       -1.572974   -1.035023    0.817011
     10          6           0        1.511345   -1.043725   -0.173999
     11          7           0        2.673732   -1.212006   -0.176728
     12          9           0       -2.734943   -0.659664   -0.285825
 ---------------------------------------------------------------------

 SCF Done:  E(RHF) =  -784.532164310     A.U. after    2 cycles

 The electronic state is 1-A.
 Alpha  occ. eigenvalues -- -103.52608 -25.75831 -15.51703 -15.45676 -11.17781
 Alpha  occ. eigenvalues --  -11.16833 -11.16333 -10.55945  -8.21663  -8.21403
 Alpha  occ. eigenvalues --   -8.21385  -1.24772  -1.07340  -1.04202  -1.00493
 Alpha  occ. eigenvalues --   -0.85199  -0.73637  -0.58711  -0.51929  -0.48531
 Alpha  occ. eigenvalues --   -0.46187  -0.45744  -0.41731  -0.40210  -0.35355
 Alpha  occ. eigenvalues --   -0.34818  -0.34483  -0.33438  -0.32665  -0.31951
 Alpha  occ. eigenvalues --   -0.30860  -0.25556
 Alpha virt. eigenvalues --    0.13575   0.15295   0.15393   0.17647   0.18301
 Alpha virt. eigenvalues --    0.19390   0.19724   0.22555   0.23618   0.25033
 Alpha virt. eigenvalues --    0.25643   0.26600   0.27449   0.27900   0.28413

 Mulliken charges:
               1
     1  C    0.095002
     2  C    0.747379
     3  Cl  -0.201440
     4  H   -0.013195
     5  H   -0.039958
     6  H    0.192089
     7  N   -0.502499
     8  H    0.044040
     9  H    0.176635
    10  C   -0.272079
    11  N   -0.265546
    12  F   -0.960427
 Sum of Mulliken charges =  -1.00000

 Dipole moment (field-independent basis, Debye):
    X=              3.8764    Y=              2.8998    Z=             -0.8282  Tot=              4.9113

 Test job not archived.
 1\1\GINC-SE149\SP\RHF\Aug-CC-pVDZ\C3H5Cl1F1N2(1-)\OHZDE\09-Apr-2025\0\
 \#t hf aug-cc-pvdz iop(5/13=1,5/36=2,99/5=2) pseudo=read geom=check gu
 ess=(read,tcheck) scf=(maxcycle=1)\\title\\-1,1\C,0,-0.088991,0.174947
 ,-0.005237\C,0,-0.665196,0.151502,-1.420874\Cl,0,1.607526,-0.429481,0.
 029212\H,0,-1.676365,0.552751,-1.290718\H,0,-0.068485,1.181916,0.41648
 4\H,0,-0.74532,-0.517034,0.541218\N,0,-0.839564,-1.17747,-1.981664\H,0
 ,0.053514,-1.657285,-1.921404\H,0,-1.478989,-1.589601,-1.258795\C,0,0.
 076389,1.042611,-2.329991\N,0,0.664546,1.769403,-3.040846\F,0,-2.27828

 Normal termination of Gaussian 16 at Wed Apr  9 02:35:36 2025.
