 Gaussian 16, Revision C.01,

 ----------------------------------------------------------------------
 #t hf aug-cc-pvdz symm=none int=(grid=ultrafine) guess=(read,tcheck) s
 table=(opt,rrhf)
 ----------------------------------------------------------------------
 -----
 title
 -----
 Symbolic Z-matrix:
 Charge = -1 Multiplicity = 1

 SCF Done:  E(RHF) =  -839.415933353     A.U. after   16 cycles
 Normal termination of Gaussian 16 at Wed Apr  9 02:36:48 2025.
 Gaussian 16:  ES64L-G16RevC.01  3-Jul-2019

 ----------------------------------------------------------------------
 #t hf aug-cc-pvdz iop(5/13=1,5/36=2,99/5=2) pseudo=read geom=check gue
 ss=(read,tcheck) scf=(maxcycle=1)
 ----------------------------------------------------------------------
 -----
 title
 -----
 Structure from the checkpoint file:  "E2SN2_181_mol1.chk"
 Charge = -1 Multiplicity = 1

                         Standard orientation:
 ---------------------------------------------------------------------
 Center     Atomic      Atomic             Coordinates (Angstroms)
 Number     Number       Type             X           Y           Z
 ---------------------------------------------------------------------
      1          6           0       -0.063945    0.197010   -0.534725
      2          1           0        0.281588   -1.875920   -0.286146
      3          9           0        1.459087    1.436297   -0.833294
      4         17           0       -1.999223   -0.785237   -0.446354
      5          6           0        0.757761   -0.956452    0.067667
      6          1           0       -0.107272    0.292692   -1.603444
      7          6           0       -0.461219    1.320956    0.279467
      8          7           0       -0.873370    2.172409    0.978135
      9          7           0        0.680530   -0.850151    1.532172
     10          1           0        0.988339   -1.737413    1.918393
     11          1           0       -0.295197   -0.749923    1.798635
     12          7           0        2.122040   -0.958042   -0.425119
     13          1           0        2.696098   -1.451467    0.249590
     14          1           0        2.391472    0.025795   -0.460138
 ---------------------------------------------------------------------

 SCF Done:  E(RHF) =  -839.542485733     A.U. after    2 cycles

 The electronic state is 1-A.
 Alpha  occ. eigenvalues -- -103.46163 -25.81122 -15.49177 -15.49097 -15.46467
 Alpha  occ. eigenvalues --  -11.24132 -11.18594 -11.16093 -10.49442  -8.15093
 Alpha  occ. eigenvalues --   -8.14929  -8.14923  -1.31010  -1.08164  -1.03280
 Alpha  occ. eigenvalues --   -0.96791  -0.94886  -0.85864  -0.72037  -0.59321
 Alpha  occ. eigenvalues --   -0.57837  -0.52499  -0.49149  -0.46661  -0.43473
 Alpha  occ. eigenvalues --   -0.42106  -0.40413  -0.40119  -0.38941  -0.32149
 Alpha  occ. eigenvalues --   -0.30878  -0.29122  -0.28914  -0.27617  -0.26940
 Alpha  occ. eigenvalues --   -0.26156
 Alpha virt. eigenvalues --    0.11896   0.14045   0.14529   0.15556   0.17454
 Alpha virt. eigenvalues --    0.18748   0.20090   0.20593   0.23306   0.24147
 Alpha virt. eigenvalues --    0.24225   0.24564   0.25865   0.27024   0.27430

 Mulliken charges:
               1
     1  C    1.298151
     2  H   -0.125439
     3  F   -0.869138
     4  Cl  -0.563949
     5  C    1.087603
     6  H   -0.370213
     7  C   -0.414613
     8  N   -0.307432
     9  N   -0.450235
    10  H   -0.033035
    11  H    0.073630
    12  N   -0.439892
    13  H   -0.030298
    14  H    0.144859
 Sum of Mulliken charges =  -1.00000

 Dipole moment (field-independent basis, Debye):
    X=              0.8045    Y=             -5.4918    Z=              1.3989  Tot=              5.7239

 Test job not archived.
 1\1\GINC-SE362\SP\RHF\Aug-CC-pVDZ\C3H6Cl1F1N3(1-)\OHZDE\09-Apr-2025\0\
 \#t hf aug-cc-pvdz iop(5/13=1,5/36=2,99/5=2) pseudo=read geom=check gu
 ess=(read,tcheck) scf=(maxcycle=1)\\title\\-1,1\C,0,0.75151142,0.04566
 563,-0.01037551\H,0,1.68394225,1.89630996,-0.43922637\F,0,-1.11878819,
 -0.28981099,-0.58833487\Cl,0,2.82681888,-0.10478338,0.61282523\C,0,0.6
 9386601,1.5812106,-0.09599441\H,0,0.93093234,-0.51209402,-0.91032268\C
 ,0,0.22813305,-0.64713976,1.14291774\N,0,-0.09770306,-1.19017544,2.133
 83739\N,0,0.41103614,2.09903351,1.25081903\H,0,0.63285828,3.08996075,1

 Normal termination of Gaussian 16 at Wed Apr  9 02:36:53 2025.
