 Gaussian 16, Revision C.01,

 ----------------------------------------------------------------------
 #t hf aug-cc-pvdz symm=none int=(grid=ultrafine) guess=(read,tcheck) s
 table=(opt,rrhf)
 ----------------------------------------------------------------------
 -----
 title
 -----
 Symbolic Z-matrix:
 Charge = -1 Multiplicity = 1

 SCF Done:  E(RHF) =  -943.975805785     A.U. after   18 cycles
 Normal termination of Gaussian 16 at Wed Apr  9 02:33:41 2025.
 Gaussian 16:  ES64L-G16RevC.01  3-Jul-2019

 ----------------------------------------------------------------------
 #t hf aug-cc-pvdz iop(5/13=1,5/36=2,99/5=2) pseudo=read geom=check gue
 ss=(read,tcheck) scf=(maxcycle=1)
 ----------------------------------------------------------------------
 -----
 title
 -----
 Structure from the checkpoint file:  "E2SN2_130_mol1.chk"
 Charge = -1 Multiplicity = 1

                         Standard orientation:
 ---------------------------------------------------------------------
 Center     Atomic      Atomic             Coordinates (Angstroms)
 Number     Number       Type             X           Y           Z
 ---------------------------------------------------------------------
      1          6           0       -0.289297   -0.486525    0.204041
      2          6           0        1.100899    0.026027    0.508229
      3         17           0       -0.424368   -1.187339   -1.472855
      4          1           0        1.117615   -0.446883    2.889373
      5          1           0        1.041395    0.141199    1.749780
      6          7           0       -0.759495   -1.449440    1.141090
      7          1           0       -0.281711   -1.242441    2.033450
      8          1           0       -0.477977   -2.371624    0.839403
      9          7           0       -1.245599    0.722067    0.275137
     10          8           0       -1.597518    1.291585   -0.750835
     11          8           0       -1.533755    1.056302    1.419034
     12          7           0        2.134868   -0.976056    0.458112
     13          1           0        1.953801   -1.675651   -0.251014
     14          1           0        2.151367   -1.400982    1.390619
     15          6           0        1.454713    1.235379   -0.196466
     16          7           0        1.750520    2.238967   -0.739125
 ---------------------------------------------------------------------

 SCF Done:  E(RHF) =  -944.136509652     A.U. after    2 cycles

 The electronic state is 1-A.
 Alpha  occ. eigenvalues -- -103.55974 -20.50751 -20.50509 -15.79722 -15.51466
 Alpha  occ. eigenvalues --  -15.50945 -15.49972 -11.29934 -11.16854 -11.16286
 Alpha  occ. eigenvalues --  -10.59320  -8.25033  -8.24749  -8.24744  -1.43082
 Alpha  occ. eigenvalues --   -1.24991  -1.14029  -1.05864  -1.03061  -1.02043
 Alpha  occ. eigenvalues --   -0.91192  -0.81770  -0.70712  -0.64665  -0.62871
 Alpha  occ. eigenvalues --   -0.62106  -0.60610  -0.56050  -0.53387  -0.50489
 Alpha  occ. eigenvalues --   -0.47170  -0.42309  -0.41324  -0.41134  -0.39894
 Alpha  occ. eigenvalues --   -0.36720  -0.36346  -0.35937  -0.33233  -0.32141
 Alpha  occ. eigenvalues --   -0.30760  -0.29240  -0.13701
 Alpha virt. eigenvalues --    0.12096   0.14040   0.15598   0.17059   0.18046
 Alpha virt. eigenvalues --    0.18529   0.19121   0.19532   0.20512   0.21765
 Alpha virt. eigenvalues --    0.22352   0.24070   0.24628   0.25383   0.25954

 Mulliken charges:
               1
     1  C    0.921927
     2  C    0.867858
     3  Cl  -0.168705
     4  H   -0.420620
     5  H    0.144285
     6  N   -0.374324
     7  H    0.116932
     8  H    0.039113
     9  N    0.234548
    10  O   -0.607589
    11  O   -0.540148
    12  N   -0.308058
    13  H    0.004746
    14  H    0.083403
    15  C   -0.730115
    16  N   -0.263253
 Sum of Mulliken charges =  -1.00000

 Dipole moment (field-independent basis, Debye):
    X=             -2.3977    Y=             -5.2511    Z=             -4.6748  Tot=              7.4281

 Test job not archived.
 1\1\GINC-SE092\SP\RHF\Aug-CC-pVDZ\C3H6Cl1N4O2(1-)\OHZDE\09-Apr-2025\0\
 \#t hf aug-cc-pvdz iop(5/13=1,5/36=2,99/5=2) pseudo=read geom=check gu
 ess=(read,tcheck) scf=(maxcycle=1)\\title\\-1,1\C,0,-0.14967298,-0.081
 0091,-0.30653298\C,0,-0.14777954,0.06661835,1.19881981\Cl,0,1.51608767
 ,-0.3834296,-0.98117789\H,0,-2.34371927,-0.87473839,1.62947736\H,0,-1.
 36391555,-0.06388892,1.4482925\N,0,-1.02565316,-1.09905467,-0.77833116
 \H,0,-1.78051638,-1.17923088,-0.07748373\H,0,-0.52827022,-1.97793822,-
 0.80773747\N,0,-0.64752258,1.25576731,-0.89427253\O,0,0.15388904,2.081

 Normal termination of Gaussian 16 at Wed Apr  9 02:33:50 2025.
