 Gaussian 16, Revision C.01,

 ----------------------------------------------------------------------
 #t hf aug-cc-pvdz symm=none int=(grid=ultrafine) guess=(read,tcheck) s
 table=(opt,rrhf)
 ----------------------------------------------------------------------
 -----
 title
 -----
 Symbolic Z-matrix:
 Charge = -1 Multiplicity = 1

 SCF Done:  E(RHF) =  -823.468229586     A.U. after   15 cycles
 Normal termination of Gaussian 16 at Wed Apr  9 02:55:38 2025.
 Gaussian 16:  ES64L-G16RevC.01  3-Jul-2019

 ----------------------------------------------------------------------
 #t hf aug-cc-pvdz iop(5/13=1,5/36=2,99/5=2) pseudo=read geom=check gue
 ss=(read,tcheck) scf=(maxcycle=1)
 ----------------------------------------------------------------------
 -----
 title
 -----
 Structure from the checkpoint file:  "E2SN2_398_mol1.chk"
 Charge = -1 Multiplicity = 1

                         Standard orientation:
 ---------------------------------------------------------------------
 Center     Atomic      Atomic             Coordinates (Angstroms)
 Number     Number       Type             X           Y           Z
 ---------------------------------------------------------------------
      1          6           0        0.211613   -0.579962    0.194893
      2          1           0       -0.091191    0.465653   -1.618462
      3          9           0        2.461531   -1.309154   -0.187944
      4         17           0       -2.586729    0.226859   -0.151956
      5          6           0        0.677793    0.379286   -0.851158
      6          1           0        1.607320   -0.148408   -1.162654
      7          7           0        0.203731   -0.241269    1.443452
      8          1           0        0.405155    0.709153    1.717059
      9          1           0       -0.207314   -0.854606    2.126565
     10          6           0       -0.174764   -1.949376   -0.224298
     11          1           0       -0.746518   -2.454893    0.554137
     12          1           0       -0.792181   -1.893055   -1.117466
     13          1           0        0.789839   -2.424727   -0.416133
     14          6           0        1.009017    1.686531   -0.312330
     15          7           0        1.298203    2.713811    0.177842
 ---------------------------------------------------------------------

 SCF Done:  E(RHF) =  -823.591611365     A.U. after    2 cycles

 The electronic state is 1-A.
 Alpha  occ. eigenvalues -- -103.38713 -25.77870 -15.58410 -15.53820 -11.27240
 Alpha  occ. eigenvalues --  -11.19259 -11.16645 -11.12836 -10.41812  -8.07409
 Alpha  occ. eigenvalues --   -8.07380  -8.07377  -1.27054  -1.16408  -1.07838
 Alpha  occ. eigenvalues --   -0.95846  -0.88837  -0.84065  -0.73181  -0.65587
 Alpha  occ. eigenvalues --   -0.62699  -0.54922  -0.51069  -0.48558  -0.45774
 Alpha  occ. eigenvalues --   -0.45206  -0.43668  -0.40254  -0.37460  -0.36223
 Alpha  occ. eigenvalues --   -0.35852  -0.35290  -0.32892  -0.22211  -0.21978
 Alpha  occ. eigenvalues --   -0.21894
 Alpha virt. eigenvalues --    0.11996   0.13394   0.14709   0.15795   0.16419
 Alpha virt. eigenvalues --    0.16862   0.17848   0.19247   0.21931   0.22335
 Alpha virt. eigenvalues --    0.22857   0.23568   0.23959   0.24781   0.25824

 Mulliken charges:
               1
     1  C   -0.514095
     2  H    0.144451
     3  F   -0.951338
     4  Cl  -0.919881
     5  C    0.500272
     6  H    0.387638
     7  N   -0.074842
     8  H   -0.013542
     9  H   -0.013314
    10  C    0.614290
    11  H   -0.095448
    12  H    0.054728
    13  H    0.222672
    14  C   -0.010248
    15  N   -0.331341
 Sum of Mulliken charges =  -1.00000

 Dipole moment (field-independent basis, Debye):
    X=              1.0008    Y=             -1.7857    Z=              1.9129  Tot=              2.8017

 Test job not archived.
 1\1\GINC-SE040\SP\RHF\Aug-CC-pVDZ\C4H7Cl1F1N2(1-)\OHZDE\09-Apr-2025\0\
 \#t hf aug-cc-pvdz iop(5/13=1,5/36=2,99/5=2) pseudo=read geom=check gu
 ess=(read,tcheck) scf=(maxcycle=1)\\title\\-1,1\C,0,0.57323344,-0.1303
 4652,0.01170787\H,0,1.14399593,1.83842102,0.53270962\F,0,-1.73368748,-
 0.01049416,0.64744858\Cl,0,3.47808246,0.24558458,-0.13832072\C,0,0.324
 86555,1.34275128,0.01223993\H,0,-0.65335485,1.34936051,0.54379653\N,0,
 0.55555592,-0.80147843,-1.09416111\H,0,0.48531595,-0.32465305,-1.98097
 456\H,0,0.82490121,-1.77061698,-1.09665244\C,0,0.77081958,-0.81384054,

 Normal termination of Gaussian 16 at Wed Apr  9 02:55:44 2025.
