 Gaussian 16, Revision C.01,

 ----------------------------------------------------------------------
 #t hf aug-cc-pvdz symm=none int=(grid=ultrafine) guess=(read,tcheck) s
 table=(opt,rrhf)
 ----------------------------------------------------------------------
 -----
 title
 -----
 Symbolic Z-matrix:
 Charge = -1 Multiplicity = 1

 SCF Done:  E(RHF) =  -1006.22657096     A.U. after   17 cycles
 Normal termination of Gaussian 16 at Wed Apr  9 02:47:55 2025.
 Gaussian 16:  ES64L-G16RevC.01  3-Jul-2019

 ----------------------------------------------------------------------
 #t hf aug-cc-pvdz iop(5/13=1,5/36=2,99/5=2) pseudo=read geom=check gue
 ss=(read,tcheck) scf=(maxcycle=1)
 ----------------------------------------------------------------------
 -----
 title
 -----
 Structure from the checkpoint file:  "E2SN2_28_mol1.chk"
 Charge = -1 Multiplicity = 1

                         Standard orientation:
 ---------------------------------------------------------------------
 Center     Atomic      Atomic             Coordinates (Angstroms)
 Number     Number       Type             X           Y           Z
 ---------------------------------------------------------------------
      1          6           0        0.275865   -0.031273    0.449815
      2          6           0       -1.036525   -0.362951   -0.075917
      3         17           0        1.745021   -1.365667   -0.459288
      4          9           0       -3.061449    1.043028    0.134751
      5          1           0       -1.836201    0.561126    0.137971
      6          7           0        0.938184    1.222432   -0.071144
      7          8           0        1.804996    1.721568    0.642575
      8          8           0        0.576444    1.668458   -1.153418
      9          7           0       -1.614864   -1.426679    0.749445
     10          1           0       -1.583755   -2.272058    0.187522
     11          1           0       -2.589328   -1.156595    0.848986
     12          7           0       -1.147873   -0.624954   -1.494982
     13          1           0       -0.252830   -0.533744   -1.955031
     14          1           0       -1.788434    0.062680   -1.872650
     15          7           0        0.424119   -0.122882    1.792979
     16          1           0        1.365761   -0.005823    2.129643
     17          1           0       -0.112033   -0.916794    2.127970
 ---------------------------------------------------------------------

 SCF Done:  E(RHF) =  -1006.40564538     A.U. after    2 cycles

 The electronic state is 1-A.
 Alpha  occ. eigenvalues -- -103.48188 -25.79613 -20.51554 -20.51269 -15.81229
 Alpha  occ. eigenvalues --  -15.53799 -15.47718 -15.46835 -11.30028 -11.13857
 Alpha  occ. eigenvalues --  -10.51417  -8.17071  -8.16901  -8.16897  -1.44027
 Alpha  occ. eigenvalues --   -1.29316  -1.25757  -1.14038  -1.05034  -0.96879
 Alpha  occ. eigenvalues --   -0.94666  -0.90601  -0.78012  -0.70276  -0.64235
 Alpha  occ. eigenvalues --   -0.62456  -0.61640  -0.58277  -0.57331  -0.51723
 Alpha  occ. eigenvalues --   -0.47456  -0.46112  -0.45565  -0.43291  -0.41376
 Alpha  occ. eigenvalues --   -0.40408  -0.38743  -0.38708  -0.36754  -0.31703
 Alpha  occ. eigenvalues --   -0.30896  -0.29924  -0.28690  -0.27898  -0.22040
 Alpha virt. eigenvalues --    0.12218   0.13497   0.14691   0.15178   0.15928
 Alpha virt. eigenvalues --    0.16739   0.18334   0.19396   0.20544   0.22864
 Alpha virt. eigenvalues --    0.23973   0.25396   0.25788   0.26320   0.26440

 Mulliken charges:
               1
     1  C    1.070525
     2  C    0.593415
     3  Cl  -0.457359
     4  F   -0.749747
     5  H    0.277776
     6  N    0.325614
     7  O   -0.612076
     8  O   -0.576535
     9  N   -0.633673
    10  H    0.082889
    11  H    0.105775
    12  N   -0.381495
    13  H    0.077739
    14  H    0.063617
    15  N   -0.328754
    16  H    0.039000
    17  H    0.103287
 Sum of Mulliken charges =  -1.00000

 Dipole moment (field-independent basis, Debye):
    X=              4.2224    Y=             -2.5618    Z=              1.9344  Tot=              5.3041

 Test job not archived.
 1\1\GINC-SE042\SP\RHF\Aug-CC-pVDZ\C2H7Cl1F1N4O2(1-)\OHZDE\09-Apr-2025\
 0\\#t hf aug-cc-pvdz iop(5/13=1,5/36=2,99/5=2) pseudo=read geom=check
 guess=(read,tcheck) scf=(maxcycle=1)\\title\\-1,1\C,0,-0.38708653,0.10
 119001,-0.25821095\C,0,-0.35048255,0.15063755,1.19264669\Cl,0,1.591650
 63,-0.46846477,-0.98318439\F,0,-2.33054254,0.24017329,2.67346418\H,0,-
 1.50082567,0.13235386,1.65689284\N,0,-1.07609966,-1.08137361,-0.897464
 17\O,0,-1.47457475,-0.92667604,-2.04949781\O,0,-1.20370547,-2.10848356
 ,-0.24181669\N,0,0.09298616,1.48555085,1.60320526\H,0,1.04059374,1.376

 Normal termination of Gaussian 16 at Wed Apr  9 02:48:05 2025.
