 Gaussian 16, Revision C.01,

 ----------------------------------------------------------------------
 #t hf aug-cc-pvdz symm=none int=(grid=ultrafine) guess=(read,tcheck) s
 table=(opt,rrhf)
 ----------------------------------------------------------------------
 -----
 title
 -----
 Symbolic Z-matrix:
 Charge = -1 Multiplicity = 1

 SCF Done:  E(RHF) =  -1000.68383677     A.U. after   17 cycles
 Normal termination of Gaussian 16 at Wed Apr  9 02:43:31 2025.
 Gaussian 16:  ES64L-G16RevC.01  3-Jul-2019

 ----------------------------------------------------------------------
 #t hf aug-cc-pvdz iop(5/13=1,5/36=2,99/5=2) pseudo=read geom=check gue
 ss=(read,tcheck) scf=(maxcycle=1)
 ----------------------------------------------------------------------
 -----
 title
 -----
 Structure from the checkpoint file:  "E2SN2_24_mol2.chk"
 Charge = -1 Multiplicity = 1

                         Standard orientation:
 ---------------------------------------------------------------------
 Center     Atomic      Atomic             Coordinates (Angstroms)
 Number     Number       Type             X           Y           Z
 ---------------------------------------------------------------------
      1          6           0       -0.040542   -0.193691    0.012135
      2          6           0       -1.033616   -0.746436   -0.991972
      3         17           0       -0.324123   -0.763192    1.631062
      4          1           0       -1.084996   -1.833307   -0.877313
      5          1           0       -0.636173   -0.512987   -1.984722
      6          7           0        1.413051   -0.518442   -0.327229
      7          8           0        2.273181    0.210728    0.156162
      8          8           0        1.608817   -1.503443   -1.028410
      9          7           0       -0.083255    1.332495   -0.052022
     10          8           0        0.202904    1.773916   -1.161533
     11          8           0       -0.384877    1.981358    0.933391
     12          7           0       -2.324011   -0.173536   -0.691900
     13          1           0       -2.945995   -1.037279   -0.576026
     14          1           0       -2.659957    0.326081   -1.506986
     15          1           0       -3.358537   -2.511561   -0.602814
 ---------------------------------------------------------------------

 SCF Done:  E(RHF) =  -1000.86689260     A.U. after    2 cycles

 The electronic state is 1-A.
 Alpha  occ. eigenvalues -- -103.59434 -20.55255 -20.54784 -20.54610 -20.53565
 Alpha  occ. eigenvalues --  -15.84613 -15.83797 -15.46642 -11.33859 -11.16907
 Alpha  occ. eigenvalues --  -10.62771  -8.28516  -8.28165  -8.28152  -1.48141
 Alpha  occ. eigenvalues --   -1.46164  -1.29424  -1.28723  -1.14919  -1.03323
 Alpha  occ. eigenvalues --   -0.98375  -0.86762  -0.81249  -0.73349  -0.71647
 Alpha  occ. eigenvalues --   -0.66953  -0.66381  -0.65364  -0.62598  -0.60357
 Alpha  occ. eigenvalues --   -0.54425  -0.50683  -0.48379  -0.46212  -0.44302
 Alpha  occ. eigenvalues --   -0.43652  -0.42491  -0.40783  -0.39543  -0.38806
 Alpha  occ. eigenvalues --   -0.38186  -0.37961  -0.27653  -0.09792
 Alpha virt. eigenvalues --    0.13448   0.14070   0.15029   0.16186   0.16284
 Alpha virt. eigenvalues --    0.18263   0.19328   0.20343   0.21326   0.22022
 Alpha virt. eigenvalues --    0.23076   0.24144   0.25228   0.25426   0.26493

 Mulliken charges:
               1
     1  C    0.930657
     2  C    0.638658
     3  Cl  -0.028575
     4  H   -0.029999
     5  H    0.014339
     6  N    0.318358
     7  O   -0.607664
     8  O   -0.557275
     9  N    0.405660
    10  O   -0.622098
    11  O   -0.598118
    12  N   -0.230768
    13  H    0.106674
    14  H    0.022868
    15  H   -0.762716
 Sum of Mulliken charges =  -1.00000

 Dipole moment (field-independent basis, Debye):
    X=              9.2327    Y=              6.3601    Z=              1.3528  Tot=             11.2926

 Test job not archived.
 1\1\GINC-SE115\SP\RHF\Aug-CC-pVDZ\C2H5Cl1N3O4(1-)\OHZDE\09-Apr-2025\0\
 \#t hf aug-cc-pvdz iop(5/13=1,5/36=2,99/5=2) pseudo=read geom=check gu
 ess=(read,tcheck) scf=(maxcycle=1)\\title\\-1,1\C,0,-0.52794,-0.061179
 ,-1.496999\C,0,0.060122,-0.156385,-0.102341\Cl,0,0.320806,1.06443,-2.5
 15974\H,0,1.139473,-0.316015,-0.183555\H,0,-0.393735,-1.034162,0.36833
 1\N,0,-0.559444,-1.39725,-2.236921\O,0,-1.368395,-1.506742,-3.152776\O
 ,0,0.250168,-2.24434,-1.880307\N,0,-2.005863,0.30828,-1.376876\O,0,-2.
 655682,-0.515503,-0.739011\O,0,-2.426507,1.33375,-1.881362\N,0,-0.1875

 Normal termination of Gaussian 16 at Wed Apr  9 02:43:39 2025.
