 Gaussian 16, Revision C.01,

 ----------------------------------------------------------------------
 #t hf aug-cc-pvdz symm=none int=(grid=ultrafine) guess=(read,tcheck) s
 table=(opt,rrhf)
 ----------------------------------------------------------------------
 -----
 title
 -----
 Symbolic Z-matrix:
 Charge = -1 Multiplicity = 1

 SCF Done:  E(RHF) =  -1386.98972482     A.U. after   17 cycles
 Normal termination of Gaussian 16 at Wed Apr  9 02:43:01 2025.
 Gaussian 16:  ES64L-G16RevC.01  3-Jul-2019

 ----------------------------------------------------------------------
 #t hf aug-cc-pvdz iop(5/13=1,5/36=2,99/5=2) pseudo=read geom=check gue
 ss=(read,tcheck) scf=(maxcycle=1)
 ----------------------------------------------------------------------
 -----
 title
 -----
 Structure from the checkpoint file:  "E2SN2_233_mol1.chk"
 Charge = -1 Multiplicity = 1

                         Standard orientation:
 ---------------------------------------------------------------------
 Center     Atomic      Atomic             Coordinates (Angstroms)
 Number     Number       Type             X           Y           Z
 ---------------------------------------------------------------------
      1          6           0        0.324866   -0.069159    0.327267
      2          1           0        0.116791    1.399578   -1.172939
      3         17           0       -1.693910   -1.419654    0.678258
      4         17           0        2.360492    0.824518   -0.177417
      5          6           0       -0.375119    1.182368   -0.220417
      6          7           0        0.604975   -1.138344   -0.679460
      7          8           0        0.206486   -0.925724   -1.819842
      8          8           0        1.241279   -2.114513   -0.312054
      9          6           0        0.605783   -0.288091    1.789703
     10          1           0        1.449323    0.308640    2.128616
     11          1           0       -0.277936   -0.024298    2.362226
     12          1           0        0.825110   -1.342625    1.939756
     13          7           0       -0.220419    2.257132    0.766686
     14          1           0       -0.767855    3.052006    0.457679
     15          1           0        0.758591    2.522777    0.757396
     16          6           0       -1.802970    1.090228   -0.553115
     17          7           0       -2.889328    1.314219   -0.943297
 ---------------------------------------------------------------------

 SCF Done:  E(RHF) =  -1387.15500812     A.U. after    2 cycles

 The electronic state is 1-A.
 Alpha  occ. eigenvalues -- -103.47974-103.42953 -20.50018 -20.49955 -15.81128
 Alpha  occ. eigenvalues --  -15.52987 -15.52306 -11.31722 -11.23115 -11.18258
 Alpha  occ. eigenvalues --  -11.13392 -10.51282 -10.46270  -8.16925  -8.16778
 Alpha  occ. eigenvalues --   -8.16769  -8.11898  -8.11781  -8.11776  -1.43169
 Alpha  occ. eigenvalues --   -1.24909  -1.11197  -1.05262  -1.01197  -0.93615
 Alpha  occ. eigenvalues --   -0.88610  -0.86817  -0.84829  -0.70276  -0.66721
 Alpha  occ. eigenvalues --   -0.62253  -0.61163  -0.59336  -0.53111  -0.52893
 Alpha  occ. eigenvalues --   -0.50413  -0.48473  -0.44744  -0.42974  -0.40039
 Alpha  occ. eigenvalues --   -0.39619  -0.36127  -0.35119  -0.34495  -0.33030
 Alpha  occ. eigenvalues --   -0.31293  -0.30623  -0.30145  -0.26051  -0.25272
 Alpha  occ. eigenvalues --   -0.25175
 Alpha virt. eigenvalues --    0.11703   0.12992   0.13777   0.14650   0.15102
 Alpha virt. eigenvalues --    0.16404   0.16732   0.19033   0.20095   0.21777
 Alpha virt. eigenvalues --    0.21950   0.23270   0.23822   0.24644   0.24785

 Mulliken charges:
               1
     1  C   -0.568372
     2  H    0.189760
     3  Cl  -0.650634
     4  Cl  -0.528240
     5  C    1.102209
     6  N    0.683693
     7  O   -0.670886
     8  O   -0.676966
     9  C    0.956723
    10  H   -0.059910
    11  H    0.118425
    12  H    0.014703
    13  N   -0.331772
    14  H   -0.021118
    15  H    0.102314
    16  C   -0.354120
    17  N   -0.305807
 Sum of Mulliken charges =  -1.00000

 Dipole moment (field-independent basis, Debye):
    X=              3.0763    Y=              4.4846    Z=              2.0466  Tot=              5.8106

 Test job not archived.
 1\1\GINC-SE112\SP\RHF\Aug-CC-pVDZ\C4H6Cl2N3O2(1-)\OHZDE\09-Apr-2025\0\
 \#t hf aug-cc-pvdz iop(5/13=1,5/36=2,99/5=2) pseudo=read geom=check gu
 ess=(read,tcheck) scf=(maxcycle=1)\\title\\-1,1\C,0,0.62544507,-0.0793
 2762,0.04294019\H,0,1.53686864,1.65444667,-0.74092037\Cl,0,-1.69173076
 ,-0.40175265,-0.69815863\Cl,0,2.86462708,-0.11411016,0.46954227\C,0,0.
 66546896,1.44720699,-0.11309259\N,0,0.90542866,-0.85777662,-1.20234846
 \O,0,1.08943099,-0.2005908,-2.22152575\O,0,0.9751007,-2.07412172,-1.11
 055692\C,0,0.21099552,-0.77157301,1.3136064\H,0,0.99725503,-0.73466354

 Normal termination of Gaussian 16 at Wed Apr  9 02:43:12 2025.
