 Gaussian 16, Revision C.01,

 ----------------------------------------------------------------------
 #t hf aug-cc-pvdz symm=none int=(grid=ultrafine) guess=(read,tcheck) s
 table=(opt,rrhf)
 ----------------------------------------------------------------------
 -----
 title
 -----
 Symbolic Z-matrix:
 Charge = -1 Multiplicity = 1

 SCF Done:  E(RHF) =  -971.873284407     A.U. after   18 cycles
 Normal termination of Gaussian 16 at Wed Apr  9 02:41:33 2025.
 Gaussian 16:  ES64L-G16RevC.01  3-Jul-2019

 ----------------------------------------------------------------------
 #t hf aug-cc-pvdz iop(5/13=1,5/36=2,99/5=2) pseudo=read geom=check gue
 ss=(read,tcheck) scf=(maxcycle=1)
 ----------------------------------------------------------------------
 -----
 title
 -----
 Structure from the checkpoint file:  "E2SN2_229_mol1.chk"
 Charge = -1 Multiplicity = 1

                         Standard orientation:
 ---------------------------------------------------------------------
 Center     Atomic      Atomic             Coordinates (Angstroms)
 Number     Number       Type             X           Y           Z
 ---------------------------------------------------------------------
      1          6           0        0.074294   -0.093560   -0.050311
      2          1           0        0.613267   -1.177644   -1.756197
      3         17           0       -0.042530    2.039209    0.014296
      4          9           0        0.038566   -2.034592    0.115937
      5          6           0        0.926414   -0.247107   -1.291636
      6          1           0        0.717939    0.578719   -1.971252
      7          7           0       -1.399317   -0.294024   -0.196821
      8          8           0       -1.820318   -0.378887   -1.343737
      9          8           0       -2.072143   -0.321469    0.822099
     10          6           0        0.597620   -0.239710    1.285467
     11          7           0        1.094316   -0.260718    2.351338
     12          6           0        2.402891   -0.303089   -0.931877
     13          1           0        2.721380    0.605775   -0.416484
     14          1           0        2.584671   -1.160651   -0.283197
     15          1           0        3.006046   -0.414595   -1.837710
 ---------------------------------------------------------------------

 SCF Done:  E(RHF) =  -972.042093679     A.U. after    2 cycles

 The electronic state is 1-A.
 Alpha  occ. eigenvalues -- -103.48978 -25.82843 -20.49377 -20.49341 -15.80260
 Alpha  occ. eigenvalues --  -15.51613 -11.31557 -11.18250 -11.13562 -11.12004
 Alpha  occ. eigenvalues --  -10.52232  -8.17897  -8.17696  -8.17693  -1.42586
 Alpha  occ. eigenvalues --   -1.32708  -1.24224  -1.06782  -1.01655  -0.93373
 Alpha  occ. eigenvalues --   -0.90175  -0.77418  -0.74972  -0.66865  -0.61531
 Alpha  occ. eigenvalues --   -0.60523  -0.53688  -0.52975  -0.45892  -0.45280
 Alpha  occ. eigenvalues --   -0.43268  -0.43049  -0.41897  -0.40609  -0.39637
 Alpha  occ. eigenvalues --   -0.38249  -0.37718  -0.34829  -0.33796  -0.33162
 Alpha  occ. eigenvalues --   -0.31183  -0.30477  -0.29218
 Alpha virt. eigenvalues --    0.11865   0.14245   0.14960   0.16047   0.16687
 Alpha virt. eigenvalues --    0.17358   0.19346   0.20280   0.22011   0.23061
 Alpha virt. eigenvalues --    0.24211   0.24640   0.24739   0.25132   0.25738

 Mulliken charges:
               1
     1  C    0.912737
     2  H    0.087822
     3  Cl  -0.444681
     4  F   -0.770925
     5  C    0.367268
     6  H   -0.054409
     7  N    0.465391
     8  O   -0.640161
     9  O   -0.655687
    10  C   -0.307137
    11  N   -0.282376
    12  C    0.418132
    13  H   -0.008880
    14  H    0.027161
    15  H   -0.114255
 Sum of Mulliken charges =  -1.00000

 Dipole moment (field-independent basis, Debye):
    X=              2.5722    Y=              2.1264    Z=             -3.7455  Tot=              5.0166

 Test job not archived.
 1\1\GINC-SE334\SP\RHF\Aug-CC-pVDZ\C4H5Cl1F1N2O2(1-)\OHZDE\09-Apr-2025\
 0\\#t hf aug-cc-pvdz iop(5/13=1,5/36=2,99/5=2) pseudo=read geom=check
 guess=(read,tcheck) scf=(maxcycle=1)\\title\\-1,1\C,0,0.41289767,-0.03
 170723,-0.02456777\H,0,1.47650084,1.71967043,-0.44552301\Cl,0,-1.66919
 852,-0.28464876,-0.43374092\F,0,2.32031562,-0.06625733,0.3717688\C,0,0
 .48333071,1.47919625,-0.0773373\H,0,-0.25841349,1.84586706,-0.78634913
 \N,0,0.86889345,-0.78546925,-1.23166822\O,0,1.08378575,-0.11706312,-2.
 23511952\O,0,0.95756869,-2.00026057,-1.1418689\C,0,0.39806304,-0.77531

 Normal termination of Gaussian 16 at Wed Apr  9 02:41:41 2025.
