 Gaussian 16, Revision C.01,

 ----------------------------------------------------------------------
 #t hf aug-cc-pvdz symm=none int=(grid=ultrafine) guess=(read,tcheck) s
 table=(opt,rrhf)
 ----------------------------------------------------------------------
 -----
 title
 -----
 Symbolic Z-matrix:
 Charge = -1 Multiplicity = 1

 SCF Done:  E(RHF) =  -516.112892186     A.U. after   15 cycles
 Normal termination of Gaussian 16 at Wed Apr  9 02:59:57 2025.
 Gaussian 16:  ES64L-G16RevC.01  3-Jul-2019

 ----------------------------------------------------------------------
 #t hf aug-cc-pvdz iop(5/13=1,5/36=2,99/5=2) pseudo=read geom=check gue
 ss=(read,tcheck) scf=(maxcycle=1)
 ----------------------------------------------------------------------
 -----
 title
 -----
 Structure from the checkpoint file:  "E2SN2_84_mol2.chk"
 Charge = -1 Multiplicity = 1

                         Standard orientation:
 ---------------------------------------------------------------------
 Center     Atomic      Atomic             Coordinates (Angstroms)
 Number     Number       Type             X           Y           Z
 ---------------------------------------------------------------------
      1          6           0        0.075301   -0.574565    0.094181
      2          6           0        0.173002    0.785673   -0.598476
      3          9           0       -0.030875   -0.304595    1.494785
      4          1           0        1.184470    1.127512   -0.356948
      5          1           0        0.138052    0.630314   -1.679541
      6          6           0       -1.198090   -1.279444   -0.213880
      7          7           0       -2.192086   -1.846199   -0.479117
      8          7           0        1.182818   -1.339318   -0.257548
      9          1           0        1.239019   -2.174180    0.311363
     10          1           0        2.043726   -0.694776   -0.200547
     11          6           0       -0.876197    1.708355   -0.192400
     12          7           0       -1.714891    2.472859    0.109563
     13          9           0        2.855291    0.555664   -0.186025
 ---------------------------------------------------------------------

 SCF Done:  E(RHF) =  -516.269332018     A.U. after    2 cycles

 The electronic state is 1-A.
 Alpha  occ. eigenvalues --  -25.99281 -25.78388 -15.54401 -15.52638 -15.48037
 Alpha  occ. eigenvalues --  -11.28933 -11.18952 -11.18127 -11.15566  -1.52322
 Alpha  occ. eigenvalues --   -1.27805  -1.09645  -1.06792  -1.05633  -0.92611
 Alpha  occ. eigenvalues --   -0.80810  -0.67427  -0.63887  -0.61834  -0.57791
 Alpha  occ. eigenvalues --   -0.52380  -0.51058  -0.49493  -0.46456  -0.44112
 Alpha  occ. eigenvalues --   -0.43100  -0.37771  -0.37687  -0.36721  -0.36402
 Alpha  occ. eigenvalues --   -0.35048  -0.33673  -0.32104  -0.29256
 Alpha virt. eigenvalues --    0.13423   0.14022   0.16652   0.17285   0.18890
 Alpha virt. eigenvalues --    0.19157   0.20346   0.22040   0.22856   0.24034
 Alpha virt. eigenvalues --    0.24572   0.25798   0.25909   0.26610   0.27418

 Mulliken charges:
               1
     1  C    0.804647
     2  C    0.691281
     3  F   -0.473555
     4  H    0.011979
     5  H    0.035062
     6  C   -0.439928
     7  N   -0.200614
     8  N   -0.396570
     9  H   -0.018104
    10  H    0.226165
    11  C   -0.050479
    12  N   -0.295171
    13  F   -0.894713
 Sum of Mulliken charges =  -1.00000

 Dipole moment (field-independent basis, Debye):
    X=             -2.5889    Y=             -2.5957    Z=             -0.6640  Tot=              3.7257

 Test job not archived.
 1\1\GINC-SE105\SP\RHF\Aug-CC-pVDZ\C4H4F2N3(1-)\OHZDE\09-Apr-2025\0\\#t
  hf aug-cc-pvdz iop(5/13=1,5/36=2,99/5=2) pseudo=read geom=check guess
 =(read,tcheck) scf=(maxcycle=1)\\title\\-1,1\C,0,-0.052531,0.011569,-1
 .504347\C,0,0.048521,-0.061442,0.020129\F,0,0.083251,-1.330534,-1.9799
 19\H,0,1.110045,-0.258728,0.20041\H,0,-0.166964,0.927448,0.432102\C,0,
 -1.412298,0.400189,-1.96618\N,0,-2.478941,0.732806,-2.328434\N,0,0.919
 575,0.88643,-1.978458\H,0,0.994274,0.829659,-2.985935\H,0,1.829255,0.6
 68341,-1.444824\C,0,-0.844644,-1.050895,0.603478\N,0,-1.559901,-1.8360

 Normal termination of Gaussian 16 at Wed Apr  9 03:00:02 2025.
