 Gaussian 16, Revision C.01,

 ----------------------------------------------------------------------
 #t hf aug-cc-pvdz symm=none int=(grid=ultrafine) guess=(read,tcheck) s
 table=(opt,rrhf)
 ----------------------------------------------------------------------
 -----
 title
 -----
 Symbolic Z-matrix:
 Charge = -1 Multiplicity = 1

 SCF Done:  E(RHF) =  -987.894217051     A.U. after   16 cycles
 Normal termination of Gaussian 16 at Wed Apr  9 02:39:23 2025.
 Gaussian 16:  ES64L-G16RevC.01  3-Jul-2019

 ----------------------------------------------------------------------
 #t hf aug-cc-pvdz iop(5/13=1,5/36=2,99/5=2) pseudo=read geom=check gue
 ss=(read,tcheck) scf=(maxcycle=1)
 ----------------------------------------------------------------------
 -----
 title
 -----
 Structure from the checkpoint file:  "E2SN2_203_mol1.chk"
 Charge = -1 Multiplicity = 1

                         Standard orientation:
 ---------------------------------------------------------------------
 Center     Atomic      Atomic             Coordinates (Angstroms)
 Number     Number       Type             X           Y           Z
 ---------------------------------------------------------------------
      1          6           0        0.787075    0.219788    0.531531
      2          1           0        0.137915   -0.388115   -1.445819
      3          9           0       -0.763313    0.622105    1.678591
      4         17           0        2.495457   -0.534923   -0.579700
      5          6           0       -0.293790   -0.020969   -0.510335
      6          1           0        0.930134   -0.555682    1.261839
      7          7           0        1.233616    1.560343    0.671211
      8          1           0        2.192374    1.561913    0.988888
      9          1           0        0.609892    1.944772    1.373395
     10          6           0       -1.074523    1.179443   -0.792234
     11          7           0       -1.665249    2.132302   -1.138596
     12          7           0       -1.205662   -1.136624   -0.064541
     13          8           0       -2.397502   -1.047621   -0.332863
     14          8           0       -0.661844   -2.106111    0.447736
 ---------------------------------------------------------------------

 SCF Done:  E(RHF) =  -988.065208552     A.U. after    2 cycles

 The electronic state is 1-A.
 Alpha  occ. eigenvalues -- -103.46098 -25.82160 -20.50677 -20.50531 -15.80646
 Alpha  occ. eigenvalues --  -15.52984 -15.50408 -11.26865 -11.24426 -11.18621
 Alpha  occ. eigenvalues --  -10.49427  -8.15072  -8.14931  -8.14911  -1.43447
 Alpha  occ. eigenvalues --   -1.32323  -1.25204  -1.09126  -1.06055  -0.99510
 Alpha  occ. eigenvalues --   -0.92891  -0.79712  -0.74579  -0.67662  -0.64212
 Alpha  occ. eigenvalues --   -0.62191  -0.57510  -0.56266  -0.54131  -0.50228
 Alpha  occ. eigenvalues --   -0.44178  -0.42225  -0.41778  -0.40942  -0.40682
 Alpha  occ. eigenvalues --   -0.39428  -0.36114  -0.34443  -0.33821  -0.31466
 Alpha  occ. eigenvalues --   -0.29088  -0.28750  -0.28195
 Alpha virt. eigenvalues --    0.13246   0.13941   0.15570   0.16738   0.18913
 Alpha virt. eigenvalues --    0.19975   0.20248   0.21568   0.22295   0.24012
 Alpha virt. eigenvalues --    0.24374   0.25158   0.25675   0.25929   0.26974

 Mulliken charges:
               1
     1  C    0.613572
     2  H   -0.041485
     3  F   -0.853727
     4  Cl  -0.556920
     5  C    1.248863
     6  H    0.043952
     7  N   -0.385142
     8  H    0.024448
     9  H    0.146072
    10  C   -0.218285
    11  N   -0.278950
    12  N    0.507553
    13  O   -0.640277
    14  O   -0.609674
 Sum of Mulliken charges =  -1.00000

 Dipole moment (field-independent basis, Debye):
    X=              1.9088    Y=             -0.4245    Z=             -0.7421  Tot=              2.0915

 Test job not archived.
 1\1\GINC-SE341\SP\RHF\Aug-CC-pVDZ\C3H4Cl1F1N3O2(1-)\OHZDE\09-Apr-2025\
 0\\#t hf aug-cc-pvdz iop(5/13=1,5/36=2,99/5=2) pseudo=read geom=check
 guess=(read,tcheck) scf=(maxcycle=1)\\title\\-1,1\C,0,0.78116161,-0.07
 389647,0.0348922\H,0,1.70394877,1.88548092,-0.06595242\F,0,-1.18249646
 ,0.08343048,0.05950167\Cl,0,2.91054065,-0.30607446,-0.33229731\C,0,0.7
 0727422,1.44472152,0.02713471\H,0,0.57507521,-0.56859932,-0.89675558\N
 ,0,0.74367475,-0.69538111,1.31095986\H,0,1.24403885,-1.57182606,1.2707
 2807\H,0,-0.24739702,-0.84153012,1.47312189\C,0,0.06736155,1.97847799,

 Normal termination of Gaussian 16 at Wed Apr  9 02:39:29 2025.
