 Gaussian 16, Revision C.01,

 ----------------------------------------------------------------------
 #t hf aug-cc-pvdz symm=none int=(grid=ultrafine) guess=(read,tcheck) s
 table=(opt,rrhf)
 ----------------------------------------------------------------------
 -----
 title
 -----
 Symbolic Z-matrix:
 Charge = -1 Multiplicity = 1

 SCF Done:  E(RHF) =  -1332.02781738     A.U. after   16 cycles
 Normal termination of Gaussian 16 at Wed Apr  9 02:51:59 2025.
 Gaussian 16:  ES64L-G16RevC.01  3-Jul-2019

 ----------------------------------------------------------------------
 #t hf aug-cc-pvdz iop(5/13=1,5/36=2,99/5=2) pseudo=read geom=check gue
 ss=(read,tcheck) scf=(maxcycle=1)
 ----------------------------------------------------------------------
 -----
 title
 -----
 Structure from the checkpoint file:  "E2SN2_329_mol2.chk"
 Charge = -1 Multiplicity = 1

                         Standard orientation:
 ---------------------------------------------------------------------
 Center     Atomic      Atomic             Coordinates (Angstroms)
 Number     Number       Type             X           Y           Z
 ---------------------------------------------------------------------
      1          6           0        0.549295   -0.185487    0.204015
      2          6           0        0.081489    0.893770   -0.759983
      3         17           0        2.340588   -0.361453    0.124695
      4          1           0       -1.023606    0.914520   -0.689330
      5          1           0        0.372756    0.638418   -1.778894
      6          6           0        0.101977    0.044527    1.621920
      7          1           0        0.514460    0.992577    1.971292
      8          1           0       -0.990796    0.098298    1.616600
      9          1           0        0.441945   -0.761765    2.268400
     10          7           0        0.022721   -1.531428   -0.306570
     11          8           0       -0.072658   -1.668468   -1.520386
     12          8           0       -0.198201   -2.395871    0.531734
     13          6           0        0.631576    2.192534   -0.398873
     14          7           0        1.080462    3.240825   -0.119319
     15         17           0       -3.108600    0.419973    0.081182
 ---------------------------------------------------------------------

 SCF Done:  E(RHF) =  -1332.18152223     A.U. after    2 cycles

 The electronic state is 1-A.
 Alpha  occ. eigenvalues -- -103.58359-103.38267 -20.52581 -20.52459 -15.82010
 Alpha  occ. eigenvalues --  -15.54616 -11.29473 -11.20072 -11.18410 -11.14228
 Alpha  occ. eigenvalues --  -10.61701 -10.41354  -8.27421  -8.27126  -8.27116
 Alpha  occ. eigenvalues --   -8.06955  -8.06925  -8.06914  -1.45050  -1.26989
 Alpha  occ. eigenvalues --   -1.12633  -1.08377  -0.99172  -0.90403  -0.86203
 Alpha  occ. eigenvalues --   -0.83616  -0.72159  -0.64974  -0.64296  -0.63528
 Alpha  occ. eigenvalues --   -0.58696  -0.55500  -0.52402  -0.48333  -0.45635
 Alpha  occ. eigenvalues --   -0.45448  -0.44386  -0.41759  -0.41307  -0.38469
 Alpha  occ. eigenvalues --   -0.38052  -0.37253  -0.35611  -0.35363  -0.21616
 Alpha  occ. eigenvalues --   -0.21425  -0.21373
 Alpha virt. eigenvalues --    0.12497   0.13090   0.14949   0.15480   0.16517
 Alpha virt. eigenvalues --    0.17518   0.18237   0.19162   0.21217   0.22585
 Alpha virt. eigenvalues --    0.23487   0.23999   0.24164   0.24618   0.25345

 Mulliken charges:
               1
     1  C   -0.686672
     2  C    0.951166
     3  Cl  -0.192428
     4  H    0.015759
     5  H    0.100441
     6  C    0.831393
     7  H   -0.027702
     8  H    0.106178
     9  H    0.032453
    10  N    0.448299
    11  O   -0.626224
    12  O   -0.607108
    13  C   -0.102788
    14  N   -0.311411
    15  Cl  -0.931355
 Sum of Mulliken charges =  -1.00000

 Dipole moment (field-independent basis, Debye):
    X=              9.5614    Y=             -1.8315    Z=              0.5215  Tot=              9.7492

 Test job not archived.
 1\1\GINC-SE222\SP\RHF\Aug-CC-pVDZ\C4H5Cl2N2O2(1-)\OHZDE\09-Apr-2025\0\
 \#t hf aug-cc-pvdz iop(5/13=1,5/36=2,99/5=2) pseudo=read geom=check gu
 ess=(read,tcheck) scf=(maxcycle=1)\\title\\-1,1\C,0,-0.005068,-0.00274
 7,0.010123\C,0,-0.588805,0.303533,-1.360415\Cl,0,1.795106,-0.00556,-0.
 063033\H,0,-1.689142,0.244889,-1.248714\H,0,-0.259672,-0.442768,-2.083
 551\C,0,-0.489877,0.928027,1.088119\H,0,-0.196358,1.947168,0.830827\H,
 0,-1.581192,0.855709,1.117687\H,0,-0.062539,0.657282,2.051291\N,0,-0.3
 63034,-1.451574,0.359832\O,0,-0.430022,-2.248762,-0.568193\O,0,-0.4874

 Normal termination of Gaussian 16 at Wed Apr  9 02:52:07 2025.
