 Gaussian 16, Revision C.01,

 ----------------------------------------------------------------------
 #t hf aug-cc-pvdz symm=none int=(grid=ultrafine) guess=(read,tcheck) s
 table=(opt,rrhf)
 ----------------------------------------------------------------------
 -----
 title
 -----
 Symbolic Z-matrix:
 Charge = -1 Multiplicity = 1

 SCF Done:  E(RHF) =  -531.186587347     A.U. after   17 cycles
 Normal termination of Gaussian 16 at Wed Apr  9 02:53:29 2025.
 Gaussian 16:  ES64L-G16RevC.01  3-Jul-2019

 ----------------------------------------------------------------------
 #t hf aug-cc-pvdz iop(5/13=1,5/36=2,99/5=2) pseudo=read geom=check gue
 ss=(read,tcheck) scf=(maxcycle=1)
 ----------------------------------------------------------------------
 -----
 title
 -----
 Structure from the checkpoint file:  "E2SN2_360_mol1.chk"
 Charge = -1 Multiplicity = 1

                         Standard orientation:
 ---------------------------------------------------------------------
 Center     Atomic      Atomic             Coordinates (Angstroms)
 Number     Number       Type             X           Y           Z
 ---------------------------------------------------------------------
      1          6           0       -0.981030   -0.357354   -0.152078
      2          1           0        0.325181    0.277603   -1.757832
      3          9           0       -0.995321    0.403813    1.339224
      4          1           0       -1.011265   -1.330801   -1.832010
      5          6           0        0.210958    0.459036   -0.696328
      6          6           0       -2.356724    0.116958   -0.607039
      7          1           0       -2.742880    0.855971    0.104474
      8          1           0       -2.304762    0.556787   -1.600174
      9          1           0       -3.030335   -0.737588   -0.661215
     10          7           0       -0.703464   -1.641134    0.454027
     11          1           0       -1.023557   -2.349780   -0.184601
     12          1           0       -1.187542   -1.662495    1.343731
     13          7           0        1.491912   -0.131355   -0.097856
     14          8           0        2.075609   -0.991467   -0.751874
     15          8           0        1.885005    0.312376    0.980567
     16          7           0        0.085344    1.854136   -0.414536
     17          1           0        0.904720    2.350544   -0.740495
     18          1           0       -0.012361    1.954803    0.586801
 ---------------------------------------------------------------------

 SCF Done:  E(RHF) =  -531.348778565     A.U. after    2 cycles

 The electronic state is 1-A.
 Alpha  occ. eigenvalues --  -25.87376 -20.46931 -20.46810 -15.75489 -15.49130
 Alpha  occ. eigenvalues --  -15.46066 -11.23341 -11.19247 -11.08886  -1.39149
 Alpha  occ. eigenvalues --   -1.38316  -1.20706  -1.06446  -1.01144  -0.87670
 Alpha  occ. eigenvalues --   -0.84443  -0.72191  -0.65711  -0.61283  -0.58877
 Alpha  occ. eigenvalues --   -0.58021  -0.55467  -0.54284  -0.50627  -0.46751
 Alpha  occ. eigenvalues --   -0.46539  -0.44251  -0.43292  -0.41330  -0.38992
 Alpha  occ. eigenvalues --   -0.38677  -0.36624  -0.35608  -0.32430  -0.28805
 Alpha  occ. eigenvalues --   -0.25728  -0.10146
 Alpha virt. eigenvalues --    0.12589   0.13416   0.14472   0.14794   0.16188
 Alpha virt. eigenvalues --    0.16941   0.18071   0.18452   0.21019   0.21911
 Alpha virt. eigenvalues --    0.22793   0.24095   0.24793   0.25760   0.26319

 Mulliken charges:
               1
     1  C   -1.229846
     2  H   -0.190806
     3  F   -0.695106
     4  H   -0.458758
     5  C    1.818192
     6  C    0.958179
     7  H    0.025404
     8  H    0.008055
     9  H   -0.082073
    10  N   -0.083921
    11  H    0.049747
    12  H   -0.042800
    13  N    0.423014
    14  O   -0.632086
    15  O   -0.673965
    16  N   -0.262431
    17  H   -0.032849
    18  H    0.102051
 Sum of Mulliken charges =  -1.00000

 Dipole moment (field-independent basis, Debye):
    X=             -0.1903    Y=              4.0286    Z=              1.8731  Tot=              4.4469

 Test job not archived.
 1\1\GINC-SE162\SP\RHF\Aug-CC-pVDZ\C3H9F1N3O2(1-)\OHZDE\09-Apr-2025\0\\
 #t hf aug-cc-pvdz iop(5/13=1,5/36=2,99/5=2) pseudo=read geom=check gue
 ss=(read,tcheck) scf=(maxcycle=1)\\title\\-1,1\C,0,0.5666075,-0.058972
 01,-0.04223833\H,0,1.53790217,1.85329865,-0.33822383\F,0,-1.09954796,-
 0.22415946,-0.05639449\H,0,2.50477426,0.03473964,0.03130731\C,0,0.5391
 9717,1.48114551,-0.14627347\C,0,0.82945522,-0.79524386,-1.35117323\H,0
 ,-0.12331407,-1.00453798,-1.85110683\H,0,1.46481456,-0.20386499,-2.006
 1974\H,0,1.35311377,-1.72678599,-1.13916746\N,0,0.66019067,-0.64816149

 Normal termination of Gaussian 16 at Wed Apr  9 02:53:38 2025.
