 Gaussian 16, Revision C.01,

 ----------------------------------------------------------------------
 #t hf aug-cc-pvdz symm=none int=(grid=ultrafine) guess=(read,tcheck) s
 table=(opt,rrhf)
 ----------------------------------------------------------------------
 -----
 title
 -----
 Symbolic Z-matrix:
 Charge = -1 Multiplicity = 1

 SCF Done:  E(RHF) =  -1222.54130792     A.U. after   16 cycles
 Normal termination of Gaussian 16 at Wed Apr  9 02:51:51 2025.
 Gaussian 16:  ES64L-G16RevC.01  3-Jul-2019

 ----------------------------------------------------------------------
 #t hf aug-cc-pvdz iop(5/13=1,5/36=2,99/5=2) pseudo=read geom=check gue
 ss=(read,tcheck) scf=(maxcycle=1)
 ----------------------------------------------------------------------
 -----
 title
 -----
 Structure from the checkpoint file:  "E2SN2_341_mol1.chk"
 Charge = -1 Multiplicity = 1

                         Standard orientation:
 ---------------------------------------------------------------------
 Center     Atomic      Atomic             Coordinates (Angstroms)
 Number     Number       Type             X           Y           Z
 ---------------------------------------------------------------------
      1          6           0        0.141559   -0.112547   -0.332718
      2          1           0        0.757982    1.808504    0.216103
      3         17           0       -2.173488   -0.861222   -0.264628
      4         17           0        2.561143    0.173858   -0.162540
      5          6           0       -0.163720    1.237063    0.324094
      6          6           0        0.242237   -0.182678   -1.838488
      7          1           0       -0.746782   -0.123947   -2.283963
      8          1           0        0.836507    0.660480   -2.184868
      9          1           0        0.736158   -1.107399   -2.134146
     10          6           0        0.379280   -1.276939    0.479768
     11          7           0        0.563789   -2.224703    1.156062
     12          6           0       -0.456842    1.104345    1.814720
     13          1           0       -1.349880    0.499345    1.977467
     14          1           0        0.386615    0.644604    2.335653
     15          1           0       -0.618629    2.101889    2.236599
     16          7           0       -1.160895    1.961350   -0.462438
     17          1           0       -1.204413    2.911018   -0.111188
     18          1           0       -2.063029    1.518701   -0.329420
 ---------------------------------------------------------------------

 SCF Done:  E(RHF) =  -1222.65829420     A.U. after    2 cycles

 The electronic state is 1-A.
 Alpha  occ. eigenvalues -- -103.43555-103.42680 -15.50877 -15.49443 -11.27064
 Alpha  occ. eigenvalues --  -11.17356 -11.17031 -11.12368 -11.11164 -10.46834
 Alpha  occ. eigenvalues --  -10.45938  -8.12458  -8.12356  -8.12341  -8.11563
 Alpha  occ. eigenvalues --   -8.11453  -8.11447  -1.07239  -1.04344  -0.96201
 Alpha  occ. eigenvalues --   -0.89886  -0.87757  -0.87092  -0.78474  -0.72411
 Alpha  occ. eigenvalues --   -0.58906  -0.52895  -0.51108  -0.48002  -0.46820
 Alpha  occ. eigenvalues --   -0.45680  -0.44100  -0.41561  -0.39942  -0.39020
 Alpha  occ. eigenvalues --   -0.37610  -0.32458  -0.28523  -0.27403  -0.26590
 Alpha  occ. eigenvalues --   -0.25866  -0.25468  -0.24508  -0.23954
 Alpha virt. eigenvalues --    0.11419   0.12998   0.14202   0.14467   0.15937
 Alpha virt. eigenvalues --    0.16415   0.16838   0.17001   0.17660   0.17877
 Alpha virt. eigenvalues --    0.20299   0.21597   0.23015   0.23640   0.23758

 Mulliken charges:
               1
     1  C   -0.155564
     2  H   -0.128146
     3  Cl  -0.692815
     4  Cl  -0.691545
     5  C    0.204188
     6  C    0.726158
     7  H    0.052076
     8  H    0.064522
     9  H   -0.046973
    10  C   -0.355459
    11  N   -0.394603
    12  C    0.703933
    13  H    0.060616
    14  H   -0.005251
    15  H   -0.099232
    16  N   -0.264280
    17  H   -0.045626
    18  H    0.068002
 Sum of Mulliken charges =  -1.00000

 Dipole moment (field-independent basis, Debye):
    X=             -2.1909    Y=              5.0870    Z=             -0.4536  Tot=              5.5573

 Test job not archived.
 1\1\GINC-SE424\SP\RHF\Aug-CC-pVDZ\C5H9Cl2N2(1-)\OHZDE\09-Apr-2025\0\\#
 t hf aug-cc-pvdz iop(5/13=1,5/36=2,99/5=2) pseudo=read geom=check gues
 s=(read,tcheck) scf=(maxcycle=1)\\title\\-1,1\C,0,0.60619829,-0.031621
 4,-0.04714754\H,0,1.5636516,1.8114099,-0.28826252\Cl,0,-1.81182211,-0.
 29987698,0.0290644\Cl,0,3.02330997,-0.08347946,0.29962984\C,0,0.542824
 09,1.49858147,-0.06964943\C,0,0.76427913,-0.77255908,-1.35421201\H,0,-
 0.17055335,-0.76151138,-1.9074032\H,0,1.5300496,-0.27310866,-1.9442934
 8\H,0,1.07892955,-1.79775033,-1.16327133\C,0,0.56850228,-0.74041733,1.

 Normal termination of Gaussian 16 at Wed Apr  9 02:52:01 2025.
