 Gaussian 16, Revision C.01,

 ----------------------------------------------------------------------
 #t hf aug-cc-pvdz symm=none int=(grid=ultrafine) guess=(read,tcheck) s
 table=(opt,rrhf)
 ----------------------------------------------------------------------
 -----
 title
 -----
 Symbolic Z-matrix:
 Charge = -1 Multiplicity = 1

 SCF Done:  E(RHF) =  -784.388808110     A.U. after   15 cycles
 Normal termination of Gaussian 16 at Wed Apr  9 02:35:29 2025.
 Gaussian 16:  ES64L-G16RevC.01  3-Jul-2019

 ----------------------------------------------------------------------
 #t hf aug-cc-pvdz iop(5/13=1,5/36=2,99/5=2) pseudo=read geom=check gue
 ss=(read,tcheck) scf=(maxcycle=1)
 ----------------------------------------------------------------------
 -----
 title
 -----
 Structure from the checkpoint file:  "E2SN2_167_mol1.chk"
 Charge = -1 Multiplicity = 1

                         Standard orientation:
 ---------------------------------------------------------------------
 Center     Atomic      Atomic             Coordinates (Angstroms)
 Number     Number       Type             X           Y           Z
 ---------------------------------------------------------------------
      1          6           0        0.429996   -0.913509   -0.130356
      2          1           0        1.111763    0.751388   -1.187757
      3         17           0       -1.730312   -1.217667    0.191320
      4          9           0        2.337220   -1.022342   -0.405468
      5          6           0        0.599603    0.596498   -0.229233
      6          1           0        0.375706   -1.495117   -1.028131
      7          1           0        0.635261   -1.375770    0.815039
      8          7           0        1.424356    1.023380    0.907859
      9          1           0        1.675111    1.997886    0.778441
     10          1           0        2.256723    0.450085    0.772556
     11          6           0       -0.616045    1.424867   -0.262418
     12          7           0       -1.446580    2.251737   -0.339478
 ---------------------------------------------------------------------

 SCF Done:  E(RHF) =  -784.499975985     A.U. after    2 cycles

 The electronic state is 1-A.
 Alpha  occ. eigenvalues -- -103.42980 -25.81710 -15.50920 -15.49007 -11.20381
 Alpha  occ. eigenvalues --  -11.19239 -11.16522 -10.46267  -8.11905  -8.11772
 Alpha  occ. eigenvalues --   -8.11760  -1.31404  -1.07135  -1.03107  -0.91964
 Alpha  occ. eigenvalues --   -0.85361  -0.75061  -0.58714  -0.56537  -0.49408
 Alpha  occ. eigenvalues --   -0.47481  -0.45041  -0.42316  -0.41093  -0.40126
 Alpha  occ. eigenvalues --   -0.39617  -0.33080  -0.32611  -0.28572  -0.25987
 Alpha  occ. eigenvalues --   -0.25682  -0.25322
 Alpha virt. eigenvalues --    0.12995   0.14577   0.15637   0.16625   0.17142
 Alpha virt. eigenvalues --    0.19510   0.21383   0.24274   0.24631   0.25039
 Alpha virt. eigenvalues --    0.25651   0.26474   0.27237   0.28794   0.29232

 Mulliken charges:
               1
     1  C    0.584742
     2  H    0.110955
     3  Cl  -0.607349
     4  F   -0.862703
     5  C    0.893218
     6  H   -0.062413
     7  H   -0.034224
     8  N   -0.398345
     9  H   -0.026814
    10  H    0.122133
    11  C   -0.466911
    12  N   -0.252290
 Sum of Mulliken charges =  -1.00000

 Dipole moment (field-independent basis, Debye):
    X=              2.2561    Y=              2.0258    Z=             -0.5413  Tot=              3.0801

 Test job not archived.
 1\1\GINC-SE229\SP\RHF\Aug-CC-pVDZ\C3H5Cl1F1N2(1-)\OHZDE\09-Apr-2025\0\
 \#t hf aug-cc-pvdz iop(5/13=1,5/36=2,99/5=2) pseudo=read geom=check gu
 ess=(read,tcheck) scf=(maxcycle=1)\\title\\-1,1\C,0,0.52877197,-0.0450
 8334,0.06137655\H,0,1.59523264,1.63423111,-0.56898248\Cl,0,-1.29845464
 ,-0.66629859,-1.00551193\F,0,2.16636726,0.13216746,1.06730939\C,0,0.60
 089052,1.46299586,-0.13651398\H,0,1.11164973,-0.68529333,-0.56917799\H
 ,0,0.11356627,-0.40622953,0.98157636\N,0,0.4628732,2.08856897,1.184483
 1\H,0,0.65919607,3.07995359,1.09558234\H,0,1.22937422,1.64692271,1.691

 Normal termination of Gaussian 16 at Wed Apr  9 02:35:35 2025.
