 Gaussian 16, Revision C.01,

 ----------------------------------------------------------------------
 #t hf aug-cc-pvdz symm=none int=(grid=ultrafine) guess=(read,tcheck) s
 table=(opt,rrhf)
 ----------------------------------------------------------------------
 -----
 title
 -----
 Symbolic Z-matrix:
 Charge = -1 Multiplicity = 1

 SCF Done:  E(RHF) =  -931.211296057     A.U. after   16 cycles
 Normal termination of Gaussian 16 at Wed Apr  9 02:57:41 2025.
 Gaussian 16:  ES64L-G16RevC.01  3-Jul-2019

 ----------------------------------------------------------------------
 #t hf aug-cc-pvdz iop(5/13=1,5/36=2,99/5=2) pseudo=read geom=check gue
 ss=(read,tcheck) scf=(maxcycle=1)
 ----------------------------------------------------------------------
 -----
 title
 -----
 Structure from the checkpoint file:  "E2SN2_417_mol2.chk"
 Charge = -1 Multiplicity = 1

                         Standard orientation:
 ---------------------------------------------------------------------
 Center     Atomic      Atomic             Coordinates (Angstroms)
 Number     Number       Type             X           Y           Z
 ---------------------------------------------------------------------
      1          6           0       -0.553214    0.554117   -0.041028
      2          6           0        0.294274   -0.750570   -0.028020
      3         17           0        0.568566    1.980536    0.056097
      4          1           0       -0.552875   -1.500825   -0.100435
      5          7           0       -1.237394    0.555709   -1.298548
      6          1           0       -1.817037   -0.297319   -1.224022
      7          1           0       -1.862881    1.355827   -1.284191
      8          7           0       -1.460999    0.621750    1.071332
      9          1           0       -0.954975    0.583084    1.950468
     10          1           0       -2.015852   -0.239981    0.949612
     11          6           0        0.999333   -0.925735    1.234313
     12          7           0        1.540298   -1.069223    2.267598
     13          6           0        1.209003   -0.869027   -1.155482
     14          7           0        1.965695   -1.009982   -2.043062
     15          9           0       -2.201287   -1.701155   -0.142778
 ---------------------------------------------------------------------

 SCF Done:  E(RHF) =  -931.364337499     A.U. after    2 cycles

 The electronic state is 1-A.
 Alpha  occ. eigenvalues -- -103.53381 -25.80492 -15.54287 -15.53297 -15.49355
 Alpha  occ. eigenvalues --  -15.48932 -11.26800 -11.19769 -11.19556 -11.18941
 Alpha  occ. eigenvalues --  -10.56795  -8.22504  -8.22234  -8.22225  -1.29863
 Alpha  occ. eigenvalues --   -1.14204  -1.08281  -1.06830  -1.00549  -0.98996
 Alpha  occ. eigenvalues --   -0.94722  -0.70570  -0.65431  -0.61263  -0.56321
 Alpha  occ. eigenvalues --   -0.53557  -0.51796  -0.48571  -0.44938  -0.43984
 Alpha  occ. eigenvalues --   -0.42583  -0.40084  -0.39389  -0.38432  -0.36616
 Alpha  occ. eigenvalues --   -0.36329  -0.34966  -0.34318  -0.33965  -0.32348
 Alpha  occ. eigenvalues --   -0.29701  -0.28334
 Alpha virt. eigenvalues --    0.13371   0.14360   0.15410   0.16425   0.18254
 Alpha virt. eigenvalues --    0.18743   0.19024   0.19444   0.21937   0.23578
 Alpha virt. eigenvalues --    0.23802   0.24272   0.24852   0.25203   0.26213

 Mulliken charges:
               1
     1  C    0.489831
     2  C    1.421073
     3  Cl  -0.244715
     4  H    0.132388
     5  N   -0.493693
     6  H    0.151415
     7  H    0.013217
     8  N   -0.436159
     9  H    0.012778
    10  H    0.135017
    11  C   -0.301208
    12  N   -0.282984
    13  C   -0.384144
    14  N   -0.255305
    15  F   -0.957512
 Sum of Mulliken charges =  -1.00000

 Dipole moment (field-independent basis, Debye):
    X=              0.5924    Y=              3.7544    Z=              1.0539  Tot=              3.9443

 Test job not archived.
 1\1\GINC-SE412\SP\RHF\Aug-CC-pVDZ\C4H5Cl1F1N4(1-)\OHZDE\09-Apr-2025\0\
 \#t hf aug-cc-pvdz iop(5/13=1,5/36=2,99/5=2) pseudo=read geom=check gu
 ess=(read,tcheck) scf=(maxcycle=1)\\title\\-1,1\C,0,-0.009419,0.003407
 ,0.0071\C,0,-0.540726,0.199878,-1.441943\Cl,0,1.807332,-0.012076,-0.03
 377\H,0,-1.651727,0.190255,-1.215287\N,0,-0.471593,1.140675,0.743631\H
 ,0,-1.497722,1.032872,0.675549\H,0,-0.208402,0.982189,1.711744\N,0,-0.
 454946,-1.235255,0.584348\H,0,-0.145152,-2.023797,0.025183\H,0,-1.4812
 63,-1.145163,0.522594\C,0,-0.204331,-0.928159,-2.299641\N,0,0.049204,-

 Normal termination of Gaussian 16 at Wed Apr  9 02:57:49 2025.
