 Gaussian 16, Revision C.01,

 ----------------------------------------------------------------------
 #t hf aug-cc-pvdz symm=none int=(grid=ultrafine) guess=(read,tcheck) s
 table=(opt,rrhf)
 ----------------------------------------------------------------------
 -----
 title
 -----
 Symbolic Z-matrix:
 Charge = -1 Multiplicity = 1

 SCF Done:  E(RHF) =  -500.062152435     A.U. after   17 cycles
 Normal termination of Gaussian 16 at Wed Apr  9 02:45:12 2025.
 Gaussian 16:  ES64L-G16RevC.01  3-Jul-2019

 ----------------------------------------------------------------------
 #t hf aug-cc-pvdz iop(5/13=1,5/36=2,99/5=2) pseudo=read geom=check gue
 ss=(read,tcheck) scf=(maxcycle=1)
 ----------------------------------------------------------------------
 -----
 title
 -----
 Structure from the checkpoint file:  "E2SN2_269_mol2.chk"
 Charge = -1 Multiplicity = 1

                         Standard orientation:
 ---------------------------------------------------------------------
 Center     Atomic      Atomic             Coordinates (Angstroms)
 Number     Number       Type             X           Y           Z
 ---------------------------------------------------------------------
      1          6           0        0.159861   -0.257304    0.294353
      2          6           0       -0.638610   -1.088201   -0.707662
      3          9           0        0.048443   -0.920406    1.551207
      4          1           0       -0.370114   -2.134193   -0.516948
      5          1           0       -0.300655   -0.778256   -1.691734
      6          6           0        1.593000   -0.259227   -0.034024
      7          7           0        2.747876   -0.439291   -0.155433
      8          6           0       -0.357425    1.104952    0.489005
      9          7           0       -0.902130    1.993952    1.042310
     10          6           0       -2.137046   -0.870247   -0.556117
     11          1           0       -2.456552   -1.006856    0.480132
     12          1           0       -2.692832   -1.573636   -1.183571
     13          1           0       -2.388794    0.144826   -0.866540
     14          9           0        0.348229    1.218811   -1.478185
 ---------------------------------------------------------------------

 SCF Done:  E(RHF) =  -500.214287047     A.U. after    2 cycles

 The electronic state is 1-A.
 Alpha  occ. eigenvalues --  -26.00178 -25.77471 -15.51274 -15.48507 -11.27352
 Alpha  occ. eigenvalues --  -11.17263 -11.16519 -11.12604 -11.11598  -1.52998
 Alpha  occ. eigenvalues --   -1.26854  -1.05714  -1.03148  -0.96799  -0.87094
 Alpha  occ. eigenvalues --   -0.74129  -0.68539  -0.65844  -0.60683  -0.55534
 Alpha  occ. eigenvalues --   -0.50480  -0.48848  -0.43407  -0.41256  -0.40815
 Alpha  occ. eigenvalues --   -0.40139  -0.39340  -0.38776  -0.38117  -0.35192
 Alpha  occ. eigenvalues --   -0.32679  -0.31626  -0.30532  -0.27249
 Alpha virt. eigenvalues --    0.11717   0.13898   0.14351   0.16637   0.17159
 Alpha virt. eigenvalues --    0.18859   0.19999   0.20393   0.22653   0.23546
 Alpha virt. eigenvalues --    0.24577   0.24971   0.25174   0.25785   0.26216

 Mulliken charges:
               1
     1  C    0.940525
     2  C    0.344851
     3  F   -0.536781
     4  H   -0.012952
     5  H   -0.065562
     6  C   -0.289589
     7  N   -0.305490
     8  C    0.019820
     9  N   -0.444879
    10  C    0.403468
    11  H   -0.025958
    12  H   -0.112527
    13  H   -0.007655
    14  F   -0.907270
 Sum of Mulliken charges =  -1.00000

 Dipole moment (field-independent basis, Debye):
    X=             -3.4533    Y=             -5.8759    Z=              1.1431  Tot=              6.9107

 Test job not archived.
 1\1\GINC-SE129\SP\RHF\Aug-CC-pVDZ\C5H5F2N2(1-)\OHZDE\09-Apr-2025\0\\#t
  hf aug-cc-pvdz iop(5/13=1,5/36=2,99/5=2) pseudo=read geom=check guess
 =(read,tcheck) scf=(maxcycle=1)\\title\\-1,1\C,0,-0.044162,-0.003295,-
 0.014965\C,0,-0.373176,-0.087087,-1.503826\F,0,1.374218,-0.094854,0.09
 2808\H,0,0.344602,0.568941,-2.010761\H,0,-1.383911,0.294767,-1.610032\
 C,0,-0.403923,1.311065,0.53708\N,0,-0.476366,2.416879,0.928011\C,0,-0.
 599734,-1.105453,0.783662\N,0,-0.594613,-2.102703,1.415039\C,0,-0.2755
 43,-1.513451,-2.025107\H,0,0.682197,-1.969183,-1.761288\H,0,-0.377475,

 Normal termination of Gaussian 16 at Wed Apr  9 02:45:18 2025.
