 Gaussian 16, Revision C.01,

 ----------------------------------------------------------------------
 #t hf aug-cc-pvdz symm=none int=(grid=ultrafine) guess=(read,tcheck) s
 table=(opt,rrhf)
 ----------------------------------------------------------------------
 -----
 title
 -----
 Symbolic Z-matrix:
 Charge = -1 Multiplicity = 1

 SCF Done:  E(RHF) =  -364.389463334     A.U. after   17 cycles
 Normal termination of Gaussian 16 at Wed Apr  9 02:33:17 2025.
 Gaussian 16:  ES64L-G16RevC.01  3-Jul-2019

 ----------------------------------------------------------------------
 #t hf aug-cc-pvdz iop(5/13=1,5/36=2,99/5=2) pseudo=read geom=check gue
 ss=(read,tcheck) scf=(maxcycle=1)
 ----------------------------------------------------------------------
 -----
 title
 -----
 Structure from the checkpoint file:  "E2SN2_146_mol1.chk"
 Charge = -1 Multiplicity = 1

                         Standard orientation:
 ---------------------------------------------------------------------
 Center     Atomic      Atomic             Coordinates (Angstroms)
 Number     Number       Type             X           Y           Z
 ---------------------------------------------------------------------
      1          6           0        0.292018    0.564698    0.311508
      2          6           0       -0.833812   -0.364930    0.222082
      3          9           0        0.353844    1.602948   -0.714487
      4          1           0       -1.259235   -0.824482    2.556706
      5          1           0       -0.902521   -0.804558    1.528570
      6          6           0        1.602993   -0.098374    0.268728
      7          7           0        2.653878   -0.623453    0.241728
      8          6           0       -0.766838   -1.459679   -0.815799
      9          1           0        0.181251   -2.007745   -0.775353
     10          1           0       -1.575375   -2.171707   -0.618723
     11          1           0       -0.904078   -1.092006   -1.844596
     12          7           0       -2.118235    0.316805    0.233672
     13          1           0       -2.032366    1.260855   -0.124180
     14          1           0       -2.414616    0.369524    1.215872
     15          1           0        0.206676    1.139824    1.245173
 ---------------------------------------------------------------------

 SCF Done:  E(RHF) =  -364.504428047     A.U. after    2 cycles

 The electronic state is 1-A.
 Alpha  occ. eigenvalues --  -25.97029 -15.52385 -15.45422 -11.22010 -11.17392
 Alpha  occ. eigenvalues --  -11.08249 -11.08101  -1.49043  -1.06274  -1.00983
 Alpha  occ. eigenvalues --   -0.89625  -0.81729  -0.66683  -0.63016  -0.60707
 Alpha  occ. eigenvalues --   -0.56719  -0.51008  -0.49716  -0.47336  -0.43029
 Alpha  occ. eigenvalues --   -0.41917  -0.37729  -0.36878  -0.34550  -0.33607
 Alpha  occ. eigenvalues --   -0.32412  -0.24282  -0.09704
 Alpha virt. eigenvalues --    0.13367   0.13957   0.15378   0.15601   0.16809
 Alpha virt. eigenvalues --    0.17791   0.18712   0.19759   0.22175   0.22516
 Alpha virt. eigenvalues --    0.24182   0.24830   0.25086   0.26032   0.26713

 Mulliken charges:
               1
     1  C    1.368345
     2  C   -0.697865
     3  F   -0.560276
     4  H   -0.891040
     5  H    0.585450
     6  C   -0.406527
     7  N   -0.267211
     8  C    0.482376
     9  H   -0.078411
    10  H   -0.078119
    11  H   -0.035092
    12  N   -0.325986
    13  H    0.019265
    14  H    0.008075
    15  H   -0.122985
 Sum of Mulliken charges =  -1.00000

 Dipole moment (field-independent basis, Debye):
    X=              1.2550    Y=              2.6615    Z=             -4.6823  Tot=              5.5301

 Test job not archived.
 1\1\GINC-SE159\SP\RHF\Aug-CC-pVDZ\C4H8F1N2(1-)\OHZDE\09-Apr-2025\0\\#t
  hf aug-cc-pvdz iop(5/13=1,5/36=2,99/5=2) pseudo=read geom=check guess
 =(read,tcheck) scf=(maxcycle=1)\\title\\-1,1\C,0,-0.10402508,0.0456536
 4,-0.32507158\C,0,-0.09217649,0.12714525,1.13537941\F,0,1.17363554,-0.
 26046484,-0.96407524\H,0,-2.29167199,-0.71586402,1.67777971\H,0,-1.421
 88051,-0.11764511,1.41263238\C,0,-0.57569587,1.27618223,-0.9758207\N,0
 ,-0.95827627,2.25497514,-1.50155218\C,0,0.4714733,1.37608772,1.7698851
 8\H,0,0.04178841,2.28701628,1.3380683\H,0,0.22581499,1.36175232,2.8371

 Normal termination of Gaussian 16 at Wed Apr  9 02:33:24 2025.
