 Gaussian 16, Revision C.01,

 ----------------------------------------------------------------------
 #t hf aug-cc-pvdz symm=none int=(grid=ultrafine) guess=(read,tcheck) s
 table=(opt,rrhf)
 ----------------------------------------------------------------------
 -----
 title
 -----
 Symbolic Z-matrix:
 Charge = -1 Multiplicity = 1

 SCF Done:  E(RHF) =  -1295.25276411     A.U. after   17 cycles
 Normal termination of Gaussian 16 at Wed Apr  9 02:58:43 2025.
 Gaussian 16:  ES64L-G16RevC.01  3-Jul-2019

 ----------------------------------------------------------------------
 #t hf aug-cc-pvdz iop(5/13=1,5/36=2,99/5=2) pseudo=read geom=check gue
 ss=(read,tcheck) scf=(maxcycle=1)
 ----------------------------------------------------------------------
 -----
 title
 -----
 Structure from the checkpoint file:  "E2SN2_56_mol1.chk"
 Charge = -1 Multiplicity = 1

                         Standard orientation:
 ---------------------------------------------------------------------
 Center     Atomic      Atomic             Coordinates (Angstroms)
 Number     Number       Type             X           Y           Z
 ---------------------------------------------------------------------
      1          6           0       -0.518366   -0.011957   -0.449009
      2          6           0        0.432762   -0.810931    0.181047
      3         17           0       -2.680645   -0.793726   -0.232975
      4         17           0        3.053061    0.379737   -0.346114
      5          1           0        1.571343   -0.058043   -0.206730
      6          1           0       -0.559462   -0.031706   -1.528659
      7          6           0        0.737968   -2.109025   -0.523346
      8          1           0        0.799237   -1.969324   -1.604494
      9          1           0        1.695952   -2.507427   -0.178329
     10          1           0       -0.057311   -2.823779   -0.292506
     11          7           0        0.522734   -0.919442    1.593191
     12          1           0        0.166674   -0.085525    2.040561
     13          1           0        1.490266   -1.064588    1.859429
     14          7           0       -0.765111    1.343705    0.024367
     15          8           0       -1.018867    2.189431   -0.836245
     16          8           0       -0.688047    1.585549    1.233765
 ---------------------------------------------------------------------

 SCF Done:  E(RHF) =  -1295.39668076     A.U. after    2 cycles

 The electronic state is 1-A.
 Alpha  occ. eigenvalues -- -103.47108-103.44499 -20.51240 -20.50907 -15.80958
 Alpha  occ. eigenvalues --  -15.50091 -11.24769 -11.16287 -11.12646 -10.50375
 Alpha  occ. eigenvalues --  -10.47642  -8.16038  -8.15873  -8.15868  -8.13281
 Alpha  occ. eigenvalues --   -8.13142  -8.13133  -1.43235  -1.24851  -1.07922
 Alpha  occ. eigenvalues --   -0.98558  -0.94344  -0.89576  -0.88541  -0.77318
 Alpha  occ. eigenvalues --   -0.69695  -0.64206  -0.61064  -0.60639  -0.57652
 Alpha  occ. eigenvalues --   -0.52779  -0.47994  -0.45811  -0.43059  -0.42175
 Alpha  occ. eigenvalues --   -0.40550  -0.39331  -0.36465  -0.33525  -0.31555
 Alpha  occ. eigenvalues --   -0.29906  -0.29497  -0.27135  -0.26885  -0.17580
 Alpha virt. eigenvalues --    0.12553   0.13573   0.13871   0.14728   0.15350
 Alpha virt. eigenvalues --    0.16365   0.17292   0.18298   0.20797   0.22423
 Alpha virt. eigenvalues --    0.23302   0.24578   0.24866   0.25588   0.26338

 Mulliken charges:
               1
     1  C    1.269139
     2  C   -0.917015
     3  Cl  -0.619324
     4  Cl  -0.658901
     5  H    0.619047
     6  H   -0.270152
     7  C    0.759263
     8  H   -0.025020
     9  H   -0.064504
    10  H    0.003692
    11  N   -0.284093
    12  H    0.054859
    13  H   -0.011545
    14  N    0.397839
    15  O   -0.595262
    16  O   -0.658021
 Sum of Mulliken charges =  -1.00000

 Dipole moment (field-independent basis, Debye):
    X=              2.2014    Y=             -1.6918    Z=              0.0082  Tot=              2.7764

 Test job not archived.
 1\1\GINC-SE114\SP\RHF\Aug-CC-pVDZ\C3H7Cl2N2O2(1-)\OHZDE\09-Apr-2025\0\
 \#t hf aug-cc-pvdz iop(5/13=1,5/36=2,99/5=2) pseudo=read geom=check gu
 ess=(read,tcheck) scf=(maxcycle=1)\\title\\-1,1\C,0,-0.33003697,0.0104
 6172,-0.26396492\C,0,-0.06373518,0.0044961,1.103157\Cl,0,1.56574712,-0
 .05000539,-1.58139764\Cl,0,-2.63486313,0.17906903,2.48893372\H,0,-1.41
 098677,0.09496118,1.53939706\H,0,-0.67654418,0.93313208,-0.70706312\C,
 0,0.46606709,1.30544905,1.65197327\H,0,-0.05727156,2.16101096,1.220368
 57\H,0,0.33179602,1.33803831,2.73659457\H,0,1.53197247,1.3727689,1.415

 Normal termination of Gaussian 16 at Wed Apr  9 02:58:51 2025.
