 Gaussian 16, Revision C.01,

 ----------------------------------------------------------------------
 #t hf aug-cc-pvdz symm=none int=(grid=ultrafine) guess=(read,tcheck) s
 table=(opt,rrhf)
 ----------------------------------------------------------------------
 -----
 title
 -----
 Symbolic Z-matrix:
 Charge = -1 Multiplicity = 1

 SCF Done:  E(RHF) =  -931.267047513     A.U. after   14 cycles
 Normal termination of Gaussian 16 at Wed Apr  9 02:57:50 2025.
 Gaussian 16:  ES64L-G16RevC.01  3-Jul-2019

 ----------------------------------------------------------------------
 #t hf aug-cc-pvdz iop(5/13=1,5/36=2,99/5=2) pseudo=read geom=check gue
 ss=(read,tcheck) scf=(maxcycle=1)
 ----------------------------------------------------------------------
 -----
 title
 -----
 Structure from the checkpoint file:  "E2SN2_416_mol2.chk"
 Charge = -1 Multiplicity = 1

                         Standard orientation:
 ---------------------------------------------------------------------
 Center     Atomic      Atomic             Coordinates (Angstroms)
 Number     Number       Type             X           Y           Z
 ---------------------------------------------------------------------
      1          6           0       -0.140130   -0.128605    0.959331
      2          6           0       -0.576787    0.067381   -0.508446
      3          9           0       -1.273810   -0.231485    1.752615
      4          1           0        0.361991    0.139645   -1.084832
      5          7           0        0.533037   -1.394329    1.040909
      6          1           0        0.778558   -1.559765    2.011693
      7          1           0        1.400511   -1.299608    0.508695
      8          7           0        0.537722    1.069333    1.368954
      9          1           0        0.775737    0.977427    2.351294
     10          1           0        1.408966    1.110183    0.835999
     11          6           0       -1.352246    1.298946   -0.674195
     12          7           0       -2.000196    2.260990   -0.852713
     13          6           0       -1.362698   -1.072288   -0.987069
     14          7           0       -2.020481   -1.950598   -1.403175
     15         17           0        2.822301    0.107359   -0.835996
 ---------------------------------------------------------------------

 SCF Done:  E(RHF) =  -931.421453995     A.U. after    2 cycles

 The electronic state is 1-A.
 Alpha  occ. eigenvalues -- -103.40782 -26.01747 -15.54685 -15.54676 -15.51015
 Alpha  occ. eigenvalues --  -15.51004 -11.30416 -11.22207 -11.20191 -11.20181
 Alpha  occ. eigenvalues --  -10.43907  -8.09508  -8.09475  -8.09474  -1.55837
 Alpha  occ. eigenvalues --   -1.13006  -1.08896  -1.07789  -1.01430  -0.96989
 Alpha  occ. eigenvalues --   -0.86456  -0.78394  -0.68043  -0.68013  -0.64176
 Alpha  occ. eigenvalues --   -0.63865  -0.55443  -0.53245  -0.52397  -0.50081
 Alpha  occ. eigenvalues --   -0.49104  -0.45515  -0.44846  -0.37687  -0.36973
 Alpha  occ. eigenvalues --   -0.36500  -0.35507  -0.34081  -0.28572  -0.24326
 Alpha  occ. eigenvalues --   -0.24072  -0.23993
 Alpha virt. eigenvalues --    0.11686   0.13784   0.15076   0.16630   0.18010
 Alpha virt. eigenvalues --    0.18138   0.19077   0.19937   0.21292   0.23253
 Alpha virt. eigenvalues --    0.23878   0.23982   0.24209   0.24763   0.25644

 Mulliken charges:
               1
     1  C    0.826700
     2  C    1.258492
     3  F   -0.413747
     4  H    0.027529
     5  N   -0.381576
     6  H   -0.029197
     7  H    0.111731
     8  N   -0.381871
     9  H   -0.028652
    10  H    0.111032
    11  C   -0.352137
    12  N   -0.241318
    13  C   -0.351325
    14  N   -0.241124
    15  Cl  -0.914537
 Sum of Mulliken charges =  -1.00000

 Dipole moment (field-independent basis, Debye):
    X=             -2.1349    Y=             -0.6651    Z=              4.9472  Tot=              5.4291

 Test job not archived.
 1\1\GINC-SE342\SP\RHF\Aug-CC-pVDZ\C4H5Cl1F1N4(1-)\OHZDE\09-Apr-2025\0\
 \#t hf aug-cc-pvdz iop(5/13=1,5/36=2,99/5=2) pseudo=read geom=check gu
 ess=(read,tcheck) scf=(maxcycle=1)\\title\\-1,1\C,0,-0.00871,0.007875,
 -0.007477\C,0,-0.468758,0.046308,-1.48068\F,0,1.378243,0.023024,0.0278
 3\H,0,-1.571989,0.034489,-1.442097\N,0,-0.447455,1.227476,0.610539\H,0
 ,-0.105061,1.23868,1.565898\H,0,-1.468346,1.188876,0.642598\N,0,-0.417
 394,-1.25666,0.53682\H,0,-0.066771,-1.319644,1.487181\H,0,-1.438605,-1
 .242014,0.577913\C,0,0.010533,-1.124024,-2.219708\N,0,0.392901,-2.0296

 Normal termination of Gaussian 16 at Wed Apr  9 02:57:58 2025.
