 Gaussian 16, Revision C.01,

 ----------------------------------------------------------------------
 #t hf aug-cc-pvdz symm=none int=(grid=ultrafine) guess=(read,tcheck) s
 table=(opt,rrhf)
 ----------------------------------------------------------------------
 -----
 title
 -----
 Symbolic Z-matrix:
 Charge = -1 Multiplicity = 1

 SCF Done:  E(RHF) =  -403.470391631     A.U. after   16 cycles
 Normal termination of Gaussian 16 at Wed Apr  9 02:49:12 2025.
 Gaussian 16:  ES64L-G16RevC.01  3-Jul-2019

 ----------------------------------------------------------------------
 #t hf aug-cc-pvdz iop(5/13=1,5/36=2,99/5=2) pseudo=read geom=check gue
 ss=(read,tcheck) scf=(maxcycle=1)
 ----------------------------------------------------------------------
 -----
 title
 -----
 Structure from the checkpoint file:  "E2SN2_314_mol2.chk"
 Charge = -1 Multiplicity = 1

                         Standard orientation:
 ---------------------------------------------------------------------
 Center     Atomic      Atomic             Coordinates (Angstroms)
 Number     Number       Type             X           Y           Z
 ---------------------------------------------------------------------
      1          6           0       -0.299311   -0.411511    0.163433
      2          6           0        0.855914    0.348053   -0.489659
      3          9           0       -0.235669   -0.160756    1.582791
      4          1           0        0.729995    0.189881   -1.568749
      5          6           0       -1.607919    0.208890   -0.201721
      6          7           0       -2.649314    0.656157   -0.515115
      7          7           0       -0.222774   -1.774662   -0.106560
      8          1           0        0.198383   -1.987472   -1.102694
      9          1           0       -1.122242   -2.231967   -0.014297
     10          6           0        2.184573   -0.286454   -0.087175
     11          1           0        2.260226   -0.360718    1.000727
     12          1           0        2.268451   -1.279536   -0.527584
     13          1           0        3.012102    0.329631   -0.456366
     14          6           0        0.816078    1.835809   -0.154021
     15          1           0       -0.126474    2.299873   -0.457920
     16          1           0        0.941539    1.990004    0.920513
     17          1           0        1.627645    2.355554   -0.672419
     18          1           0        0.740006   -2.197641   -2.399758
 ---------------------------------------------------------------------

 SCF Done:  E(RHF) =  -403.596908026     A.U. after    2 cycles

 The electronic state is 1-A.
 Alpha  occ. eigenvalues --  -25.97743 -15.52929 -15.46142 -11.26337 -11.17594
 Alpha  occ. eigenvalues --  -11.12322 -11.11585 -11.09688  -1.50533  -1.07809
 Alpha  occ. eigenvalues --   -1.04054  -0.94327  -0.82143  -0.80650  -0.69290
 Alpha  occ. eigenvalues --   -0.65307  -0.60540  -0.57840  -0.53600  -0.49894
 Alpha  occ. eigenvalues --   -0.48952  -0.46194  -0.43951  -0.43035  -0.42073
 Alpha  occ. eigenvalues --   -0.37647  -0.36779  -0.36425  -0.35077  -0.33740
 Alpha  occ. eigenvalues --   -0.26761  -0.10114
 Alpha virt. eigenvalues --    0.12000   0.13489   0.13948   0.14936   0.15627
 Alpha virt. eigenvalues --    0.16101   0.17672   0.18306   0.19483   0.20534
 Alpha virt. eigenvalues --    0.21694   0.23037   0.23223   0.23766   0.24491

 Mulliken charges:
               1
     1  C    1.484052
     2  C   -1.514535
     3  F   -0.516261
     4  H   -0.140529
     5  C   -0.496197
     6  N   -0.232640
     7  N   -0.427139
     8  H    0.022126
     9  H   -0.023593
    10  C    0.974378
    11  H   -0.007502
    12  H    0.044874
    13  H   -0.070269
    14  C    0.661715
    15  H   -0.085256
    16  H    0.036590
    17  H   -0.032874
    18  H   -0.676938
 Sum of Mulliken charges =  -1.00000

 Dipole moment (field-independent basis, Debye):
    X=              0.5118    Y=              6.5298    Z=              6.3135  Tot=              9.0972

 Test job not archived.
 1\1\GINC-SE366\SP\RHF\Aug-CC-pVDZ\C5H10F1N2(1-)\OHZDE\09-Apr-2025\0\\#
 t hf aug-cc-pvdz iop(5/13=1,5/36=2,99/5=2) pseudo=read geom=check gues
 s=(read,tcheck) scf=(maxcycle=1)\\title\\-1,1\C,0,0.014826,0.121228,0.
 014887\C,0,-0.489784,0.195481,-1.426594\F,0,1.450267,-0.014998,-0.0346
 93\H,0,-1.570648,0.369282,-1.343914\C,0,-0.147149,1.440556,0.695937\N,
 0,-0.308914,2.458524,1.261923\N,0,-0.564432,-0.944404,0.697398\H,0,-1.
 598231,-1.145572,0.372228\H,0,-0.545417,-0.808738,1.701348\C,0,-0.2955
 28,-1.154364,-2.11224\H,0,0.742332,-1.485008,-2.02119\H,0,-0.955594,-1

 Normal termination of Gaussian 16 at Wed Apr  9 02:49:19 2025.
