 Gaussian 16, Revision C.01,

 ----------------------------------------------------------------------
 #t hf aug-cc-pvdz symm=none int=(grid=ultrafine) guess=(read,tcheck) s
 table=(opt,rrhf)
 ----------------------------------------------------------------------
 -----
 title
 -----
 Symbolic Z-matrix:
 Charge = -1 Multiplicity = 1

 SCF Done:  E(RHF) =  -461.049911987     A.U. after   15 cycles
 Normal termination of Gaussian 16 at Wed Apr  9 02:36:35 2025.
 Gaussian 16:  ES64L-G16RevC.01  3-Jul-2019

 ----------------------------------------------------------------------
 #t hf aug-cc-pvdz iop(5/13=1,5/36=2,99/5=2) pseudo=read geom=check gue
 ss=(read,tcheck) scf=(maxcycle=1)
 ----------------------------------------------------------------------
 -----
 title
 -----
 Structure from the checkpoint file:  "E2SN2_177_mol2.chk"
 Charge = -1 Multiplicity = 1

                         Standard orientation:
 ---------------------------------------------------------------------
 Center     Atomic      Atomic             Coordinates (Angstroms)
 Number     Number       Type             X           Y           Z
 ---------------------------------------------------------------------
      1          6           0        0.288627   -0.386367   -0.350454
      2          6           0       -0.629448    0.327720    0.625573
      3          9           0       -0.048998   -1.744155   -0.489702
      4          1           0       -0.246108    1.382488    0.442154
      5          1           0        0.221966    0.100541   -1.318323
      6          1           0       -0.451101   -0.008565    1.650248
      7          6           0        1.680921   -0.327415    0.117001
      8          7           0        2.776906   -0.469262    0.512518
      9          6           0       -2.028194    0.146039    0.282310
     10          7           0       -3.165658    0.024729    0.012596
     11          9           0        0.862894    2.086090   -0.454348
 ---------------------------------------------------------------------

 SCF Done:  E(RHF) =  -461.191001738     A.U. after    2 cycles

 The electronic state is 1-A.
 Alpha  occ. eigenvalues --  -26.00446 -25.76394 -15.52133 -15.51760 -11.24828
 Alpha  occ. eigenvalues --  -11.17826 -11.17255 -11.14391  -1.53521  -1.25497
 Alpha  occ. eigenvalues --   -1.06530  -1.05644  -0.96435  -0.82626  -0.67293
 Alpha  occ. eigenvalues --   -0.64707  -0.62460  -0.55462  -0.53311  -0.47150
 Alpha  occ. eigenvalues --   -0.45111  -0.43175  -0.41863  -0.36959  -0.36185
 Alpha  occ. eigenvalues --   -0.35366  -0.34272  -0.32463  -0.32228  -0.29873
 Alpha virt. eigenvalues --    0.13518   0.15296   0.17184   0.17881   0.19370
 Alpha virt. eigenvalues --    0.20796   0.21375   0.23482   0.23831   0.24295
 Alpha virt. eigenvalues --    0.25318   0.26297   0.26670   0.27459   0.28914

 Mulliken charges:
               1
     1  C    0.817754
     2  C    0.340190
     3  F   -0.488170
     4  H    0.265144
     5  H   -0.042564
     6  H   -0.073435
     7  C   -0.159489
     8  N   -0.304154
     9  C   -0.137410
    10  N   -0.285433
    11  F   -0.932433
 Sum of Mulliken charges =  -1.00000

 Dipole moment (field-independent basis, Debye):
    X=             -1.7821    Y=             -4.1523    Z=              1.2883  Tot=              4.6986

 Test job not archived.
 1\1\GINC-SE195\SP\RHF\Aug-CC-pVDZ\C4H3F2N2(1-)\OHZDE\09-Apr-2025\0\\#t
  hf aug-cc-pvdz iop(5/13=1,5/36=2,99/5=2) pseudo=read geom=check guess
 =(read,tcheck) scf=(maxcycle=1)\\title\\-1,1\C,0,-0.044616,0.010958,0.
 022743\C,0,-0.543143,0.2858,-1.384859\F,0,1.356768,0.088651,0.10675\H,
 0,-1.654637,0.304786,-1.145382\H,0,-0.484947,0.735319,0.700757\H,0,-0.
 276295,-0.529614,-2.062166\C,0,-0.434396,-1.339999,0.451061\N,0,-0.558
 671,-2.457025,0.78951\C,0,-0.034782,1.543599,-1.901425\N,0,0.352743,2.
 56605,-2.332358\F,0,-2.58052,0.113884,0.133272\\Version=ES64L-G16RevC.

 Normal termination of Gaussian 16 at Wed Apr  9 02:36:42 2025.
