 Gaussian 16, Revision C.01,

 ----------------------------------------------------------------------
 #t hf aug-cc-pvdz symm=none int=(grid=ultrafine) guess=(read,tcheck) s
 table=(opt,rrhf)
 ----------------------------------------------------------------------
 -----
 title
 -----
 Symbolic Z-matrix:
 Charge = -1 Multiplicity = 1

 SCF Done:  E(RHF) =  -1099.74366570     A.U. after   15 cycles
 Normal termination of Gaussian 16 at Wed Apr  9 02:40:43 2025.
 Gaussian 16:  ES64L-G16RevC.01  3-Jul-2019

 ----------------------------------------------------------------------
 #t hf aug-cc-pvdz iop(5/13=1,5/36=2,99/5=2) pseudo=read geom=check gue
 ss=(read,tcheck) scf=(maxcycle=1)
 ----------------------------------------------------------------------
 -----
 title
 -----
 Structure from the checkpoint file:  "E2SN2_214_mol2.chk"
 Charge = -1 Multiplicity = 1

                         Standard orientation:
 ---------------------------------------------------------------------
 Center     Atomic      Atomic             Coordinates (Angstroms)
 Number     Number       Type             X           Y           Z
 ---------------------------------------------------------------------
      1          6           0        0.041045   -0.584102    0.559584
      2          6           0        0.158781    0.765662   -0.148763
      3          9           0       -0.403873   -0.390754    1.831293
      4          1           0        0.831022    1.353927    0.473597
      5          1           0        1.029351   -1.049038    0.555475
      6          7           0       -0.918435   -1.526936   -0.118317
      7          8           0       -0.576040   -1.905257   -1.237052
      8          8           0       -1.934814   -1.862150    0.474161
      9          7           0       -1.187751    1.441966   -0.084401
     10          8           0       -1.291279    2.474972    0.571276
     11          8           0       -2.092538    0.908169   -0.725332
     12          7           0        0.618744    0.783671   -1.495898
     13          1           0        1.630520    0.665674   -1.436005
     14          1           0        0.232857    0.000156   -2.007526
     15         17           0        3.310683   -0.021180    0.158458
 ---------------------------------------------------------------------

 SCF Done:  E(RHF) =  -1099.95413737     A.U. after    2 cycles

 The electronic state is 1-A.
 Alpha  occ. eigenvalues -- -103.39903 -26.05624 -20.53762 -20.53095 -20.52785
 Alpha  occ. eigenvalues --  -20.52356 -15.82830 -15.81274 -15.51833 -11.30709
 Alpha  occ. eigenvalues --  -11.25346 -10.43001  -8.08599  -8.08576  -8.08563
 Alpha  occ. eigenvalues --   -1.59831  -1.45841  -1.44653  -1.27808  -1.26626
 Alpha  occ. eigenvalues --   -1.11185  -0.99597  -0.92066  -0.85402  -0.80956
 Alpha  occ. eigenvalues --   -0.74887  -0.72139  -0.70693  -0.69290  -0.65899
 Alpha  occ. eigenvalues --   -0.64264  -0.63917  -0.62548  -0.61781  -0.58488
 Alpha  occ. eigenvalues --   -0.54343  -0.50597  -0.47831  -0.43423  -0.42671
 Alpha  occ. eigenvalues --   -0.41977  -0.40653  -0.38884  -0.37532  -0.32138
 Alpha  occ. eigenvalues --   -0.23458  -0.23196  -0.23030
 Alpha virt. eigenvalues --    0.14144   0.15136   0.15325   0.16330   0.17726
 Alpha virt. eigenvalues --    0.17918   0.20395   0.21141   0.21935   0.22692
 Alpha virt. eigenvalues --    0.23275   0.24706   0.26137   0.26439   0.27354

 Mulliken charges:
               1
     1  C    1.168498
     2  C    1.257782
     3  F   -0.316952
     4  H   -0.116772
     5  H   -0.158460
     6  N    0.541251
     7  O   -0.665224
     8  O   -0.596668
     9  N    0.206783
    10  O   -0.591250
    11  O   -0.596281
    12  N   -0.372760
    13  H    0.109236
    14  H    0.054669
    15  Cl  -0.923852
 Sum of Mulliken charges =  -1.00000

 Dipole moment (field-independent basis, Debye):
    X=             -5.6655    Y=             -0.7169    Z=             -0.4196  Tot=              5.7260

 Test job not archived.
 1\1\GINC-SE365\SP\RHF\Aug-CC-pVDZ\C2H4Cl1F1N3O4(1-)\OHZDE\09-Apr-2025\
 0\\#t hf aug-cc-pvdz iop(5/13=1,5/36=2,99/5=2) pseudo=read geom=check
 guess=(read,tcheck) scf=(maxcycle=1)\\title\\-1,1\C,0,-0.259556,0.0073
 98,0.09459\C,0,-0.644323,0.064984,-1.383963\F,0,0.590456,-1.035423,0.3
 00948\H,0,-1.075271,-0.910694,-1.602211\H,0,-1.178226,-0.114146,0.6726
 94\N,0,0.430146,1.25701,0.576118\O,0,-0.26683,2.269998,0.579084\O,0,1.
 595583,1.185133,0.940829\N,0,0.626529,0.162946,-2.190201\O,0,0.925191,
 -0.774325,-2.925086\O,0,1.268189,1.205438,-2.064288\N,0,-1.539212,1.08

 Normal termination of Gaussian 16 at Wed Apr  9 02:40:51 2025.
