 Gaussian 16, Revision C.01,

 ----------------------------------------------------------------------
 #t hf aug-cc-pvdz symm=none int=(grid=ultrafine) guess=(read,tcheck) s
 table=(opt,rrhf)
 ----------------------------------------------------------------------
 -----
 title
 -----
 Symbolic Z-matrix:
 Charge = -1 Multiplicity = 1

 SCF Done:  E(RHF) =  -984.623385419     A.U. after   19 cycles
 Normal termination of Gaussian 16 at Wed Apr  9 02:32:41 2025.
 Gaussian 16:  ES64L-G16RevC.01  3-Jul-2019

 ----------------------------------------------------------------------
 #t hf aug-cc-pvdz iop(5/13=1,5/36=2,99/5=2) pseudo=read geom=check gue
 ss=(read,tcheck) scf=(maxcycle=1)
 ----------------------------------------------------------------------
 -----
 title
 -----
 Structure from the checkpoint file:  "E2SN2_127_mol1.chk"
 Charge = -1 Multiplicity = 1

                         Standard orientation:
 ---------------------------------------------------------------------
 Center     Atomic      Atomic             Coordinates (Angstroms)
 Number     Number       Type             X           Y           Z
 ---------------------------------------------------------------------
      1          6           0       -0.035215   -0.016875   -0.208506
      2          6           0        0.465771   -1.171104   -0.945370
      3         17           0        0.577177    1.725306   -1.020164
      4          1           0       -1.543567   -2.502228   -0.683150
      5          1           0       -0.263421   -2.051254   -0.651596
      6          1           0        0.191256   -1.038157   -1.991756
      7          7           0        0.470972    0.000489    1.222814
      8          8           0        0.963671    0.998619    1.725590
      9          8           0        0.301180   -1.078113    1.793248
     10          6           0        1.938162   -1.485400   -0.770724
     11          1           0        2.172744   -1.737157    0.264842
     12          1           0        2.210529   -2.343466   -1.391454
     13          1           0        2.556121   -0.634096   -1.072238
     14          7           0       -1.464761   -0.009805   -0.144177
     15          8           0       -2.017215    0.473511    0.860749
     16          8           0       -2.046568   -0.758815   -1.021429
 ---------------------------------------------------------------------

 SCF Done:  E(RHF) =  -984.797762896     A.U. after    2 cycles

 The electronic state is 1-A.
 Alpha  occ. eigenvalues -- -103.51746 -20.51234 -20.50787 -20.50426 -20.43274
 Alpha  occ. eigenvalues --  -15.80587 -15.71706 -11.30182 -11.13150 -11.12940
 Alpha  occ. eigenvalues --  -10.54916  -8.20596  -8.20353  -8.20343  -1.43470
 Alpha  occ. eigenvalues --   -1.35406  -1.25067  -1.18121  -1.05570  -0.95983
 Alpha  occ. eigenvalues --   -0.90700  -0.83313  -0.76745  -0.69125  -0.64748
 Alpha  occ. eigenvalues --   -0.62698  -0.60727  -0.56965  -0.56806  -0.53796
 Alpha  occ. eigenvalues --   -0.49744  -0.45470  -0.44089  -0.42307  -0.39988
 Alpha  occ. eigenvalues --   -0.39233  -0.38517  -0.37455  -0.35813  -0.34345
 Alpha  occ. eigenvalues --   -0.32833  -0.32626  -0.31532  -0.10893
 Alpha virt. eigenvalues --    0.11759   0.13519   0.14250   0.14868   0.16339
 Alpha virt. eigenvalues --    0.18529   0.18973   0.19580   0.20525   0.21972
 Alpha virt. eigenvalues --    0.22639   0.23256   0.24462   0.25371   0.25950

 Mulliken charges:
               1
     1  C    1.116490
     2  C   -0.237621
     3  Cl  -0.222614
     4  H   -0.161031
     5  H    0.153154
     6  H    0.007316
     7  N    0.381938
     8  O   -0.629892
     9  O   -0.598747
    10  C    0.448771
    11  H    0.011709
    12  H   -0.064863
    13  H   -0.038748
    14  N    0.179521
    15  O   -0.775305
    16  O   -0.570078
 Sum of Mulliken charges =  -1.00000

 Dipole moment (field-independent basis, Debye):
    X=              5.8374    Y=              0.8913    Z=             -1.9423  Tot=              6.2163

 Test job not archived.
 1\1\GINC-SE335\SP\RHF\Aug-CC-pVDZ\C3H6Cl1N2O4(1-)\OHZDE\09-Apr-2025\0\
 \#t hf aug-cc-pvdz iop(5/13=1,5/36=2,99/5=2) pseudo=read geom=check gu
 ess=(read,tcheck) scf=(maxcycle=1)\\title\\-1,1\C,0,-0.09843845,-0.053
 05689,-0.28511575\C,0,-0.20966987,0.00441303,1.16764939\Cl,0,1.8099485
 2,-0.2989994,-0.89057329\H,0,-2.30055149,-1.21703253,1.28754115\H,0,-1
 .33624047,-0.26700205,1.39094466\H,0,0.28249457,-0.88057697,1.57079037
 \N,0,-0.56992779,1.23437026,-0.93736889\O,0,0.09009998,1.81139041,-1.7
 8778708\O,0,-1.67564908,1.59019917,-0.52703505\C,0,0.27424997,1.282508

 Normal termination of Gaussian 16 at Wed Apr  9 02:32:49 2025.
