 Gaussian 16, Revision C.01,

 ----------------------------------------------------------------------
 #t hf aug-cc-pvdz symm=none int=(grid=ultrafine) guess=(read,tcheck) s
 table=(opt,rrhf)
 ----------------------------------------------------------------------
 -----
 title
 -----
 Symbolic Z-matrix:
 Charge = -1 Multiplicity = 1

 SCF Done:  E(RHF) =  -1181.22323953     A.U. after   15 cycles
 Normal termination of Gaussian 16 at Wed Apr  9 02:42:41 2025.
 Gaussian 16:  ES64L-G16RevC.01  3-Jul-2019

 ----------------------------------------------------------------------
 #t hf aug-cc-pvdz iop(5/13=1,5/36=2,99/5=2) pseudo=read geom=check gue
 ss=(read,tcheck) scf=(maxcycle=1)
 ----------------------------------------------------------------------
 -----
 title
 -----
 Structure from the checkpoint file:  "E2SN2_252_mol2.chk"
 Charge = -1 Multiplicity = 1

                         Standard orientation:
 ---------------------------------------------------------------------
 Center     Atomic      Atomic             Coordinates (Angstroms)
 Number     Number       Type             X           Y           Z
 ---------------------------------------------------------------------
      1          6           0        0.303988   -0.465787   -0.124425
      2          6           0        0.219268    0.596565    0.972827
      3         17           0        1.981435   -0.625583   -0.759813
      4          1           0       -0.850849    0.715474    1.177785
      5          1           0       -0.360208   -0.182202   -0.942209
      6          1           0        0.753763    0.265137    1.867283
      7          6           0       -0.106476   -1.760854    0.409379
      8          7           0       -0.364706   -2.812228    0.863541
      9          6           0        0.767300    1.881349    0.548512
     10          7           0        1.242266    2.913882    0.256778
     11         17           0       -2.733794    0.448076   -0.462708
 ---------------------------------------------------------------------

 SCF Done:  E(RHF) =  -1181.32969221     A.U. after    2 cycles

 The electronic state is 1-A.
 Alpha  occ. eigenvalues -- -103.57404-103.38344 -15.55107 -15.54341 -11.25419
 Alpha  occ. eigenvalues --  -11.20238 -11.19718 -11.19562 -10.60719 -10.41423
 Alpha  occ. eigenvalues --   -8.26439  -8.26141  -8.26130  -8.07020  -8.06996
 Alpha  occ. eigenvalues --   -8.06983  -1.11660  -1.08301  -1.07040  -0.96681
 Alpha  occ. eigenvalues --   -0.84160  -0.83492  -0.63631  -0.58767  -0.56961
 Alpha  occ. eigenvalues --   -0.50970  -0.47552  -0.45645  -0.44530  -0.38390
 Alpha  occ. eigenvalues --   -0.38071  -0.36945  -0.35555  -0.35099  -0.34382
 Alpha  occ. eigenvalues --   -0.21858  -0.21520  -0.21410
 Alpha virt. eigenvalues --    0.12379   0.14851   0.16835   0.17088   0.17862
 Alpha virt. eigenvalues --    0.18742   0.20183   0.22189   0.22723   0.23418
 Alpha virt. eigenvalues --    0.23839   0.24982   0.25341   0.25828   0.26141

 Mulliken charges:
               1
     1  C    0.332558
     2  C    0.550690
     3  Cl  -0.109883
     4  H    0.070649
     5  H   -0.031221
     6  H   -0.011686
     7  C   -0.218165
     8  N   -0.211093
     9  C   -0.173315
    10  N   -0.269942
    11  Cl  -0.928591
 Sum of Mulliken charges =  -1.00000

 Dipole moment (field-independent basis, Debye):
    X=              8.0875    Y=             -1.6602    Z=              1.9856  Tot=              8.4916

 Test job not archived.
 1\1\GINC-SE453\SP\RHF\Aug-CC-pVDZ\C4H3Cl2N2(1-)\OHZDE\09-Apr-2025\0\\#
 t hf aug-cc-pvdz iop(5/13=1,5/36=2,99/5=2) pseudo=read geom=check gues
 s=(read,tcheck) scf=(maxcycle=1)\\title\\-1,1\C,0,-0.111461,0.045467,0
 .013928\C,0,-0.516402,-0.088571,-1.455013\Cl,0,1.627729,-0.353074,0.25
 7779\H,0,-1.60624,0.02732,-1.465965\H,0,-0.719245,-0.635942,0.611112\H
 ,0,-0.035049,0.687649,-2.056147\C,0,-0.332329,1.41636,0.46392\N,0,-0.4
 4081,2.53666,0.797826\C,0,-0.171828,-1.393404,-2.011549\N,0,0.133186,-
 2.413864,-2.503945\Cl,0,-3.207481,-0.648246,0.347274\\Version=ES64L-G1

 Normal termination of Gaussian 16 at Wed Apr  9 02:42:46 2025.
