 Gaussian 16, Revision C.01,

 ----------------------------------------------------------------------
 #t hf aug-cc-pvdz symm=none int=(grid=ultrafine) guess=(read,tcheck) s
 table=(opt,rrhf)
 ----------------------------------------------------------------------
 -----
 title
 -----
 Symbolic Z-matrix:
 Charge = -1 Multiplicity = 1

 SCF Done:  E(RHF) =  -1238.60678914     A.U. after   15 cycles
 Normal termination of Gaussian 16 at Wed Apr  9 02:59:03 2025.
 Gaussian 16:  ES64L-G16RevC.01  3-Jul-2019

 ----------------------------------------------------------------------
 #t hf aug-cc-pvdz iop(5/13=1,5/36=2,99/5=2) pseudo=read geom=check gue
 ss=(read,tcheck) scf=(maxcycle=1)
 ----------------------------------------------------------------------
 -----
 title
 -----
 Structure from the checkpoint file:  "E2SN2_58_mol2.chk"
 Charge = -1 Multiplicity = 1

                         Standard orientation:
 ---------------------------------------------------------------------
 Center     Atomic      Atomic             Coordinates (Angstroms)
 Number     Number       Type             X           Y           Z
 ---------------------------------------------------------------------
      1          6           0        1.184334    0.002370    0.332468
      2          6           0       -0.334010    0.045023    0.073616
      3         17           0        1.841656   -1.600904   -0.202949
      4          1           0       -0.786338   -0.732990    0.708282
      5          6           0        1.862744    1.032680   -0.456044
      6          7           0        2.428846    1.890760   -1.024588
      7          6           0        1.506872    0.166384    1.810317
      8          1           0        1.109687    1.124226    2.142202
      9          1           0        2.584085    0.114124    1.978457
     10          1           0        1.016242   -0.633459    2.368618
     11          7           0       -0.622482   -0.133459   -1.340283
     12          1           0       -1.642074   -0.109018   -1.390308
     13          1           0       -0.349089   -1.067899   -1.626994
     14          7           0       -0.823540    1.321610    0.551196
     15          1           0       -0.719416    1.979011   -0.217924
     16          1           0       -1.827724    1.188776    0.682072
     17         17           0       -3.699584   -0.216384    0.055254
 ---------------------------------------------------------------------

 SCF Done:  E(RHF) =  -1238.73027816     A.U. after    2 cycles

 The electronic state is 1-A.
 Alpha  occ. eigenvalues -- -103.56977-103.38004 -15.55011 -15.48329 -15.48157
 Alpha  occ. eigenvalues --  -11.25060 -11.20109 -11.19351 -11.15495 -10.60305
 Alpha  occ. eigenvalues --  -10.41080  -8.26018  -8.25738  -8.25734  -8.06674
 Alpha  occ. eigenvalues --   -8.06653  -8.06643  -1.12924  -1.07892  -1.06269
 Alpha  occ. eigenvalues --   -0.97498  -0.93750  -0.83308  -0.81417  -0.73669
 Alpha  occ. eigenvalues --   -0.58504  -0.57503  -0.54366  -0.53547  -0.48709
 Alpha  occ. eigenvalues --   -0.46915  -0.46022  -0.44476  -0.43368  -0.42491
 Alpha  occ. eigenvalues --   -0.37724  -0.37353  -0.35352  -0.35090  -0.29376
 Alpha  occ. eigenvalues --   -0.28175  -0.21274  -0.21144  -0.21039
 Alpha virt. eigenvalues --    0.11283   0.13606   0.13743   0.14260   0.16017
 Alpha virt. eigenvalues --    0.16729   0.17722   0.17889   0.18826   0.19989
 Alpha virt. eigenvalues --    0.21049   0.22023   0.23557   0.23701   0.24777

 Mulliken charges:
               1
     1  C   -0.683916
     2  C    1.194782
     3  Cl  -0.217761
     4  H   -0.208972
     5  C   -0.339483
     6  N   -0.289231
     7  C    1.018127
     8  H    0.095152
     9  H   -0.040678
    10  H    0.003480
    11  N   -0.369866
    12  H    0.048469
    13  H    0.013806
    14  N   -0.465977
    15  H    0.083152
    16  H    0.105478
    17  Cl  -0.946560
 Sum of Mulliken charges =  -1.00000

 Dipole moment (field-independent basis, Debye):
    X=             10.0004    Y=             -1.4937    Z=              2.0573  Tot=             10.3185

 Test job not archived.
 1\1\GINC-SE080\SP\RHF\Aug-CC-pVDZ\C4H8Cl2N3(1-)\OHZDE\09-Apr-2025\0\\#
 t hf aug-cc-pvdz iop(5/13=1,5/36=2,99/5=2) pseudo=read geom=check gues
 s=(read,tcheck) scf=(maxcycle=1)\\title\\-1,1\C,0,-0.522203,0.069401,-
 1.584398\C,0,0.210179,-0.020291,-0.231711\Cl,0,-0.290287,-1.479693,-2.
 498595\H,0,1.283341,-0.120225,-0.457637\C,0,-1.961378,0.234736,-1.3723
 39\N,0,-3.111127,0.433648,-1.23622\C,0,0.021517,1.201419,-2.443393\H,0
 ,-0.107628,2.135414,-1.899022\H,0,-0.494123,1.23848,-3.404711\H,0,1.08
 713,1.034248,-2.612773\N,0,-0.309546,-1.119598,0.56553\H,0,0.254194,-1

 Normal termination of Gaussian 16 at Wed Apr  9 02:59:12 2025.
