 Gaussian 16, Revision C.01,

 ----------------------------------------------------------------------
 #t hf aug-cc-pvdz symm=none int=(grid=ultrafine) guess=(read,tcheck) s
 table=(opt,rrhf)
 ----------------------------------------------------------------------
 -----
 title
 -----
 Symbolic Z-matrix:
 Charge = -1 Multiplicity = 1

 SCF Done:  E(RHF) =  -876.157682753     A.U. after   16 cycles
 Normal termination of Gaussian 16 at Wed Apr  9 02:55:12 2025.
 Gaussian 16:  ES64L-G16RevC.01  3-Jul-2019

 ----------------------------------------------------------------------
 #t hf aug-cc-pvdz iop(5/13=1,5/36=2,99/5=2) pseudo=read geom=check gue
 ss=(read,tcheck) scf=(maxcycle=1)
 ----------------------------------------------------------------------
 -----
 title
 -----
 Structure from the checkpoint file:  "E2SN2_385_mol2.chk"
 Charge = -1 Multiplicity = 1

                         Standard orientation:
 ---------------------------------------------------------------------
 Center     Atomic      Atomic             Coordinates (Angstroms)
 Number     Number       Type             X           Y           Z
 ---------------------------------------------------------------------
      1          6           0       -0.320023   -0.202233    0.142629
      2          6           0        0.594371    0.531990   -0.838712
      3         17           0        0.160050   -1.975972    0.246482
      4          1           0        0.457309    0.152637   -1.854071
      5          1           0        0.235168    1.585076   -0.734846
      6          7           0       -0.225194    0.417287    1.411809
      7          1           0       -0.940246    0.045752    2.027828
      8          1           0       -0.430225    1.443888    1.176305
      9          6           0       -1.685085   -0.237775   -0.431689
     10          7           0       -2.788014   -0.278224   -0.836305
     11          6           0        1.997848    0.428574   -0.466257
     12          7           0        3.147127    0.368377   -0.233172
     13          9           0       -0.722549    2.632084    0.262493
 ---------------------------------------------------------------------

 SCF Done:  E(RHF) =  -876.295801407     A.U. after    2 cycles

 The electronic state is 1-A.
 Alpha  occ. eigenvalues -- -103.54706 -25.78617 -15.53600 -15.52105 -15.48456
 Alpha  occ. eigenvalues --  -11.27428 -11.18578 -11.17777 -11.16107 -10.58050
 Alpha  occ. eigenvalues --   -8.23754  -8.23476  -8.23471  -1.28068  -1.12325
 Alpha  occ. eigenvalues --   -1.06400  -1.05626  -1.00601  -0.91965  -0.78707
 Alpha  occ. eigenvalues --   -0.61190  -0.59430  -0.54908  -0.51744  -0.46840
 Alpha  occ. eigenvalues --   -0.45031  -0.44214  -0.42789  -0.38996  -0.37813
 Alpha  occ. eigenvalues --   -0.37490  -0.36015  -0.35650  -0.34424  -0.33515
 Alpha  occ. eigenvalues --   -0.33010  -0.31428  -0.28248
 Alpha virt. eigenvalues --    0.13324   0.13931   0.17094   0.17531   0.17824
 Alpha virt. eigenvalues --    0.19125   0.19349   0.21053   0.22243   0.23657
 Alpha virt. eigenvalues --    0.24196   0.24876   0.25194   0.25880   0.26532

 Mulliken charges:
               1
     1  C    0.511301
     2  C    0.778165
     3  Cl  -0.217184
     4  H   -0.071968
     5  H    0.084433
     6  N   -0.627603
     7  H   -0.007445
     8  H    0.246075
     9  C   -0.076681
    10  N   -0.287822
    11  C   -0.094568
    12  N   -0.312996
    13  F   -0.923706
 Sum of Mulliken charges =  -1.00000

 Dipole moment (field-independent basis, Debye):
    X=              0.1201    Y=             -5.6320    Z=             -0.6750  Tot=              5.6736

 Test job not archived.
 1\1\GINC-SE208\SP\RHF\Aug-CC-pVDZ\C4H4Cl1F1N3(1-)\OHZDE\09-Apr-2025\0\
 \#t hf aug-cc-pvdz iop(5/13=1,5/36=2,99/5=2) pseudo=read geom=check gu
 ess=(read,tcheck) scf=(maxcycle=1)\\title\\-1,1\C,0,0.002361,-0.025043
 ,0.003892\C,0,-0.527458,-0.066077,-1.429928\Cl,0,1.839909,0.078619,-0.
 004868\H,0,-0.205375,-0.97916,-1.936081\H,0,-1.632048,-0.050079,-1.261
 317\N,0,-0.558897,1.090531,0.670301\H,0,-0.344718,1.040519,1.660474\H,
 0,-1.609278,0.944684,0.50648\C,0,-0.275557,-1.333857,0.639712\N,0,-0.4
 87652,-2.348389,1.194277\C,0,-0.108996,1.093008,-2.204896\N,0,0.208568

 Normal termination of Gaussian 16 at Wed Apr  9 02:55:18 2025.
