 Gaussian 16, Revision C.01,

 ----------------------------------------------------------------------
 #t hf aug-cc-pvdz symm=none int=(grid=ultrafine) guess=(read,tcheck) s
 table=(opt,rrhf)
 ----------------------------------------------------------------------
 -----
 title
 -----
 Symbolic Z-matrix:
 Charge = -1 Multiplicity = 1

 SCF Done:  E(RHF) =  -1220.26724128     A.U. after   15 cycles
 Normal termination of Gaussian 16 at Wed Apr  9 02:51:25 2025.
 Gaussian 16:  ES64L-G16RevC.01  3-Jul-2019

 ----------------------------------------------------------------------
 #t hf aug-cc-pvdz iop(5/13=1,5/36=2,99/5=2) pseudo=read geom=check gue
 ss=(read,tcheck) scf=(maxcycle=1)
 ----------------------------------------------------------------------
 -----
 title
 -----
 Structure from the checkpoint file:  "E2SN2_325_mol2.chk"
 Charge = -1 Multiplicity = 1

                         Standard orientation:
 ---------------------------------------------------------------------
 Center     Atomic      Atomic             Coordinates (Angstroms)
 Number     Number       Type             X           Y           Z
 ---------------------------------------------------------------------
      1          6           0        0.314671   -0.786117   -0.433658
      2          6           0       -0.002939    0.549929    0.251004
      3         17           0        2.066808   -0.883898   -0.841760
      4          1           0       -1.120181    0.539235    0.324436
      5          1           0       -0.229098   -0.785139   -1.378717
      6          6           0       -0.097975   -1.966351    0.418044
      7          1           0       -1.168112   -1.874595    0.616629
      8          1           0        0.087615   -2.897169   -0.120945
      9          1           0        0.463359   -1.986434    1.354746
     10          6           0        0.386065    1.700852   -0.562202
     11          7           0        0.689721    2.625642   -1.218959
     12          6           0        0.594635    0.646342    1.581432
     13          7           0        1.055971    0.705557    2.659982
     14         17           0       -3.091524   -0.126821   -0.241242
 ---------------------------------------------------------------------

 SCF Done:  E(RHF) =  -1220.38517620     A.U. after    2 cycles

 The electronic state is 1-A.
 Alpha  occ. eigenvalues -- -103.55711-103.39486 -15.55457 -15.54998 -11.22900
 Alpha  occ. eigenvalues --  -11.21963 -11.20792 -11.20331 -11.13740 -10.59072
 Alpha  occ. eigenvalues --  -10.42599  -8.24786  -8.24514  -8.24502  -8.08203
 Alpha  occ. eigenvalues --   -8.08161  -8.08155  -1.11382  -1.08375  -1.07596
 Alpha  occ. eigenvalues --   -0.98202  -0.89598  -0.85011  -0.74468  -0.66805
 Alpha  occ. eigenvalues --   -0.59245  -0.56093  -0.50860  -0.47382  -0.46322
 Alpha  occ. eigenvalues --   -0.44903  -0.43940  -0.41994  -0.37938  -0.37665
 Alpha  occ. eigenvalues --   -0.35957  -0.35794  -0.35270  -0.34592  -0.22774
 Alpha  occ. eigenvalues --   -0.22664  -0.22626
 Alpha virt. eigenvalues --    0.12182   0.14241   0.15095   0.15989   0.16640
 Alpha virt. eigenvalues --    0.17629   0.18794   0.18953   0.21826   0.22301
 Alpha virt. eigenvalues --    0.22619   0.23721   0.24040   0.24878   0.25179

 Mulliken charges:
               1
     1  C   -0.543242
     2  C    1.309142
     3  Cl  -0.195872
     4  H    0.024809
     5  H   -0.108993
     6  C    0.749217
     7  H    0.046571
     8  H   -0.048300
     9  H   -0.050817
    10  C   -0.420535
    11  N   -0.230213
    12  C   -0.356582
    13  N   -0.265439
    14  Cl  -0.909748
 Sum of Mulliken charges =  -1.00000

 Dipole moment (field-independent basis, Debye):
    X=              6.8037    Y=             -3.3695    Z=             -0.1257  Tot=              7.5934

 Test job not archived.
 1\1\GINC-SE106\SP\RHF\Aug-CC-pVDZ\C5H5Cl2N2(1-)\OHZDE\09-Apr-2025\0\\#
 t hf aug-cc-pvdz iop(5/13=1,5/36=2,99/5=2) pseudo=read geom=check gues
 s=(read,tcheck) scf=(maxcycle=1)\\title\\-1,1\C,0,-0.049007,0.013876,0
 .023296\C,0,-0.614387,0.318039,-1.370435\Cl,0,1.74234,-0.164885,-0.048
 895\H,0,-1.721793,0.269448,-1.212234\H,0,-0.450824,-0.9572,0.313773\C,
 0,-0.435822,1.074245,1.030578\H,0,-1.526545,1.12685,1.05514\H,0,-0.068
 293,0.798655,2.020703\H,0,-0.013319,2.043776,0.757795\C,0,-0.252785,-0
 .700732,-2.354612\N,0,0.029472,-1.523519,-3.143361\C,0,-0.225291,1.643

 Normal termination of Gaussian 16 at Wed Apr  9 02:51:32 2025.
