 Gaussian 16, Revision C.01,

 ----------------------------------------------------------------------
 #t hf aug-cc-pvdz symm=none int=(grid=ultrafine) guess=(read,tcheck) s
 table=(opt,rrhf)
 ----------------------------------------------------------------------
 -----
 title
 -----
 Symbolic Z-matrix:
 Charge = -1 Multiplicity = 1

 SCF Done:  E(RHF) =  -627.885437501     A.U. after   16 cycles
 Normal termination of Gaussian 16 at Wed Apr  9 02:54:22 2025.
 Gaussian 16:  ES64L-G16RevC.01  3-Jul-2019

 ----------------------------------------------------------------------
 #t hf aug-cc-pvdz iop(5/13=1,5/36=2,99/5=2) pseudo=read geom=check gue
 ss=(read,tcheck) scf=(maxcycle=1)
 ----------------------------------------------------------------------
 -----
 title
 -----
 Structure from the checkpoint file:  "E2SN2_376_mol2.chk"
 Charge = -1 Multiplicity = 1

                         Standard orientation:
 ---------------------------------------------------------------------
 Center     Atomic      Atomic             Coordinates (Angstroms)
 Number     Number       Type             X           Y           Z
 ---------------------------------------------------------------------
      1          6           0        0.094001   -0.257748   -0.359267
      2          6           0       -0.897618   -0.002647    0.756315
      3          9           0       -0.001877   -1.563067   -0.843584
      4          1           0       -0.795888    1.090011    0.947595
      5          1           0       -0.637443   -0.593699    1.633533
      6          7           0        0.011229    0.681016   -1.350781
      7          1           0       -0.051261    1.629962   -0.842055
      8          1           0        0.807824    0.614429   -1.971244
      9          7           0        1.541707   -0.347712    0.291412
     10          8           0        2.478370   -0.039647   -0.440747
     11          8           0        1.660648   -0.773680    1.437679
     12          6           0       -2.248662   -0.333959    0.328180
     13          7           0       -3.352258   -0.611740    0.039345
     14          9           0       -0.167728    2.594298    0.293086
 ---------------------------------------------------------------------

 SCF Done:  E(RHF) =  -628.078246655     A.U. after    2 cycles

 The electronic state is 1-A.
 Alpha  occ. eigenvalues --  -26.02244 -25.79012 -20.50878 -20.50845 -15.78919
 Alpha  occ. eigenvalues --  -15.52303 -15.48161 -11.31642 -11.18064 -11.15597
 Alpha  occ. eigenvalues --   -1.56009  -1.42482  -1.28480  -1.24696  -1.09349
 Alpha  occ. eigenvalues --   -1.06113  -0.93359  -0.86389  -0.74364  -0.69074
 Alpha  occ. eigenvalues --   -0.66061  -0.64316  -0.62032  -0.60429  -0.57644
 Alpha  occ. eigenvalues --   -0.55697  -0.51919  -0.49457  -0.46121  -0.43200
 Alpha  occ. eigenvalues --   -0.41901  -0.39607  -0.38229  -0.37848  -0.36265
 Alpha  occ. eigenvalues --   -0.36054  -0.33376  -0.32313  -0.29169
 Alpha virt. eigenvalues --    0.13668   0.14075   0.17181   0.18004   0.18919
 Alpha virt. eigenvalues --    0.19400   0.19467   0.21703   0.22967   0.24075
 Alpha virt. eigenvalues --    0.25016   0.25747   0.26157   0.26820   0.27786

 Mulliken charges:
               1
     1  C    1.232670
     2  C    0.486493
     3  F   -0.430768
     4  H    0.051345
     5  H    0.069034
     6  N   -0.530925
     7  H    0.249103
     8  H    0.049149
     9  N    0.426353
    10  O   -0.632035
    11  O   -0.628496
    12  C   -0.124486
    13  N   -0.301012
    14  F   -0.916425
 Sum of Mulliken charges =  -1.00000

 Dipole moment (field-independent basis, Debye):
    X=              2.0378    Y=             -4.4784    Z=             -0.2375  Tot=              4.9260

 Test job not archived.
 1\1\GINC-SE073\SP\RHF\Aug-CC-pVDZ\C3H4F2N3O2(1-)\OHZDE\09-Apr-2025\0\\
 #t hf aug-cc-pvdz iop(5/13=1,5/36=2,99/5=2) pseudo=read geom=check gue
 ss=(read,tcheck) scf=(maxcycle=1)\\title\\-1,1\C,0,-0.020222,-0.008287
 ,0.014872\C,0,-0.576718,-0.016476,-1.393373\F,0,1.371049,0.101139,0.01
 7057\H,0,-1.678777,0.022436,-1.235926\H,0,-0.273235,-0.924651,-1.91266
 2\N,0,-0.625155,0.929827,0.805586\H,0,-1.680592,0.836329,0.604302\H,0,
 -0.391285,0.779413,1.778546\N,0,-0.146976,-1.483454,0.593788\O,0,-0.24
 0509,-1.573647,1.815023\O,0,-0.078157,-2.439374,-0.174981\C,0,-0.11409

 Normal termination of Gaussian 16 at Wed Apr  9 02:54:28 2025.
