 Gaussian 16, Revision C.01,

 ----------------------------------------------------------------------
 #t hf aug-cc-pvdz symm=none int=(grid=ultrafine) guess=(read,tcheck) s
 table=(opt,rrhf)
 ----------------------------------------------------------------------
 -----
 title
 -----
 Symbolic Z-matrix:
 Charge = -1 Multiplicity = 1

 SCF Done:  E(RHF) =  -832.214722677     A.U. after   17 cycles
 Normal termination of Gaussian 16 at Wed Apr  9 02:34:03 2025.
 Gaussian 16:  ES64L-G16RevC.01  3-Jul-2019

 ----------------------------------------------------------------------
 #t hf aug-cc-pvdz iop(5/13=1,5/36=2,99/5=2) pseudo=read geom=check gue
 ss=(read,tcheck) scf=(maxcycle=1)
 ----------------------------------------------------------------------
 -----
 title
 -----
 Structure from the checkpoint file:  "E2SN2_149_mol1.chk"
 Charge = -1 Multiplicity = 1

                         Standard orientation:
 ---------------------------------------------------------------------
 Center     Atomic      Atomic             Coordinates (Angstroms)
 Number     Number       Type             X           Y           Z
 ---------------------------------------------------------------------
      1          6           0        0.570203   -0.080198   -0.281319
      2          6           0       -0.888902   -0.432351   -0.498027
      3         17           0        1.073886   -0.386622    1.484315
      4          1           0       -0.670524   -0.964546   -2.876597
      5          1           0       -0.931321   -0.397600   -1.739297
      6          7           0        1.465314   -0.843897   -1.118178
      7          1           0        0.971343   -0.906892   -2.027254
      8          1           0        1.477289   -1.791030   -0.753466
      9          6           0        0.799931    1.351706   -0.513828
     10          7           0        0.969894    2.494852   -0.726483
     11          7           0       -1.226400   -1.818914   -0.308864
     12          1           0       -0.699307   -2.243273    0.445004
     13          1           0       -1.031352   -2.285010   -1.197705
     14          6           0       -1.805465    0.468347    0.161688
     15          7           0       -2.555492    1.213090    0.682795
 ---------------------------------------------------------------------

 SCF Done:  E(RHF) =  -832.338906928     A.U. after    2 cycles

 The electronic state is 1-A.
 Alpha  occ. eigenvalues -- -103.55270 -15.54244 -15.51533 -15.51117 -15.50234
 Alpha  occ. eigenvalues --  -11.27876 -11.19003 -11.16936 -11.16477 -10.58588
 Alpha  occ. eigenvalues --   -8.24288  -8.24023  -8.24011  -1.13818  -1.06968
 Alpha  occ. eigenvalues --   -1.05632  -1.03113  -1.01422  -0.88270  -0.77396
 Alpha  occ. eigenvalues --   -0.61972  -0.61013  -0.56666  -0.54070  -0.50269
 Alpha  occ. eigenvalues --   -0.47009  -0.44291  -0.41994  -0.41206  -0.37613
 Alpha  occ. eigenvalues --   -0.36111  -0.35707  -0.34251  -0.34145  -0.32241
 Alpha  occ. eigenvalues --   -0.30866  -0.29304  -0.13737
 Alpha virt. eigenvalues --    0.12128   0.14338   0.15423   0.16694   0.17819
 Alpha virt. eigenvalues --    0.18429   0.18790   0.19539   0.20420   0.22308
 Alpha virt. eigenvalues --    0.22789   0.24013   0.24186   0.24494   0.24969

 Mulliken charges:
               1
     1  C    0.781753
     2  C    0.712964
     3  Cl  -0.248222
     4  H   -0.447652
     5  H    0.109747
     6  N   -0.441632
     7  H    0.103204
     8  H    0.064058
     9  C   -0.408193
    10  N   -0.214966
    11  N   -0.269606
    12  H   -0.004351
    13  H    0.070559
    14  C   -0.532125
    15  N   -0.275536
 Sum of Mulliken charges =  -1.00000

 Dipole moment (field-independent basis, Debye):
    X=              3.8370    Y=             -3.4084    Z=              5.0068  Tot=              7.1699

 Test job not archived.
 1\1\GINC-SE340\SP\RHF\Aug-CC-pVDZ\C4H6Cl1N4(1-)\OHZDE\09-Apr-2025\0\\#
 t hf aug-cc-pvdz iop(5/13=1,5/36=2,99/5=2) pseudo=read geom=check gues
 s=(read,tcheck) scf=(maxcycle=1)\\title\\-1,1\C,0,-0.20341856,0.008222
 85,-0.36480911\C,0,-0.10209536,0.06541305,1.14728396\Cl,0,1.47264583,-
 0.24084121,-1.135413\H,0,-2.36590825,-0.75486334,1.58410816\H,0,-1.306
 0775,-0.02039619,1.44193921\N,0,-1.05098851,-1.06265672,-0.8334622\H,0
 ,-1.83754429,-1.07792562,-0.15856126\H,0,-0.54727674,-1.92996167,-0.67
 765795\C,0,-0.69856913,1.28250895,-0.90165868\N,0,-1.11777769,2.300795

 Normal termination of Gaussian 16 at Wed Apr  9 02:34:10 2025.
