 Gaussian 16, Revision C.01,

 ----------------------------------------------------------------------
 #t hf aug-cc-pvdz symm=none int=(grid=ultrafine) guess=(read,tcheck) s
 table=(opt,rrhf)
 ----------------------------------------------------------------------
 -----
 title
 -----
 Symbolic Z-matrix:
 Charge = -1 Multiplicity = 1

 SCF Done:  E(RHF) =  -971.901802894     A.U. after   16 cycles
 Normal termination of Gaussian 16 at Wed Apr  9 02:38:44 2025.
 Gaussian 16:  ES64L-G16RevC.01  3-Jul-2019

 ----------------------------------------------------------------------
 #t hf aug-cc-pvdz iop(5/13=1,5/36=2,99/5=2) pseudo=read geom=check gue
 ss=(read,tcheck) scf=(maxcycle=1)
 ----------------------------------------------------------------------
 -----
 title
 -----
 Structure from the checkpoint file:  "E2SN2_187_mol2.chk"
 Charge = -1 Multiplicity = 1

                         Standard orientation:
 ---------------------------------------------------------------------
 Center     Atomic      Atomic             Coordinates (Angstroms)
 Number     Number       Type             X           Y           Z
 ---------------------------------------------------------------------
      1          6           0       -0.962859    0.285797    0.346497
      2          6           0        0.260949    0.005184   -0.523516
      3         17           0       -2.416715   -0.491777   -0.446677
      4          1           0       -0.060079   -0.263767   -1.540673
      5          1           0       -0.810092   -0.224379    1.287420
      6          6           0       -1.228953    1.756085    0.569111
      7          1           0       -1.327454    2.305996   -0.370134
      8          1           0       -0.368514    2.105661    1.139599
      9          1           0       -2.145861    1.883544    1.148909
     10          7           0        0.999192   -1.228652   -0.062267
     11          8           0        2.144212   -1.361716   -0.475179
     12          8           0        0.366951   -2.070188    0.560975
     13          6           0        1.194421    1.122298   -0.635942
     14          7           0        1.814490    2.037289   -1.038726
     15          9           0        1.158860    0.592416    1.601340
 ---------------------------------------------------------------------

 SCF Done:  E(RHF) =  -972.071854171     A.U. after    2 cycles

 The electronic state is 1-A.
 Alpha  occ. eigenvalues -- -103.53426 -25.76067 -20.49072 -20.48875 -15.79114
 Alpha  occ. eigenvalues --  -15.50574 -11.23116 -11.19756 -11.17435 -11.11496
 Alpha  occ. eigenvalues --  -10.56776  -8.22484  -8.22236  -8.22218  -1.41868
 Alpha  occ. eigenvalues --   -1.25390  -1.23648  -1.07254  -1.04321  -0.97646
 Alpha  occ. eigenvalues --   -0.88557  -0.76363  -0.71720  -0.65784  -0.63193
 Alpha  occ. eigenvalues --   -0.60798  -0.55119  -0.51505  -0.49372  -0.44748
 Alpha  occ. eigenvalues --   -0.42774  -0.41549  -0.40097  -0.39207  -0.38143
 Alpha  occ. eigenvalues --   -0.35948  -0.35532  -0.35370  -0.34405  -0.33852
 Alpha  occ. eigenvalues --   -0.32665  -0.31797  -0.29942
 Alpha virt. eigenvalues --    0.12648   0.13269   0.14895   0.16631   0.17338
 Alpha virt. eigenvalues --    0.18353   0.19393   0.21405   0.21712   0.23256
 Alpha virt. eigenvalues --    0.24097   0.24981   0.25079   0.25522   0.26552

 Mulliken charges:
               1
     1  C   -0.571786
     2  C    1.147745
     3  Cl  -0.269120
     4  H   -0.071898
     5  H    0.223358
     6  C    0.604366
     7  H    0.032229
     8  H    0.169428
     9  H   -0.130242
    10  N    0.630726
    11  O   -0.669853
    12  O   -0.641393
    13  C   -0.127102
    14  N   -0.368091
    15  F   -0.958366
 Sum of Mulliken charges =  -1.00000

 Dipole moment (field-independent basis, Debye):
    X=             -6.1132    Y=             -0.6311    Z=             -3.4287  Tot=              7.0375

 Test job not archived.
 1\1\GINC-SE116\SP\RHF\Aug-CC-pVDZ\C4H5Cl1F1N2O2(1-)\OHZDE\09-Apr-2025\
 0\\#t hf aug-cc-pvdz iop(5/13=1,5/36=2,99/5=2) pseudo=read geom=check
 guess=(read,tcheck) scf=(maxcycle=1)\\title\\-1,1\C,0,-0.116811,0.0223
 34,0.064157\C,0,-0.625556,-0.318456,-1.335276\Cl,0,1.655981,0.456297,-
 0.063622\H,0,0.223744,-0.564145,-1.989744\H,0,-0.634948,0.915739,0.384
 023\C,0,-0.297869,-1.092506,1.067381\H,0,0.166572,-2.025362,0.738197\H
 ,0,-1.37822,-1.203715,1.159516\H,0,0.136957,-0.802683,2.026579\N,0,-1.
 239304,0.884222,-2.011283\O,0,-1.949572,0.656899,-2.982424\O,0,-0.8750

 Normal termination of Gaussian 16 at Wed Apr  9 02:38:52 2025.
