 Gaussian 16, Revision C.01,

 ----------------------------------------------------------------------
 #t hf aug-cc-pvdz symm=none int=(grid=ultrafine) guess=(read,tcheck) s
 table=(opt,rrhf)
 ----------------------------------------------------------------------
 -----
 title
 -----
 Symbolic Z-matrix:
 Charge = -1 Multiplicity = 1

 SCF Done:  E(RHF) =  -935.180383243     A.U. after   16 cycles
 Normal termination of Gaussian 16 at Wed Apr  9 02:41:16 2025.
 Gaussian 16:  ES64L-G16RevC.01  3-Jul-2019

 ----------------------------------------------------------------------
 #t hf aug-cc-pvdz iop(5/13=1,5/36=2,99/5=2) pseudo=read geom=check gue
 ss=(read,tcheck) scf=(maxcycle=1)
 ----------------------------------------------------------------------
 -----
 title
 -----
 Structure from the checkpoint file:  "E2SN2_221_mol1.chk"
 Charge = -1 Multiplicity = 1

                         Standard orientation:
 ---------------------------------------------------------------------
 Center     Atomic      Atomic             Coordinates (Angstroms)
 Number     Number       Type             X           Y           Z
 ---------------------------------------------------------------------
      1          6           0        0.102119   -0.137918   -0.407230
      2          1           0       -0.844534   -1.498946    0.827816
      3         17           0       -0.101958    1.977652   -0.489183
      4          9           0        0.471439   -2.032369   -0.754832
      5          6           0       -1.143251   -0.572512    0.342594
      6          1           0        0.194628   -0.180811   -1.472663
      7          7           0        1.407692   -0.187207    0.284383
      8          8           0        1.413814   -0.474637    1.476360
      9          8           0        2.399413    0.068107   -0.390456
     10          6           0       -2.199568   -0.890966   -0.714736
     11          1           0       -2.462468    0.012279   -1.275204
     12          1           0       -1.800747   -1.647571   -1.390093
     13          1           0       -3.108422   -1.272928   -0.236861
     14          7           0       -1.587845    0.336400    1.398173
     15          1           0       -2.355018   -0.119336    1.879966
     16          1           0       -1.933660    1.194814    0.987757
 ---------------------------------------------------------------------

 SCF Done:  E(RHF) =  -935.339686147     A.U. after    2 cycles

 The electronic state is 1-A.
 Alpha  occ. eigenvalues -- -103.46563 -25.79769 -20.47039 -20.46722 -15.77323
 Alpha  occ. eigenvalues --  -15.48104 -11.25317 -11.15117 -11.10559 -10.49853
 Alpha  occ. eigenvalues --   -8.15512  -8.15344  -8.15328  -1.39749  -1.29427
 Alpha  occ. eigenvalues --   -1.21338  -1.04825  -0.96572  -0.90277  -0.85940
 Alpha  occ. eigenvalues --   -0.73798  -0.67106  -0.62081  -0.59227  -0.57717
 Alpha  occ. eigenvalues --   -0.54847  -0.49536  -0.45918  -0.44512  -0.42775
 Alpha  occ. eigenvalues --   -0.40930  -0.39336  -0.38482  -0.37148  -0.36095
 Alpha  occ. eigenvalues --   -0.35435  -0.32446  -0.29435  -0.28964  -0.28374
 Alpha  occ. eigenvalues --   -0.26039
 Alpha virt. eigenvalues --    0.11699   0.13523   0.14155   0.15698   0.16852
 Alpha virt. eigenvalues --    0.17229   0.17562   0.19861   0.21471   0.22087
 Alpha virt. eigenvalues --    0.24190   0.24884   0.25738   0.26342   0.27159

 Mulliken charges:
               1
     1  C    1.110317
     2  H    0.052777
     3  Cl  -0.553514
     4  F   -0.835688
     5  C    0.118088
     6  H   -0.295465
     7  N    0.589819
     8  O   -0.666303
     9  O   -0.677359
    10  C    0.548673
    11  H    0.033170
    12  H    0.037649
    13  H   -0.113453
    14  N   -0.349865
    15  H   -0.036576
    16  H    0.037729
 Sum of Mulliken charges =  -1.00000

 Dipole moment (field-independent basis, Debye):
    X=             -5.6695    Y=              1.2143    Z=              0.4696  Tot=              5.8170

 Test job not archived.
 1\1\GINC-SE023\SP\RHF\Aug-CC-pVDZ\C3H7Cl1F1N2O2(1-)\OHZDE\09-Apr-2025\
 0\\#t hf aug-cc-pvdz iop(5/13=1,5/36=2,99/5=2) pseudo=read geom=check
 guess=(read,tcheck) scf=(maxcycle=1)\\title\\-1,1\C,0,0.34310764,-0.00
 140109,-0.10800767\H,0,1.54990175,1.64265449,-0.44655867\Cl,0,-1.71549
 064,-0.27980996,-0.56480242\F,0,2.16893976,-0.10110662,0.60091095\C,0,
 0.50647424,1.50567753,-0.17187943\H,0,0.22429229,-0.54391118,0.8069297
 7\N,0,0.9042493,-0.82891778,-1.19686827\O,0,1.38457557,-0.25117567,-2.
 16586887\O,0,0.84558327,-2.04528728,-1.05158461\C,0,0.30097097,2.02686

 Normal termination of Gaussian 16 at Wed Apr  9 02:41:23 2025.
