 Gaussian 16, Revision C.01,

 ----------------------------------------------------------------------
 #t hf aug-cc-pvdz symm=none int=(grid=ultrafine) guess=(read,tcheck) s
 table=(opt,rrhf)
 ----------------------------------------------------------------------
 -----
 title
 -----
 Symbolic Z-matrix:
 Charge = -1 Multiplicity = 1

 SCF Done:  E(RHF) =  -862.495273537     A.U. after   16 cycles
 Normal termination of Gaussian 16 at Wed Apr  9 02:52:54 2025.
 Gaussian 16:  ES64L-G16RevC.01  3-Jul-2019

 ----------------------------------------------------------------------
 #t hf aug-cc-pvdz iop(5/13=1,5/36=2,99/5=2) pseudo=read geom=check gue
 ss=(read,tcheck) scf=(maxcycle=1)
 ----------------------------------------------------------------------
 -----
 title
 -----
 Structure from the checkpoint file:  "E2SN2_347_mol2.chk"
 Charge = -1 Multiplicity = 1

                         Standard orientation:
 ---------------------------------------------------------------------
 Center     Atomic      Atomic             Coordinates (Angstroms)
 Number     Number       Type             X           Y           Z
 ---------------------------------------------------------------------
      1          6           0        0.154957   -0.617374    0.029493
      2          6           0        0.042291    0.728795   -0.736087
      3         17           0        1.916824   -1.117026   -0.097967
      4          1           0        0.577152    0.586897   -1.683841
      5          6           0       -0.214421   -0.493862    1.493008
      6          1           0       -1.286620   -0.247517    1.511926
      7          1           0        0.389801    0.263380    1.996984
      8          1           0       -0.060400   -1.454366    1.992947
      9          6           0       -0.706096   -1.664595   -0.650150
     10          1           0       -1.744840   -1.382486   -0.432554
     11          1           0       -0.496433   -2.649875   -0.225696
     12          1           0       -0.513071   -1.702024   -1.727441
     13          6           0        0.782753    1.788529   -0.017174
     14          7           0        1.367825    2.643641    0.535772
     15          7           0       -1.310571    1.181670   -1.011429
     16          1           0       -1.591460    0.764337   -1.890557
     17          1           0       -1.993000    0.797054   -0.304745
     18          9           0       -2.958312   -0.134676    0.560385
 ---------------------------------------------------------------------

 SCF Done:  E(RHF) =  -862.632052267     A.U. after    2 cycles

 The electronic state is 1-A.
 Alpha  occ. eigenvalues -- -103.52371 -25.76381 -15.51390 -15.46238 -11.19394
 Alpha  occ. eigenvalues --  -11.19038 -11.16607 -11.10220 -11.09052 -10.55743
 Alpha  occ. eigenvalues --   -8.21443  -8.21201  -8.21192  -1.25512  -1.08017
 Alpha  occ. eigenvalues --   -1.04464  -1.01228  -0.90631  -0.82696  -0.80984
 Alpha  occ. eigenvalues --   -0.65118  -0.57987  -0.53329  -0.51481  -0.48147
 Alpha  occ. eigenvalues --   -0.46714  -0.44369  -0.42487  -0.41166  -0.39293
 Alpha  occ. eigenvalues --   -0.38578  -0.38518  -0.35245  -0.34912  -0.34007
 Alpha  occ. eigenvalues --   -0.32724  -0.32076  -0.31906  -0.31592  -0.25565
 Alpha virt. eigenvalues --    0.12301   0.13297   0.14375   0.15071   0.15763
 Alpha virt. eigenvalues --    0.16749   0.18158   0.18748   0.19064   0.19278
 Alpha virt. eigenvalues --    0.20568   0.22951   0.23360   0.24006   0.25249

 Mulliken charges:
               1
     1  C   -2.132228
     2  C    1.305723
     3  Cl  -0.306261
     4  H   -0.090049
     5  C    1.057372
     6  H   -0.026246
     7  H   -0.085547
     8  H   -0.017370
     9  C    1.122721
    10  H    0.041492
    11  H   -0.050740
    12  H   -0.027953
    13  C   -0.277022
    14  N   -0.296210
    15  N   -0.476126
    16  H    0.035716
    17  H    0.197694
    18  F   -0.974966
 Sum of Mulliken charges =  -1.00000

 Dipole moment (field-independent basis, Debye):
    X=              4.9726    Y=             -3.6328    Z=             -3.0698  Tot=              6.8810

 Test job not archived.
 1\1\GINC-SE131\SP\RHF\Aug-CC-pVDZ\C5H9Cl1F1N2(1-)\OHZDE\09-Apr-2025\0\
 \#t hf aug-cc-pvdz iop(5/13=1,5/36=2,99/5=2) pseudo=read geom=check gu
 ess=(read,tcheck) scf=(maxcycle=1)\\title\\-1,1\C,0,-0.020256,-0.00332
 ,-0.03039\C,0,-0.311211,-0.221026,-1.540002\Cl,0,1.807696,0.078307,0.1
 17936\H,0,0.371481,-1.013827,-1.871436\C,0,-0.612843,1.284441,0.502605
 \H,0,-1.704378,1.16042,0.440767\H,0,-0.265314,2.150914,-0.063911\H,0,-
 0.327515,1.413896,1.550488\C,0,-0.527922,-1.191463,0.763707\H,0,-1.623
 28,-1.115521,0.745131\H,0,-0.172707,-1.127313,1.795504\H,0,-0.179476,-

 Normal termination of Gaussian 16 at Wed Apr  9 02:53:04 2025.
