 Gaussian 16, Revision C.01,

 ----------------------------------------------------------------------
 #t hf aug-cc-pvdz symm=none int=(grid=ultrafine) guess=(read,tcheck) s
 table=(opt,rrhf)
 ----------------------------------------------------------------------
 -----
 title
 -----
 Symbolic Z-matrix:
 Charge = -1 Multiplicity = 1

 SCF Done:  E(RHF) =  -987.880965529     A.U. after   17 cycles
 Normal termination of Gaussian 16 at Wed Apr  9 02:54:24 2025.
 Gaussian 16:  ES64L-G16RevC.01  3-Jul-2019

 ----------------------------------------------------------------------
 #t hf aug-cc-pvdz iop(5/13=1,5/36=2,99/5=2) pseudo=read geom=check gue
 ss=(read,tcheck) scf=(maxcycle=1)
 ----------------------------------------------------------------------
 -----
 title
 -----
 Structure from the checkpoint file:  "E2SN2_375_mol1.chk"
 Charge = -1 Multiplicity = 1

                         Standard orientation:
 ---------------------------------------------------------------------
 Center     Atomic      Atomic             Coordinates (Angstroms)
 Number     Number       Type             X           Y           Z
 ---------------------------------------------------------------------
      1          6           0        0.377534    0.099302    0.429760
      2          1           0       -0.524237    0.960165   -1.276615
      3          9           0       -0.865837   -1.258987    1.276991
      4         17           0        1.849850    1.339315   -0.177966
      5          6           0       -0.810584    0.767026   -0.234667
      6          1           0        0.522570    0.178322    1.488616
      7          7           0        0.861754   -1.152190   -0.180960
      8          8           0        0.404122   -1.442742   -1.284039
      9          8           0        1.732369   -1.767983    0.417572
     10          7           0       -1.109895    1.999790    0.507705
     11          1           0       -1.969619    2.388939    0.138719
     12          1           0       -0.361155    2.656829    0.320223
     13          6           0       -2.035612   -0.042088   -0.293958
     14          7           0       -3.123635   -0.402082   -0.557247
 ---------------------------------------------------------------------

 SCF Done:  E(RHF) =  -988.053182400     A.U. after    2 cycles

 The electronic state is 1-A.
 Alpha  occ. eigenvalues -- -103.51677 -25.79482 -20.48780 -20.48739 -15.79461
 Alpha  occ. eigenvalues --  -15.52348 -15.49938 -11.27369 -11.21440 -11.16672
 Alpha  occ. eigenvalues --  -10.54974  -8.20650  -8.20445  -8.20428  -1.41784
 Alpha  occ. eigenvalues --   -1.29276  -1.23425  -1.09793  -1.03481  -1.01432
 Alpha  occ. eigenvalues --   -0.93108  -0.83978  -0.71775  -0.65495  -0.62974
 Alpha  occ. eigenvalues --   -0.60539  -0.58964  -0.52755  -0.52002  -0.50461
 Alpha  occ. eigenvalues --   -0.42961  -0.40540  -0.40133  -0.39678  -0.38568
 Alpha  occ. eigenvalues --   -0.38079  -0.34953  -0.33779  -0.33500  -0.32534
 Alpha  occ. eigenvalues --   -0.31922  -0.30736  -0.30021
 Alpha virt. eigenvalues --    0.11852   0.13962   0.14719   0.15998   0.17936
 Alpha virt. eigenvalues --    0.19576   0.20055   0.22359   0.23436   0.23929
 Alpha virt. eigenvalues --    0.24311   0.25111   0.25807   0.26886   0.27519

 Mulliken charges:
               1
     1  C    0.955212
     2  H    0.152007
     3  F   -0.859545
     4  Cl  -0.410907
     5  C    0.782621
     6  H   -0.172381
     7  N    0.675123
     8  O   -0.665424
     9  O   -0.680548
    10  N   -0.372237
    11  H   -0.007328
    12  H    0.036889
    13  C   -0.076960
    14  N   -0.356523
 Sum of Mulliken charges =  -1.00000

 Dipole moment (field-independent basis, Debye):
    X=              2.4676    Y=              6.7134    Z=             -1.9534  Tot=              7.4145

 Test job not archived.
 1\1\GINC-SE435\SP\RHF\Aug-CC-pVDZ\C3H4Cl1F1N3O2(1-)\OHZDE\09-Apr-2025\
 0\\#t hf aug-cc-pvdz iop(5/13=1,5/36=2,99/5=2) pseudo=read geom=check
 guess=(read,tcheck) scf=(maxcycle=1)\\title\\-1,1\C,0,0.57610159,-0.05
 77555,0.01584186\H,0,1.6044779,1.70259561,-0.54057188\F,0,-1.29731544,
 -0.05652139,-0.75812599\Cl,0,2.36572654,-0.38560302,0.89016236\C,0,0.6
 2568196,1.45231597,-0.11130339\H,0,-0.05279669,-0.52036087,0.74996619\
 N,0,0.77688944,-0.83416671,-1.22131201\O,0,1.16890685,-0.21307714,-2.2
 0680728\O,0,0.61033062,-2.04395068,-1.15733292\N,0,0.43205269,2.025422

 Normal termination of Gaussian 16 at Wed Apr  9 02:54:31 2025.
