 Gaussian 16, Revision C.01,

 ----------------------------------------------------------------------
 #t hf aug-cc-pvdz symm=none int=(grid=ultrafine) guess=(read,tcheck) s
 table=(opt,rrhf)
 ----------------------------------------------------------------------
 -----
 title
 -----
 Symbolic Z-matrix:
 Charge = -1 Multiplicity = 1

 SCF Done:  E(RHF) =  -476.196872112     A.U. after   16 cycles
 Normal termination of Gaussian 16 at Wed Apr  9 02:41:01 2025.
 Gaussian 16:  ES64L-G16RevC.01  3-Jul-2019

 ----------------------------------------------------------------------
 #t hf aug-cc-pvdz iop(5/13=1,5/36=2,99/5=2) pseudo=read geom=check gue
 ss=(read,tcheck) scf=(maxcycle=1)
 ----------------------------------------------------------------------
 -----
 title
 -----
 Structure from the checkpoint file:  "E2SN2_230_mol2.chk"
 Charge = -1 Multiplicity = 1

                         Standard orientation:
 ---------------------------------------------------------------------
 Center     Atomic      Atomic             Coordinates (Angstroms)
 Number     Number       Type             X           Y           Z
 ---------------------------------------------------------------------
      1          6           0        0.025966    0.589677    0.028312
      2          6           0        1.074085    0.115988   -0.994223
      3          9           0       -0.665889    1.648356   -0.531659
      4          1           0        0.523769   -0.002340   -1.938506
      5          1           0        1.757782    0.963766   -1.109965
      6          7           0       -0.996823   -0.523512    0.151297
      7          8           0       -0.770249   -1.392727    0.992261
      8          8           0       -1.936794   -0.532370   -0.640508
      9          6           0        0.555684    0.975390    1.379157
     10          1           0        1.032845    1.950964    1.268546
     11          1           0       -0.252651    1.046242    2.111302
     12          1           0        1.342739    0.289478    1.703298
     13          7           0        1.853545   -1.045993   -0.669435
     14          1           0        2.540314   -0.800357    0.082281
     15          1           0        1.266771   -1.797444   -0.326904
     16          1           0        3.506313   -0.184539    1.328339
 ---------------------------------------------------------------------

 SCF Done:  E(RHF) =  -476.348022493     A.U. after    2 cycles

 The electronic state is 1-A.
 Alpha  occ. eigenvalues --  -26.02621 -20.51698 -20.51680 -15.80370 -15.45823
 Alpha  occ. eigenvalues --  -11.28070 -11.15817 -11.11943  -1.56481  -1.43681
 Alpha  occ. eigenvalues --   -1.25651  -1.04353  -0.97030  -0.85104  -0.80518
 Alpha  occ. eigenvalues --   -0.72548  -0.69504  -0.64457  -0.64295  -0.61965
 Alpha  occ. eigenvalues --   -0.60094  -0.55166  -0.52635  -0.46939  -0.44848
 Alpha  occ. eigenvalues --   -0.44410  -0.42666  -0.40945  -0.40323  -0.38000
 Alpha  occ. eigenvalues --   -0.36553  -0.25557  -0.08703
 Alpha virt. eigenvalues --    0.12999   0.13445   0.14751   0.16069   0.16617
 Alpha virt. eigenvalues --    0.17879   0.18403   0.19758   0.21078   0.22786
 Alpha virt. eigenvalues --    0.23285   0.23865   0.24572   0.24977   0.25895

 Mulliken charges:
               1
     1  C   -0.029269
     2  C    0.786430
     3  F   -0.364554
     4  H   -0.075142
     5  H    0.000885
     6  N    0.266568
     7  O   -0.564201
     8  O   -0.590626
     9  C    0.504427
    10  H    0.037456
    11  H   -0.016469
    12  H    0.149381
    13  N   -0.383631
    14  H    0.051859
    15  H    0.058068
    16  H   -0.831183
 Sum of Mulliken charges =  -1.00000

 Dipole moment (field-independent basis, Debye):
    X=            -10.6185    Y=              2.4714    Z=             -3.2766  Tot=             11.3840

 Test job not archived.
 1\1\GINC-SE345\SP\RHF\Aug-CC-pVDZ\C3H8F1N2O2(1-)\OHZDE\09-Apr-2025\0\\
 #t hf aug-cc-pvdz iop(5/13=1,5/36=2,99/5=2) pseudo=read geom=check gue
 ss=(read,tcheck) scf=(maxcycle=1)\\title\\-1,1\C,0,0.034076,0.025432,-
 0.046733\C,0,-0.566198,-0.142528,-1.453848\F,0,1.344669,-0.414609,-0.0
 88496\H,0,0.164143,0.315242,-2.136173\H,0,-0.561283,-1.22268,-1.634993
 \N,0,0.131246,1.517053,0.210243\O,0,-0.852498,2.05681,0.71522\O,0,1.14
 3047,2.102414,-0.169483\C,0,-0.70513,-0.658006,1.067109\H,0,-0.481998,
 -1.723931,0.991767\H,0,-0.377846,-0.285353,2.041007\H,0,-1.78647,-0.56

 Normal termination of Gaussian 16 at Wed Apr  9 02:41:07 2025.
