 Gaussian 16, Revision C.01,

 ----------------------------------------------------------------------
 #t hf aug-cc-pvdz symm=none int=(grid=ultrafine) guess=(read,tcheck) s
 table=(opt,rrhf)
 ----------------------------------------------------------------------
 -----
 title
 -----
 Symbolic Z-matrix:
 Charge = -1 Multiplicity = 1

 SCF Done:  E(RHF) =  -463.392416353     A.U. after   15 cycles
 Normal termination of Gaussian 16 at Wed Apr  9 02:36:58 2025.
 Gaussian 16:  ES64L-G16RevC.01  3-Jul-2019

 ----------------------------------------------------------------------
 #t hf aug-cc-pvdz iop(5/13=1,5/36=2,99/5=2) pseudo=read geom=check gue
 ss=(read,tcheck) scf=(maxcycle=1)
 ----------------------------------------------------------------------
 -----
 title
 -----
 Structure from the checkpoint file:  "E2SN2_179_mol2.chk"
 Charge = -1 Multiplicity = 1

                         Standard orientation:
 ---------------------------------------------------------------------
 Center     Atomic      Atomic             Coordinates (Angstroms)
 Number     Number       Type             X           Y           Z
 ---------------------------------------------------------------------
      1          6           0        0.467831    0.352600    0.342456
      2          6           0       -0.475899    0.296902   -0.866430
      3          9           0        0.755693    1.679543    0.715621
      4          1           0        0.018633    0.762341   -1.731287
      5          1           0       -0.070832   -0.185295    1.148300
      6          6           0        1.752106   -0.289250    0.027597
      7          7           0        2.779249   -0.788486   -0.248165
      8          6           0       -1.758176    1.034844   -0.507483
      9          1           0       -2.175388    0.501466    0.350361
     10          1           0       -2.451683    0.983388   -1.350465
     11          1           0       -1.568946    2.080317   -0.252580
     12          7           0       -0.814828   -1.090623   -1.163216
     13          1           0       -1.160738   -1.446360   -0.247692
     14          1           0        0.030959   -1.600468   -1.400385
     15          9           0       -1.454373   -1.269787    1.438443
 ---------------------------------------------------------------------

 SCF Done:  E(RHF) =  -463.535784778     A.U. after    2 cycles

 The electronic state is 1-A.
 Alpha  occ. eigenvalues --  -25.98932 -25.75569 -15.52581 -15.44975 -11.20696
 Alpha  occ. eigenvalues --  -11.17462 -11.14041 -11.08263  -1.51773  -1.24531
 Alpha  occ. eigenvalues --   -1.06663  -1.02378  -0.88652  -0.83212  -0.68316
 Alpha  occ. eigenvalues --   -0.65102  -0.62085  -0.59494  -0.54525  -0.49252
 Alpha  occ. eigenvalues --   -0.45697  -0.43565  -0.43293  -0.39544  -0.38118
 Alpha  occ. eigenvalues --   -0.37194  -0.35377  -0.34166  -0.33998  -0.32486
 Alpha  occ. eigenvalues --   -0.31260  -0.24510
 Alpha virt. eigenvalues --    0.12856   0.14343   0.14637   0.15898   0.17156
 Alpha virt. eigenvalues --    0.18739   0.19173   0.19909   0.22053   0.23461
 Alpha virt. eigenvalues --    0.23760   0.24857   0.25581   0.26234   0.26941

 Mulliken charges:
               1
     1  C    1.289160
     2  C   -0.243178
     3  F   -0.489889
     4  H   -0.284233
     5  H   -0.068894
     6  C   -0.379624
     7  N   -0.267500
     8  C    0.783890
     9  H   -0.030665
    10  H   -0.012785
    11  H   -0.027868
    12  N   -0.430633
    13  H    0.192184
    14  H   -0.040605
    15  F   -0.989359
 Sum of Mulliken charges =  -1.00000

 Dipole moment (field-independent basis, Debye):
    X=              1.6721    Y=              3.9377    Z=             -3.3642  Tot=              5.4424

 Test job not archived.
 1\1\GINC-SE113\SP\RHF\Aug-CC-pVDZ\C4H7F2N2(1-)\OHZDE\09-Apr-2025\0\\#t
  hf aug-cc-pvdz iop(5/13=1,5/36=2,99/5=2) pseudo=read geom=check guess
 =(read,tcheck) scf=(maxcycle=1)\\title\\-1,1\C,0,-0.194782,-0.085752,0
 .024622\C,0,-0.400731,-0.109066,-1.495962\F,0,0.862752,0.768286,0.3922
 28\H,0,0.503603,-0.510341,-1.975893\H,0,-1.161091,0.26823,0.436712\C,0
 ,0.147641,-1.425826,0.522031\N,0,0.439658,-2.499603,0.898905\C,0,-0.68
 2619,1.312217,-1.963005\H,0,-1.592317,1.619456,-1.440982\H,0,-0.856038
 ,1.309339,-3.041956\H,0,0.141282,1.989782,-1.726593\N,0,-1.557159,-0.9

 Normal termination of Gaussian 16 at Wed Apr  9 02:37:04 2025.
