 Gaussian 16, Revision C.01,

 ----------------------------------------------------------------------
 #t hf aug-cc-pvdz symm=none int=(grid=ultrafine) guess=(read,tcheck) s
 table=(opt,rrhf)
 ----------------------------------------------------------------------
 -----
 title
 -----
 Symbolic Z-matrix:
 Charge = -1 Multiplicity = 1

 SCF Done:  E(RHF) =  -825.755704660     A.U. after   14 cycles
 Normal termination of Gaussian 16 at Wed Apr  9 02:52:37 2025.
 Gaussian 16:  ES64L-G16RevC.01  3-Jul-2019

 ----------------------------------------------------------------------
 #t hf aug-cc-pvdz iop(5/13=1,5/36=2,99/5=2) pseudo=read geom=check gue
 ss=(read,tcheck) scf=(maxcycle=1)
 ----------------------------------------------------------------------
 -----
 title
 -----
 Structure from the checkpoint file:  "E2SN2_354_mol1.chk"
 Charge = -1 Multiplicity = 1

                         Standard orientation:
 ---------------------------------------------------------------------
 Center     Atomic      Atomic             Coordinates (Angstroms)
 Number     Number       Type             X           Y           Z
 ---------------------------------------------------------------------
      1          6           0       -0.017509   -0.486047    0.028305
      2          1           0        0.210045    1.271710   -1.104355
      3          9           0       -2.047162   -1.108135    0.460493
      4         17           0        2.283091    0.186490   -0.223693
      5          6           0       -0.494912    0.928410   -0.341994
      6          6           0        0.030298   -1.480397   -1.091325
      7          1           0       -0.940396   -1.972987   -1.084018
      8          1           0        0.189741   -0.977322   -2.044528
      9          1           0        0.832303   -2.200376   -0.928121
     10          6           0        0.260168   -0.935894    1.437758
     11          1           0        1.100377   -1.629183    1.445761
     12          1           0        0.490113   -0.091958    2.082086
     13          1           0       -0.650541   -1.420155    1.780318
     14          7           0       -0.426389    1.795816    0.846069
     15          1           0       -0.755280    2.712729    0.558796
     16          1           0        0.562029    1.902305    1.064505
     17          7           0       -1.797759    0.901435   -0.972448
     18          1           0       -2.141832    1.851195   -1.054711
     19          1           0       -2.383885    0.319739   -0.369201
 ---------------------------------------------------------------------

 SCF Done:  E(RHF) =  -825.880294631     A.U. after    2 cycles

 The electronic state is 1-A.
 Alpha  occ. eigenvalues -- -103.40940 -25.78020 -15.47442 -15.45010 -11.21337
 Alpha  occ. eigenvalues --  -11.16139 -11.08924 -11.08040 -10.44221  -8.09842
 Alpha  occ. eigenvalues --   -8.09755  -8.09749  -1.27921  -1.06128  -0.95194
 Alpha  occ. eigenvalues --   -0.93541  -0.86195  -0.80731  -0.74372  -0.59841
 Alpha  occ. eigenvalues --   -0.54103  -0.52230  -0.50188  -0.47458  -0.45657
 Alpha  occ. eigenvalues --   -0.43361  -0.41963  -0.41228  -0.37493  -0.36652
 Alpha  occ. eigenvalues --   -0.35592  -0.35404  -0.33891  -0.27316  -0.25561
 Alpha  occ. eigenvalues --   -0.24202  -0.23961  -0.23073
 Alpha virt. eigenvalues --    0.12309   0.13714   0.14095   0.15202   0.15944
 Alpha virt. eigenvalues --    0.16461   0.17290   0.17651   0.18215   0.18633
 Alpha virt. eigenvalues --    0.19587   0.22445   0.23631   0.24069   0.24743

 Mulliken charges:
               1
     1  C   -1.366268
     2  H   -0.060382
     3  F   -0.941537
     4  Cl  -0.743291
     5  C    1.135546
     6  C    0.728997
     7  H    0.179163
     8  H    0.025025
     9  H   -0.017989
    10  C    0.683475
    11  H   -0.015307
    12  H   -0.024547
    13  H    0.102032
    14  N   -0.422250
    15  H   -0.065383
    16  H    0.100233
    17  N   -0.377053
    18  H   -0.072357
    19  H    0.151892
 Sum of Mulliken charges =  -1.00000

 Dipole moment (field-independent basis, Debye):
    X=             -0.3078    Y=              2.2875    Z=             -0.4253  Tot=              2.3470

 Test job not archived.
 1\1\GINC-SE070\SP\RHF\Aug-CC-pVDZ\C4H11Cl1F1N2(1-)\OHZDE\09-Apr-2025\0
 \\#t hf aug-cc-pvdz iop(5/13=1,5/36=2,99/5=2) pseudo=read geom=check g
 uess=(read,tcheck) scf=(maxcycle=1)\\title\\-1,1\C,0,0.66656712,-0.021
 09726,-0.00326658\H,0,1.5713306,1.80130395,-0.53681035\F,0,-1.47347995
 ,-0.16926714,-0.30578097\Cl,0,3.01005708,0.07054396,0.5519169\C,0,0.60
 819999,1.51239613,-0.10678226\C,0,0.88182151,-0.76130816,-1.28792308\H
 ,0,-0.11463019,-0.97883706,-1.66833004\H,0,1.42957577,-0.1439112,-1.99
 918137\H,0,1.43866977,-1.68124416,-1.1094427\C,0,0.38876224,-0.7879859

 Normal termination of Gaussian 16 at Wed Apr  9 02:52:46 2025.
