 Gaussian 16, Revision C.01,

 ----------------------------------------------------------------------
 #t hf aug-cc-pvdz symm=none int=(grid=ultrafine) guess=(read,tcheck) s
 table=(opt,rrhf)
 ----------------------------------------------------------------------
 -----
 title
 -----
 Symbolic Z-matrix:
 Charge = -1 Multiplicity = 1

 SCF Done:  E(RHF) =  -515.187519669     A.U. after   17 cycles
 Normal termination of Gaussian 16 at Wed Apr  9 02:42:20 2025.
 Gaussian 16:  ES64L-G16RevC.01  3-Jul-2019

 ----------------------------------------------------------------------
 #t hf aug-cc-pvdz iop(5/13=1,5/36=2,99/5=2) pseudo=read geom=check gue
 ss=(read,tcheck) scf=(maxcycle=1)
 ----------------------------------------------------------------------
 -----
 title
 -----
 Structure from the checkpoint file:  "E2SN2_234_mol1.chk"
 Charge = -1 Multiplicity = 1

                         Standard orientation:
 ---------------------------------------------------------------------
 Center     Atomic      Atomic             Coordinates (Angstroms)
 Number     Number       Type             X           Y           Z
 ---------------------------------------------------------------------
      1          6           0        0.128951    0.341937    0.047428
      2          1           0       -0.882838   -1.008660   -1.207165
      3          9           0        0.253441   -0.249823    1.571415
      4          1           0        0.309838    0.783050   -1.735928
      5          6           0       -1.181317   -0.298108   -0.431869
      6          7           0        1.381037   -0.304682   -0.387335
      7          8           0        1.328022   -1.496785   -0.714384
      8          8           0        2.439781    0.310745   -0.227248
      9          6           0        0.194972    1.791206    0.472309
     10          1           0        0.208004    2.480768   -0.365206
     11          1           0       -0.682154    1.984612    1.092868
     12          1           0        1.093751    1.919842    1.073523
     13          7           0       -2.060875    0.760585   -0.958316
     14          1           0       -2.858107    0.301183   -1.389452
     15          1           0       -1.510289    1.181901   -1.707600
     16          6           0       -1.956100   -1.059583    0.639157
     17          1           0       -1.356902   -1.879160    1.030150
     18          1           0       -2.232197   -0.402507    1.463870
     19          1           0       -2.872664   -1.468335    0.192664
 ---------------------------------------------------------------------

 SCF Done:  E(RHF) =  -515.345822481     A.U. after    2 cycles

 The electronic state is 1-A.
 Alpha  occ. eigenvalues --  -25.87904 -20.43616 -20.43591 -15.74736 -15.46713
 Alpha  occ. eigenvalues --  -11.23771 -11.13354 -11.08965 -11.08858  -1.39470
 Alpha  occ. eigenvalues --   -1.35643  -1.17696  -1.03037  -0.93285  -0.84553
 Alpha  occ. eigenvalues --   -0.80607  -0.71344  -0.63073  -0.58428  -0.56638
 Alpha  occ. eigenvalues --   -0.56299  -0.52645  -0.50308  -0.49486  -0.46811
 Alpha  occ. eigenvalues --   -0.44512  -0.42351  -0.41579  -0.39737  -0.39144
 Alpha  occ. eigenvalues --   -0.36389  -0.35874  -0.33710  -0.33309  -0.30541
 Alpha  occ. eigenvalues --   -0.25732  -0.13114
 Alpha virt. eigenvalues --    0.12107   0.13367   0.13986   0.15258   0.16038
 Alpha virt. eigenvalues --    0.16485   0.16980   0.17277   0.18655   0.19882
 Alpha virt. eigenvalues --    0.22542   0.23048   0.24482   0.24724   0.25804

 Mulliken charges:
               1
     1  C   -0.298490
     2  H   -0.063688
     3  F   -0.690063
     4  H   -0.207452
     5  C    0.232611
     6  N    0.351510
     7  O   -0.661368
     8  O   -0.688688
     9  C    0.716202
    10  H    0.003649
    11  H    0.119915
    12  H   -0.007790
    13  N   -0.369721
    14  H   -0.038636
    15  H    0.077464
    16  C    0.590716
    17  H    0.020316
    18  H    0.036563
    19  H   -0.123049
 Sum of Mulliken charges =  -1.00000

 Dipole moment (field-independent basis, Debye):
    X=             -4.7154    Y=              0.3831    Z=              0.7308  Tot=              4.7871

 Test job not archived.
 1\1\GINC-SE126\SP\RHF\Aug-CC-pVDZ\C4H10F1N2O2(1-)\OHZDE\09-Apr-2025\0\
 \#t hf aug-cc-pvdz iop(5/13=1,5/36=2,99/5=2) pseudo=read geom=check gu
 ess=(read,tcheck) scf=(maxcycle=1)\\title\\-1,1\C,0,0.49655237,-0.0702
 6572,-0.08939763\H,0,1.56077293,1.56525427,-0.87319827\F,0,-0.90707446
 ,-0.30457665,-0.9037349\H,0,2.2354991,-0.01430676,0.52752349\C,0,0.688
 66389,1.44662019,-0.22480983\N,0,1.26494361,-0.92166821,-1.01651287\O,
 0,1.65193825,-0.41312246,-2.07599285\O,0,1.32275297,-2.13283574,-0.781
 8932\C,0,0.00005096,-0.69558844,1.19423766\H,0,0.76564718,-0.7617625,1

 Normal termination of Gaussian 16 at Wed Apr  9 02:42:30 2025.
