 Gaussian 16, Revision C.01,

 ----------------------------------------------------------------------
 #t hf aug-cc-pvdz symm=none int=(grid=ultrafine) guess=(read,tcheck) s
 table=(opt,rrhf)
 ----------------------------------------------------------------------
 -----
 title
 -----
 Symbolic Z-matrix:
 Charge = -1 Multiplicity = 1

 SCF Done:  E(RHF) =  -1236.20445009     A.U. after   17 cycles
 Normal termination of Gaussian 16 at Wed Apr  9 02:58:22 2025.
 Gaussian 16:  ES64L-G16RevC.01  3-Jul-2019

 ----------------------------------------------------------------------
 #t hf aug-cc-pvdz iop(5/13=1,5/36=2,99/5=2) pseudo=read geom=check gue
 ss=(read,tcheck) scf=(maxcycle=1)
 ----------------------------------------------------------------------
 -----
 title
 -----
 Structure from the checkpoint file:  "E2SN2_51_mol1.chk"
 Charge = -1 Multiplicity = 1

                         Standard orientation:
 ---------------------------------------------------------------------
 Center     Atomic      Atomic             Coordinates (Angstroms)
 Number     Number       Type             X           Y           Z
 ---------------------------------------------------------------------
      1          6           0        0.674141   -0.222808   -0.529835
      2          6           0       -0.152057    0.577130    0.288908
      3         17           0        2.784128    0.076046   -0.162184
      4         17           0       -2.958965   -0.543459   -0.261595
      5          1           0       -1.667743   -0.017498   -0.164454
      6          1           0        0.705284    0.027175   -1.587538
      7          6           0        0.621657   -1.642042   -0.260624
      8          7           0        0.524761   -2.792868   -0.034869
      9          7           0       -0.231088    0.336669    1.705710
     10          1           0        0.710536    0.220397    2.071861
     11          1           0       -0.750236   -0.514497    1.888818
     12          6           0       -0.296154    1.947746   -0.102499
     13          7           0       -0.452407    3.066241   -0.439433
 ---------------------------------------------------------------------

 SCF Done:  E(RHF) =  -1236.32613975     A.U. after    2 cycles

 The electronic state is 1-A.
 Alpha  occ. eigenvalues -- -103.51024-103.48417 -15.55007 -15.51156 -15.50800
 Alpha  occ. eigenvalues --  -11.25006 -11.20239 -11.16734 -11.16603 -10.54329
 Alpha  occ. eigenvalues --  -10.51612  -8.20037  -8.19814  -8.19811  -8.17263
 Alpha  occ. eigenvalues --   -8.17081  -8.17076  -1.09909  -1.07186  -1.03741
 Alpha  occ. eigenvalues --   -0.99002  -0.97382  -0.91144  -0.79685  -0.61291
 Alpha  occ. eigenvalues --   -0.59510  -0.56968  -0.50942  -0.47924  -0.45410
 Alpha  occ. eigenvalues --   -0.42216  -0.41824  -0.36682  -0.36345  -0.33470
 Alpha  occ. eigenvalues --   -0.33364  -0.33170  -0.32905  -0.30866  -0.30598
 Alpha  occ. eigenvalues --   -0.29920  -0.19658
 Alpha virt. eigenvalues --    0.13468   0.13518   0.15767   0.16720   0.17384
 Alpha virt. eigenvalues --    0.17857   0.19243   0.20821   0.21380   0.22142
 Alpha virt. eigenvalues --    0.23605   0.24177   0.24446   0.25362   0.25936

 Mulliken charges:
               1
     1  C    1.309016
     2  C    0.330202
     3  Cl  -0.492811
     4  Cl  -0.397424
     5  H    0.554051
     6  H   -0.281631
     7  C   -0.529782
     8  N   -0.217316
     9  N   -0.400487
    10  H    0.037310
    11  H    0.008897
    12  C   -0.675157
    13  N   -0.244871
 Sum of Mulliken charges =  -1.00000

 Dipole moment (field-independent basis, Debye):
    X=             -0.1875    Y=             -2.0286    Z=              0.2361  Tot=              2.0509

 Test job not archived.
 1\1\GINC-SE127\SP\RHF\Aug-CC-pVDZ\C4H4Cl2N3(1-)\OHZDE\09-Apr-2025\0\\#
 t hf aug-cc-pvdz iop(5/13=1,5/36=2,99/5=2) pseudo=read geom=check gues
 s=(read,tcheck) scf=(maxcycle=1)\\title\\-1,1\C,0,-0.05116142,-0.06191
 367,-0.36633815\C,0,0.10133086,0.05752186,1.03199116\Cl,0,1.79932345,-
 0.51402185,-1.38997239\Cl,0,-2.79993377,0.21027916,2.03040826\H,0,-1.5
 1564579,0.25768628,1.48115194\H,0,-0.26610193,0.85148604,-0.91560915\C
 ,0,-0.8116438,-1.20883764,-0.80870294\N,0,-1.4654012,-2.13395832,-1.12
 730746\N,0,0.41640963,-1.09474153,1.8347429\H,0,1.1711076,-1.60955165,

 Normal termination of Gaussian 16 at Wed Apr  9 02:58:28 2025.
