 Gaussian 16, Revision C.01,

 ----------------------------------------------------------------------
 #t hf aug-cc-pvdz symm=none int=(grid=ultrafine) guess=(read,tcheck) s
 table=(opt,rrhf)
 ----------------------------------------------------------------------
 -----
 title
 -----
 Symbolic Z-matrix:
 Charge = -1 Multiplicity = 1

 SCF Done:  E(RHF) =  -763.529695416     A.U. after   16 cycles
 Normal termination of Gaussian 16 at Wed Apr  9 02:52:34 2025.
 Gaussian 16:  ES64L-G16RevC.01  3-Jul-2019

 ----------------------------------------------------------------------
 #t hf aug-cc-pvdz iop(5/13=1,5/36=2,99/5=2) pseudo=read geom=check gue
 ss=(read,tcheck) scf=(maxcycle=1)
 ----------------------------------------------------------------------
 -----
 title
 -----
 Structure from the checkpoint file:  "E2SN2_346_mol2.chk"
 Charge = -1 Multiplicity = 1

                         Standard orientation:
 ---------------------------------------------------------------------
 Center     Atomic      Atomic             Coordinates (Angstroms)
 Number     Number       Type             X           Y           Z
 ---------------------------------------------------------------------
      1          6           0       -0.598905    0.249200    0.141396
      2          6           0        0.758808    0.317297   -0.607879
      3         17           0       -1.370791   -1.338115   -0.361533
      4          1           0        0.550172    0.039801   -1.648870
      5          6           0       -0.443508    0.257754    1.646690
      6          1           0       -1.425651    0.171082    2.119954
      7          1           0       -0.000696    1.225612    1.925896
      8          1           0        0.185103   -0.566871    1.988826
      9          6           0       -1.494542    1.384621   -0.312984
     10          1           0       -1.557605    1.429905   -1.405030
     11          1           0       -2.501850    1.245985    0.087536
     12          1           0       -1.074284    2.315324    0.086593
     13          6           0        1.675997   -0.722099   -0.095798
     14          7           0        2.412658   -1.547609    0.297944
     15          7           0        1.423496    1.606920   -0.590894
     16          1           0        1.240863    2.149847    0.289995
     17          1           0        1.014987    2.177718   -1.322305
     18          1           0        0.632236    3.223751    1.445571
 ---------------------------------------------------------------------

 SCF Done:  E(RHF) =  -763.638237032     A.U. after    2 cycles

 The electronic state is 1-A.
 Alpha  occ. eigenvalues -- -103.53432 -15.52235 -15.47764 -11.20635 -11.20121
 Alpha  occ. eigenvalues --  -11.17388 -11.11996 -11.10616 -10.56797  -8.22498
 Alpha  occ. eigenvalues --   -8.22251  -8.22244  -1.09146  -1.05374  -1.02415
 Alpha  occ. eigenvalues --   -0.91904  -0.84018  -0.82435  -0.66474  -0.59107
 Alpha  occ. eigenvalues --   -0.54370  -0.52725  -0.49115  -0.47416  -0.45162
 Alpha  occ. eigenvalues --   -0.43112  -0.42075  -0.40160  -0.39464  -0.38245
 Alpha  occ. eigenvalues --   -0.34851  -0.34042  -0.33127  -0.32891  -0.27190
 Alpha  occ. eigenvalues --   -0.09675
 Alpha virt. eigenvalues --    0.11904   0.12968   0.14039   0.15066   0.15538
 Alpha virt. eigenvalues --    0.16600   0.17931   0.18642   0.18914   0.19838
 Alpha virt. eigenvalues --    0.20946   0.22515   0.22874   0.23465   0.23956

 Mulliken charges:
               1
     1  C   -1.983586
     2  C    1.304322
     3  Cl  -0.291808
     4  H   -0.085668
     5  C    0.976924
     6  H   -0.004099
     7  H   -0.035076
     8  H   -0.097460
     9  C    1.010472
    10  H   -0.027856
    11  H   -0.055236
    12  H   -0.033004
    13  C   -0.239137
    14  N   -0.292132
    15  N   -0.480114
    16  H    0.013229
    17  H    0.051383
    18  H   -0.731153
 Sum of Mulliken charges =  -1.00000

 Dipole moment (field-independent basis, Debye):
    X=             -5.5683    Y=             -6.8845    Z=             -5.5015  Tot=             10.4244

 Test job not archived.
 1\1\GINC-SE220\SP\RHF\Aug-CC-pVDZ\C5H10Cl1N2(1-)\OHZDE\09-Apr-2025\0\\
 #t hf aug-cc-pvdz iop(5/13=1,5/36=2,99/5=2) pseudo=read geom=check gue
 ss=(read,tcheck) scf=(maxcycle=1)\\title\\-1,1\C,0,-0.016327,-0.000294
 ,-0.018753\C,0,-0.357636,0.321991,-1.498305\Cl,0,1.81547,0.026754,0.09
 1259\H,0,0.302567,-0.305578,-2.110256\C,0,-0.575797,1.017567,0.951342\
 H,0,-0.274209,0.760951,1.970797\H,0,-1.672944,0.967349,0.884\H,0,-0.22
 123,2.024793,0.723322\C,0,-0.49829,-1.394992,0.328144\H,0,-0.156071,-2
 .129502,-0.408044\H,0,-0.118389,-1.685373,1.310824\H,0,-1.593984,-1.36

 Normal termination of Gaussian 16 at Wed Apr  9 02:52:43 2025.
