 Gaussian 16, Revision C.01,

 ----------------------------------------------------------------------
 #t hf aug-cc-pvdz symm=none int=(grid=ultrafine) guess=(read,tcheck) s
 table=(opt,rrhf)
 ----------------------------------------------------------------------
 -----
 title
 -----
 Symbolic Z-matrix:
 Charge = -1 Multiplicity = 1

 SCF Done:  E(RHF) =  -591.186789058     A.U. after   15 cycles
 Normal termination of Gaussian 16 at Wed Apr  9 02:38:06 2025.
 Gaussian 16:  ES64L-G16RevC.01  3-Jul-2019

 ----------------------------------------------------------------------
 #t hf aug-cc-pvdz iop(5/13=1,5/36=2,99/5=2) pseudo=read geom=check gue
 ss=(read,tcheck) scf=(maxcycle=1)
 ----------------------------------------------------------------------
 -----
 title
 -----
 Structure from the checkpoint file:  "E2SN2_194_mol2.chk"
 Charge = -1 Multiplicity = 1

                         Standard orientation:
 ---------------------------------------------------------------------
 Center     Atomic      Atomic             Coordinates (Angstroms)
 Number     Number       Type             X           Y           Z
 ---------------------------------------------------------------------
      1          6           0        0.366477    1.029999    0.354977
      2          6           0       -0.045619   -0.366594   -0.095964
      3          9           0       -0.397819    1.942859   -0.437100
      4          1           0        0.260027   -0.509895   -1.130824
      5          1           0        0.002141    1.205385    1.374900
      6          7           0        1.741834    1.224764    0.191498
      7          1           0        2.179338    1.599248    1.017255
      8          1           0        2.244615    0.373404   -0.163799
      9          7           0       -1.552134   -0.416989   -0.092072
     10          8           0       -2.142298   -0.614772   -1.151936
     11          8           0       -2.104084   -0.273947    0.999441
     12          7           0        0.459544   -1.445853    0.692540
     13          1           0        0.487811   -1.161915    1.665773
     14          1           0        1.435437   -1.551364    0.330999
     15          9           0        2.719133   -1.093859   -0.559810
 ---------------------------------------------------------------------

 SCF Done:  E(RHF) =  -591.369813271     A.U. after    2 cycles

 The electronic state is 1-A.
 Alpha  occ. eigenvalues --  -25.96532 -25.78268 -20.49356 -20.48877 -15.77650
 Alpha  occ. eigenvalues --  -15.47174 -15.46501 -11.22883 -11.19740  -1.49510
 Alpha  occ. eigenvalues --   -1.41116  -1.27652  -1.22950  -1.07555  -1.01252
 Alpha  occ. eigenvalues --   -0.89194  -0.78264  -0.70204  -0.64893  -0.62451
 Alpha  occ. eigenvalues --   -0.60913  -0.59852  -0.57254  -0.56360  -0.52706
 Alpha  occ. eigenvalues --   -0.50508  -0.47043  -0.45406  -0.41245  -0.38539
 Alpha  occ. eigenvalues --   -0.38093  -0.37215  -0.36135  -0.34773  -0.34606
 Alpha  occ. eigenvalues --   -0.27344  -0.27009
 Alpha virt. eigenvalues --    0.12649   0.14563   0.15086   0.16368   0.19043
 Alpha virt. eigenvalues --    0.19617   0.20845   0.21100   0.22502   0.24010
 Alpha virt. eigenvalues --    0.25098   0.25968   0.26364   0.28068   0.29204

 Mulliken charges:
               1
     1  C    0.979377
     2  C    1.291766
     3  F   -0.424563
     4  H   -0.189350
     5  H   -0.156896
     6  N   -0.477070
     7  H    0.008979
     8  H    0.126758
     9  N    0.274814
    10  O   -0.610536
    11  O   -0.623312
    12  N   -0.458881
    13  H    0.005673
    14  H    0.169199
    15  F   -0.915958
 Sum of Mulliken charges =  -1.00000

 Dipole moment (field-independent basis, Debye):
    X=             -2.4601    Y=              2.4778    Z=              3.8549  Tot=              5.2012

 Test job not archived.
 1\1\GINC-SE457\SP\RHF\Aug-CC-pVDZ\C2H6F2N3O2(1-)\OHZDE\09-Apr-2025\0\\
 #t hf aug-cc-pvdz iop(5/13=1,5/36=2,99/5=2) pseudo=read geom=check gue
 ss=(read,tcheck) scf=(maxcycle=1)\\title\\-1,1\C,0,0.168159,0.028207,-
 0.010715\C,0,-0.354527,0.801042,-1.216189\F,0,1.418637,-0.535808,-0.41
 4496\H,0,-0.566573,0.10058,-2.021968\H,0,0.447091,0.734405,0.781261\N,
 0,-0.742132,-0.956183,0.387546\H,0,-0.928809,-0.931665,1.376522\H,0,-1
 .62861,-0.957606,-0.176362\N,0,0.76513,1.681769,-1.708965\O,0,1.206265
 ,1.503044,-2.842182\O,0,1.159199,2.554683,-0.934858\N,0,-1.512124,1.60

 Normal termination of Gaussian 16 at Wed Apr  9 02:38:13 2025.
