 Gaussian 16, Revision C.01,

 ----------------------------------------------------------------------
 #t hf aug-cc-pvdz symm=none int=(grid=ultrafine) guess=(read,tcheck) s
 table=(opt,rrhf)
 ----------------------------------------------------------------------
 -----
 title
 -----
 Symbolic Z-matrix:
 Charge = -1 Multiplicity = 1

 SCF Done:  E(RHF) =  -836.247986087     A.U. after   17 cycles
 Normal termination of Gaussian 16 at Wed Apr  9 02:33:07 2025.
 Gaussian 16:  ES64L-G16RevC.01  3-Jul-2019

 ----------------------------------------------------------------------
 #t hf aug-cc-pvdz iop(5/13=1,5/36=2,99/5=2) pseudo=read geom=check gue
 ss=(read,tcheck) scf=(maxcycle=1)
 ----------------------------------------------------------------------
 -----
 title
 -----
 Structure from the checkpoint file:  "E2SN2_129_mol2.chk"
 Charge = -1 Multiplicity = 1

                         Standard orientation:
 ---------------------------------------------------------------------
 Center     Atomic      Atomic             Coordinates (Angstroms)
 Number     Number       Type             X           Y           Z
 ---------------------------------------------------------------------
      1          6           0        0.255645   -0.253426    0.370762
      2          6           0        0.364754    1.184481    0.874137
      3         17           0        1.414107   -0.504374   -0.963861
      4          1           0        1.376038    1.250590    1.286819
      5          1           0       -0.321707    1.253445    1.723640
      6          7           0        0.440557   -1.269275    1.329812
      7          1           0       -0.261563   -1.118760    2.050764
      8          1           0        1.389485   -1.049598    1.833621
      9          7           0       -1.182100   -0.386870   -0.217257
     10          8           0       -2.069167   -0.355023    0.635954
     11          8           0       -1.379081   -0.463085   -1.423854
     12          6           0        0.058888    2.274897   -0.144314
     13          1           0       -0.971212    2.209601   -0.507066
     14          1           0        0.186732    3.260765    0.311779
     15          1           0        0.724782    2.211046   -1.006118
     16          1           0        2.538690   -0.540564    2.604001
 ---------------------------------------------------------------------

 SCF Done:  E(RHF) =  -836.381690363     A.U. after    2 cycles

 The electronic state is 1-A.
 Alpha  occ. eigenvalues -- -103.53555 -20.51145 -20.50503 -15.79342 -15.46918
 Alpha  occ. eigenvalues --  -11.27593 -11.13076 -11.12824 -10.56960  -8.22684
 Alpha  occ. eigenvalues --   -8.22382  -8.22377  -1.42969  -1.24841  -1.10929
 Alpha  occ. eigenvalues --   -0.99404  -0.93224  -0.86241  -0.76768  -0.69472
 Alpha  occ. eigenvalues --   -0.62666  -0.61409  -0.60934  -0.52715  -0.50788
 Alpha  occ. eigenvalues --   -0.48136  -0.46062  -0.43993  -0.41458  -0.40605
 Alpha  occ. eigenvalues --   -0.39098  -0.37635  -0.36221  -0.33872  -0.33734
 Alpha  occ. eigenvalues --   -0.27401  -0.09637
 Alpha virt. eigenvalues --    0.11735   0.13906   0.14375   0.15512   0.16550
 Alpha virt. eigenvalues --    0.18502   0.18928   0.19718   0.21425   0.21710
 Alpha virt. eigenvalues --    0.22601   0.23244   0.23390   0.25040   0.25212

 Mulliken charges:
               1
     1  C    0.702509
     2  C    0.267867
     3  Cl  -0.151183
     4  H   -0.022983
     5  H   -0.028896
     6  N   -0.490560
     7  H    0.045630
     8  H    0.133364
     9  N    0.300040
    10  O   -0.628819
    11  O   -0.624858
    12  C    0.450853
    13  H   -0.044922
    14  H   -0.072885
    15  H   -0.064888
    16  H   -0.770270
 Sum of Mulliken charges =  -1.00000

 Dipole moment (field-independent basis, Debye):
    X=             -6.5688    Y=              4.3566    Z=             -6.5317  Tot=             10.2368

 Test job not archived.
 1\1\GINC-SE051\SP\RHF\Aug-CC-pVDZ\C3H8Cl1N2O2(1-)\OHZDE\09-Apr-2025\0\
 \#t hf aug-cc-pvdz iop(5/13=1,5/36=2,99/5=2) pseudo=read geom=check gu
 ess=(read,tcheck) scf=(maxcycle=1)\\title\\-1,1\C,0,-0.14113,0.238655,
 -1.390964\C,0,0.058227,0.051039,0.111676\Cl,0,0.134786,1.949965,-1.817
 011\H,0,1.117215,0.273736,0.273922\H,0,-0.064611,-1.020871,0.294863\N,
 0,0.64535,-0.571811,-2.233884\H,0,0.430902,-1.536471,-1.991314\H,0,1.6
 84002,-0.440753,-1.90743\N,0,-1.642926,-0.081499,-1.660767\O,0,-1.9269
 86,-1.271159,-1.519734\O,0,-2.449087,0.798963,-1.935318\C,0,-0.869677,

 Normal termination of Gaussian 16 at Wed Apr  9 02:33:14 2025.
