 Gaussian 16, Revision C.01,

 ----------------------------------------------------------------------
 #t hf aug-cc-pvdz symm=none int=(grid=ultrafine) guess=(read,tcheck) s
 table=(opt,rrhf)
 ----------------------------------------------------------------------
 -----
 title
 -----
 Symbolic Z-matrix:
 Charge = -1 Multiplicity = 1

 SCF Done:  E(RHF) =  -695.648112332     A.U. after   17 cycles
 Normal termination of Gaussian 16 at Wed Apr  9 02:57:03 2025.
 Gaussian 16:  ES64L-G16RevC.01  3-Jul-2019

 ----------------------------------------------------------------------
 #t hf aug-cc-pvdz iop(5/13=1,5/36=2,99/5=2) pseudo=read geom=check gue
 ss=(read,tcheck) scf=(maxcycle=1)
 ----------------------------------------------------------------------
 -----
 title
 -----
 Structure from the checkpoint file:  "E2SN2_407_mol1.chk"
 Charge = -1 Multiplicity = 1

                         Standard orientation:
 ---------------------------------------------------------------------
 Center     Atomic      Atomic             Coordinates (Angstroms)
 Number     Number       Type             X           Y           Z
 ---------------------------------------------------------------------
      1          6           0       -1.222442   -0.431248    0.142502
      2          1           0        0.230436    0.138841    1.591180
      3          9           0       -1.648086    0.880409   -0.674841
      4          1           0       -0.606855   -1.834190    1.150017
      5          6           0        0.194366   -0.041808    0.527133
      6          7           0       -1.455141   -1.334207   -0.952365
      7          1           0       -2.267414   -1.000568   -1.454465
      8          1           0       -1.579586   -2.266250   -0.595181
      9          7           0       -2.167734   -0.205708    1.227063
     10          1           0       -2.451358   -1.094157    1.604284
     11          1           0       -2.953199    0.296021    0.830471
     12          7           0        0.655772    1.307274   -0.100712
     13          8           0        1.125791    1.307178   -1.233365
     14          8           0        0.504598    2.298420    0.609015
     15          7           0        1.338047   -0.950741    0.196242
     16          8           0        2.255969   -0.917104    1.022955
     17          8           0        1.367717   -1.568663   -0.856372
 ---------------------------------------------------------------------

 SCF Done:  E(RHF) =  -695.859093728     A.U. after    2 cycles

 The electronic state is 1-A.
 Alpha  occ. eigenvalues --  -25.91147 -20.48783 -20.48774 -20.48625 -20.48095
 Alpha  occ. eigenvalues --  -15.78538 -15.77852 -15.48926 -15.48218 -11.28664
 Alpha  occ. eigenvalues --  -11.24283  -1.43213  -1.41585  -1.39970  -1.22953
 Alpha  occ. eigenvalues --   -1.22459  -1.08050  -0.99169  -0.98587  -0.80468
 Alpha  occ. eigenvalues --   -0.77024  -0.68793  -0.65381  -0.63315  -0.61918
 Alpha  occ. eigenvalues --   -0.59959  -0.58421  -0.57609  -0.56516  -0.54634
 Alpha  occ. eigenvalues --   -0.51839  -0.50351  -0.46741  -0.46043  -0.45144
 Alpha  occ. eigenvalues --   -0.40163  -0.38432  -0.37772  -0.36444  -0.34081
 Alpha  occ. eigenvalues --   -0.33589  -0.31804  -0.26148  -0.14839
 Alpha virt. eigenvalues --    0.11935   0.13589   0.14606   0.15703   0.17480
 Alpha virt. eigenvalues --    0.18604   0.19925   0.21915   0.22448   0.23069
 Alpha virt. eigenvalues --    0.23923   0.25000   0.26243   0.26956   0.27373

 Mulliken charges:
               1
     1  C   -0.138555
     2  H   -0.243103
     3  F   -0.576345
     4  H   -0.298949
     5  C    2.401595
     6  N   -0.134372
     7  H   -0.031813
     8  H    0.031307
     9  N   -0.176109
    10  H    0.032088
    11  H   -0.009960
    12  N    0.415227
    13  O   -0.645860
    14  O   -0.665903
    15  N    0.233385
    16  O   -0.628390
    17  O   -0.564242
 Sum of Mulliken charges =  -1.00000

 Dipole moment (field-independent basis, Debye):
    X=             -3.4427    Y=             -0.1621    Z=             -0.0335  Tot=              3.4467

 Test job not archived.
 1\1\GINC-SE462\SP\RHF\Aug-CC-pVDZ\C2H6F1N4O4(1-)\OHZDE\09-Apr-2025\0\\
 #t hf aug-cc-pvdz iop(5/13=1,5/36=2,99/5=2) pseudo=read geom=check gue
 ss=(read,tcheck) scf=(maxcycle=1)\\title\\-1,1\C,0,0.43344475,-0.17298
 444,0.09549401\H,0,1.47411148,1.52925272,0.839756\F,0,-0.93461094,-0.3
 1613374,0.91865784\H,0,2.01900919,0.14810079,-0.7677382\C,0,0.6323687,
 1.32960977,0.19342576\N,0,-0.09067592,-0.75880959,-1.10880042\H,0,-0.7
 2170879,-1.50097617,-0.83641448\H,0,0.6703595,-1.08999901,-1.67705129\
 N,0,1.23447635,-0.89791846,1.07198502\H,0,1.98579795,-1.36746096,0.595

 Normal termination of Gaussian 16 at Wed Apr  9 02:57:12 2025.
