 Gaussian 16, Revision C.01,

 ----------------------------------------------------------------------
 #t hf aug-cc-pvdz symm=none int=(grid=ultrafine) guess=(read,tcheck) s
 table=(opt,rrhf)
 ----------------------------------------------------------------------
 -----
 title
 -----
 Symbolic Z-matrix:
 Charge = -1 Multiplicity = 1

 SCF Done:  E(RHF) =  -935.210989898     A.U. after   16 cycles
 Normal termination of Gaussian 16 at Wed Apr  9 02:53:29 2025.
 Gaussian 16:  ES64L-G16RevC.01  3-Jul-2019

 ----------------------------------------------------------------------
 #t hf aug-cc-pvdz iop(5/13=1,5/36=2,99/5=2) pseudo=read geom=check gue
 ss=(read,tcheck) scf=(maxcycle=1)
 ----------------------------------------------------------------------
 -----
 title
 -----
 Structure from the checkpoint file:  "E2SN2_35_mol2.chk"
 Charge = -1 Multiplicity = 1

                         Standard orientation:
 ---------------------------------------------------------------------
 Center     Atomic      Atomic             Coordinates (Angstroms)
 Number     Number       Type             X           Y           Z
 ---------------------------------------------------------------------
      1          6           0       -0.157790    0.217081    0.079195
      2          6           0        0.772703   -0.241924   -1.027094
      3         17           0       -0.924685    1.775368   -0.413986
      4          1           0        1.493416    0.567839   -1.166461
      5          1           0        0.186683   -0.400940   -1.934523
      6          7           0       -1.340093   -0.753582    0.186707
      7          8           0       -1.812430   -1.191574   -0.857952
      8          8           0       -1.772400   -1.010205    1.307379
      9          6           0        0.544773    0.363604    1.402922
     10          1           0       -0.039292    0.961869    2.102205
     11          1           0        0.690844   -0.635570    1.812046
     12          1           0        1.553415    0.752881    1.201770
     13          7           0        1.442941   -1.448533   -0.556428
     14          1           0        1.705342   -2.002066   -1.363435
     15          1           0        2.310663   -1.037469   -0.138806
     16          9           0        3.202130    0.289853    0.309718
 ---------------------------------------------------------------------

 SCF Done:  E(RHF) =  -935.372889872     A.U. after    2 cycles

 The electronic state is 1-A.
 Alpha  occ. eigenvalues -- -103.54911 -25.74838 -20.50184 -20.49938 -15.79108
 Alpha  occ. eigenvalues --  -15.44817 -11.24345 -11.13118 -11.09209 -10.58248
 Alpha  occ. eigenvalues --   -8.23968  -8.23684  -8.23674  -1.42360  -1.24126
 Alpha  occ. eigenvalues --   -1.23696  -1.08604  -1.00569  -0.92078  -0.82158
 Alpha  occ. eigenvalues --   -0.77630  -0.68282  -0.61868  -0.60537  -0.58483
 Alpha  occ. eigenvalues --   -0.53260  -0.49400  -0.46917  -0.43912  -0.42995
 Alpha  occ. eigenvalues --   -0.40265  -0.39502  -0.38159  -0.37708  -0.35356
 Alpha  occ. eigenvalues --   -0.34659  -0.34002  -0.33457  -0.32562  -0.32014
 Alpha  occ. eigenvalues --   -0.24743
 Alpha virt. eigenvalues --    0.13310   0.14008   0.14920   0.16724   0.16975
 Alpha virt. eigenvalues --    0.17788   0.18849   0.19207   0.20432   0.22383
 Alpha virt. eigenvalues --    0.24217   0.24658   0.25503   0.26540   0.26858

 Mulliken charges:
               1
     1  C   -0.642202
     2  C    1.185336
     3  Cl  -0.246631
     4  H    0.009585
     5  H   -0.087241
     6  N    0.362834
     7  O   -0.652222
     8  O   -0.599614
     9  C    0.753428
    10  H   -0.038261
    11  H    0.160437
    12  H    0.034661
    13  N   -0.433401
    14  H   -0.048735
    15  H    0.211253
    16  F   -0.969228
 Sum of Mulliken charges =  -1.00000

 Dipole moment (field-independent basis, Debye):
    X=             -6.0054    Y=              0.6750    Z=             -1.6421  Tot=              6.2623

 Test job not archived.
 1\1\GINC-SE120\SP\RHF\Aug-CC-pVDZ\C3H7Cl1F1N2O2(1-)\OHZDE\09-Apr-2025\
 0\\#t hf aug-cc-pvdz iop(5/13=1,5/36=2,99/5=2) pseudo=read geom=check
 guess=(read,tcheck) scf=(maxcycle=1)\\title\\-1,1\C,0,-0.336921,-0.035
 211,-1.502109\C,0,-0.177098,-0.147049,0.001994\Cl,0,-0.202392,-1.68360
 7,-2.226199\H,0,0.799033,-0.610895,0.165034\H,0,-0.977428,-0.778162,0.
 393529\N,0,-1.772161,0.392323,-1.832091\O,0,-2.678151,-0.094139,-1.162
 175\O,0,-1.939215,1.167489,-2.770099\C,0,0.663945,0.903326,-2.122378\H
 ,0,0.738374,0.754509,-3.19958\H,0,0.333929,1.921208,-1.917261\H,0,1.61

 Normal termination of Gaussian 16 at Wed Apr  9 02:53:37 2025.
