 Gaussian 16, Revision C.01,

 ----------------------------------------------------------------------
 #t hf aug-cc-pvdz symm=none int=(grid=ultrafine) guess=(read,tcheck) s
 table=(opt,rrhf)
 ----------------------------------------------------------------------
 -----
 title
 -----
 Symbolic Z-matrix:
 Charge = -1 Multiplicity = 1

 SCF Done:  E(RHF) =  -823.439846931     A.U. after   16 cycles
 Normal termination of Gaussian 16 at Wed Apr  9 02:54:17 2025.
 Gaussian 16:  ES64L-G16RevC.01  3-Jul-2019

 ----------------------------------------------------------------------
 #t hf aug-cc-pvdz iop(5/13=1,5/36=2,99/5=2) pseudo=read geom=check gue
 ss=(read,tcheck) scf=(maxcycle=1)
 ----------------------------------------------------------------------
 -----
 title
 -----
 Structure from the checkpoint file:  "E2SN2_373_mol1.chk"
 Charge = -1 Multiplicity = 1

                         Standard orientation:
 ---------------------------------------------------------------------
 Center     Atomic      Atomic             Coordinates (Angstroms)
 Number     Number       Type             X           Y           Z
 ---------------------------------------------------------------------
      1          6           0        0.421633   -0.430977    0.341043
      2          1           0        0.146438    1.058386   -1.146314
      3          9           0       -1.215876   -0.886361    1.461469
      4         17           0        2.429383    0.230170   -0.323440
      5          6           0       -0.396818    0.690276   -0.271477
      6          1           0        0.777431   -0.313392    1.347626
      7          7           0        0.357753   -1.679528   -0.307556
      8          1           0       -0.531726   -2.041622    0.034517
      9          1           0        1.105538   -2.265122    0.042491
     10          6           0       -0.587853    1.818008    0.737664
     11          1           0       -1.127503    1.402369    1.586282
     12          1           0        0.393776    2.179802    1.052800
     13          1           0       -1.145644    2.650757    0.301192
     14          6           0       -1.688795    0.207755   -0.772223
     15          7           0       -2.709746   -0.080073   -1.275783
 ---------------------------------------------------------------------

 SCF Done:  E(RHF) =  -823.562581525     A.U. after    2 cycles

 The electronic state is 1-A.
 Alpha  occ. eigenvalues -- -103.43968 -25.79257 -15.49804 -15.49036 -11.24055
 Alpha  occ. eigenvalues --  -11.15943 -11.15822 -11.11322 -10.47270  -8.12907
 Alpha  occ. eigenvalues --   -8.12779  -8.12767  -1.29007  -1.06870  -1.03792
 Alpha  occ. eigenvalues --   -0.95000  -0.90405  -0.78490  -0.71633  -0.56897
 Alpha  occ. eigenvalues --   -0.56180  -0.53266  -0.49927  -0.44468  -0.41665
 Alpha  occ. eigenvalues --   -0.41252  -0.40530  -0.38578  -0.38041  -0.37804
 Alpha  occ. eigenvalues --   -0.31706  -0.31078  -0.30398  -0.26966  -0.26714
 Alpha  occ. eigenvalues --   -0.25649
 Alpha virt. eigenvalues --    0.12742   0.13915   0.14767   0.15402   0.16562
 Alpha virt. eigenvalues --    0.16882   0.18431   0.20051   0.21284   0.22541
 Alpha virt. eigenvalues --    0.24014   0.25030   0.25256   0.26300   0.26654

 Mulliken charges:
               1
     1  C    0.781670
     2  H   -0.014431
     3  F   -0.871318
     4  Cl  -0.615087
     5  C    0.147830
     6  H   -0.164518
     7  N   -0.456978
     8  H    0.171082
     9  H    0.040095
    10  C    0.544846
    11  H    0.140482
    12  H   -0.004951
    13  H   -0.113733
    14  C   -0.242366
    15  N   -0.342622
 Sum of Mulliken charges =  -1.00000

 Dipole moment (field-independent basis, Debye):
    X=              1.5437    Y=              1.7163    Z=              0.2984  Tot=              2.3276

 Test job not archived.
 1\1\GINC-SE364\SP\RHF\Aug-CC-pVDZ\C4H7Cl1F1N2(1-)\OHZDE\09-Apr-2025\0\
 \#t hf aug-cc-pvdz iop(5/13=1,5/36=2,99/5=2) pseudo=read geom=check gu
 ess=(read,tcheck) scf=(maxcycle=1)\\title\\-1,1\C,0,0.72517013,-0.0424
 5266,-0.03925519\H,0,1.61153761,1.86905627,-0.2974221\F,0,-1.30847158,
 -0.10002537,-0.11104219\Cl,0,2.83707195,-0.1902882,0.61475475\C,0,0.61
 383179,1.46976009,-0.09464925\H,0,0.46523691,-0.54116822,0.87581017\N,
 0,0.81405363,-0.70969546,-1.27640035\H,0,-0.16096907,-0.7180095,-1.573
 98968\H,0,1.11328544,-1.66227405,-1.10999821\C,0,0.09435047,2.01097849

 Normal termination of Gaussian 16 at Wed Apr  9 02:54:23 2025.
