 Gaussian 16, Revision C.01,

 ----------------------------------------------------------------------
 #t hf aug-cc-pvdz symm=none int=(grid=ultrafine) guess=(read,tcheck) s
 table=(opt,rrhf)
 ----------------------------------------------------------------------
 -----
 title
 -----
 Symbolic Z-matrix:
 Charge = -1 Multiplicity = 1

 SCF Done:  E(RHF) =  -833.911209931     A.U. after   17 cycles
 Normal termination of Gaussian 16 at Wed Apr  9 02:55:34 2025.
 Gaussian 16:  ES64L-G16RevC.01  3-Jul-2019

 ----------------------------------------------------------------------
 #t hf aug-cc-pvdz iop(5/13=1,5/36=2,99/5=2) pseudo=read geom=check gue
 ss=(read,tcheck) scf=(maxcycle=1)
 ----------------------------------------------------------------------
 -----
 title
 -----
 Structure from the checkpoint file:  "E2SN2_3_mol2.chk"
 Charge = -1 Multiplicity = 1

                         Standard orientation:
 ---------------------------------------------------------------------
 Center     Atomic      Atomic             Coordinates (Angstroms)
 Number     Number       Type             X           Y           Z
 ---------------------------------------------------------------------
      1          6           0        0.136297   -0.017815    0.402909
      2          6           0       -0.847057   -1.023036   -0.147904
      3         17           0       -0.119255    1.643480   -0.208273
      4          1           0       -0.650579   -1.881565    0.503814
      5          1           0        0.128234   -0.055981    1.495971
      6          1           0       -0.639175   -1.249362   -1.193663
      7          7           0        1.547058   -0.399040    0.019683
      8          8           0        2.439266    0.119391    0.677875
      9          8           0        1.709916   -1.147256   -0.940452
     10          6           0       -2.225362   -0.586696    0.012328
     11          7           0       -3.351692   -0.276248    0.131046
     12          1           0        0.244564   -2.037030    2.176028
 ---------------------------------------------------------------------

 SCF Done:  E(RHF) =  -834.042759085     A.U. after    2 cycles

 The electronic state is 1-A.
 Alpha  occ. eigenvalues -- -103.57308 -20.51371 -20.51202 -15.80854 -15.53523
 Alpha  occ. eigenvalues --  -11.26320 -11.19054 -11.17023 -10.60633  -8.26361
 Alpha  occ. eigenvalues --   -8.26058  -8.26042  -1.43759  -1.25616  -1.10633
 Alpha  occ. eigenvalues --   -1.07221  -0.97024  -0.88381  -0.72726  -0.65613
 Alpha  occ. eigenvalues --   -0.63570  -0.61977  -0.58229  -0.54767  -0.49466
 Alpha  occ. eigenvalues --   -0.45179  -0.44265  -0.41919  -0.40702  -0.37661
 Alpha  occ. eigenvalues --   -0.36754  -0.36055  -0.34464  -0.34172  -0.10089
 Alpha virt. eigenvalues --    0.13302   0.15373   0.16879   0.17546   0.18536
 Alpha virt. eigenvalues --    0.18903   0.21593   0.22356   0.22650   0.23997
 Alpha virt. eigenvalues --    0.24661   0.25911   0.26065   0.26424   0.27018

 Mulliken charges:
               1
     1  C    0.538608
     2  C    0.310041
     3  Cl  -0.152739
     4  H    0.148926
     5  H   -0.169613
     6  H    0.104373
     7  N    0.482504
     8  O   -0.587863
     9  O   -0.623079
    10  C   -0.050588
    11  N   -0.293957
    12  H   -0.706613
 Sum of Mulliken charges =  -1.00000

 Dipole moment (field-independent basis, Debye):
    X=             -0.1660    Y=              6.1819    Z=             -7.3047  Tot=              9.5709

 Test job not archived.
 1\1\GINC-SE229\SP\RHF\Aug-CC-pVDZ\C3H4Cl1N2O2(1-)\OHZDE\09-Apr-2025\0\
 \#t hf aug-cc-pvdz iop(5/13=1,5/36=2,99/5=2) pseudo=read geom=check gu
 ess=(read,tcheck) scf=(maxcycle=1)\\title\\-1,1\C,0,-0.181222,0.05487,
 -1.39699\C,0,-0.081873,-0.065175,0.105198\Cl,0,-1.828431,0.440074,-1.9
 77566\H,0,1.005452,-0.081011,0.238939\H,0,0.557545,0.776021,-1.758199\
 H,0,-0.549616,-0.982908,0.461614\N,0,0.206927,-1.248658,-2.054711\O,0,
 0.500201,-1.183155,-3.241186\O,0,0.154572,-2.2783,-1.387399\C,0,-0.646
 378,1.089465,0.786322\N,0,-1.082858,2.007359,1.37458\H,0,2.440916,0.40

 Normal termination of Gaussian 16 at Wed Apr  9 02:55:41 2025.
