 Gaussian 16, Revision C.01,

 ----------------------------------------------------------------------
 #t hf aug-cc-pvdz symm=none int=(grid=ultrafine) guess=(read,tcheck) s
 table=(opt,rrhf)
 ----------------------------------------------------------------------
 -----
 title
 -----
 Symbolic Z-matrix:
 Charge = -1 Multiplicity = 1

 SCF Done:  E(RHF) =  -888.927032692     A.U. after   18 cycles
 Normal termination of Gaussian 16 at Wed Apr  9 02:31:04 2025.
 Gaussian 16:  ES64L-G16RevC.01  3-Jul-2019

 ----------------------------------------------------------------------
 #t hf aug-cc-pvdz iop(5/13=1,5/36=2,99/5=2) pseudo=read geom=check gue
 ss=(read,tcheck) scf=(maxcycle=1)
 ----------------------------------------------------------------------
 -----
 title
 -----
 Structure from the checkpoint file:  "E2SN2_118_mol2.chk"
 Charge = -1 Multiplicity = 1

                         Standard orientation:
 ---------------------------------------------------------------------
 Center     Atomic      Atomic             Coordinates (Angstroms)
 Number     Number       Type             X           Y           Z
 ---------------------------------------------------------------------
      1          6           0       -0.594968   -0.037544    0.219730
      2          6           0        0.577589   -0.680748   -0.506936
      3         17           0       -2.026347   -1.066908   -0.188155
      4          1           0        0.488297   -0.473182   -1.585522
      5          1           0        0.587585   -1.763466   -0.396208
      6          7           0       -0.521797    0.033239    1.670471
      7          1           0       -0.289984   -0.896318    2.007400
      8          1           0        0.265316    0.643120    1.875760
      9          6           0       -0.893502    1.317997   -0.271957
     10          7           0       -1.189929    2.408369   -0.591135
     11          7           0        1.830247   -0.165275   -0.074971
     12          8           0        2.847364   -0.854563   -0.283965
     13          8           0        1.868493    1.017062    0.346466
     14          1           0        0.305461   -0.205264   -2.878379
 ---------------------------------------------------------------------

 SCF Done:  E(RHF) =  -889.072538132     A.U. after    2 cycles

 The electronic state is 1-A.
 Alpha  occ. eigenvalues -- -103.56378 -20.49402 -20.49131 -15.78502 -15.54164
 Alpha  occ. eigenvalues --  -15.53429 -11.28885 -11.18489 -11.16364 -10.59699
 Alpha  occ. eigenvalues --   -8.25417  -8.25118  -8.25104  -1.40372  -1.22151
 Alpha  occ. eigenvalues --   -1.14545  -1.06078  -1.03299  -0.98371  -0.83676
 Alpha  occ. eigenvalues --   -0.73205  -0.65680  -0.62192  -0.61529  -0.59834
 Alpha  occ. eigenvalues --   -0.55095  -0.52579  -0.47756  -0.45420  -0.43102
 Alpha  occ. eigenvalues --   -0.40443  -0.38925  -0.37694  -0.36457  -0.35828
 Alpha  occ. eigenvalues --   -0.34437  -0.33610  -0.32694  -0.10363
 Alpha virt. eigenvalues --    0.11490   0.13809   0.15426   0.16711   0.18477
 Alpha virt. eigenvalues --    0.19143   0.20912   0.21551   0.21901   0.22080
 Alpha virt. eigenvalues --    0.23118   0.23677   0.24864   0.25270   0.26401

 Mulliken charges:
               1
     1  C    0.702833
     2  C    1.767264
     3  Cl  -0.135245
     4  H   -0.695080
     5  H   -0.145352
     6  N   -0.474555
     7  H    0.033863
     8  H    0.076708
     9  C   -0.395431
    10  N   -0.220922
    11  N    0.452931
    12  O   -0.656634
    13  O   -0.709217
    14  H   -0.601162
 Sum of Mulliken charges =  -1.00000

 Dipole moment (field-independent basis, Debye):
    X=             -2.0810    Y=             -3.5046    Z=              9.6473  Tot=             10.4730

 Test job not archived.
 1\1\GINC-SE127\SP\RHF\Aug-CC-pVDZ\C3H5Cl1N3O2(1-)\OHZDE\09-Apr-2025\0\
 \#t hf aug-cc-pvdz iop(5/13=1,5/36=2,99/5=2) pseudo=read geom=check gu
 ess=(read,tcheck) scf=(maxcycle=1)\\title\\-1,1\C,0,-0.503239,0.076617
 ,-1.426278\C,0,-0.001643,-0.001357,0.008632\Cl,0,-0.152677,-1.549456,-
 2.138879\H,0,1.100142,0.020071,0.004858\H,0,-0.295124,-0.92804,0.49829
 2\N,0,-1.921636,0.330288,-1.623289\H,0,-2.430513,-0.332309,-1.04593\H,
 0,-2.088307,1.260603,-1.248616\C,0,0.235736,1.061729,-2.233645\N,0,0.7
 6015,1.835456,-2.944272\N,0,-0.447522,1.094006,0.797828\O,0,-0.448316,

 Normal termination of Gaussian 16 at Wed Apr  9 02:31:11 2025.
