 Gaussian 16, Revision C.01,

 ----------------------------------------------------------------------
 #t hf aug-cc-pvdz symm=none int=(grid=ultrafine) guess=(read,tcheck) s
 table=(opt,rrhf)
 ----------------------------------------------------------------------
 -----
 title
 -----
 Symbolic Z-matrix:
 Charge = -1 Multiplicity = 1

 SCF Done:  E(RHF) =  -502.371603562     A.U. after   16 cycles
 Normal termination of Gaussian 16 at Wed Apr  9 02:47:53 2025.
 Gaussian 16:  ES64L-G16RevC.01  3-Jul-2019

 ----------------------------------------------------------------------
 #t hf aug-cc-pvdz iop(5/13=1,5/36=2,99/5=2) pseudo=read geom=check gue
 ss=(read,tcheck) scf=(maxcycle=1)
 ----------------------------------------------------------------------
 -----
 title
 -----
 Structure from the checkpoint file:  "E2SN2_286_mol1.chk"
 Charge = -1 Multiplicity = 1

                         Standard orientation:
 ---------------------------------------------------------------------
 Center     Atomic      Atomic             Coordinates (Angstroms)
 Number     Number       Type             X           Y           Z
 ---------------------------------------------------------------------
      1          6           0       -0.300182   -0.144939    0.225670
      2          1           0        0.716073   -0.180998   -1.610040
      3          9           0       -0.550657    1.649209    0.751787
      4          9           0       -0.408310   -1.846188   -0.345877
      5          6           0        1.000700    0.055296   -0.574258
      6          6           0       -1.558832    0.096530   -0.456501
      7          7           0       -2.566448    0.248455   -1.042283
      8          6           0       -0.259594   -0.507944    1.693020
      9          1           0       -0.002460   -1.557538    1.815430
     10          1           0        0.476982    0.121562    2.187242
     11          1           0       -1.233438   -0.305166    2.137478
     12          7           0        1.988142   -0.906625   -0.061748
     13          1           0        2.804537   -0.860772   -0.662464
     14          1           0        1.552037   -1.814269   -0.186007
     15          6           0        1.621226    1.441633   -0.549951
     16          1           0        0.924273    2.188102   -0.920636
     17          1           0        1.898665    1.715654    0.466218
     18          1           0        2.522269    1.429968   -1.180068
 ---------------------------------------------------------------------

 SCF Done:  E(RHF) =  -502.522645231     A.U. after    2 cycles

 The electronic state is 1-A.
 Alpha  occ. eigenvalues --  -25.84250 -25.80558 -15.47591 -15.47105 -11.23414
 Alpha  occ. eigenvalues --  -11.14449 -11.14326 -11.09142 -11.08877  -1.34735
 Alpha  occ. eigenvalues --   -1.30799  -1.03499  -1.01651  -0.90738  -0.84504
 Alpha  occ. eigenvalues --   -0.76723  -0.67590  -0.56701  -0.53084  -0.50752
 Alpha  occ. eigenvalues --   -0.47725  -0.46961  -0.46347  -0.43538  -0.41744
 Alpha  occ. eigenvalues --   -0.40917  -0.39454  -0.38584  -0.37527  -0.37177
 Alpha  occ. eigenvalues --   -0.36511  -0.36086  -0.35356  -0.29480  -0.28498
 Alpha  occ. eigenvalues --   -0.26076
 Alpha virt. eigenvalues --    0.12019   0.13465   0.14252   0.14991   0.16123
 Alpha virt. eigenvalues --    0.16594   0.16772   0.17512   0.18309   0.20525
 Alpha virt. eigenvalues --    0.22266   0.23735   0.24384   0.25341   0.25688

 Mulliken charges:
               1
     1  C    0.793589
     2  H   -0.084442
     3  F   -0.810414
     4  F   -0.788374
     5  C   -0.077759
     6  C   -0.880972
     7  N   -0.285122
     8  C    0.482230
     9  H    0.083223
    10  H    0.151034
    11  H   -0.009609
    12  N   -0.297777
    13  H   -0.051374
    14  H    0.090497
    15  C    0.685013
    16  H    0.055448
    17  H    0.062497
    18  H   -0.117690
 Sum of Mulliken charges =  -1.00000

 Dipole moment (field-independent basis, Debye):
    X=              5.4875    Y=             -0.9497    Z=              0.1070  Tot=              5.5701

 Test job not archived.
 1\1\GINC-SE195\SP\RHF\Aug-CC-pVDZ\C5H9F2N2(1-)\OHZDE\09-Apr-2025\0\\#t
  hf aug-cc-pvdz iop(5/13=1,5/36=2,99/5=2) pseudo=read geom=check guess
 =(read,tcheck) scf=(maxcycle=1)\\title\\-1,1\C,0,0.71510683,-0.0698665
 7,-0.0160874\H,0,1.58485425,1.64610415,-0.85447247\F,0,-0.91711765,-0.
 42054321,-0.89436415\F,0,2.38872429,-0.01513878,0.63860094\C,0,0.72201
 807,1.45950426,-0.19843529\C,0,1.2346871,-0.88367874,-1.10034384\N,0,1
 .70595917,-1.52015772,-1.96885306\C,0,0.11688889,-0.70010428,1.2214387
 4\H,0,0.7907662,-0.58503026,2.06724969\H,0,-0.83674187,-0.22044874,1.4

 Normal termination of Gaussian 16 at Wed Apr  9 02:48:02 2025.
