 Gaussian 16, Revision C.01,

 ----------------------------------------------------------------------
 #t hf aug-cc-pvdz symm=none int=(grid=ultrafine) guess=(read,tcheck) s
 table=(opt,rrhf)
 ----------------------------------------------------------------------
 -----
 title
 -----
 Symbolic Z-matrix:
 Charge = -1 Multiplicity = 1

 SCF Done:  E(RHF) =  -935.205329056     A.U. after   16 cycles
 Normal termination of Gaussian 16 at Wed Apr  9 02:51:40 2025.
 Gaussian 16:  ES64L-G16RevC.01  3-Jul-2019

 ----------------------------------------------------------------------
 #t hf aug-cc-pvdz iop(5/13=1,5/36=2,99/5=2) pseudo=read geom=check gue
 ss=(read,tcheck) scf=(maxcycle=1)
 ----------------------------------------------------------------------
 -----
 title
 -----
 Structure from the checkpoint file:  "E2SN2_330_mol2.chk"
 Charge = -1 Multiplicity = 1

                         Standard orientation:
 ---------------------------------------------------------------------
 Center     Atomic      Atomic             Coordinates (Angstroms)
 Number     Number       Type             X           Y           Z
 ---------------------------------------------------------------------
      1          6           0       -0.351797   -0.301329    0.191585
      2          6           0        0.231010   -1.421093   -0.683536
      3         17           0       -2.166173   -0.375205   -0.002690
      4          1           0        0.025890   -1.155061   -1.722794
      5          1           0       -0.366201   -2.311265   -0.455573
      6          6           0        0.028299   -0.374340    1.642444
      7          1           0       -0.548888    0.338881    2.228755
      8          1           0       -0.153876   -1.387698    2.011656
      9          1           0        1.095303   -0.102391    1.649485
     10          7           0       -0.014936    1.088004   -0.355244
     11          8           0        0.291449    1.174342   -1.536873
     12          8           0       -0.193262    2.031314    0.402557
     13          7           0        1.639907   -1.702632   -0.499480
     14          1           0        1.736540   -2.236450    0.357904
     15          1           0        2.110615   -0.789998   -0.282034
     16          9           0        2.368911    0.584466    0.490329
 ---------------------------------------------------------------------

 SCF Done:  E(RHF) =  -935.366867169     A.U. after    2 cycles

 The electronic state is 1-A.
 Alpha  occ. eigenvalues -- -103.54434 -25.75229 -20.47382 -20.47198 -15.77163
 Alpha  occ. eigenvalues --  -15.44371 -11.24121 -11.14174 -11.10014 -10.57763
 Alpha  occ. eigenvalues --   -8.23477  -8.23206  -8.23196  -1.40049  -1.24550
 Alpha  occ. eigenvalues --   -1.21900  -1.07749  -1.00133  -0.91621  -0.81581
 Alpha  occ. eigenvalues --   -0.77603  -0.66401  -0.59552  -0.58852  -0.58022
 Alpha  occ. eigenvalues --   -0.52114  -0.49269  -0.47458  -0.44550  -0.42064
 Alpha  occ. eigenvalues --   -0.39878  -0.38975  -0.37329  -0.36453  -0.35417
 Alpha  occ. eigenvalues --   -0.34420  -0.33930  -0.32805  -0.31946  -0.31738
 Alpha  occ. eigenvalues --   -0.24040
 Alpha virt. eigenvalues --    0.12556   0.13683   0.14767   0.15618   0.16417
 Alpha virt. eigenvalues --    0.17738   0.18963   0.20066   0.20995   0.22741
 Alpha virt. eigenvalues --    0.23710   0.24628   0.25663   0.26548   0.26861

 Mulliken charges:
               1
     1  C   -0.771343
     2  C    1.245194
     3  Cl  -0.269798
     4  H   -0.045832
     5  H   -0.098992
     6  C    0.719053
     7  H   -0.027705
     8  H    0.019078
     9  H    0.177447
    10  N    0.679713
    11  O   -0.706657
    12  O   -0.689377
    13  N   -0.487165
    14  H    0.019702
    15  H    0.208695
    16  F   -0.972012
 Sum of Mulliken charges =  -1.00000

 Dipole moment (field-independent basis, Debye):
    X=             -6.7539    Y=             -4.0818    Z=              1.3530  Tot=              8.0067

 Test job not archived.
 1\1\GINC-SE060\SP\RHF\Aug-CC-pVDZ\C3H7Cl1F1N2O2(1-)\OHZDE\09-Apr-2025\
 0\\#t hf aug-cc-pvdz iop(5/13=1,5/36=2,99/5=2) pseudo=read geom=check
 guess=(read,tcheck) scf=(maxcycle=1)\\title\\-1,1\C,0,-0.045543,0.0225
 53,-0.043164\C,0,-0.300708,0.105305,-1.555584\Cl,0,1.762676,-0.108548,
 0.17665\H,0,-0.012051,-0.857756,-1.98231\H,0,0.410123,0.84976,-1.93180
 3\C,0,-0.592955,1.173305,0.751131\H,0,-0.233307,1.138726,1.778286\H,0,
 -0.283523,2.112632,0.283887\H,0,-1.682914,1.019755,0.720872\N,0,-0.549
 42,-1.294408,0.552206\O,0,-0.709145,-2.238116,-0.210341\O,0,-0.642099,

 Normal termination of Gaussian 16 at Wed Apr  9 02:51:49 2025.
