 Gaussian 16, Revision C.01,

 ----------------------------------------------------------------------
 #t hf aug-cc-pvdz symm=none int=(grid=ultrafine) guess=(read,tcheck) s
 table=(opt,rrhf)
 ----------------------------------------------------------------------
 -----
 title
 -----
 Symbolic Z-matrix:
 Charge = -1 Multiplicity = 1

 SCF Done:  E(RHF) =  -516.066363856     A.U. after   16 cycles
 Normal termination of Gaussian 16 at Wed Apr  9 02:45:04 2025.
 Gaussian 16:  ES64L-G16RevC.01  3-Jul-2019

 ----------------------------------------------------------------------
 #t hf aug-cc-pvdz iop(5/13=1,5/36=2,99/5=2) pseudo=read geom=check gue
 ss=(read,tcheck) scf=(maxcycle=1)
 ----------------------------------------------------------------------
 -----
 title
 -----
 Structure from the checkpoint file:  "E2SN2_267_mol2.chk"
 Charge = -1 Multiplicity = 1

                         Standard orientation:
 ---------------------------------------------------------------------
 Center     Atomic      Atomic             Coordinates (Angstroms)
 Number     Number       Type             X           Y           Z
 ---------------------------------------------------------------------
      1          6           0       -0.245421    0.368834    0.321397
      2          6           0        0.608671   -0.502236    1.295954
      3          9           0       -0.721802    1.462125    1.099174
      4          1           0       -0.072948   -1.241984    1.723834
      5          1           0        0.902643    0.191277    2.090723
      6          6           0        0.586687    0.960264   -0.734037
      7          7           0        1.287382    1.617502   -1.411074
      8          6           0       -1.449527   -0.295257   -0.193609
      9          7           0       -2.576094   -0.607635   -0.335618
     10          7           0        1.769533   -1.176528    0.761635
     11          1           0        1.412898   -1.567720   -0.124317
     12          1           0        2.451022   -0.470744    0.502002
     13          9           0        0.159377   -1.343662   -1.258626
 ---------------------------------------------------------------------

 SCF Done:  E(RHF) =  -516.221271639     A.U. after    2 cycles

 The electronic state is 1-A.
 Alpha  occ. eigenvalues --  -26.01202 -25.78732 -15.52110 -15.50155 -15.46760
 Alpha  occ. eigenvalues --  -11.28243 -11.18114 -11.17313 -11.16269  -1.54041
 Alpha  occ. eigenvalues --   -1.28351  -1.06950  -1.04399  -1.02811  -0.92937
 Alpha  occ. eigenvalues --   -0.77492  -0.70181  -0.65962  -0.61925  -0.56654
 Alpha  occ. eigenvalues --   -0.54302  -0.49823  -0.44416  -0.42642  -0.42246
 Alpha  occ. eigenvalues --   -0.41080  -0.39979  -0.39422  -0.36599  -0.33564
 Alpha  occ. eigenvalues --   -0.32700  -0.32084  -0.29591  -0.26783
 Alpha virt. eigenvalues --    0.12918   0.14637   0.15253   0.17977   0.19232
 Alpha virt. eigenvalues --    0.19749   0.20144   0.22105   0.23125   0.24234
 Alpha virt. eigenvalues --    0.25341   0.25834   0.25939   0.26588   0.26888

 Mulliken charges:
               1
     1  C    0.959456
     2  C    0.856091
     3  F   -0.486018
     4  H   -0.162965
     5  H    0.020811
     6  C   -0.252896
     7  N   -0.338464
     8  C   -0.040804
     9  N   -0.380379
    10  N   -0.466382
    11  H    0.189253
    12  H    0.014041
    13  F   -0.911743
 Sum of Mulliken charges =  -1.00000

 Dipole moment (field-independent basis, Debye):
    X=              1.4120    Y=              2.4497    Z=              4.6585  Tot=              5.4495

 Test job not archived.
 1\1\GINC-SE143\SP\RHF\Aug-CC-pVDZ\C4H4F2N3(1-)\OHZDE\09-Apr-2025\0\\#t
  hf aug-cc-pvdz iop(5/13=1,5/36=2,99/5=2) pseudo=read geom=check guess
 =(read,tcheck) scf=(maxcycle=1)\\title\\-1,1\C,0,-0.002622,-0.001507,-
 0.065583\C,0,-0.19973,-0.067347,-1.6131\F,0,1.404982,0.053375,0.1413\H
 ,0,-0.227454,-1.128495,-1.87408\H,0,0.721859,0.360738,-2.021087\C,0,-0
 .538128,1.248768,0.487752\N,0,-0.738552,2.339662,0.876461\C,0,-0.45524
 1,-1.196373,0.657985\N,0,-0.439859,-2.222846,1.235061\N,0,-1.354301,0.
 592776,-2.177877\H,0,-2.110441,0.309859,-1.534962\H,0,-1.237917,1.5928

 Normal termination of Gaussian 16 at Wed Apr  9 02:45:10 2025.
