 Gaussian 16, Revision C.01,

 ----------------------------------------------------------------------
 #t hf aug-cc-pvdz symm=none int=(grid=ultrafine) guess=(read,tcheck) s
 table=(opt,rrhf)
 ----------------------------------------------------------------------
 -----
 title
 -----
 Symbolic Z-matrix:
 Charge = -1 Multiplicity = 1

 SCF Done:  E(RHF) =  -366.703098708     A.U. after   16 cycles
 Normal termination of Gaussian 16 at Wed Apr  9 02:52:18 2025.
 Gaussian 16:  ES64L-G16RevC.01  3-Jul-2019

 ----------------------------------------------------------------------
 #t hf aug-cc-pvdz iop(5/13=1,5/36=2,99/5=2) pseudo=read geom=check gue
 ss=(read,tcheck) scf=(maxcycle=1)
 ----------------------------------------------------------------------
 -----
 title
 -----
 Structure from the checkpoint file:  "E2SN2_352_mol1.chk"
 Charge = -1 Multiplicity = 1

                         Standard orientation:
 ---------------------------------------------------------------------
 Center     Atomic      Atomic             Coordinates (Angstroms)
 Number     Number       Type             X           Y           Z
 ---------------------------------------------------------------------
      1          6           0       -0.593655    0.182874    0.185821
      2          1           0        0.985497   -0.150111    1.568070
      3          9           0       -0.708609   -0.980354   -1.093624
      4          1           0       -0.373433    1.463242    1.606488
      5          6           0        0.924602   -0.028454    0.480821
      6          6           0       -1.594084   -0.495894    1.107050
      7          1           0       -2.087646   -1.307721    0.562591
      8          1           0       -1.090163   -0.901110    1.988406
      9          1           0       -2.340731    0.212906    1.461478
     10          6           0       -1.112215    1.279928   -0.735955
     11          1           0       -1.424274    2.159746   -0.180050
     12          1           0       -0.319566    1.555152   -1.433459
     13          1           0       -1.950422    0.877979   -1.311557
     14          7           0        1.668306    1.133436    0.009706
     15          1           0        2.632819    0.987849    0.289291
     16          1           0        1.282491    1.905715    0.551193
     17          7           0        1.597309   -1.194836   -0.101858
     18          1           0        1.354064   -1.171560   -1.086166
     19          1           0        1.101650   -2.009827    0.244967
 ---------------------------------------------------------------------

 SCF Done:  E(RHF) =  -366.816436119     A.U. after    2 cycles

 The electronic state is 1-A.
 Alpha  occ. eigenvalues --  -25.83241 -15.44716 -15.44280 -11.17001 -11.13541
 Alpha  occ. eigenvalues --  -11.07453 -11.06442  -1.33854  -1.03753  -0.93366
 Alpha  occ. eigenvalues --   -0.88854  -0.78297  -0.71109  -0.58897  -0.52969
 Alpha  occ. eigenvalues --   -0.52403  -0.46789  -0.46657  -0.45615  -0.42155
 Alpha  occ. eigenvalues --   -0.40823  -0.38010  -0.37545  -0.36644  -0.36272
 Alpha  occ. eigenvalues --   -0.34824  -0.33501  -0.24914  -0.23550  -0.09437
 Alpha virt. eigenvalues --    0.13675   0.13839   0.14262   0.15141   0.15826
 Alpha virt. eigenvalues --    0.16356   0.16669   0.17137   0.18953   0.19110
 Alpha virt. eigenvalues --    0.19572   0.21525   0.23887   0.24899   0.26063

 Mulliken charges:
               1
     1  C   -2.077573
     2  H   -0.239823
     3  F   -0.729417
     4  H   -0.413112
     5  C    1.489112
     6  C    0.658614
     7  H    0.072627
     8  H   -0.042785
     9  H   -0.005575
    10  C    0.898682
    11  H   -0.019487
    12  H    0.055524
    13  H    0.034617
    14  N   -0.345976
    15  H   -0.070850
    16  H    0.126489
    17  N   -0.508174
    18  H    0.066616
    19  H    0.050490
 Sum of Mulliken charges =  -1.00000

 Dipole moment (field-independent basis, Debye):
    X=              0.1696    Y=             -2.0737    Z=             -1.1227  Tot=              2.3642

 Test job not archived.
 1\1\GINC-SE344\SP\RHF\Aug-CC-pVDZ\C4H12F1N2(1-)\OHZDE\09-Apr-2025\0\\#
 t hf aug-cc-pvdz iop(5/13=1,5/36=2,99/5=2) pseudo=read geom=check gues
 s=(read,tcheck) scf=(maxcycle=1)\\title\\-1,1\C,0,0.46245047,0.0078670
 5,-0.01259773\H,0,1.45837372,1.7062367,-0.81190154\F,0,-1.24239066,-0.
 05586317,-0.31714436\H,0,2.34997086,0.17167467,0.32881916\C,0,0.606668
 53,1.55707519,-0.13887333\C,0,0.86831277,-0.83972004,-1.20721819\H,0,-
 0.03015761,-1.26979062,-1.66207124\H,0,1.39662529,-0.23221533,-1.94664
 27\H,0,1.5437403,-1.63901308,-0.90650753\C,0,0.27190288,-0.69882572,1.

 Normal termination of Gaussian 16 at Wed Apr  9 02:52:26 2025.
