 Gaussian 16, Revision C.01,

 ----------------------------------------------------------------------
 #t hf aug-cc-pvdz symm=none int=(grid=ultrafine) guess=(read,tcheck) s
 table=(opt,rrhf)
 ----------------------------------------------------------------------
 -----
 title
 -----
 Symbolic Z-matrix:
 Charge = -1 Multiplicity = 1

 SCF Done:  E(RHF) =  -816.201352966     A.U. after   16 cycles
 Normal termination of Gaussian 16 at Wed Apr  9 02:59:32 2025.
 Gaussian 16:  ES64L-G16RevC.01  3-Jul-2019

 ----------------------------------------------------------------------
 #t hf aug-cc-pvdz iop(5/13=1,5/36=2,99/5=2) pseudo=read geom=check gue
 ss=(read,tcheck) scf=(maxcycle=1)
 ----------------------------------------------------------------------
 -----
 title
 -----
 Structure from the checkpoint file:  "E2SN2_70_mol2.chk"
 Charge = -1 Multiplicity = 1

                         Standard orientation:
 ---------------------------------------------------------------------
 Center     Atomic      Atomic             Coordinates (Angstroms)
 Number     Number       Type             X           Y           Z
 ---------------------------------------------------------------------
      1          6           0        0.345879    0.021970   -0.081211
      2          6           0       -1.138873    0.001013   -0.512702
      3         17           0        0.497025   -0.142768    1.717155
      4          1           0       -1.140884    0.102065   -1.613003
      5          6           0        1.106946   -1.081791   -0.676323
      6          7           0        1.688852   -1.971545   -1.177621
      7          6           0        0.972498    1.291355   -0.457777
      8          7           0        1.544377    2.264144   -0.784530
      9          7           0       -1.784116    1.185706   -0.015914
     10          1           0       -2.265596    0.964421    0.850990
     11          1           0       -2.525421    1.352807   -0.761110
     12          6           0       -1.828934   -1.314472   -0.176818
     13          1           0       -1.954072   -1.426585    0.904345
     14          1           0       -1.301003   -2.191884   -0.565612
     15          1           0       -2.812532   -1.251958   -0.647737
     16          1           0       -3.338809    1.021588   -2.084071
 ---------------------------------------------------------------------

 SCF Done:  E(RHF) =  -816.322851973     A.U. after    2 cycles

 The electronic state is 1-A.
 Alpha  occ. eigenvalues -- -103.59145 -15.57783 -15.56288 -15.46586 -11.29874
 Alpha  occ. eigenvalues --  -11.22785 -11.21500 -11.17799 -11.12189 -10.62424
 Alpha  occ. eigenvalues --   -8.28142  -8.27832  -8.27827  -1.14964  -1.10081
 Alpha  occ. eigenvalues --   -1.08410  -1.03896  -0.94042  -0.86750  -0.72376
 Alpha  occ. eigenvalues --   -0.69882  -0.60560  -0.53530  -0.50723  -0.48696
 Alpha  occ. eigenvalues --   -0.47709  -0.46856  -0.43589  -0.43231  -0.41193
 Alpha  occ. eigenvalues --   -0.40194  -0.38675  -0.37663  -0.37394  -0.36433
 Alpha  occ. eigenvalues --   -0.35691  -0.27239  -0.09675
 Alpha virt. eigenvalues --    0.12287   0.13894   0.14796   0.15685   0.16452
 Alpha virt. eigenvalues --    0.17158   0.17665   0.18234   0.19617   0.20015
 Alpha virt. eigenvalues --    0.21623   0.21853   0.22398   0.22612   0.23032

 Mulliken charges:
               1
     1  C    0.453621
     2  C   -0.303512
     3  Cl  -0.101129
     4  H   -0.161530
     5  C   -0.041627
     6  N   -0.264904
     7  C   -0.316839
     8  N   -0.218364
     9  N   -0.326966
    10  H    0.026071
    11  H    0.136922
    12  C    0.982266
    13  H   -0.051210
    14  H   -0.101015
    15  H    0.047067
    16  H   -0.758852
 Sum of Mulliken charges =  -1.00000

 Dipole moment (field-independent basis, Debye):
    X=              7.5873    Y=             -5.1211    Z=              8.6572  Tot=             12.5992

 Test job not archived.
 1\1\GINC-SE247\SP\RHF\Aug-CC-pVDZ\C5H7Cl1N3(1-)\OHZDE\09-Apr-2025\0\\#
 t hf aug-cc-pvdz iop(5/13=1,5/36=2,99/5=2) pseudo=read geom=check gues
 s=(read,tcheck) scf=(maxcycle=1)\\title\\-1,1\C,0,-0.56048,-0.031274,-
 1.55391\C,0,0.097852,0.050298,-0.157107\Cl,0,-2.364422,-0.129583,-1.41
 1677\H,0,1.186977,0.110306,-0.333411\C,0,-0.260611,1.148263,-2.372714\
 N,0,0.007287,2.102197,-3.005025\C,0,-0.112221,-1.231609,-2.263874\N,0,
 0.253751,-2.145815,-2.904518\N,0,-0.113143,-1.194866,0.529685\H,0,-0.9
 13446,-1.102601,1.148809\H,0,0.758244,-1.252786,1.138047\C,0,-0.307034

 Normal termination of Gaussian 16 at Wed Apr  9 02:59:40 2025.
