 Gaussian 16, Revision C.01,

 ----------------------------------------------------------------------
 #t hf aug-cc-pvdz symm=none int=(grid=ultrafine) guess=(read,tcheck) s
 table=(opt,rrhf)
 ----------------------------------------------------------------------
 -----
 title
 -----
 Symbolic Z-matrix:
 Charge = -1 Multiplicity = 1

 SCF Done:  E(RHF) =  -935.228970439     A.U. after   16 cycles
 Normal termination of Gaussian 16 at Wed Apr  9 02:31:20 2025.
 Gaussian 16:  ES64L-G16RevC.01  3-Jul-2019

 ----------------------------------------------------------------------
 #t hf aug-cc-pvdz iop(5/13=1,5/36=2,99/5=2) pseudo=read geom=check gue
 ss=(read,tcheck) scf=(maxcycle=1)
 ----------------------------------------------------------------------
 -----
 title
 -----
 Structure from the checkpoint file:  "E2SN2_121_mol2.chk"
 Charge = -1 Multiplicity = 1

                         Standard orientation:
 ---------------------------------------------------------------------
 Center     Atomic      Atomic             Coordinates (Angstroms)
 Number     Number       Type             X           Y           Z
 ---------------------------------------------------------------------
      1          6           0        0.519487    0.698820   -0.488611
      2          6           0        0.088655   -0.638295    0.134626
      3         17           0       -0.583793    2.025125    0.099380
      4          1           0        0.746116   -1.355396   -0.368161
      5          1           0        0.332755    0.640089   -1.561139
      6          7           0        1.885487    1.038516   -0.242914
      7          1           0        2.386201    0.110963   -0.383738
      8          1           0        1.977819    1.255535    0.745042
      9          7           0       -1.322155   -0.916420   -0.250519
     10          8           0       -2.172634   -1.081602    0.626497
     11          8           0       -1.565865   -0.956628   -1.459076
     12          6           0        0.334887   -0.754205    1.617879
     13          1           0       -0.126475   -1.662072    2.007865
     14          1           0        1.415352   -0.852003    1.717943
     15          1           0       -0.049120    0.099103    2.180471
     16          9           0        2.616481   -1.450011   -0.388494
 ---------------------------------------------------------------------

 SCF Done:  E(RHF) =  -935.390118820     A.U. after    2 cycles

 The electronic state is 1-A.
 Alpha  occ. eigenvalues -- -103.52408 -25.76948 -20.49632 -20.49141 -15.78424
 Alpha  occ. eigenvalues --  -15.46151 -11.21192 -11.16532 -11.10980 -10.55788
 Alpha  occ. eigenvalues --   -8.21497  -8.21239  -8.21234  -1.41462  -1.26056
 Alpha  occ. eigenvalues --   -1.23125  -1.08075  -0.98124  -0.96531  -0.82643
 Alpha  occ. eigenvalues --   -0.75836  -0.67632  -0.62268  -0.60987  -0.59941
 Alpha  occ. eigenvalues --   -0.54460  -0.49646  -0.47480  -0.44891  -0.42721
 Alpha  occ. eigenvalues --   -0.41408  -0.39278  -0.39184  -0.37571  -0.35806
 Alpha  occ. eigenvalues --   -0.35566  -0.35091  -0.33189  -0.32851  -0.32124
 Alpha  occ. eigenvalues --   -0.25702
 Alpha virt. eigenvalues --    0.13162   0.14513   0.15164   0.15796   0.17324
 Alpha virt. eigenvalues --    0.18012   0.18799   0.19572   0.20562   0.22448
 Alpha virt. eigenvalues --    0.23985   0.24485   0.25288   0.26518   0.27153

 Mulliken charges:
               1
     1  C    0.427788
     2  C    0.684254
     3  Cl  -0.269645
     4  H   -0.117117
     5  H   -0.068298
     6  N   -0.551620
     7  H    0.240542
     8  H    0.060431
     9  N    0.295502
    10  O   -0.630040
    11  O   -0.642326
    12  C    0.462537
    13  H   -0.052726
    14  H    0.084153
    15  H    0.027746
    16  F   -0.951180
 Sum of Mulliken charges =  -1.00000

 Dipole moment (field-independent basis, Debye):
    X=             -3.9084    Y=              2.5164    Z=              2.7690  Tot=              5.4107

 Test job not archived.
 1\1\GINC-SE344\SP\RHF\Aug-CC-pVDZ\C3H7Cl1F1N2O2(1-)\OHZDE\09-Apr-2025\
 0\\#t hf aug-cc-pvdz iop(5/13=1,5/36=2,99/5=2) pseudo=read geom=check
 guess=(read,tcheck) scf=(maxcycle=1)\\title\\-1,1\C,0,-0.063838,-0.037
 597,-1.485609\C,0,0.058927,-0.114965,0.044378\Cl,0,-1.820753,0.115769,
 -1.945798\H,0,1.127515,-0.308505,0.185606\H,0,0.244538,-1.001099,-1.89
 2058\N,0,0.701628,1.015073,-2.075241\H,0,1.618683,0.966129,-1.539036\H
 ,0,0.27246,1.896465,-1.809454\N,0,-0.717969,-1.287933,0.530849\O,0,-1.
 621721,-1.122574,1.352825\O,0,-0.409262,-2.386341,0.061997\C,0,-0.2743

 Normal termination of Gaussian 16 at Wed Apr  9 02:31:28 2025.
