 Gaussian 16, Revision C.01,

 ----------------------------------------------------------------------
 #t hf aug-cc-pvdz symm=none int=(grid=ultrafine) guess=(read,tcheck) s
 table=(opt,rrhf)
 ----------------------------------------------------------------------
 -----
 title
 -----
 Symbolic Z-matrix:
 Charge = -1 Multiplicity = 1

 SCF Done:  E(RHF) =  -516.110246135     A.U. after   15 cycles
 Normal termination of Gaussian 16 at Wed Apr  9 02:55:11 2025.
 Gaussian 16:  ES64L-G16RevC.01  3-Jul-2019

 ----------------------------------------------------------------------
 #t hf aug-cc-pvdz iop(5/13=1,5/36=2,99/5=2) pseudo=read geom=check gue
 ss=(read,tcheck) scf=(maxcycle=1)
 ----------------------------------------------------------------------
 -----
 title
 -----
 Structure from the checkpoint file:  "E2SN2_382_mol2.chk"
 Charge = -1 Multiplicity = 1

                         Standard orientation:
 ---------------------------------------------------------------------
 Center     Atomic      Atomic             Coordinates (Angstroms)
 Number     Number       Type             X           Y           Z
 ---------------------------------------------------------------------
      1          6           0        0.270079    0.452661    0.451997
      2          6           0       -0.222112   -0.979651    0.274816
      3          9           0       -0.452984    1.041101    1.521881
      4          1           0       -0.022084   -1.484972    1.223741
      5          1           0        0.462920   -1.450933   -0.461577
      6          7           0        1.643989    0.421777    0.726583
      7          1           0        2.069111   -0.388329    0.154784
      8          1           0        2.078572    1.308979    0.508862
      9          6           0       -0.104336    1.300872   -0.717184
     10          7           0       -0.333480    1.995936   -1.636696
     11          6           0       -1.637995   -1.068853   -0.042962
     12          7           0       -2.778920   -1.169895   -0.302915
     13          9           0        2.214821   -1.591062   -0.714616
 ---------------------------------------------------------------------

 SCF Done:  E(RHF) =  -516.266471956     A.U. after    2 cycles

 The electronic state is 1-A.
 Alpha  occ. eigenvalues --  -25.99964 -25.78724 -15.54011 -15.52817 -15.47897
 Alpha  occ. eigenvalues --  -11.28980 -11.18453 -11.18259 -11.15569  -1.53192
 Alpha  occ. eigenvalues --   -1.28145  -1.09350  -1.06796  -1.05272  -0.92519
 Alpha  occ. eigenvalues --   -0.80586  -0.68276  -0.64031  -0.62430  -0.58001
 Alpha  occ. eigenvalues --   -0.52289  -0.50994  -0.48493  -0.46807  -0.44181
 Alpha  occ. eigenvalues --   -0.43156  -0.38149  -0.37867  -0.36752  -0.35958
 Alpha  occ. eigenvalues --   -0.34970  -0.33615  -0.32474  -0.28385
 Alpha virt. eigenvalues --    0.13671   0.14238   0.16618   0.17544   0.18644
 Alpha virt. eigenvalues --    0.19217   0.20011   0.22368   0.22806   0.24441
 Alpha virt. eigenvalues --    0.24735   0.25127   0.26056   0.26718   0.27463

 Mulliken charges:
               1
     1  C    0.939975
     2  C    0.644913
     3  F   -0.471643
     4  H    0.048398
     5  H    0.006311
     6  N   -0.603098
     7  H    0.269839
     8  H    0.002044
     9  C   -0.431435
    10  N   -0.210842
    11  C   -0.002808
    12  N   -0.305863
    13  F   -0.885791
 Sum of Mulliken charges =  -1.00000

 Dipole moment (field-independent basis, Debye):
    X=             -1.2824    Y=              2.3977    Z=              2.9681  Tot=              4.0253

 Test job not archived.
 1\1\GINC-SE108\SP\RHF\Aug-CC-pVDZ\C4H4F2N3(1-)\OHZDE\09-Apr-2025\0\\#t
  hf aug-cc-pvdz iop(5/13=1,5/36=2,99/5=2) pseudo=read geom=check guess
 =(read,tcheck) scf=(maxcycle=1)\\title\\-1,1\C,0,0.031284,-0.038022,0.
 041126\C,0,-0.552963,-0.400339,-1.319957\F,0,1.42559,0.173514,-0.11665
 7\H,0,-0.345004,0.452441,-1.972136\H,0,-1.655762,-0.410033,-1.188085\N
 ,0,-0.606494,1.119729,0.506777\H,0,-1.63621,1.07096,0.188561\H,0,-0.52
 3246,1.201854,1.511623\C,0,-0.031788,-1.19512,0.981222\N,0,-0.104257,-
 2.061587,1.771858\C,0,0.0186,-1.60912,-1.890772\N,0,0.461319,-2.583732

 Normal termination of Gaussian 16 at Wed Apr  9 02:55:16 2025.
