 Gaussian 16, Revision C.01,

 ----------------------------------------------------------------------
 #t hf aug-cc-pvdz symm=none int=(grid=ultrafine) guess=(read,tcheck) s
 table=(opt,rrhf)
 ----------------------------------------------------------------------
 -----
 title
 -----
 Symbolic Z-matrix:
 Charge = -1 Multiplicity = 1

 SCF Done:  E(RHF) =  -739.633940100     A.U. after   16 cycles
 Normal termination of Gaussian 16 at Wed Apr  9 02:40:41 2025.
 Gaussian 16:  ES64L-G16RevC.01  3-Jul-2019

 ----------------------------------------------------------------------
 #t hf aug-cc-pvdz iop(5/13=1,5/36=2,99/5=2) pseudo=read geom=check gue
 ss=(read,tcheck) scf=(maxcycle=1)
 ----------------------------------------------------------------------
 -----
 title
 -----
 Structure from the checkpoint file:  "E2SN2_213_mol2.chk"
 Charge = -1 Multiplicity = 1

                         Standard orientation:
 ---------------------------------------------------------------------
 Center     Atomic      Atomic             Coordinates (Angstroms)
 Number     Number       Type             X           Y           Z
 ---------------------------------------------------------------------
      1          6           0       -0.633573    0.227681    0.627136
      2          6           0        0.103702   -0.962054    0.009108
      3          9           0       -0.126829    0.496848    1.870957
      4          1           0        0.044575   -1.738750    0.768460
      5          1           0       -1.685389   -0.119936    0.655336
      6          7           0       -0.506163    1.476891   -0.188247
      7          8           0        0.134427    2.420318    0.264173
      8          8           0       -1.077711    1.460911   -1.277558
      9          7           0        1.562660   -0.630826   -0.138176
     10          8           0        2.368070   -1.195428    0.600878
     11          8           0        1.855900    0.190811   -1.006599
     12          7           0       -0.426337   -1.460145   -1.218249
     13          1           0       -1.386156   -1.724480   -0.889084
     14          1           0       -0.533695   -0.679989   -1.857740
     15          9           0       -2.530584   -1.612953    0.314722
 ---------------------------------------------------------------------

 SCF Done:  E(RHF) =  -739.861190750     A.U. after    2 cycles

 The electronic state is 1-A.
 Alpha  occ. eigenvalues --  -26.03228 -25.78370 -20.51682 -20.51377 -20.51174
 Alpha  occ. eigenvalues --  -20.51056 -15.80800 -15.79889 -15.48442 -11.27294
 Alpha  occ. eigenvalues --  -11.23127  -1.57172  -1.43812  -1.43139  -1.27505
 Alpha  occ. eigenvalues --   -1.25592  -1.25112  -1.08639  -0.96936  -0.90004
 Alpha  occ. eigenvalues --   -0.78955  -0.72786  -0.69926  -0.67967  -0.67377
 Alpha  occ. eigenvalues --   -0.64115  -0.62495  -0.61913  -0.60522  -0.59871
 Alpha  occ. eigenvalues --   -0.55886  -0.51412  -0.47633  -0.46259  -0.41476
 Alpha  occ. eigenvalues --   -0.41353  -0.40317  -0.39649  -0.37352  -0.37215
 Alpha  occ. eigenvalues --   -0.36295  -0.35935  -0.35600  -0.28747
 Alpha virt. eigenvalues --    0.14552   0.15211   0.15786   0.17616   0.18542
 Alpha virt. eigenvalues --    0.19195   0.21286   0.21848   0.22387   0.22946
 Alpha virt. eigenvalues --    0.24461   0.25435   0.26968   0.27229   0.27804

 Mulliken charges:
               1
     1  C    1.098810
     2  C    1.421879
     3  F   -0.334413
     4  H   -0.099441
     5  H   -0.104670
     6  N    0.522338
     7  O   -0.616455
     8  O   -0.669175
     9  N    0.174611
    10  O   -0.596932
    11  O   -0.592366
    12  N   -0.527213
    13  H    0.193456
    14  H    0.073290
    15  F   -0.943720
 Sum of Mulliken charges =  -1.00000

 Dipole moment (field-independent basis, Debye):
    X=              2.8897    Y=              2.2558    Z=              0.1170  Tot=              3.6678

 Test job not archived.
 1\1\GINC-SE412\SP\RHF\Aug-CC-pVDZ\C2H4F2N3O4(1-)\OHZDE\09-Apr-2025\0\\
 #t hf aug-cc-pvdz iop(5/13=1,5/36=2,99/5=2) pseudo=read geom=check gue
 ss=(read,tcheck) scf=(maxcycle=1)\\title\\-1,1\C,0,-0.231966,0.21282,0
 .055985\C,0,-0.401883,0.075792,-1.458397\F,0,1.097428,0.315194,0.36992
 8\H,0,0.256125,-0.747016,-1.729285\H,0,-0.696696,-0.715871,0.442648\N,
 0,-0.9174,1.423135,0.609995\O,0,-0.236687,2.336806,1.064888\O,0,-2.146
 852,1.40191,0.571011\N,0,0.150749,1.29589,-2.140982\O,0,1.194889,1.184
 848,-2.782154\O,0,-0.493667,2.337034,-2.014559\N,0,-1.722774,-0.204465

 Normal termination of Gaussian 16 at Wed Apr  9 02:40:49 2025.
