 Gaussian 16, Revision C.01,

 ----------------------------------------------------------------------
 #t hf aug-cc-pvdz symm=none int=(grid=ultrafine) guess=(read,tcheck) s
 table=(opt,rrhf)
 ----------------------------------------------------------------------
 -----
 title
 -----
 Symbolic Z-matrix:
 Charge = -1 Multiplicity = 1

 SCF Done:  E(RHF) =  -552.785677107     A.U. after   16 cycles
 Normal termination of Gaussian 16 at Wed Apr  9 02:58:04 2025.
 Gaussian 16:  ES64L-G16RevC.01  3-Jul-2019

 ----------------------------------------------------------------------
 #t hf aug-cc-pvdz iop(5/13=1,5/36=2,99/5=2) pseudo=read geom=check gue
 ss=(read,tcheck) scf=(maxcycle=1)
 ----------------------------------------------------------------------
 -----
 title
 -----
 Structure from the checkpoint file:  "E2SN2_53_mol2.chk"
 Charge = -1 Multiplicity = 1

                         Standard orientation:
 ---------------------------------------------------------------------
 Center     Atomic      Atomic             Coordinates (Angstroms)
 Number     Number       Type             X           Y           Z
 ---------------------------------------------------------------------
      1          6           0       -0.440515   -0.481860    0.663892
      2          6           0        0.573615   -0.012940   -0.380617
      3          9           0       -0.155767    0.049089    1.922934
      4          1           0        0.206345   -0.640473   -1.207163
      5          1           0       -0.385856   -1.566291    0.698822
      6          6           0       -1.802998   -0.079024    0.295184
      7          7           0       -2.900145    0.306874    0.138296
      8          6           0        1.920838   -0.403817    0.012109
      9          7           0        3.004948   -0.745095    0.310103
     10          6           0        0.502281    1.418768   -0.634634
     11          7           0        0.441013    2.568977   -0.868069
     12          9           0       -0.750958   -1.755232   -1.510663
 ---------------------------------------------------------------------

 SCF Done:  E(RHF) =  -552.951506325     A.U. after    2 cycles

 The electronic state is 1-A.
 Alpha  occ. eigenvalues --  -26.03056 -25.79121 -15.54988 -15.54837 -15.53936
 Alpha  occ. eigenvalues --  -11.28040 -11.20474 -11.20299 -11.20170 -11.18969
 Alpha  occ. eigenvalues --   -1.56351  -1.28568  -1.10305  -1.08069  -1.07495
 Alpha  occ. eigenvalues --   -1.00746  -0.87571  -0.71323  -0.68339  -0.66060
 Alpha  occ. eigenvalues --   -0.64250  -0.58111  -0.52714  -0.50487  -0.45909
 Alpha  occ. eigenvalues --   -0.45136  -0.43986  -0.39908  -0.39327  -0.38279
 Alpha  occ. eigenvalues --   -0.37268  -0.36917  -0.35772  -0.34770  -0.34588
 Alpha  occ. eigenvalues --   -0.31410
 Alpha virt. eigenvalues --    0.14249   0.15135   0.17115   0.17622   0.19083
 Alpha virt. eigenvalues --    0.20292   0.20601   0.22174   0.22830   0.23519
 Alpha virt. eigenvalues --    0.24022   0.25006   0.25502   0.25801   0.26186

 Mulliken charges:
               1
     1  C    0.942545
     2  C    0.826375
     3  F   -0.478729
     4  H    0.150365
     5  H   -0.006378
     6  C   -0.162259
     7  N   -0.285773
     8  C   -0.285684
     9  N   -0.237182
    10  C   -0.329477
    11  N   -0.231554
    12  F   -0.902250
 Sum of Mulliken charges =  -1.00000

 Dipole moment (field-independent basis, Debye):
    X=              1.6941    Y=              1.1578    Z=              3.5166  Tot=              4.0715

 Test job not archived.
 1\1\GINC-SE227\SP\RHF\Aug-CC-pVDZ\C5H2F2N3(1-)\OHZDE\09-Apr-2025\0\\#t
  hf aug-cc-pvdz iop(5/13=1,5/36=2,99/5=2) pseudo=read geom=check guess
 =(read,tcheck) scf=(maxcycle=1)\\title\\-1,1\C,0,-0.109041,-0.066178,-
 1.43364\C,0,0.007028,0.016009,0.089225\F,0,-1.43648,-0.226086,-1.83427
 9\H,0,1.106946,0.017544,0.134416\H,0,0.479505,-0.921336,-1.753822\C,0,
 0.41758,1.14738,-2.069666\N,0,0.704071,2.127199,-2.648578\C,0,-0.53847
 6,-1.18712,0.703174\N,0,-0.948729,-2.169708,1.199944\C,0,-0.619398,1.2
 09101,0.640154\N,0,-1.099909,2.179046,1.097911\F,0,2.326076,-0.16305,-

 Normal termination of Gaussian 16 at Wed Apr  9 02:58:11 2025.
