 Gaussian 16, Revision C.01,

 ----------------------------------------------------------------------
 #t hf aug-cc-pvdz symm=none int=(grid=ultrafine) guess=(read,tcheck) s
 table=(opt,rrhf)
 ----------------------------------------------------------------------
 -----
 title
 -----
 Symbolic Z-matrix:
 Charge = -1 Multiplicity = 1

 SCF Done:  E(RHF) =  -888.909636432     A.U. after   17 cycles
 Normal termination of Gaussian 16 at Wed Apr  9 02:58:19 2025.
 Gaussian 16:  ES64L-G16RevC.01  3-Jul-2019

 ----------------------------------------------------------------------
 #t hf aug-cc-pvdz iop(5/13=1,5/36=2,99/5=2) pseudo=read geom=check gue
 ss=(read,tcheck) scf=(maxcycle=1)
 ----------------------------------------------------------------------
 -----
 title
 -----
 Structure from the checkpoint file:  "E2SN2_50_mol1.chk"
 Charge = -1 Multiplicity = 1

                         Standard orientation:
 ---------------------------------------------------------------------
 Center     Atomic      Atomic             Coordinates (Angstroms)
 Number     Number       Type             X           Y           Z
 ---------------------------------------------------------------------
      1          6           0       -0.080265   -0.003256   -0.008707
      2          6           0       -0.912091   -0.307203    1.174746
      3         17           0        0.030975   -1.378799   -1.262150
      4          1           0       -1.607881    1.314646    2.928848
      5          1           0       -0.880390    0.574126    1.997006
      6          1           0       -0.521833   -1.204410    1.665890
      7          6           0       -0.531253    1.168059   -0.747295
      8          7           0       -0.890668    2.102400   -1.362516
      9          7           0       -2.315775   -0.303354    0.838550
     10          1           0       -2.744467    0.272816    1.576274
     11          1           0       -2.704688   -1.235568    0.878033
     12          7           0        1.360029    0.205016    0.453886
     13          8           0        1.882104   -0.738645    1.033507
     14          8           0        1.867801    1.306637    0.265068
 ---------------------------------------------------------------------

 SCF Done:  E(RHF) =  -889.055416717     A.U. after    2 cycles

 The electronic state is 1-A.
 Alpha  occ. eigenvalues -- -103.57464 -20.53213 -20.52817 -15.82655 -15.55176
 Alpha  occ. eigenvalues --  -15.48302 -11.30877 -11.20145 -11.13770 -10.60697
 Alpha  occ. eigenvalues --   -8.26406  -8.26107  -8.26104  -1.45498  -1.27393
 Alpha  occ. eigenvalues --   -1.12043  -1.06875  -1.02929  -0.96207  -0.81017
 Alpha  occ. eigenvalues --   -0.75784  -0.69732  -0.64563  -0.62725  -0.57649
 Alpha  occ. eigenvalues --   -0.52440  -0.50380  -0.47480  -0.45660  -0.43093
 Alpha  occ. eigenvalues --   -0.42382  -0.39669  -0.38114  -0.37295  -0.36189
 Alpha  occ. eigenvalues --   -0.35598  -0.34885  -0.27828  -0.10488
 Alpha virt. eigenvalues --    0.12722   0.14684   0.15063   0.16309   0.17990
 Alpha virt. eigenvalues --    0.18740   0.20295   0.21041   0.21672   0.22228
 Alpha virt. eigenvalues --    0.22689   0.24023   0.24644   0.25134   0.25559

 Mulliken charges:
               1
     1  C    0.677662
     2  C    0.672429
     3  Cl  -0.148383
     4  H   -0.687651
     5  H    0.155499
     6  H   -0.065008
     7  C   -0.344279
     8  N   -0.225600
     9  N   -0.309393
    10  H    0.090633
    11  H   -0.002027
    12  N    0.360855
    13  O   -0.588107
    14  O   -0.586630
 Sum of Mulliken charges =  -1.00000

 Dipole moment (field-independent basis, Debye):
    X=              3.1901    Y=             -6.8121    Z=             -6.8782  Tot=             10.1927

 Test job not archived.
 1\1\GINC-SE108\SP\RHF\Aug-CC-pVDZ\C3H5Cl1N3O2(1-)\OHZDE\09-Apr-2025\0\
 \#t hf aug-cc-pvdz iop(5/13=1,5/36=2,99/5=2) pseudo=read geom=check gu
 ess=(read,tcheck) scf=(maxcycle=1)\\title\\-1,1\C,0,-0.16855102,-0.046
 51186,-0.48901786\C,0,-0.23677954,0.01985856,0.98604747\Cl,0,1.5570007
 ,-0.03472247,-1.19466936\H,0,-2.28015006,-0.29264902,2.37110003\H,0,-1
 .36987045,0.10126005,1.3901979\H,0,0.28060244,0.92192527,1.32823748\C,
 0,-0.81428607,-1.22735519,-1.04536089\N,0,-1.31852853,-2.18196959,-1.5
 0917128\N,0,0.16614822,-1.23146921,1.58203475\H,0,-0.57340388,-1.42569

 Normal termination of Gaussian 16 at Wed Apr  9 02:58:26 2025.
