 Gaussian 16, Revision C.01,

 ----------------------------------------------------------------------
 #t hf aug-cc-pvdz symm=none int=(grid=ultrafine) guess=(read,tcheck) s
 table=(opt,rrhf)
 ----------------------------------------------------------------------
 -----
 title
 -----
 Symbolic Z-matrix:
 Charge = -1 Multiplicity = 1

 SCF Done:  E(RHF) =  -951.202982580     A.U. after   16 cycles
 Normal termination of Gaussian 16 at Wed Apr  9 02:39:14 2025.
 Gaussian 16:  ES64L-G16RevC.01  3-Jul-2019

 ----------------------------------------------------------------------
 #t hf aug-cc-pvdz iop(5/13=1,5/36=2,99/5=2) pseudo=read geom=check gue
 ss=(read,tcheck) scf=(maxcycle=1)
 ----------------------------------------------------------------------
 -----
 title
 -----
 Structure from the checkpoint file:  "E2SN2_205_mol1.chk"
 Charge = -1 Multiplicity = 1

                         Standard orientation:
 ---------------------------------------------------------------------
 Center     Atomic      Atomic             Coordinates (Angstroms)
 Number     Number       Type             X           Y           Z
 ---------------------------------------------------------------------
      1          6           0       -0.944876   -0.095259   -0.308595
      2          1           0       -0.040169   -1.688753    0.681545
      3         17           0       -0.170777    1.950535   -0.539036
      4          9           0       -1.678098   -1.934819   -0.433113
      5          6           0        0.173035   -0.624719    0.591418
      6          1           0       -0.875082   -0.242757   -1.371491
      7          7           0       -2.151036    0.259869    0.377724
      8          1           0       -2.745087   -0.541365    0.188621
      9          1           0       -2.530302    1.102994   -0.028944
     10          7           0        0.301931   -0.021767    1.885121
     11          1           0       -0.637205   -0.048351    2.270989
     12          1           0        0.513084    0.960625    1.738384
     13          7           0        1.480257   -0.553329   -0.146237
     14          8           0        2.443332   -0.016968    0.391644
     15          8           0        1.498398   -1.078240   -1.257977
 ---------------------------------------------------------------------

 SCF Done:  E(RHF) =  -951.364262370     A.U. after    2 cycles

 The electronic state is 1-A.
 Alpha  occ. eigenvalues -- -103.44741 -25.80470 -20.48763 -20.48207 -15.77788
 Alpha  occ. eigenvalues --  -15.49236 -15.49208 -11.24654 -11.20539 -10.48079
 Alpha  occ. eigenvalues --   -8.13722  -8.13592  -8.13577  -1.40964  -1.30377
 Alpha  occ. eigenvalues --   -1.22676  -1.08760  -1.03237  -0.92022  -0.89738
 Alpha  occ. eigenvalues --   -0.77036  -0.68151  -0.63883  -0.60617  -0.58844
 Alpha  occ. eigenvalues --   -0.55300  -0.53950  -0.51256  -0.49468  -0.45791
 Alpha  occ. eigenvalues --   -0.40012  -0.39243  -0.38878  -0.37949  -0.36265
 Alpha  occ. eigenvalues --   -0.34187  -0.30001  -0.29074  -0.28127  -0.27768
 Alpha  occ. eigenvalues --   -0.27324
 Alpha virt. eigenvalues --    0.13019   0.14356   0.15026   0.16198   0.17098
 Alpha virt. eigenvalues --    0.17900   0.21166   0.21618   0.22882   0.23215
 Alpha virt. eigenvalues --    0.24931   0.26072   0.26309   0.27467   0.27794

 Mulliken charges:
               1
     1  C    0.702682
     2  H    0.030801
     3  Cl  -0.645017
     4  F   -0.880590
     5  C    1.267796
     6  H   -0.144960
     7  N   -0.556859
     8  H    0.160273
     9  H    0.076437
    10  N   -0.382143
    11  H    0.104831
    12  H    0.079815
    13  N    0.418462
    14  O   -0.604234
    15  O   -0.627295
 Sum of Mulliken charges =  -1.00000

 Dipole moment (field-independent basis, Debye):
    X=             -1.3625    Y=              1.3854    Z=              2.1305  Tot=              2.8835

 Test job not archived.
 1\1\GINC-SE459\SP\RHF\Aug-CC-pVDZ\C2H6Cl1F1N3O2(1-)\OHZDE\09-Apr-2025\
 0\\#t hf aug-cc-pvdz iop(5/13=1,5/36=2,99/5=2) pseudo=read geom=check
 guess=(read,tcheck) scf=(maxcycle=1)\\title\\-1,1\C,0,0.58663392,0.005
 51496,0.0867335\H,0,1.79011872,1.67679427,-0.22398564\Cl,0,-1.60672397
 ,-0.05482853,0.23887486\F,0,2.52753601,-0.17754857,-0.28270552\C,0,0.7
 3125466,1.5246123,-0.02052665\H,0,0.54158022,-0.58072806,-0.81363516\N
 ,0,0.85813609,-0.53337369,1.38590872\H,0,1.79731251,-0.90092737,1.2697
 8594\H,0,0.19702595,-1.27019374,1.58618783\N,0,0.31681292,2.29537976,1

 Normal termination of Gaussian 16 at Wed Apr  9 02:39:21 2025.
