 Gaussian 16, Revision C.01,

 ----------------------------------------------------------------------
 #t hf aug-cc-pvdz symm=none int=(grid=ultrafine) guess=(read,tcheck) s
 table=(opt,rrhf)
 ----------------------------------------------------------------------
 -----
 title
 -----
 Symbolic Z-matrix:
 Charge = -1 Multiplicity = 1

 SCF Done:  E(RHF) =  -1295.32950065     A.U. after   16 cycles
 Normal termination of Gaussian 16 at Wed Apr  9 02:28:04 2025.
 Gaussian 16:  ES64L-G16RevC.01  3-Jul-2019

 ----------------------------------------------------------------------
 #t hf aug-cc-pvdz iop(5/13=1,5/36=2,99/5=2) pseudo=read geom=check gue
 ss=(read,tcheck) scf=(maxcycle=1)
 ----------------------------------------------------------------------
 -----
 title
 -----
 Structure from the checkpoint file:  "E2SN2_106_mol2.chk"
 Charge = -1 Multiplicity = 1

                         Standard orientation:
 ---------------------------------------------------------------------
 Center     Atomic      Atomic             Coordinates (Angstroms)
 Number     Number       Type             X           Y           Z
 ---------------------------------------------------------------------
      1          6           0        0.586551    0.251390    0.085545
      2          6           0       -0.314034   -0.242888   -1.033539
      3         17           0        1.356224    1.797819   -0.409976
      4          1           0       -1.100545    0.507783   -1.170794
      5          1           0        0.282719   -0.317516   -1.943713
      6          6           0       -0.129653    0.425441    1.396612
      7          1           0        0.533243    0.838963    2.155520
      8          1           0       -0.501343   -0.545733    1.720215
      9          1           0       -0.994234    1.070155    1.236191
     10          7           0        1.746311   -0.735407    0.231509
     11          8           0        2.091957   -1.053604    1.365357
     12          8           0        2.275163   -1.132477   -0.801339
     13          7           0       -0.849820   -1.535013   -0.629318
     14          1           0       -0.895718   -2.147909   -1.431969
     15          1           0       -1.805652   -1.364264   -0.310383
     16         17           0       -3.567286    0.127855    0.135019
 ---------------------------------------------------------------------

 SCF Done:  E(RHF) =  -1295.47400468     A.U. after    2 cycles

 The electronic state is 1-A.
 Alpha  occ. eigenvalues -- -103.56817-103.37657 -20.51939 -20.51541 -15.80889
 Alpha  occ. eigenvalues --  -15.48322 -11.26435 -11.15871 -11.12511 -10.60155
 Alpha  occ. eigenvalues --  -10.40723  -8.25878  -8.25587  -8.25578  -8.06319
 Alpha  occ. eigenvalues --   -8.06295  -8.06289  -1.44131  -1.25947  -1.10869
 Alpha  occ. eigenvalues --   -1.03549  -0.94534  -0.84744  -0.82844  -0.80391
 Alpha  occ. eigenvalues --   -0.70194  -0.63590  -0.62431  -0.60985  -0.55822
 Alpha  occ. eigenvalues --   -0.51826  -0.49738  -0.46470  -0.45746  -0.42329
 Alpha  occ. eigenvalues --   -0.41185  -0.40101  -0.39441  -0.37159  -0.36494
 Alpha  occ. eigenvalues --   -0.36022  -0.28192  -0.21053  -0.20737  -0.20715
 Alpha virt. eigenvalues --    0.12748   0.13173   0.14320   0.16200   0.16736
 Alpha virt. eigenvalues --    0.17347   0.17937   0.18186   0.19882   0.21197
 Alpha virt. eigenvalues --    0.23433   0.23931   0.24855   0.25503   0.25622

 Mulliken charges:
               1
     1  C   -0.679733
     2  C    1.055825
     3  Cl  -0.232616
     4  H   -0.042548
     5  H   -0.072091
     6  C    0.785721
     7  H   -0.005802
     8  H    0.153382
     9  H    0.071344
    10  N    0.363192
    11  O   -0.597124
    12  O   -0.639218
    13  N   -0.281058
    14  H   -0.038339
    15  H    0.109279
    16  Cl  -0.950215
 Sum of Mulliken charges =  -1.00000

 Dipole moment (field-independent basis, Debye):
    X=              8.8341    Y=              0.8166    Z=             -1.2964  Tot=              8.9660

 Test job not archived.
 1\1\GINC-SE402\SP\RHF\Aug-CC-pVDZ\C3H7Cl2N2O2(1-)\OHZDE\09-Apr-2025\0\
 \#t hf aug-cc-pvdz iop(5/13=1,5/36=2,99/5=2) pseudo=read geom=check gu
 ess=(read,tcheck) scf=(maxcycle=1)\\title\\-1,1\C,0,-0.498589,0.009553
 ,-1.482875\C,0,-0.119218,0.196407,-0.023808\Cl,0,-0.442776,1.598836,-2
 .319801\H,0,0.913119,0.563538,-0.002808\H,0,-0.782864,0.947088,0.40764
 6\C,0,0.368182,-0.98646,-2.203157\H,0,0.105661,-1.046238,-3.258563\H,0
 ,0.239211,-1.96107,-1.734592\H,0,1.411091,-0.696027,-2.073233\N,0,-1.9
 67659,-0.413123,-1.540279\O,0,-2.278848,-1.308493,-2.319898\O,0,-2.750

 Normal termination of Gaussian 16 at Wed Apr  9 02:28:12 2025.
