 Gaussian 16, Revision C.01,

 ----------------------------------------------------------------------
 #t hf aug-cc-pvdz symm=none int=(grid=ultrafine) guess=(read,tcheck) s
 table=(opt,rrhf)
 ----------------------------------------------------------------------
 -----
 title
 -----
 Symbolic Z-matrix:
 Charge = -1 Multiplicity = 1

 SCF Done:  E(RHF) =  -1191.35733206     A.U. after   18 cycles
 Normal termination of Gaussian 16 at Wed Apr  9 02:51:09 2025.
 Gaussian 16:  ES64L-G16RevC.01  3-Jul-2019

 ----------------------------------------------------------------------
 #t hf aug-cc-pvdz iop(5/13=1,5/36=2,99/5=2) pseudo=read geom=check gue
 ss=(read,tcheck) scf=(maxcycle=1)
 ----------------------------------------------------------------------
 -----
 title
 -----
 Structure from the checkpoint file:  "E2SN2_306_mol1.chk"
 Charge = -1 Multiplicity = 1

                         Standard orientation:
 ---------------------------------------------------------------------
 Center     Atomic      Atomic             Coordinates (Angstroms)
 Number     Number       Type             X           Y           Z
 ---------------------------------------------------------------------
      1          6           0        0.771746    0.579534    0.148099
      2          1           0       -0.505115    0.613164   -1.563912
      3         17           0        0.844126   -1.130584    1.567568
      4          9           0        0.818512    2.013157   -1.090938
      5          6           0       -0.512780    0.157422   -0.580354
      6          6           0        2.042150    0.196169   -0.438777
      7          7           0        3.113771   -0.058648   -0.852406
      8          7           0        0.670067    1.560406    1.179888
      9          1           0        1.074469    2.406895    0.806036
     10          1           0        1.121666    1.240659    2.022260
     11          7           0       -1.716202    0.695493    0.117926
     12          8           0       -2.373918    1.511800   -0.530680
     13          8           0       -1.974630    0.293848    1.242293
     14          7           0       -0.688687   -1.313014   -0.832889
     15          8           0       -1.740628   -1.854275   -0.518216
     16          8           0        0.230788   -1.819826   -1.462904
 ---------------------------------------------------------------------

 SCF Done:  E(RHF) =  -1191.58760896     A.U. after    2 cycles

 The electronic state is 1-A.
 Alpha  occ. eigenvalues -- -103.47410 -25.86608 -20.53191 -20.52750 -20.52391
 Alpha  occ. eigenvalues --  -20.52180 -15.83173 -15.82146 -15.53105 -15.52665
 Alpha  occ. eigenvalues --  -11.34328 -11.28800 -11.19331 -10.50749  -8.16399
 Alpha  occ. eigenvalues --   -8.16243  -8.16217  -1.46320  -1.44331  -1.37059
 Alpha  occ. eigenvalues --   -1.27723  -1.26466  -1.12055  -1.05980  -1.04141
 Alpha  occ. eigenvalues --   -0.94429  -0.86234  -0.85700  -0.74044  -0.70618
 Alpha  occ. eigenvalues --   -0.67500  -0.67195  -0.63759  -0.63170  -0.60228
 Alpha  occ. eigenvalues --   -0.59848  -0.59407  -0.52592  -0.48285  -0.47006
 Alpha  occ. eigenvalues --   -0.44547  -0.44171  -0.43869  -0.42128  -0.41366
 Alpha  occ. eigenvalues --   -0.40467  -0.38333  -0.36838  -0.35651  -0.35217
 Alpha  occ. eigenvalues --   -0.32210  -0.30655  -0.30132  -0.28667
 Alpha virt. eigenvalues --    0.12634   0.14168   0.15808   0.16568   0.17303
 Alpha virt. eigenvalues --    0.17973   0.18551   0.20376   0.21202   0.21720
 Alpha virt. eigenvalues --    0.22222   0.23068   0.24273   0.25171   0.25621

 Mulliken charges:
               1
     1  C    1.071011
     2  H    0.053579
     3  Cl  -0.566621
     4  F   -0.773075
     5  C    2.017353
     6  C   -0.539340
     7  N   -0.275452
     8  N   -0.553232
     9  H    0.105439
    10  H    0.066002
    11  N    0.393253
    12  O   -0.606464
    13  O   -0.564583
    14  N    0.366268
    15  O   -0.583288
    16  O   -0.610851
 Sum of Mulliken charges =  -1.00000

 Dipole moment (field-independent basis, Debye):
    X=             -1.6928    Y=              0.7800    Z=              0.8297  Tot=              2.0402

 Test job not archived.
 1\1\GINC-SE129\SP\RHF\Aug-CC-pVDZ\C3H3Cl1F1N4O4(1-)\OHZDE\09-Apr-2025\
 0\\#t hf aug-cc-pvdz iop(5/13=1,5/36=2,99/5=2) pseudo=read geom=check
 guess=(read,tcheck) scf=(maxcycle=1)\\title\\-1,1\C,0,0.5837416,-0.101
 7823,-0.01272754\H,0,1.61735049,1.7216217,-0.4242317\Cl,0,-1.60774024,
 -0.34035008,-0.30449555\F,0,2.46774816,0.02453751,0.15231203\C,0,0.616
 96198,1.42953611,-0.12581348\C,0,0.86605659,-0.87686544,-1.20640333\N,
 0,1.09803052,-1.58126462,-2.11985995\N,0,0.57362637,-0.6811522,1.29159
 763\H,0,1.48880394,-1.08562963,1.42834077\H,0,-0.17533409,-1.34981279,

 Normal termination of Gaussian 16 at Wed Apr  9 02:51:21 2025.
