 Gaussian 16, Revision C.01,

 ----------------------------------------------------------------------
 #t hf aug-cc-pvdz symm=none int=(grid=ultrafine) guess=(read,tcheck) s
 table=(opt,rrhf)
 ----------------------------------------------------------------------
 -----
 title
 -----
 Symbolic Z-matrix:
 Charge = -1 Multiplicity = 1

 SCF Done:  E(RHF) =  -1350.30704921     A.U. after   17 cycles
 Normal termination of Gaussian 16 at Wed Apr  9 02:58:12 2025.
 Gaussian 16:  ES64L-G16RevC.01  3-Jul-2019

 ----------------------------------------------------------------------
 #t hf aug-cc-pvdz iop(5/13=1,5/36=2,99/5=2) pseudo=read geom=check gue
 ss=(read,tcheck) scf=(maxcycle=1)
 ----------------------------------------------------------------------
 -----
 title
 -----
 Structure from the checkpoint file:  "E2SN2_44_mol1.chk"
 Charge = -1 Multiplicity = 1

                         Standard orientation:
 ---------------------------------------------------------------------
 Center     Atomic      Atomic             Coordinates (Angstroms)
 Number     Number       Type             X           Y           Z
 ---------------------------------------------------------------------
      1          6           0       -0.277388    0.193604   -0.370024
      2          6           0        0.488246   -0.748594    0.323014
      3         17           0       -2.673800   -0.969723   -0.025593
      4         17           0        3.204317    0.126993   -0.297802
      5          1           0        1.703117   -0.201226    0.071521
      6          7           0       -0.627561    1.505886    0.223621
      7          8           0       -1.208600    2.310280   -0.507166
      8          8           0       -0.316198    1.723552    1.391721
      9          7           0       -0.394512    0.217727   -1.713535
     10          1           0       -0.564901   -0.700691   -2.094205
     11          1           0       -1.067907    0.905332   -2.022615
     12          6           0        0.440037   -0.899967    1.825668
     13          1           0       -0.600529   -1.028887    2.140684
     14          1           0        1.005229   -1.801742    2.062130
     15          1           0        0.871249   -0.052304    2.352195
     16          7           0        0.608411   -2.017994   -0.363520
     17          1           0       -0.332235   -2.349759   -0.574668
     18          1           0        1.155842   -1.924575   -1.211654
 ---------------------------------------------------------------------

 SCF Done:  E(RHF) =  -1350.46550356     A.U. after    2 cycles

 The electronic state is 1-A.
 Alpha  occ. eigenvalues -- -103.46194-103.41220 -20.53720 -20.53394 -15.83419
 Alpha  occ. eigenvalues --  -15.56978 -15.50748 -11.30436 -11.16539 -11.11087
 Alpha  occ. eigenvalues --  -10.49458 -10.44364  -8.15116  -8.14957  -8.14956
 Alpha  occ. eigenvalues --   -8.09971  -8.09922  -8.09916  -1.45972  -1.27679
 Alpha  occ. eigenvalues --   -1.16271  -1.05694  -0.95805  -0.93256  -0.87407
 Alpha  occ. eigenvalues --   -0.86797  -0.78971  -0.72447  -0.66618  -0.63898
 Alpha  occ. eigenvalues --   -0.63385  -0.60683  -0.57660  -0.54344  -0.47999
 Alpha  occ. eigenvalues --   -0.45470  -0.44390  -0.43225  -0.42714  -0.40083
 Alpha  occ. eigenvalues --   -0.39233  -0.38117  -0.30272  -0.29128  -0.29031
 Alpha  occ. eigenvalues --   -0.25784  -0.24572  -0.24283  -0.21184
 Alpha virt. eigenvalues --    0.11439   0.12062   0.13217   0.14071   0.15538
 Alpha virt. eigenvalues --    0.16146   0.16899   0.17507   0.18889   0.21813
 Alpha virt. eigenvalues --    0.22210   0.23310   0.23625   0.24846   0.25242

 Mulliken charges:
               1
     1  C    1.019411
     2  C   -0.463248
     3  Cl  -0.863980
     4  Cl  -0.707264
     5  H    0.636636
     6  N    0.190199
     7  O   -0.613720
     8  O   -0.548996
     9  N   -0.321729
    10  H    0.081766
    11  H    0.095170
    12  C    0.732293
    13  H    0.004544
    14  H   -0.039549
    15  H    0.087900
    16  N   -0.361815
    17  H    0.054227
    18  H    0.018154
 Sum of Mulliken charges =  -1.00000

 Dipole moment (field-independent basis, Debye):
    X=              0.7125    Y=              0.4552    Z=             -2.3913  Tot=              2.5364

 Test job not archived.
 1\1\GINC-SE462\SP\RHF\Aug-CC-pVDZ\C3H8Cl2N3O2(1-)\OHZDE\09-Apr-2025\0\
 \#t hf aug-cc-pvdz iop(5/13=1,5/36=2,99/5=2) pseudo=read geom=check gu
 ess=(read,tcheck) scf=(maxcycle=1)\\title\\-1,1\C,0,-0.52469706,0.0734
 8768,-0.1296475\C,0,-0.16917119,-0.03710757,1.21779531\Cl,0,1.95598756
 ,0.28374758,-1.1379875\Cl,0,-2.77137383,0.14458274,2.53104996\H,0,-1.4
 2616235,-0.05595657,1.72611537\N,0,-0.94370636,-1.10372805,-0.92696537
 \O,0,-1.34484852,-0.88656589,-2.07179355\O,0,-0.87981466,-2.21594737,-
 0.40959891\N,0,-0.93886899,1.22326555,-0.700431\H,0,-0.35691568,2.0049

 Normal termination of Gaussian 16 at Wed Apr  9 02:58:23 2025.
