 Gaussian 16, Revision C.01,

 ----------------------------------------------------------------------
 #t hf aug-cc-pvdz symm=none int=(grid=ultrafine) guess=(read,tcheck) s
 table=(opt,rrhf)
 ----------------------------------------------------------------------
 -----
 title
 -----
 Symbolic Z-matrix:
 Charge = -1 Multiplicity = 1

 SCF Done:  E(RHF) =  -726.799783788     A.U. after   16 cycles
 Normal termination of Gaussian 16 at Wed Apr  9 02:28:41 2025.
 Gaussian 16:  ES64L-G16RevC.01  3-Jul-2019

 ----------------------------------------------------------------------
 #t hf aug-cc-pvdz iop(5/13=1,5/36=2,99/5=2) pseudo=read geom=check gue
 ss=(read,tcheck) scf=(maxcycle=1)
 ----------------------------------------------------------------------
 -----
 title
 -----
 Structure from the checkpoint file:  "E2SN2_113_mol1.chk"
 Charge = -1 Multiplicity = 1

                         Standard orientation:
 ---------------------------------------------------------------------
 Center     Atomic      Atomic             Coordinates (Angstroms)
 Number     Number       Type             X           Y           Z
 ---------------------------------------------------------------------
      1          6           0       -0.194833    0.555875    0.003285
      2          6           0        1.120593   -0.052058    0.013531
      3         17           0       -1.655770   -0.969165   -0.036375
      4          1           0        2.202505    2.033622   -0.713663
      5          1           0        1.763510    1.048575   -0.187848
      6          6           0       -0.560695    1.340758    1.233156
      7          1           0       -0.539025    0.728678    2.133608
      8          1           0        0.170190    2.157649    1.329908
      9          1           0       -1.555898    1.765438    1.104791
     10          7           0       -0.502687    1.319331   -1.168705
     11          1           0       -0.378508    0.711533   -1.971566
     12          1           0        0.289675    1.989252   -1.219040
     13          6           0        1.576133   -0.739490    1.278790
     14          1           0        0.935679   -1.599399    1.517244
     15          1           0        2.594424   -1.104206    1.124928
     16          1           0        1.581994   -0.064024    2.139625
     17          7           0        1.494501   -0.800634   -1.174351
     18          1           0        0.689516   -1.312099   -1.525564
     19          1           0        1.804142   -0.140606   -1.885226
 ---------------------------------------------------------------------

 SCF Done:  E(RHF) =  -726.897201210     A.U. after    2 cycles

 The electronic state is 1-A.
 Alpha  occ. eigenvalues -- -103.45545 -15.47633 -15.46258 -11.20352 -11.10543
 Alpha  occ. eigenvalues --  -11.09459 -11.08648 -10.48788  -8.14441  -8.14283
 Alpha  occ. eigenvalues --   -8.14273  -1.07082  -0.99215  -0.92407  -0.87807
 Alpha  occ. eigenvalues --   -0.82554  -0.72763  -0.59845  -0.55083  -0.52519
 Alpha  occ. eigenvalues --   -0.50523  -0.46328  -0.43947  -0.42386  -0.41319
 Alpha  occ. eigenvalues --   -0.40008  -0.36557  -0.34206  -0.30435  -0.28348
 Alpha  occ. eigenvalues --   -0.27908  -0.27107  -0.25256  -0.10118
 Alpha virt. eigenvalues --    0.12998   0.13500   0.13929   0.15312   0.15532
 Alpha virt. eigenvalues --    0.16049   0.16935   0.17412   0.18758   0.19514
 Alpha virt. eigenvalues --    0.20206   0.21169   0.22493   0.23867   0.24642

 Mulliken charges:
               1
     1  C   -0.727887
     2  C    0.184205
     3  Cl  -0.573848
     4  H   -0.612203
     5  H    0.231669
     6  C    0.845219
     7  H   -0.017953
     8  H    0.108879
     9  H   -0.034843
    10  N   -0.444625
    11  H    0.044008
    12  H    0.075691
    13  C    0.396308
    14  H    0.000886
    15  H   -0.090159
    16  H   -0.055359
    17  N   -0.393195
    18  H    0.024960
    19  H    0.038248
 Sum of Mulliken charges =  -1.00000

 Dipole moment (field-independent basis, Debye):
    X=             -2.7201    Y=             -2.2998    Z=              1.9295  Tot=              4.0510

 Test job not archived.
 1\1\GINC-SE073\SP\RHF\Aug-CC-pVDZ\C4H12Cl1N2(1-)\OHZDE\09-Apr-2025\0\\
 #t hf aug-cc-pvdz iop(5/13=1,5/36=2,99/5=2) pseudo=read geom=check gue
 ss=(read,tcheck) scf=(maxcycle=1)\\title\\-1,1\C,0,-0.21960064,-0.0181
 1494,-0.30551235\C,0,-0.08681181,-0.03467576,1.13744496\Cl,0,1.7043059
 8,0.08820143,-1.1709234\H,0,-2.43598592,0.61683552,1.46351364\H,0,-1.3
 4485923,0.12561134,1.37601309\C,0,-0.79786955,-1.26228777,-0.92204994\
 H,0,-0.20040223,-2.1460524,-0.70315001\H,0,-1.80875965,-1.39380929,-0.
 50772151\H,0,-0.86890497,-1.12825121,-2.00105264\N,0,-0.87240369,1.137

 Normal termination of Gaussian 16 at Wed Apr  9 02:28:50 2025.
