 Gaussian 16, Revision C.01,

 ----------------------------------------------------------------------
 #t hf aug-cc-pvdz symm=none int=(grid=ultrafine) guess=(read,tcheck) s
 table=(opt,rrhf)
 ----------------------------------------------------------------------
 -----
 title
 -----
 Symbolic Z-matrix:
 Charge = -1 Multiplicity = 1

 SCF Done:  E(RHF) =  -463.399655041     A.U. after   15 cycles
 Normal termination of Gaussian 16 at Wed Apr  9 02:48:03 2025.
 Gaussian 16:  ES64L-G16RevC.01  3-Jul-2019

 ----------------------------------------------------------------------
 #t hf aug-cc-pvdz iop(5/13=1,5/36=2,99/5=2) pseudo=read geom=check gue
 ss=(read,tcheck) scf=(maxcycle=1)
 ----------------------------------------------------------------------
 -----
 title
 -----
 Structure from the checkpoint file:  "E2SN2_298_mol2.chk"
 Charge = -1 Multiplicity = 1

                         Standard orientation:
 ---------------------------------------------------------------------
 Center     Atomic      Atomic             Coordinates (Angstroms)
 Number     Number       Type             X           Y           Z
 ---------------------------------------------------------------------
      1          6           0       -0.473242    0.188934    0.227119
      2          6           0        0.437824    0.611517   -0.917713
      3          9           0       -0.996889    1.393900    0.823608
      4          1           0       -0.146030    1.250688   -1.588408
      5          1           0        0.740530   -0.302546   -1.431311
      6          6           0       -1.712583   -0.447270   -0.314696
      7          7           0       -2.670171   -0.986518   -0.732177
      8          7           0        0.200088   -0.586405    1.161512
      9          1           0       -0.419793   -1.183177    1.690383
     10          1           0        1.056691   -1.107950    0.713627
     11          6           0        1.696684    1.307435   -0.408186
     12          1           0        2.339282    0.533613    0.008924
     13          1           0        2.218878    1.794479   -1.238709
     14          1           0        1.454150    2.062056    0.342874
     15          9           0        2.147419   -1.616167   -0.048260
 ---------------------------------------------------------------------

 SCF Done:  E(RHF) =  -463.543742928     A.U. after    2 cycles

 The electronic state is 1-A.
 Alpha  occ. eigenvalues --  -25.96744 -25.76477 -15.52366 -15.44817 -11.25489
 Alpha  occ. eigenvalues --  -11.17075 -11.10553 -11.08253  -1.49540  -1.25879
 Alpha  occ. eigenvalues --   -1.07021  -1.03096  -0.89918  -0.80737  -0.69971
 Alpha  occ. eigenvalues --   -0.64493  -0.59049  -0.57734  -0.54004  -0.48972
 Alpha  occ. eigenvalues --   -0.46839  -0.43775  -0.43589  -0.39241  -0.37922
 Alpha  occ. eigenvalues --   -0.36891  -0.35308  -0.34795  -0.33878  -0.33172
 Alpha  occ. eigenvalues --   -0.32048  -0.25259
 Alpha virt. eigenvalues --    0.12795   0.14372   0.14861   0.15401   0.17493
 Alpha virt. eigenvalues --    0.18504   0.18885   0.20125   0.21794   0.23120
 Alpha virt. eigenvalues --    0.23729   0.24048   0.25893   0.26306   0.26829

 Mulliken charges:
               1
     1  C    1.239411
     2  C    0.125946
     3  F   -0.497017
     4  H   -0.179745
     5  H   -0.016908
     6  C   -0.617331
     7  N   -0.206098
     8  N   -0.608899
     9  H   -0.038866
    10  H    0.258320
    11  C    0.535365
    12  H    0.025149
    13  H   -0.082411
    14  H   -0.050007
    15  F   -0.886908
 Sum of Mulliken charges =  -1.00000

 Dipole moment (field-independent basis, Debye):
    X=             -2.5752    Y=              4.0792    Z=             -0.2958  Tot=              4.8331

 Test job not archived.
 1\1\GINC-SE149\SP\RHF\Aug-CC-pVDZ\C4H7F2N2(1-)\OHZDE\09-Apr-2025\0\\#t
  hf aug-cc-pvdz iop(5/13=1,5/36=2,99/5=2) pseudo=read geom=check guess
 =(read,tcheck) scf=(maxcycle=1)\\title\\-1,1\C,0,0.07606,0.099027,0.03
 6216\C,0,-0.399015,0.143654,-1.41001\F,0,1.501675,-0.122192,0.011056\H
 ,0,0.185081,0.911577,-1.928066\H,0,-1.454243,0.420768,-1.384995\C,0,-0
 .010977,1.461598,0.644584\N,0,-0.116465,2.521425,1.142271\N,0,-0.57609
 6,-0.88866,0.762013\H,0,-0.584751,-0.700052,1.754206\H,0,-1.56227,-1.1
 19438,0.337064\C,0,-0.283654,-1.221028,-2.083051\H,0,-1.088044,-1.8385

 Normal termination of Gaussian 16 at Wed Apr  9 02:48:08 2025.
