 Gaussian 16, Revision C.01,

 ----------------------------------------------------------------------
 #t hf aug-cc-pvdz symm=none int=(grid=ultrafine) guess=(read,tcheck) s
 table=(opt,rrhf)
 ----------------------------------------------------------------------
 -----
 title
 -----
 Symbolic Z-matrix:
 Charge = -1 Multiplicity = 1

 SCF Done:  E(RHF) =  -364.434003678     A.U. after   16 cycles
 Normal termination of Gaussian 16 at Wed Apr  9 02:47:45 2025.
 Gaussian 16:  ES64L-G16RevC.01  3-Jul-2019

 ----------------------------------------------------------------------
 #t hf aug-cc-pvdz iop(5/13=1,5/36=2,99/5=2) pseudo=read geom=check gue
 ss=(read,tcheck) scf=(maxcycle=1)
 ----------------------------------------------------------------------
 -----
 title
 -----
 Structure from the checkpoint file:  "E2SN2_297_mol2.chk"
 Charge = -1 Multiplicity = 1

                         Standard orientation:
 ---------------------------------------------------------------------
 Center     Atomic      Atomic             Coordinates (Angstroms)
 Number     Number       Type             X           Y           Z
 ---------------------------------------------------------------------
      1          6           0        0.159270    0.042392    0.214632
      2          6           0       -0.836107   -0.325335   -0.874944
      3          9           0        0.131773   -1.014664    1.192850
      4          1           0       -0.566997   -1.317441   -1.251948
      5          1           0       -0.723616    0.413515   -1.675202
      6          6           0        1.554159   -0.057461   -0.309669
      7          7           0        2.654572   -0.098102   -0.721311
      8          7           0       -0.153576    1.268436    0.794996
      9          1           0        0.647190    1.701763    1.238121
     10          1           0       -0.611465    1.964364    0.086098
     11          6           0       -2.271581   -0.294292   -0.363596
     12          1           0       -2.569207    0.739857   -0.190750
     13          1           0       -2.944257   -0.730863   -1.109351
     14          1           0       -2.363808   -0.860485    0.565348
     15          1           0       -1.195212    2.837106   -0.912298
 ---------------------------------------------------------------------

 SCF Done:  E(RHF) =  -364.548943996     A.U. after    2 cycles

 The electronic state is 1-A.
 Alpha  occ. eigenvalues --  -25.97793 -15.52979 -15.46301 -11.26508 -11.17612
 Alpha  occ. eigenvalues --  -11.11851 -11.09980  -1.50605  -1.07749  -1.04046
 Alpha  occ. eigenvalues --   -0.91249  -0.81975  -0.71258  -0.65563  -0.60100
 Alpha  occ. eigenvalues --   -0.58822  -0.54490  -0.48640  -0.47505  -0.44369
 Alpha  occ. eigenvalues --   -0.44203  -0.39731  -0.37912  -0.37600  -0.35360
 Alpha  occ. eigenvalues --   -0.33889  -0.26936  -0.09960
 Alpha virt. eigenvalues --    0.12389   0.14111   0.14575   0.15321   0.17460
 Alpha virt. eigenvalues --    0.18471   0.18574   0.20564   0.21518   0.22643
 Alpha virt. eigenvalues --    0.23311   0.23857   0.24573   0.25664   0.25911

 Mulliken charges:
               1
     1  C    1.124722
     2  C    0.038281
     3  F   -0.495830
     4  H   -0.170726
     5  H   -0.036549
     6  C   -0.501684
     7  N   -0.212089
     8  N   -0.423620
     9  H   -0.022169
    10  H    0.028532
    11  C    0.500575
    12  H    0.026811
    13  H   -0.064811
    14  H   -0.054463
    15  H   -0.736980
 Sum of Mulliken charges =  -1.00000

 Dipole moment (field-independent basis, Debye):
    X=              1.0079    Y=             -8.1238    Z=              2.1260  Tot=              8.4576

 Test job not archived.
 1\1\GINC-SE227\SP\RHF\Aug-CC-pVDZ\C4H8F1N2(1-)\OHZDE\09-Apr-2025\0\\#t
  hf aug-cc-pvdz iop(5/13=1,5/36=2,99/5=2) pseudo=read geom=check guess
 =(read,tcheck) scf=(maxcycle=1)\\title\\-1,1\C,0,0.064937,0.104255,0.0
 14994\C,0,-0.401063,0.176785,-1.430951\F,0,1.490666,-0.100476,-0.00539
 \H,0,0.17637,0.962644,-1.92877\H,0,-1.459824,0.455507,-1.413439\C,0,-0
 .045539,1.447847,0.657748\N,0,-0.16154,2.492388,1.18452\N,0,-0.57716,-
 0.920667,0.704287\H,0,-0.574385,-0.773489,1.70613\H,0,-1.599619,-1.087
 174,0.35305\C,0,-0.248026,-1.162411,-2.142401\H,0,-0.985488,-1.863331,

 Normal termination of Gaussian 16 at Wed Apr  9 02:47:50 2025.
