 Gaussian 16, Revision C.01,

 ----------------------------------------------------------------------
 #t hf aug-cc-pvdz symm=none int=(grid=ultrafine) guess=(read,tcheck) s
 table=(opt,rrhf)
 ----------------------------------------------------------------------
 -----
 title
 -----
 Symbolic Z-matrix:
 Charge = -1 Multiplicity = 1

 SCF Done:  E(RHF) =  -1055.74532392     A.U. after   17 cycles
 Normal termination of Gaussian 16 at Wed Apr  9 02:59:28 2025.
 Gaussian 16:  ES64L-G16RevC.01  3-Jul-2019

 ----------------------------------------------------------------------
 #t hf aug-cc-pvdz iop(5/13=1,5/36=2,99/5=2) pseudo=read geom=check gue
 ss=(read,tcheck) scf=(maxcycle=1)
 ----------------------------------------------------------------------
 -----
 title
 -----
 Structure from the checkpoint file:  "E2SN2_48_mol1.chk"
 Charge = -1 Multiplicity = 1

                         Standard orientation:
 ---------------------------------------------------------------------
 Center     Atomic      Atomic             Coordinates (Angstroms)
 Number     Number       Type             X           Y           Z
 ---------------------------------------------------------------------
      1          6           0       -0.563993    0.431757    0.251101
      2          6           0        0.924336    0.345072    0.491320
      3         17           0       -0.951542    1.138551   -1.362489
      4          1           0        1.033440    0.613042    2.893854
      5          1           0        1.011820    0.094620    1.690282
      6          7           0       -1.245427   -0.945204    0.354398
      7          8           0       -2.082864   -1.284115   -0.465091
      8          8           0       -0.931679   -1.561041    1.365254
      9          7           0       -1.208978    1.206696    1.274949
     10          1           0       -1.140910    2.186255    1.033434
     11          1           0       -0.650690    1.061443    2.130938
     12          7           0        1.604324    1.584495    0.468828
     13          1           0        1.672951    1.904154    1.438478
     14          1           0        1.173370    2.273814   -0.131126
     15          7           0        1.599772   -0.672637   -0.325691
     16          8           0        0.892592   -1.487767   -0.939583
     17          8           0        2.830245   -0.712467   -0.305013
 ---------------------------------------------------------------------

 SCF Done:  E(RHF) =  -1055.94200799     A.U. after    2 cycles

 The electronic state is 1-A.
 Alpha  occ. eigenvalues -- -103.56284 -20.50264 -20.49837 -20.48293 -20.48148
 Alpha  occ. eigenvalues --  -15.79746 -15.77702 -15.52250 -15.50282 -11.30113
 Alpha  occ. eigenvalues --  -11.19393 -10.59636  -8.25356  -8.25064  -8.25059
 Alpha  occ. eigenvalues --   -1.43001  -1.40349  -1.24830  -1.22009  -1.14636
 Alpha  occ. eigenvalues --   -1.05889  -1.02669  -0.92183  -0.87059  -0.74416
 Alpha  occ. eigenvalues --   -0.69054  -0.65749  -0.63906  -0.62085  -0.61519
 Alpha  occ. eigenvalues --   -0.60161  -0.58754  -0.56085  -0.53896  -0.50983
 Alpha  occ. eigenvalues --   -0.47732  -0.41007  -0.40738  -0.40633  -0.38232
 Alpha  occ. eigenvalues --   -0.37788  -0.37028  -0.36064  -0.35434  -0.33881
 Alpha  occ. eigenvalues --   -0.31943  -0.29806  -0.14254
 Alpha virt. eigenvalues --    0.11981   0.14030   0.15678   0.17641   0.18183
 Alpha virt. eigenvalues --    0.18742   0.19621   0.20097   0.21265   0.21993
 Alpha virt. eigenvalues --    0.22993   0.23800   0.24658   0.25626   0.26454

 Mulliken charges:
               1
     1  C    1.203920
     2  C    0.824397
     3  Cl  -0.183111
     4  H   -0.408527
     5  H   -0.039737
     6  N    0.424183
     7  O   -0.667710
     8  O   -0.598410
     9  N   -0.506027
    10  H    0.035004
    11  H    0.093293
    12  N   -0.197735
    13  H    0.094562
    14  H   -0.010148
    15  N    0.219709
    16  O   -0.676342
    17  O   -0.607320
 Sum of Mulliken charges =  -1.00000

 Dipole moment (field-independent basis, Debye):
    X=             -3.0328    Y=              4.4648    Z=             -4.5358  Tot=              7.0502

 Test job not archived.
 1\1\GINC-SE102\SP\RHF\Aug-CC-pVDZ\C2H6Cl1N4O4(1-)\OHZDE\09-Apr-2025\0\
 \#t hf aug-cc-pvdz iop(5/13=1,5/36=2,99/5=2) pseudo=read geom=check gu
 ess=(read,tcheck) scf=(maxcycle=1)\\title\\-1,1\C,0,-0.2210128,0.00037
 448,-0.3556582\C,0,-0.00993811,-0.06051706,1.13835706\Cl,0,1.31976048,
 0.28836807,-1.24812821\H,0,-2.12062166,0.79995326,1.95106276\H,0,-1.14
 804546,-0.00365674,1.59592696\N,0,-0.86362656,-1.28883179,-0.89975186\
 O,0,-0.44860345,-1.80170184,-1.92563839\O,0,-1.84997302,-1.63847539,-0
 .26383363\N,0,-1.16802303,1.0237552,-0.70302595\H,0,-0.68325792,1.9091

 Normal termination of Gaussian 16 at Wed Apr  9 02:59:39 2025.
