 Gaussian 16, Revision C.01,

 ----------------------------------------------------------------------
 #t hf aug-cc-pvdz symm=none int=(grid=ultrafine) guess=(read,tcheck) s
 table=(opt,rrhf)
 ----------------------------------------------------------------------
 -----
 title
 -----
 Symbolic Z-matrix:
 Charge = -1 Multiplicity = 1

 SCF Done:  E(RHF) =  -839.446873542     A.U. after   15 cycles
 Normal termination of Gaussian 16 at Wed Apr  9 02:54:09 2025.
 Gaussian 16:  ES64L-G16RevC.01  3-Jul-2019

 ----------------------------------------------------------------------
 #t hf aug-cc-pvdz iop(5/13=1,5/36=2,99/5=2) pseudo=read geom=check gue
 ss=(read,tcheck) scf=(maxcycle=1)
 ----------------------------------------------------------------------
 -----
 title
 -----
 Structure from the checkpoint file:  "E2SN2_370_mol1.chk"
 Charge = -1 Multiplicity = 1

                         Standard orientation:
 ---------------------------------------------------------------------
 Center     Atomic      Atomic             Coordinates (Angstroms)
 Number     Number       Type             X           Y           Z
 ---------------------------------------------------------------------
      1          6           0       -0.676365   -0.475734   -0.309773
      2          1           0       -1.166276    1.264804    0.536323
      3         17           0        1.483374   -1.438428   -0.461054
      4          9           0       -2.466814    0.689656   -0.809470
      5          6           0       -0.221119    0.707387    0.498909
      6          1           0       -0.718581   -0.407069   -1.377442
      7          7           0       -1.416367   -1.392743    0.322933
      8          1           0       -2.266377   -1.568094   -0.187955
      9          1           0       -1.542255   -1.181012    1.301790
     10          6           0        0.761632    1.555861   -0.190930
     11          7           0        1.530626    2.331006   -0.624249
     12          7           0        0.183857    0.284738    1.833043
     13          1           0        0.362644    1.100288    2.404956
     14          1           0        1.043103   -0.248649    1.734155
 ---------------------------------------------------------------------

 SCF Done:  E(RHF) =  -839.573257742     A.U. after    2 cycles

 The electronic state is 1-A.
 Alpha  occ. eigenvalues -- -103.42139 -25.77389 -15.51938 -15.51776 -15.51667
 Alpha  occ. eigenvalues --  -11.24476 -11.19526 -11.17012 -10.45392  -8.11017
 Alpha  occ. eigenvalues --   -8.10925  -8.10906  -1.26501  -1.11806  -1.06701
 Alpha  occ. eigenvalues --   -1.03920  -0.89468  -0.86672  -0.72464  -0.64677
 Alpha  occ. eigenvalues --   -0.59237  -0.55134  -0.54069  -0.48883  -0.44138
 Alpha  occ. eigenvalues --   -0.42992  -0.40423  -0.36813  -0.36304  -0.34474
 Alpha  occ. eigenvalues --   -0.32832  -0.32357  -0.30633  -0.25537  -0.25249
 Alpha  occ. eigenvalues --   -0.24147
 Alpha virt. eigenvalues --    0.11927   0.13427   0.14992   0.15597   0.17209
 Alpha virt. eigenvalues --    0.18103   0.19213   0.21857   0.23388   0.23632
 Alpha virt. eigenvalues --    0.24176   0.24903   0.25727   0.26867   0.27221

 Mulliken charges:
               1
     1  C    0.859660
     2  H    0.124100
     3  Cl  -0.720856
     4  F   -0.943838
     5  C    1.290151
     6  H   -0.322594
     7  N   -0.358231
     8  H    0.099085
     9  H    0.058470
    10  C   -0.398176
    11  N   -0.254553
    12  N   -0.539276
    13  H    0.007637
    14  H    0.098420
 Sum of Mulliken charges =  -1.00000

 Dipole moment (field-independent basis, Debye):
    X=             -0.6678    Y=             -0.9141    Z=              5.2543  Tot=              5.3748

 Test job not archived.
 1\1\GINC-SE149\SP\RHF\Aug-CC-pVDZ\C3H6Cl1F1N3(1-)\OHZDE\09-Apr-2025\0\
 \#t hf aug-cc-pvdz iop(5/13=1,5/36=2,99/5=2) pseudo=read geom=check gu
 ess=(read,tcheck) scf=(maxcycle=1)\\title\\-1,1\C,0,0.32566043,-0.1481
 7034,-0.06018487\H,0,1.70119625,1.29810216,-0.02070339\Cl,0,-2.0211310
 1,0.09936019,0.15297887\F,0,2.43472183,-0.45167878,0.46257654\C,0,0.60
 370884,1.32898419,-0.01903105\H,0,0.3457912,-0.71969703,0.84500351\N,0
 ,0.49964103,-0.76436013,-1.23443633\H,0,1.10288526,-1.56311106,-1.1232
 4239\H,0,0.76576892,-0.12726987,-1.97073058\C,0,0.18494946,1.97774954,

 Normal termination of Gaussian 16 at Wed Apr  9 02:54:15 2025.
