 Gaussian 16, Revision C.01,

 ----------------------------------------------------------------------
 #t hf aug-cc-pvdz symm=none int=(grid=ultrafine) guess=(read,tcheck) s
 table=(opt,rrhf)
 ----------------------------------------------------------------------
 -----
 title
 -----
 Symbolic Z-matrix:
 Charge = -1 Multiplicity = 1

 SCF Done:  E(RHF) =  -778.623518988     A.U. after   16 cycles
 Normal termination of Gaussian 16 at Wed Apr  9 02:43:28 2025.
 Gaussian 16:  ES64L-G16RevC.01  3-Jul-2019

 ----------------------------------------------------------------------
 #t hf aug-cc-pvdz iop(5/13=1,5/36=2,99/5=2) pseudo=read geom=check gue
 ss=(read,tcheck) scf=(maxcycle=1)
 ----------------------------------------------------------------------
 -----
 title
 -----
 Structure from the checkpoint file:  "E2SN2_242_mol1.chk"
 Charge = -1 Multiplicity = 1

                         Standard orientation:
 ---------------------------------------------------------------------
 Center     Atomic      Atomic             Coordinates (Angstroms)
 Number     Number       Type             X           Y           Z
 ---------------------------------------------------------------------
      1          6           0       -0.435608   -0.227954    0.251681
      2          1           0        0.582813    0.076442   -1.586943
      3          9           0       -0.725440    1.169197    1.293453
      4          9           0       -0.434991   -1.612285   -0.811612
      5          6           0        0.696232    0.429898   -0.567846
      6          7           0       -1.834345    0.030851   -0.271100
      7          8           0       -1.949527    0.743097   -1.263215
      8          8           0       -2.759230   -0.499305    0.327531
      9          7           0       -0.201492   -1.047006    1.370822
     10          1           0       -0.571598   -1.963053    1.174076
     11          1           0       -0.625165   -0.612590    2.174638
     12          7           0        1.981075   -0.193499   -0.101636
     13          8           0        2.466615   -1.092761   -0.787739
     14          8           0        2.494079    0.255687    0.920941
     15          6           0        0.861853    1.934520   -0.528789
     16          1           0       -0.056368    2.396132   -0.885095
     17          1           0        1.058626    2.270655    0.482093
     18          1           0        1.688529    2.215251   -1.192362
 ---------------------------------------------------------------------

 SCF Done:  E(RHF) =  -778.859401798     A.U. after    2 cycles

 The electronic state is 1-A.
 Alpha  occ. eigenvalues --  -25.86590 -25.86146 -20.48779 -20.48559 -20.48164
 Alpha  occ. eigenvalues --  -20.48091 -15.78255 -15.77872 -15.49117 -11.32360
 Alpha  occ. eigenvalues --  -11.19078 -11.11306  -1.41812  -1.40894  -1.37225
 Alpha  occ. eigenvalues --   -1.36689  -1.22697  -1.22550  -1.06671  -0.98490
 Alpha  occ. eigenvalues --   -0.88654  -0.82127  -0.73482  -0.67978  -0.64460
 Alpha  occ. eigenvalues --   -0.62358  -0.61074  -0.60585  -0.59327  -0.57875
 Alpha  occ. eigenvalues --   -0.57286  -0.52944  -0.49816  -0.46170  -0.46132
 Alpha  occ. eigenvalues --   -0.44971  -0.44225  -0.43307  -0.42193  -0.41106
 Alpha  occ. eigenvalues --   -0.39787  -0.38433  -0.37495  -0.36589  -0.36005
 Alpha  occ. eigenvalues --   -0.34060  -0.33858  -0.29395
 Alpha virt. eigenvalues --    0.12521   0.13588   0.14699   0.15381   0.16776
 Alpha virt. eigenvalues --    0.17080   0.20567   0.21404   0.21795   0.22536
 Alpha virt. eigenvalues --    0.23432   0.23785   0.24969   0.26282   0.26784

 Mulliken charges:
               1
     1  C    0.912231
     2  H   -0.042380
     3  F   -0.747088
     4  F   -0.688496
     5  C    0.927956
     6  N    0.529262
     7  O   -0.699806
     8  O   -0.664906
     9  N   -0.278530
    10  H    0.035464
    11  H    0.039382
    12  N    0.326787
    13  O   -0.620658
    14  O   -0.623733
    15  C    0.464073
    16  H    0.038271
    17  H    0.127201
    18  H   -0.035031
 Sum of Mulliken charges =  -1.00000

 Dipole moment (field-independent basis, Debye):
    X=              1.0822    Y=              1.6181    Z=             -0.2684  Tot=              1.9650

 Test job not archived.
 1\1\GINC-SE403\SP\RHF\Aug-CC-pVDZ\C3H6F2N3O4(1-)\OHZDE\09-Apr-2025\0\\
 #t hf aug-cc-pvdz iop(5/13=1,5/36=2,99/5=2) pseudo=read geom=check gue
 ss=(read,tcheck) scf=(maxcycle=1)\\title\\-1,1\C,0,0.62495097,-0.07696
 852,0.00168031\H,0,1.64335353,1.71807148,-0.49938199\F,0,-1.007738,-0.
 32093951,-0.62770617\F,0,2.31163541,-0.05387716,0.45059646\C,0,0.63480
 524,1.45425785,-0.20007098\N,0,1.07297778,-0.88137335,-1.20204307\O,0,
 1.37596412,-0.26543386,-2.21873862\O,0,1.11335456,-2.0967777,-1.075555
 4\N,0,0.2765988,-0.69234652,1.21744868\H,0,1.07230217,-1.21612833,1.54

 Normal termination of Gaussian 16 at Wed Apr  9 02:43:39 2025.
