 Gaussian 16, Revision C.01,

 ----------------------------------------------------------------------
 #t hf aug-cc-pvdz symm=none int=(grid=ultrafine) guess=(read,tcheck) s
 table=(opt,rrhf)
 ----------------------------------------------------------------------
 -----
 title
 -----
 Symbolic Z-matrix:
 Charge = -1 Multiplicity = 1

 SCF Done:  E(RHF) =  -1083.64257659     A.U. after   16 cycles
 Normal termination of Gaussian 16 at Wed Apr  9 02:51:07 2025.
 Gaussian 16:  ES64L-G16RevC.01  3-Jul-2019

 ----------------------------------------------------------------------
 #t hf aug-cc-pvdz iop(5/13=1,5/36=2,99/5=2) pseudo=read geom=check gue
 ss=(read,tcheck) scf=(maxcycle=1)
 ----------------------------------------------------------------------
 -----
 title
 -----
 Structure from the checkpoint file:  "E2SN2_323_mol1.chk"
 Charge = -1 Multiplicity = 1

                         Standard orientation:
 ---------------------------------------------------------------------
 Center     Atomic      Atomic             Coordinates (Angstroms)
 Number     Number       Type             X           Y           Z
 ---------------------------------------------------------------------
      1          6           0       -1.163474   -0.069326    0.417269
      2          1           0        0.470233   -0.956332    1.377814
      3         17           0       -1.096045    1.694981   -0.935098
      4          9           0       -1.357901   -1.347982    1.870457
      5          6           0        0.315427   -0.359152    0.483958
      6          1           0       -1.508728    0.590264    1.187947
      7          6           0       -2.096270   -0.928249   -0.400374
      8          1           0       -2.071322   -0.676134   -1.456366
      9          1           0       -1.835947   -1.974352   -0.252507
     10          1           0       -3.102635   -0.783487   -0.008567
     11          7           0        1.177154    0.861053    0.650009
     12          8           0        2.101951    1.046929   -0.130485
     13          8           0        0.905690    1.540788    1.630335
     14          7           0        0.887469   -1.155021   -0.644387
     15          8           0        1.823935   -1.891700   -0.328148
     16          8           0        0.432901   -1.031600   -1.775482
 ---------------------------------------------------------------------

 SCF Done:  E(RHF) =  -1083.84527826     A.U. after    2 cycles

 The electronic state is 1-A.
 Alpha  occ. eigenvalues -- -103.44395 -25.82221 -20.52545 -20.52157 -20.52014
 Alpha  occ. eigenvalues --  -20.51746 -15.82096 -15.81832 -11.26704 -11.24554
 Alpha  occ. eigenvalues --  -11.12032 -10.47720  -8.13366  -8.13232  -8.13211
 Alpha  occ. eigenvalues --   -1.45568  -1.43826  -1.32102  -1.26680  -1.26294
 Alpha  occ. eigenvalues --   -1.05705  -0.94114  -0.88415  -0.84824  -0.77511
 Alpha  occ. eigenvalues --   -0.71609  -0.69281  -0.66162  -0.63988  -0.62507
 Alpha  occ. eigenvalues --   -0.61740  -0.57658  -0.53709  -0.49066  -0.46484
 Alpha  occ. eigenvalues --   -0.45327  -0.42439  -0.41997  -0.41457  -0.40750
 Alpha  occ. eigenvalues --   -0.39906  -0.39126  -0.38524  -0.37597  -0.36359
 Alpha  occ. eigenvalues --   -0.28120  -0.27164  -0.27053
 Alpha virt. eigenvalues --    0.13361   0.14689   0.14746   0.16197   0.16526
 Alpha virt. eigenvalues --    0.16940   0.18512   0.20442   0.21286   0.21975
 Alpha virt. eigenvalues --    0.23809   0.24653   0.25400   0.25745   0.26198

 Mulliken charges:
               1
     1  C    0.043882
     2  H   -0.013582
     3  Cl  -0.680596
     4  F   -0.861779
     5  C    1.969014
     6  H   -0.308467
     7  C    0.476423
     8  H    0.054832
     9  H    0.021418
    10  H   -0.000766
    11  N    0.417315
    12  O   -0.599885
    13  O   -0.616869
    14  N    0.266294
    15  O   -0.626196
    16  O   -0.541039
 Sum of Mulliken charges =  -1.00000

 Dipole moment (field-independent basis, Debye):
    X=              0.6201    Y=             -1.3552    Z=             -0.7386  Tot=              1.6633

 Test job not archived.
 1\1\GINC-SE080\SP\RHF\Aug-CC-pVDZ\C3H5Cl1F1N2O4(1-)\OHZDE\09-Apr-2025\
 0\\#t hf aug-cc-pvdz iop(5/13=1,5/36=2,99/5=2) pseudo=read geom=check
 guess=(read,tcheck) scf=(maxcycle=1)\\title\\-1,1\C,0,0.6077524,-0.085
 69449,-0.05235437\H,0,1.67213368,1.70655009,0.13033204\Cl,0,-1.5325024
 9,-0.40356886,0.46193046\F,0,2.54835925,0.0064679,-0.15270042\C,0,0.63
 179753,1.42158232,0.00359978\H,0,0.85529144,-0.55567496,0.87826197\C,0
 ,0.62184778,-0.82331605,-1.36845256\H,0,-0.35967792,-0.86118753,-1.831
 5685\H,0,1.3387209,-0.3469277,-2.0341181\H,0,0.97877824,-1.83416732,-1

 Normal termination of Gaussian 16 at Wed Apr  9 02:51:17 2025.
