 Gaussian 16, Revision C.01,

 ----------------------------------------------------------------------
 #t hf aug-cc-pvdz symm=none int=(grid=ultrafine) guess=(read,tcheck) s
 table=(opt,rrhf)
 ----------------------------------------------------------------------
 -----
 title
 -----
 Symbolic Z-matrix:
 Charge = -1 Multiplicity = 1

 SCF Done:  E(RHF) =  -364.384574280     A.U. after   16 cycles
 Normal termination of Gaussian 16 at Wed Apr  9 02:47:49 2025.
 Gaussian 16:  ES64L-G16RevC.01  3-Jul-2019

 ----------------------------------------------------------------------
 #t hf aug-cc-pvdz iop(5/13=1,5/36=2,99/5=2) pseudo=read geom=check gue
 ss=(read,tcheck) scf=(maxcycle=1)
 ----------------------------------------------------------------------
 -----
 title
 -----
 Structure from the checkpoint file:  "E2SN2_297_mol1.chk"
 Charge = -1 Multiplicity = 1

                         Standard orientation:
 ---------------------------------------------------------------------
 Center     Atomic      Atomic             Coordinates (Angstroms)
 Number     Number       Type             X           Y           Z
 ---------------------------------------------------------------------
      1          6           0       -0.291419   -0.339707   -0.225252
      2          1           0        1.359291   -1.172647   -1.317751
      3          9           0       -0.440981   -0.566920    1.424619
      4          1           0       -0.224777    0.205641   -1.998732
      5          6           0        1.164940   -0.766103   -0.328465
      6          1           0        1.276684   -1.570282    0.404721
      7          6           0       -0.640781    1.065903   -0.220549
      8          7           0       -0.975360    2.181799   -0.017126
      9          7           0       -1.296404   -1.328801   -0.569638
     10          1           0       -1.700115   -1.057848   -1.453283
     11          1           0       -1.989329   -1.287297    0.168898
     12          6           0        2.116578    0.376252   -0.012232
     13          1           0        1.999728    1.175852   -0.748416
     14          1           0        1.895487    0.781290    0.977162
     15          1           0        3.158300    0.038505   -0.027839
 ---------------------------------------------------------------------

 SCF Done:  E(RHF) =  -364.495971930     A.U. after    2 cycles

 The electronic state is 1-A.
 Alpha  occ. eigenvalues --  -25.86667 -15.47380 -15.46172 -11.23843 -11.13584
 Alpha  occ. eigenvalues --  -11.09409 -11.08975  -1.37355  -1.03669  -0.99465
 Alpha  occ. eigenvalues --   -0.90474  -0.78274  -0.70474  -0.56933  -0.53179
 Alpha  occ. eigenvalues --   -0.51502  -0.47688  -0.46193  -0.43487  -0.42670
 Alpha  occ. eigenvalues --   -0.38555  -0.38013  -0.36597  -0.35038  -0.30717
 Alpha  occ. eigenvalues --   -0.29147  -0.26620  -0.11438
 Alpha virt. eigenvalues --    0.12698   0.13909   0.15017   0.15346   0.16805
 Alpha virt. eigenvalues --    0.17622   0.17949   0.19668   0.20503   0.24031
 Alpha virt. eigenvalues --    0.24605   0.25199   0.25764   0.26820   0.26973

 Mulliken charges:
               1
     1  C   -0.079570
     2  H   -0.098513
     3  F   -0.677338
     4  H   -0.279945
     5  C    0.506438
     6  H   -0.034304
     7  C   -0.105095
     8  N   -0.404993
     9  N   -0.280488
    10  H    0.065584
    11  H    0.033443
    12  C    0.462215
    13  H    0.022125
    14  H    0.012435
    15  H   -0.141995
 Sum of Mulliken charges =  -1.00000

 Dipole moment (field-independent basis, Debye):
    X=              2.0532    Y=             -2.9680    Z=              1.2121  Tot=              3.8071

 Test job not archived.
 1\1\GINC-SE120\SP\RHF\Aug-CC-pVDZ\C4H8F1N2(1-)\OHZDE\09-Apr-2025\0\\#t
  hf aug-cc-pvdz iop(5/13=1,5/36=2,99/5=2) pseudo=read geom=check guess
 =(read,tcheck) scf=(maxcycle=1)\\title\\-1,1\C,0,0.48815782,-0.0390928
 3,0.06760409\H,0,1.55489161,1.80263014,0.35452202\F,0,-1.15450496,-0.1
 4354275,0.36225317\H,0,2.25171621,-0.10561268,-0.50903662\C,0,0.564543
 14,1.47979879,0.04351221\H,0,-0.15942445,1.81118326,0.79371718\C,0,0.4
 71279,-0.78780049,-1.17214155\N,0,0.25955357,-1.44032313,-2.13543509\N
 ,0,0.86922715,-0.70122243,1.30181355\H,0,1.75780285,-1.15151937,1.1440

 Normal termination of Gaussian 16 at Wed Apr  9 02:47:54 2025.
