 Gaussian 16, Revision C.01,

 ----------------------------------------------------------------------
 #t hf aug-cc-pvdz symm=none int=(grid=ultrafine) guess=(read,tcheck) s
 table=(opt,rrhf)
 ----------------------------------------------------------------------
 -----
 title
 -----
 Symbolic Z-matrix:
 Charge = -1 Multiplicity = 1

 SCF Done:  E(RHF) =  -876.155899079     A.U. after   15 cycles
 Normal termination of Gaussian 16 at Wed Apr  9 02:33:27 2025.
 Gaussian 16:  ES64L-G16RevC.01  3-Jul-2019

 ----------------------------------------------------------------------
 #t hf aug-cc-pvdz iop(5/13=1,5/36=2,99/5=2) pseudo=read geom=check gue
 ss=(read,tcheck) scf=(maxcycle=1)
 ----------------------------------------------------------------------
 -----
 title
 -----
 Structure from the checkpoint file:  "E2SN2_144_mol2.chk"
 Charge = -1 Multiplicity = 1

                         Standard orientation:
 ---------------------------------------------------------------------
 Center     Atomic      Atomic             Coordinates (Angstroms)
 Number     Number       Type             X           Y           Z
 ---------------------------------------------------------------------
      1          6           0       -0.297647   -0.221368    0.161133
      2          6           0        0.538910    0.551543   -0.880571
      3         17           0        0.293185   -1.955439    0.208786
      4          1           0        0.101301    1.551574   -0.793418
      5          1           0        0.421729    0.131000   -1.882911
      6          7           0       -0.295116    0.337430    1.472320
      7          1           0        0.670985    0.377992    1.786832
      8          1           0       -0.621763    1.327438    1.252251
      9          6           0       -1.680593   -0.280189   -0.342322
     10          7           0       -2.760924   -0.401470   -0.785020
     11          6           0        1.947174    0.575856   -0.515843
     12          7           0        3.083814    0.607230   -0.220935
     13          9           0       -0.977541    2.477454    0.254328
 ---------------------------------------------------------------------

 SCF Done:  E(RHF) =  -876.294012770     A.U. after    2 cycles

 The electronic state is 1-A.
 Alpha  occ. eigenvalues -- -103.54825 -25.78176 -15.53362 -15.52926 -15.48355
 Alpha  occ. eigenvalues --  -11.27337 -11.18824 -11.18095 -11.16290 -10.58171
 Alpha  occ. eigenvalues --   -8.23879  -8.23600  -8.23592  -1.27562  -1.12286
 Alpha  occ. eigenvalues --   -1.07244  -1.05452  -1.00565  -0.92205  -0.79603
 Alpha  occ. eigenvalues --   -0.59999  -0.57885  -0.55392  -0.51717  -0.50228
 Alpha  occ. eigenvalues --   -0.44585  -0.44165  -0.42733  -0.38163  -0.37690
 Alpha  occ. eigenvalues --   -0.37134  -0.35970  -0.35660  -0.34714  -0.33782
 Alpha  occ. eigenvalues --   -0.33136  -0.32336  -0.28039
 Alpha virt. eigenvalues --    0.13156   0.14638   0.16739   0.17478   0.17733
 Alpha virt. eigenvalues --    0.18988   0.19608   0.21152   0.22722   0.23625
 Alpha virt. eigenvalues --    0.24230   0.24775   0.25335   0.25980   0.26822

 Mulliken charges:
               1
     1  C    0.588326
     2  C    0.857196
     3  Cl  -0.219899
     4  H    0.049226
     5  H   -0.050376
     6  N   -0.628791
     7  H    0.032371
     8  H    0.232479
     9  C   -0.285520
    10  N   -0.244474
    11  C   -0.079621
    12  N   -0.316050
    13  F   -0.934865
 Sum of Mulliken charges =  -1.00000

 Dipole moment (field-independent basis, Debye):
    X=              2.8986    Y=             -4.9558    Z=             -1.2902  Tot=              5.8844

 Test job not archived.
 1\1\GINC-SE105\SP\RHF\Aug-CC-pVDZ\C4H4Cl1F1N3(1-)\OHZDE\09-Apr-2025\0\
 \#t hf aug-cc-pvdz iop(5/13=1,5/36=2,99/5=2) pseudo=read geom=check gu
 ess=(read,tcheck) scf=(maxcycle=1)\\title\\-1,1\C,0,-0.016441,0.13209,
 -1.507136\C,0,-0.068876,0.004161,0.030151\Cl,0,-1.700816,0.521994,-2.1
 14764\H,0,0.982031,-0.207122,0.254011\H,0,-0.733053,-0.805507,0.344123
 \N,0,0.92013,1.085725,-2.001997\H,0,0.678911,1.98893,-1.60206\H,0,1.80
 8998,0.733382,-1.531877\C,0,0.30931,-1.198729,-2.04776\N,0,0.482612,-2
 .276044,-2.480386\C,0,-0.483184,1.252873,0.651354\N,0,-0.807469,2.2615

 Normal termination of Gaussian 16 at Wed Apr  9 02:33:33 2025.
