 Gaussian 16, Revision C.01,

 ----------------------------------------------------------------------
 #t hf aug-cc-pvdz symm=none int=(grid=ultrafine) guess=(read,tcheck) s
 table=(opt,rrhf)
 ----------------------------------------------------------------------
 -----
 title
 -----
 Symbolic Z-matrix:
 Charge = -1 Multiplicity = 1

 SCF Done:  E(RHF) =  -614.143182233     A.U. after   16 cycles
 Normal termination of Gaussian 16 at Wed Apr  9 02:53:44 2025.
 Gaussian 16:  ES64L-G16RevC.01  3-Jul-2019

 ----------------------------------------------------------------------
 #t hf aug-cc-pvdz iop(5/13=1,5/36=2,99/5=2) pseudo=read geom=check gue
 ss=(read,tcheck) scf=(maxcycle=1)
 ----------------------------------------------------------------------
 -----
 title
 -----
 Structure from the checkpoint file:  "E2SN2_359_mol1.chk"
 Charge = -1 Multiplicity = 1

                         Standard orientation:
 ---------------------------------------------------------------------
 Center     Atomic      Atomic             Coordinates (Angstroms)
 Number     Number       Type             X           Y           Z
 ---------------------------------------------------------------------
      1          6           0       -0.902408   -0.095862    0.137893
      2          1           0        0.261606   -0.515481   -1.579697
      3          9           0       -0.613414    1.433005    1.135010
      4          9           0       -1.239765   -1.654778   -0.755260
      5          6           0        0.331625    0.173337   -0.742786
      6          6           0       -2.237134    0.431587   -0.362861
      7          1           0       -2.371022    1.472595   -0.079624
      8          1           0       -2.305718    0.307702   -1.444448
      9          1           0       -3.024032   -0.182939    0.077548
     10          7           0       -0.721213   -0.850564    1.344461
     11          1           0       -1.269437   -1.691698    1.251103
     12          1           0       -1.012174   -0.260904    2.108700
     13          7           0        1.557535   -0.290560   -0.015462
     14          8           0        1.910641   -1.454027   -0.206684
     15          8           0        2.152739    0.501646    0.711735
     16          6           0        0.530612    1.599269   -1.213149
     17          1           0       -0.370578    1.933303   -1.732686
     18          1           0        0.702947    2.244080   -0.359930
     19          1           0        1.369550    1.646229   -1.916694
 ---------------------------------------------------------------------

 SCF Done:  E(RHF) =  -614.329641412     A.U. after    2 cycles

 The electronic state is 1-A.
 Alpha  occ. eigenvalues --  -25.81293 -25.80693 -20.46319 -20.46184 -15.75434
 Alpha  occ. eigenvalues --  -15.45505 -11.23951 -11.15901 -11.10091 -11.09052
 Alpha  occ. eigenvalues --   -1.38529  -1.32022  -1.31239  -1.20110  -1.02185
 Alpha  occ. eigenvalues --   -0.95546  -0.84856  -0.80407  -0.71361  -0.64467
 Alpha  occ. eigenvalues --   -0.59457  -0.57528  -0.56027  -0.54436  -0.50262
 Alpha  occ. eigenvalues --   -0.47740  -0.46835  -0.46013  -0.42951  -0.41685
 Alpha  occ. eigenvalues --   -0.40153  -0.39712  -0.37965  -0.37580  -0.36550
 Alpha  occ. eigenvalues --   -0.36068  -0.35036  -0.34839  -0.34077  -0.31548
 Alpha  occ. eigenvalues --   -0.25287
 Alpha virt. eigenvalues --    0.12579   0.13253   0.14391   0.14843   0.15453
 Alpha virt. eigenvalues --    0.16598   0.17172   0.17670   0.18399   0.22177
 Alpha virt. eigenvalues --    0.22815   0.23580   0.24331   0.24840   0.25724

 Mulliken charges:
               1
     1  C   -0.261785
     2  H   -0.091947
     3  F   -0.820361
     4  F   -0.779054
     5  C    0.960904
     6  C    0.615340
     7  H    0.101263
     8  H    0.070073
     9  H   -0.099420
    10  N   -0.363528
    11  H    0.011344
    12  H    0.011183
    13  N    0.289501
    14  O   -0.635246
    15  O   -0.640562
    16  C    0.540255
    17  H   -0.041030
    18  H    0.165745
    19  H   -0.032676
 Sum of Mulliken charges =  -1.00000

 Dipole moment (field-independent basis, Debye):
    X=             -1.5633    Y=              2.1181    Z=             -2.3306  Tot=              3.5160

 Test job not archived.
 1\1\GINC-SE102\SP\RHF\Aug-CC-pVDZ\C4H9F2N2O2(1-)\OHZDE\09-Apr-2025\0\\
 #t hf aug-cc-pvdz iop(5/13=1,5/36=2,99/5=2) pseudo=read geom=check gue
 ss=(read,tcheck) scf=(maxcycle=1)\\title\\-1,1\C,0,0.68604349,-0.06450
 024,-0.03666095\H,0,1.60476151,1.81887418,-0.33662954\F,0,-1.15080434,
 -0.25215287,-0.11392925\F,0,2.50678104,0.02268798,0.10141774\C,0,0.594
 0018,1.46843648,-0.14861033\C,0,0.8627633,-0.8425343,-1.3304477\H,0,-0
 .09797265,-1.02265795,-1.80625141\H,0,1.53718146,-0.30649479,-1.999553
 45\H,0,1.34548095,-1.79006027,-1.08551778\N,0,0.63570848,-0.65185279,1

 Normal termination of Gaussian 16 at Wed Apr  9 02:53:55 2025.
