 Gaussian 16, Revision C.01,

 ----------------------------------------------------------------------
 #t hf aug-cc-pvdz symm=none int=(grid=ultrafine) guess=(read,tcheck) s
 table=(opt,rrhf)
 ----------------------------------------------------------------------
 -----
 title
 -----
 Symbolic Z-matrix:
 Charge = -1 Multiplicity = 1

 SCF Done:  E(RHF) =  -836.217406983     A.U. after   17 cycles
 Normal termination of Gaussian 16 at Wed Apr  9 02:57:19 2025.
 Gaussian 16:  ES64L-G16RevC.01  3-Jul-2019

 ----------------------------------------------------------------------
 #t hf aug-cc-pvdz iop(5/13=1,5/36=2,99/5=2) pseudo=read geom=check gue
 ss=(read,tcheck) scf=(maxcycle=1)
 ----------------------------------------------------------------------
 -----
 title
 -----
 Structure from the checkpoint file:  "E2SN2_42_mol1.chk"
 Charge = -1 Multiplicity = 1

                         Standard orientation:
 ---------------------------------------------------------------------
 Center     Atomic      Atomic             Coordinates (Angstroms)
 Number     Number       Type             X           Y           Z
 ---------------------------------------------------------------------
      1          6           0       -0.132121   -0.132016    0.478839
      2          6           0        0.251923    1.210370    0.874992
      3         17           0       -1.900855   -0.247652   -0.420696
      4          1           0        1.996182    0.430600    2.491798
      5          1           0        1.253427    0.917026    1.612420
      6          1           0       -0.432367    1.538873    1.663835
      7          7           0        0.836699   -0.639889   -0.584166
      8          8           0        1.653927   -1.485152   -0.228031
      9          8           0        0.801653   -0.114828   -1.694905
     10          7           0       -0.177796   -1.085204    1.525425
     11          1           0       -0.965780   -0.839749    2.113445
     12          1           0        0.682765   -0.906694    2.079270
     13          6           0        0.509810    2.290507   -0.151276
     14          1           0       -0.337114    2.423603   -0.833164
     15          1           0        0.694111    3.239027    0.363767
     16          1           0        1.388667    2.069726   -0.760183
 ---------------------------------------------------------------------

 SCF Done:  E(RHF) =  -836.348739321     A.U. after    2 cycles

 The electronic state is 1-A.
 Alpha  occ. eigenvalues -- -103.50816 -20.49379 -20.48733 -15.78160 -15.49513
 Alpha  occ. eigenvalues --  -11.27644 -11.10228 -11.08964 -10.54049  -8.19731
 Alpha  occ. eigenvalues --   -8.19497  -8.19491  -1.41347  -1.23135  -1.09580
 Alpha  occ. eigenvalues --   -0.97208  -0.91794  -0.85814  -0.75028  -0.68098
 Alpha  occ. eigenvalues --   -0.61070  -0.60305  -0.57713  -0.53674  -0.50020
 Alpha  occ. eigenvalues --   -0.46280  -0.43258  -0.41578  -0.39339  -0.38553
 Alpha  occ. eigenvalues --   -0.36534  -0.34950  -0.33135  -0.32071  -0.31917
 Alpha  occ. eigenvalues --   -0.29081  -0.10365
 Alpha virt. eigenvalues --    0.12705   0.13707   0.14883   0.15505   0.16882
 Alpha virt. eigenvalues --    0.17967   0.19282   0.19672   0.20777   0.22040
 Alpha virt. eigenvalues --    0.23083   0.24010   0.24645   0.25653   0.26162

 Mulliken charges:
               1
     1  C    1.034401
     2  C    0.083696
     3  Cl  -0.320585
     4  H   -0.646464
     5  H    0.117840
     6  H   -0.219325
     7  N    0.234300
     8  O   -0.540847
     9  O   -0.638902
    10  N   -0.535899
    11  H    0.058392
    12  H    0.128886
    13  C    0.398500
    14  H   -0.065445
    15  H   -0.069579
    16  H   -0.018968
 Sum of Mulliken charges =  -1.00000

 Dipole moment (field-independent basis, Debye):
    X=             -5.2223    Y=              1.2611    Z=             -3.0542  Tot=              6.1799

 Test job not archived.
 1\1\GINC-SE457\SP\RHF\Aug-CC-pVDZ\C3H8Cl1N2O2(1-)\OHZDE\09-Apr-2025\0\
 \#t hf aug-cc-pvdz iop(5/13=1,5/36=2,99/5=2) pseudo=read geom=check gu
 ess=(read,tcheck) scf=(maxcycle=1)\\title\\-1,1\C,0,-0.18031064,0.0693
 9614,-0.29622701\C,0,-0.16524992,-0.04493975,1.15053782\Cl,0,1.6195470
 4,0.21983729,-1.12618871\H,0,-2.57178838,0.59281056,1.40820446\H,0,-1.
 41125012,0.13073526,1.37298318\H,0,0.20187495,0.90134778,1.56065803\N,
 0,-0.73809484,-1.21677613,-0.89719614\O,0,-1.87848628,-1.16515043,-1.3
 5107465\O,0,-0.05734346,-2.2364966,-0.81113444\N,0,-0.92621895,1.15710

 Normal termination of Gaussian 16 at Wed Apr  9 02:57:26 2025.
