 Gaussian 16, Revision C.01,

 ----------------------------------------------------------------------
 #t hf aug-cc-pvdz symm=none int=(grid=ultrafine) guess=(read,tcheck) s
 table=(opt,rrhf)
 ----------------------------------------------------------------------
 -----
 title
 -----
 Symbolic Z-matrix:
 Charge = -1 Multiplicity = 1

 SCF Done:  E(RHF) =  -915.207677721     A.U. after   16 cycles
 Normal termination of Gaussian 16 at Wed Apr  9 02:46:03 2025.
 Gaussian 16:  ES64L-G16RevC.01  3-Jul-2019

 ----------------------------------------------------------------------
 #t hf aug-cc-pvdz iop(5/13=1,5/36=2,99/5=2) pseudo=read geom=check gue
 ss=(read,tcheck) scf=(maxcycle=1)
 ----------------------------------------------------------------------
 -----
 title
 -----
 Structure from the checkpoint file:  "E2SN2_274_mol2.chk"
 Charge = -1 Multiplicity = 1

                         Standard orientation:
 ---------------------------------------------------------------------
 Center     Atomic      Atomic             Coordinates (Angstroms)
 Number     Number       Type             X           Y           Z
 ---------------------------------------------------------------------
      1          6           0       -0.851569    0.226383    0.213176
      2          6           0       -0.736473   -0.599645   -1.124119
      3          9           0       -2.236783    0.287033    0.498039
      4          1           0       -1.725681   -0.422406   -1.564240
      5          6           0       -0.265632   -0.383831    1.415308
      6          7           0       -0.132003   -0.926682    2.450604
      7          6           0       -0.426307    1.617786    0.011822
      8          7           0       -0.273142    2.760080   -0.215559
      9          6           0       -0.575041   -2.077036   -0.804017
     10          1           0        0.419901   -2.247868   -0.387616
     11          1           0       -1.325242   -2.415820   -0.084650
     12          1           0       -0.676701   -2.647863   -1.728605
     13          7           0        0.253654   -0.185175   -2.087716
     14          1           0        0.072235    0.768758   -2.380354
     15          1           0        1.165367   -0.184008   -1.625578
     16         17           0        2.375984    0.019200    0.234374
 ---------------------------------------------------------------------

 SCF Done:  E(RHF) =  -915.357278036     A.U. after    2 cycles

 The electronic state is 1-A.
 Alpha  occ. eigenvalues -- -103.38506 -26.03837 -15.55143 -15.53572 -15.48712
 Alpha  occ. eigenvalues --  -11.30835 -11.20127 -11.19137 -11.18880 -11.12269
 Alpha  occ. eigenvalues --  -10.41672  -8.07272  -8.07242  -8.07222  -1.56832
 Alpha  occ. eigenvalues --   -1.09787  -1.07179  -1.05681  -0.95608  -0.87934
 Alpha  occ. eigenvalues --   -0.84320  -0.75171  -0.72093  -0.67888  -0.63799
 Alpha  occ. eigenvalues --   -0.58742  -0.56017  -0.53857  -0.47999  -0.45889
 Alpha  occ. eigenvalues --   -0.44183  -0.43093  -0.41778  -0.39643  -0.37659
 Alpha  occ. eigenvalues --   -0.36039  -0.35420  -0.34805  -0.29029  -0.21875
 Alpha  occ. eigenvalues --   -0.21757  -0.21486
 Alpha virt. eigenvalues --    0.11610   0.13178   0.13853   0.15322   0.17313
 Alpha virt. eigenvalues --    0.17945   0.18579   0.19329   0.19891   0.22239
 Alpha virt. eigenvalues --    0.22745   0.22830   0.24072   0.24457   0.24827

 Mulliken charges:
               1
     1  C    1.259921
     2  C    0.144364
     3  F   -0.463947
     4  H   -0.088989
     5  C   -0.249075
     6  N   -0.351635
     7  C   -0.456795
     8  N   -0.261617
     9  C    0.740829
    10  H    0.021863
    11  H   -0.002761
    12  H   -0.098590
    13  N   -0.398427
    14  H   -0.007824
    15  H    0.103796
    16  Cl  -0.891113
 Sum of Mulliken charges =  -1.00000

 Dipole moment (field-independent basis, Debye):
    X=             -7.2544    Y=             -1.5670    Z=             -3.0230  Tot=              8.0137

 Test job not archived.
 1\1\GINC-SE074\SP\RHF\Aug-CC-pVDZ\C5H6Cl1F1N3(1-)\OHZDE\09-Apr-2025\0\
 \#t hf aug-cc-pvdz iop(5/13=1,5/36=2,99/5=2) pseudo=read geom=check gu
 ess=(read,tcheck) scf=(maxcycle=1)\\title\\-1,1\C,0,-0.1248,0.005946,-
 0.000164\C,0,-0.450072,0.191137,-1.531121\F,0,1.278571,0.157557,0.1057
 02\H,0,0.509145,-0.089973,-1.983374\C,0,-0.664326,1.022616,0.91422\N,0
 ,-0.763681,1.93748,1.647388\C,0,-0.40998,-1.366914,0.437237\N,0,-0.455
 711,-2.507374,0.715191\C,0,-0.744455,1.654137,-1.821258\H,0,-1.710768,
 1.919196,-1.387133\H,0,0.025216,2.308562,-1.403646\H,0,-0.789924,1.793

 Normal termination of Gaussian 16 at Wed Apr  9 02:46:12 2025.
