 Gaussian 16, Revision C.01,

 ----------------------------------------------------------------------
 #t hf aug-cc-pvdz symm=none int=(grid=ultrafine) guess=(read,tcheck) s
 table=(opt,rrhf)
 ----------------------------------------------------------------------
 -----
 title
 -----
 Symbolic Z-matrix:
 Charge = -1 Multiplicity = 1

 SCF Done:  E(RHF) =  -1295.27355373     A.U. after   16 cycles
 Normal termination of Gaussian 16 at Wed Apr  9 02:42:27 2025.
 Gaussian 16:  ES64L-G16RevC.01  3-Jul-2019

 ----------------------------------------------------------------------
 #t hf aug-cc-pvdz iop(5/13=1,5/36=2,99/5=2) pseudo=read geom=check gue
 ss=(read,tcheck) scf=(maxcycle=1)
 ----------------------------------------------------------------------
 -----
 title
 -----
 Structure from the checkpoint file:  "E2SN2_245_mol1.chk"
 Charge = -1 Multiplicity = 1

                         Standard orientation:
 ---------------------------------------------------------------------
 Center     Atomic      Atomic             Coordinates (Angstroms)
 Number     Number       Type             X           Y           Z
 ---------------------------------------------------------------------
      1          6           0       -0.011669    0.146996   -0.160160
      2          1           0       -0.907540    1.033113    1.567321
      3         17           0        2.377215    0.104096   -0.158913
      4         17           0       -2.370300   -0.071259   -0.164976
      5          6           0       -0.054664    1.214144    0.918312
      6          1           0        0.839208    1.134771    1.531878
      7          7           0        0.059187   -1.288104    0.329585
      8          8           0        0.062696   -1.462389    1.541480
      9          8           0        0.099579   -2.163261   -0.525363
     10          7           0        0.006793    0.392508   -1.545061
     11          1           0       -0.860662    0.084691   -1.958954
     12          1           0        0.790086   -0.089041   -1.961126
     13          6           0       -0.141550    2.594703    0.290591
     14          1           0        0.730622    2.784157   -0.335300
     15          1           0       -1.035398    2.678934   -0.328167
     16          1           0       -0.186629    3.354444    1.077416
 ---------------------------------------------------------------------

 SCF Done:  E(RHF) =  -1295.41496558     A.U. after    2 cycles

 The electronic state is 1-A.
 Alpha  occ. eigenvalues -- -103.44183-103.43592 -20.48962 -20.48901 -15.79319
 Alpha  occ. eigenvalues --  -15.51148 -11.32485 -11.12635 -11.10974 -10.47479
 Alpha  occ. eigenvalues --  -10.46885  -8.13112  -8.12994  -8.12980  -8.12517
 Alpha  occ. eigenvalues --   -8.12402  -8.12388  -1.41732  -1.23627  -1.09837
 Alpha  occ. eigenvalues --   -0.94882  -0.91052  -0.89309  -0.87299  -0.75480
 Alpha  occ. eigenvalues --   -0.67542  -0.63579  -0.61031  -0.59793  -0.56002
 Alpha  occ. eigenvalues --   -0.50571  -0.50493  -0.43712  -0.41037  -0.39441
 Alpha  occ. eigenvalues --   -0.39392  -0.37670  -0.34533  -0.31622  -0.28909
 Alpha  occ. eigenvalues --   -0.27596  -0.27323  -0.26573  -0.25975  -0.25016
 Alpha virt. eigenvalues --    0.12279   0.13347   0.15015   0.15049   0.15467
 Alpha virt. eigenvalues --    0.16505   0.17180   0.18305   0.20991   0.22244
 Alpha virt. eigenvalues --    0.22585   0.24710   0.25226   0.25774   0.26320

 Mulliken charges:
               1
     1  C   -0.070664
     2  H   -0.019800
     3  Cl  -0.635762
     4  Cl  -0.618279
     5  C    0.574311
     6  H   -0.015691
     7  N    0.793298
     8  O   -0.676677
     9  O   -0.701359
    10  N   -0.152309
    11  H    0.122199
    12  H    0.115101
    13  C    0.428739
    14  H   -0.026794
    15  H   -0.030413
    16  H   -0.085901
 Sum of Mulliken charges =  -1.00000

 Dipole moment (field-independent basis, Debye):
    X=             -0.4556    Y=              2.9216    Z=             -0.6443  Tot=              3.0263

 Test job not archived.
 1\1\GINC-SE460\SP\RHF\Aug-CC-pVDZ\C3H7Cl2N2O2(1-)\OHZDE\09-Apr-2025\0\
 \#t hf aug-cc-pvdz iop(5/13=1,5/36=2,99/5=2) pseudo=read geom=check gu
 ess=(read,tcheck) scf=(maxcycle=1)\\title\\-1,1\C,0,0.5714125,-0.04121
 721,0.04946873\H,0,1.45717411,1.83208264,-0.47793631\Cl,0,-1.75194384,
 -0.24974912,-0.4673838\Cl,0,2.91470281,-0.03151107,0.39544012\C,0,0.52
 238791,1.47213024,-0.05604438\H,0,-0.27084277,1.75437429,-0.7437176\N,
 0,0.82725893,-0.7882927,-1.2469887\O,0,0.98367602,-0.11294265,-2.25620
 342\O,0,0.86553567,-2.01015662,-1.18333542\N,0,0.36188835,-0.78018121,

 Normal termination of Gaussian 16 at Wed Apr  9 02:42:35 2025.
