 Gaussian 16, Revision C.01,

 ----------------------------------------------------------------------
 #t hf aug-cc-pvdz symm=none int=(grid=ultrafine) guess=(read,tcheck) s
 table=(opt,rrhf)
 ----------------------------------------------------------------------
 -----
 title
 -----
 Symbolic Z-matrix:
 Charge = -1 Multiplicity = 1

 SCF Done:  E(RHF) =  -1136.40982250     A.U. after   16 cycles
 Normal termination of Gaussian 16 at Wed Apr  9 02:38:21 2025.
 Gaussian 16:  ES64L-G16RevC.01  3-Jul-2019

 ----------------------------------------------------------------------
 #t hf aug-cc-pvdz iop(5/13=1,5/36=2,99/5=2) pseudo=read geom=check gue
 ss=(read,tcheck) scf=(maxcycle=1)
 ----------------------------------------------------------------------
 -----
 title
 -----
 Structure from the checkpoint file:  "E2SN2_175_mol2.chk"
 Charge = -1 Multiplicity = 1

                         Standard orientation:
 ---------------------------------------------------------------------
 Center     Atomic      Atomic             Coordinates (Angstroms)
 Number     Number       Type             X           Y           Z
 ---------------------------------------------------------------------
      1          6           0        0.412882    0.670852    0.815743
      2          6           0       -0.249721   -0.155608   -0.272540
      3          9           0       -0.551638    1.076063    1.731798
      4          1           0        0.414755   -0.295384   -1.122705
      5          1           0        1.159334    0.051182    1.307816
      6          6           0        1.036779    1.878462    0.262176
      7          7           0        1.479144    2.903712   -0.098747
      8          7           0       -1.515223    0.526944   -0.707701
      9          8           0       -2.575086    0.170106   -0.205924
     10          8           0       -1.360412    1.433688   -1.520654
     11          7           0       -0.637214   -1.516586    0.211256
     12          8           0       -1.080887   -2.258109   -0.658302
     13          8           0       -0.514679   -1.776817    1.401708
     14         17           0        2.656034   -1.044237   -0.504226
 ---------------------------------------------------------------------

 SCF Done:  E(RHF) =  -1136.62896542     A.U. after    2 cycles

 The electronic state is 1-A.
 Alpha  occ. eigenvalues -- -103.39958 -26.05441 -20.55310 -20.55199 -20.54338
 Alpha  occ. eigenvalues --  -20.53851 -15.84964 -15.83952 -15.56581 -11.30713
 Alpha  occ. eigenvalues --  -11.29857 -11.21189 -10.43089  -8.08692  -8.08659
 Alpha  occ. eigenvalues --   -8.08648  -1.58907  -1.48269  -1.46150  -1.29685
 Alpha  occ. eigenvalues --   -1.28569  -1.10803  -1.08062  -0.94049  -0.87678
 Alpha  occ. eigenvalues --   -0.85533  -0.76219  -0.73405  -0.72480  -0.70898
 Alpha  occ. eigenvalues --   -0.68762  -0.67123  -0.65663  -0.64265  -0.63649
 Alpha  occ. eigenvalues --   -0.59580  -0.56135  -0.51617  -0.46684  -0.46067
 Alpha  occ. eigenvalues --   -0.44514  -0.43686  -0.42272  -0.40443  -0.38441
 Alpha  occ. eigenvalues --   -0.38110  -0.36948  -0.23899  -0.23359  -0.23208
 Alpha virt. eigenvalues --    0.14386   0.14646   0.15331   0.15940   0.17556
 Alpha virt. eigenvalues --    0.19210   0.20577   0.21548   0.21705   0.22782
 Alpha virt. eigenvalues --    0.22845   0.24172   0.24499   0.25131   0.26389

 Mulliken charges:
               1
     1  C    1.139610
     2  C    1.835696
     3  F   -0.429827
     4  H   -0.287058
     5  H    0.039067
     6  C   -0.459605
     7  N   -0.204850
     8  N    0.193386
     9  O   -0.576039
    10  O   -0.559711
    11  N    0.442172
    12  O   -0.623859
    13  O   -0.592008
    14  Cl  -0.916973
 Sum of Mulliken charges =  -1.00000

 Dipole moment (field-independent basis, Debye):
    X=             -5.9612    Y=              1.8551    Z=              1.7751  Tot=              6.4907

 Test job not archived.
 1\1\GINC-SE092\SP\RHF\Aug-CC-pVDZ\C3H2Cl1F1N3O4(1-)\OHZDE\09-Apr-2025\
 0\\#t hf aug-cc-pvdz iop(5/13=1,5/36=2,99/5=2) pseudo=read geom=check
 guess=(read,tcheck) scf=(maxcycle=1)\\title\\-1,1\C,0,-0.033837,-0.017
 756,0.012515\C,0,-0.500153,-0.244787,-1.414875\F,0,1.332131,0.242587,0
 .010165\H,0,-1.498844,-0.675825,-1.44072\H,0,-0.576352,0.833851,0.4171
 88\C,0,-0.259236,-1.207278,0.842117\N,0,-0.328762,-2.149284,1.53845\N,
 0,0.475152,-1.148709,-2.113762\O,0,1.356324,-0.641459,-2.798348\O,0,0.
 318289,-2.346442,-1.894962\N,0,-0.549577,1.027039,-2.200041\O,0,-1.019

 Normal termination of Gaussian 16 at Wed Apr  9 02:38:30 2025.
