 Gaussian 16, Revision C.01,

 ----------------------------------------------------------------------
 #t hf aug-cc-pvdz symm=none int=(grid=ultrafine) guess=(read,tcheck) s
 table=(opt,rrhf)
 ----------------------------------------------------------------------
 -----
 title
 -----
 Symbolic Z-matrix:
 Charge = -1 Multiplicity = 1

 SCF Done:  E(RHF) =  -666.840673823     A.U. after   16 cycles
 Normal termination of Gaussian 16 at Wed Apr  9 02:57:01 2025.
 Gaussian 16:  ES64L-G16RevC.01  3-Jul-2019

 ----------------------------------------------------------------------
 #t hf aug-cc-pvdz iop(5/13=1,5/36=2,99/5=2) pseudo=read geom=check gue
 ss=(read,tcheck) scf=(maxcycle=1)
 ----------------------------------------------------------------------
 -----
 title
 -----
 Structure from the checkpoint file:  "E2SN2_402_mol1.chk"
 Charge = -1 Multiplicity = 1

                         Standard orientation:
 ---------------------------------------------------------------------
 Center     Atomic      Atomic             Coordinates (Angstroms)
 Number     Number       Type             X           Y           Z
 ---------------------------------------------------------------------
      1          6           0        1.008212   -0.021477    0.127939
      2          1           0       -0.207278   -0.183955   -1.637920
      3          9           0        0.277666    0.933357    1.497253
      4          9           0        1.617787   -0.992107   -1.245576
      5          6           0       -0.346181    0.122362   -0.603551
      6          7           0        1.168893   -1.132090    1.011995
      7          1           0        1.327053   -0.766041    1.938129
      8          1           0        1.927951   -1.696625    0.663241
      9          6           0        2.069944    1.038284   -0.099477
     10          1           0        2.980387    0.553404   -0.447206
     11          1           0        1.745906    1.743304   -0.869638
     12          1           0        2.236065    1.588997    0.823470
     13          6           0       -0.921326    1.463565   -0.558870
     14          7           0       -1.386314    2.530623   -0.713505
     15          7           0       -1.330867   -0.869185   -0.049051
     16          8           0       -1.307755   -1.981952   -0.567233
     17          8           0       -2.079125   -0.522069    0.857547
 ---------------------------------------------------------------------

 SCF Done:  E(RHF) =  -667.039815728     A.U. after    2 cycles

 The electronic state is 1-A.
 Alpha  occ. eigenvalues --  -25.84314 -25.82786 -20.49029 -20.48747 -15.78654
 Alpha  occ. eigenvalues --  -15.52253 -15.47933 -11.26839 -11.21860 -11.18028
 Alpha  occ. eigenvalues --  -11.10565  -1.41463  -1.35193  -1.33652  -1.23128
 Alpha  occ. eigenvalues --   -1.06904  -1.04281  -0.97478  -0.86887  -0.76255
 Alpha  occ. eigenvalues --   -0.70007  -0.65324  -0.62049  -0.58932  -0.57361
 Alpha  occ. eigenvalues --   -0.56043  -0.51109  -0.49914  -0.48946  -0.44734
 Alpha  occ. eigenvalues --   -0.43075  -0.42418  -0.41797  -0.41429  -0.40459
 Alpha  occ. eigenvalues --   -0.38683  -0.38085  -0.37480  -0.37099  -0.34426
 Alpha  occ. eigenvalues --   -0.33129  -0.33053  -0.27483
 Alpha virt. eigenvalues --    0.12873   0.13636   0.14189   0.15370   0.16493
 Alpha virt. eigenvalues --    0.17372   0.18864   0.20557   0.21154   0.22637
 Alpha virt. eigenvalues --    0.23599   0.24486   0.24700   0.25579   0.25974

 Mulliken charges:
               1
     1  C   -0.630321
     2  H    0.044770
     3  F   -0.760508
     4  F   -0.752357
     5  C    2.129143
     6  N   -0.311133
     7  H    0.016607
     8  H   -0.002655
     9  C    0.822283
    10  H    0.006418
    11  H   -0.062778
    12  H    0.040828
    13  C   -0.317407
    14  N   -0.277872
    15  N    0.246361
    16  O   -0.602511
    17  O   -0.588866
 Sum of Mulliken charges =  -1.00000

 Dipole moment (field-independent basis, Debye):
    X=              2.5424    Y=             -0.3449    Z=             -0.7622  Tot=              2.6765

 Test job not archived.
 1\1\GINC-SE188\SP\RHF\Aug-CC-pVDZ\C4H6F2N3O2(1-)\OHZDE\09-Apr-2025\0\\
 #t hf aug-cc-pvdz iop(5/13=1,5/36=2,99/5=2) pseudo=read geom=check gue
 ss=(read,tcheck) scf=(maxcycle=1)\\title\\-1,1\C,0,0.64060198,-0.08335
 274,0.03042694\H,0,1.52174424,1.85981108,0.29457564\F,0,-1.17876178,-0
 .13730478,0.11663703\F,0,2.41763974,0.07651276,-0.09928125\C,0,0.52961
 468,1.45692256,0.10378089\N,0,0.57945025,-0.69110862,-1.26097822\H,0,-
 0.22914926,-1.29327263,-1.27817931\H,0,1.45005166,-1.17556774,-1.41541
 102\C,0,0.76641683,-0.86262836,1.32618389\H,0,1.66421044,-1.47646278,1

 Normal termination of Gaussian 16 at Wed Apr  9 02:57:11 2025.
