 Gaussian 16, Revision C.01,

 ----------------------------------------------------------------------
 #t hf aug-cc-pvdz symm=none int=(grid=ultrafine) guess=(read,tcheck) s
 table=(opt,rrhf)
 ----------------------------------------------------------------------
 -----
 title
 -----
 Symbolic Z-matrix:
 Charge = -1 Multiplicity = 1

 SCF Done:  E(RHF) =  -839.418172546     A.U. after   16 cycles
 Normal termination of Gaussian 16 at Wed Apr  9 02:55:01 2025.
 Gaussian 16:  ES64L-G16RevC.01  3-Jul-2019

 ----------------------------------------------------------------------
 #t hf aug-cc-pvdz iop(5/13=1,5/36=2,99/5=2) pseudo=read geom=check gue
 ss=(read,tcheck) scf=(maxcycle=1)
 ----------------------------------------------------------------------
 -----
 title
 -----
 Structure from the checkpoint file:  "E2SN2_394_mol1.chk"
 Charge = -1 Multiplicity = 1

                         Standard orientation:
 ---------------------------------------------------------------------
 Center     Atomic      Atomic             Coordinates (Angstroms)
 Number     Number       Type             X           Y           Z
 ---------------------------------------------------------------------
      1          6           0        0.062305    0.056341    0.381118
      2          1           0        1.173744   -1.544925    1.078236
      3         17           0       -2.114183   -0.397840   -0.168181
      4          9           0        1.922716    0.616451    0.703486
      5          6           0        0.632467   -1.328888    0.149798
      6          1           0       -0.172352   -2.052961    0.036195
      7          7           0       -0.256322    0.423361    1.724196
      8          1           0       -1.083684    1.003189    1.725224
      9          1           0        0.557173    0.946948    2.030022
     10          6           0        0.104354    1.057870   -0.672113
     11          7           0        0.117659    1.927684   -1.464295
     12          7           0        1.468163   -1.331679   -1.041699
     13          1           0        1.817815   -2.267774   -1.204051
     14          1           0        2.242723   -0.716755   -0.818147
 ---------------------------------------------------------------------

 SCF Done:  E(RHF) =  -839.543998891     A.U. after    2 cycles

 The electronic state is 1-A.
 Alpha  occ. eigenvalues -- -103.43281 -25.82487 -15.49703 -15.49581 -15.47562
 Alpha  occ. eigenvalues --  -11.28155 -11.15997 -11.14209 -10.46568  -8.12203
 Alpha  occ. eigenvalues --   -8.12070  -8.12060  -1.32536  -1.07966  -1.02507
 Alpha  occ. eigenvalues --   -1.02067  -0.90217  -0.83809  -0.74354  -0.58461
 Alpha  occ. eigenvalues --   -0.55705  -0.55211  -0.49126  -0.45063  -0.43685
 Alpha  occ. eigenvalues --   -0.43395  -0.41035  -0.40648  -0.38886  -0.32448
 Alpha  occ. eigenvalues --   -0.31962  -0.29512  -0.27643  -0.26214  -0.25013
 Alpha  occ. eigenvalues --   -0.24776
 Alpha virt. eigenvalues --    0.12415   0.13741   0.15116   0.15352   0.17585
 Alpha virt. eigenvalues --    0.18017   0.20195   0.21074   0.22118   0.23644
 Alpha virt. eigenvalues --    0.24073   0.25297   0.26173   0.26475   0.27492

 Mulliken charges:
               1
     1  C    0.553403
     2  H    0.027865
     3  Cl  -0.611163
     4  F   -0.812982
     5  C    1.099176
     6  H   -0.127586
     7  N   -0.490330
     8  H    0.059611
     9  H    0.133106
    10  C   -0.157282
    11  N   -0.366442
    12  N   -0.376012
    13  H   -0.035756
    14  H    0.104393
 Sum of Mulliken charges =  -1.00000

 Dipole moment (field-independent basis, Debye):
    X=              1.3674    Y=             -2.8572    Z=              2.3665  Tot=              3.9539

 Test job not archived.
 1\1\GINC-SE340\SP\RHF\Aug-CC-pVDZ\C3H6Cl1F1N3(1-)\OHZDE\09-Apr-2025\0\
 \#t hf aug-cc-pvdz iop(5/13=1,5/36=2,99/5=2) pseudo=read geom=check gu
 ess=(read,tcheck) scf=(maxcycle=1)\\title\\-1,1\C,0,0.40602118,-0.0282
 8724,-0.01339812\H,0,1.24105841,1.73638323,-0.70185737\Cl,0,-1.8222662
 6,-0.32136673,-0.45379523\F,0,2.29134162,0.08793745,0.54412639\C,0,0.4
 2440006,1.48733661,-0.01432825\H,0,-0.50774025,1.87474207,-0.42170114\
 N,0,0.82396052,-0.69438049,-1.20576213\H,0,0.26950523,-1.52908125,-1.3
 3453908\H,0,1.79521819,-0.92523616,-1.02462259\C,0,0.24269188,-0.76434

 Normal termination of Gaussian 16 at Wed Apr  9 02:55:06 2025.
