 Gaussian 16, Revision C.01,

 ----------------------------------------------------------------------
 #t hf aug-cc-pvdz symm=none int=(grid=ultrafine) guess=(read,tcheck) s
 table=(opt,rrhf)
 ----------------------------------------------------------------------
 -----
 title
 -----
 Symbolic Z-matrix:
 Charge = -1 Multiplicity = 1

 SCF Done:  E(RHF) =  -627.864122128     A.U. after   16 cycles
 Normal termination of Gaussian 16 at Wed Apr  9 02:53:55 2025.
 Gaussian 16:  ES64L-G16RevC.01  3-Jul-2019

 ----------------------------------------------------------------------
 #t hf aug-cc-pvdz iop(5/13=1,5/36=2,99/5=2) pseudo=read geom=check gue
 ss=(read,tcheck) scf=(maxcycle=1)
 ----------------------------------------------------------------------
 -----
 title
 -----
 Structure from the checkpoint file:  "E2SN2_368_mol2.chk"
 Charge = -1 Multiplicity = 1

                         Standard orientation:
 ---------------------------------------------------------------------
 Center     Atomic      Atomic             Coordinates (Angstroms)
 Number     Number       Type             X           Y           Z
 ---------------------------------------------------------------------
      1          6           0       -0.591280   -0.742447    0.802468
      2          6           0        0.161466   -0.204855   -0.415306
      3          9           0        0.201173   -0.662538    1.950231
      4          1           0       -0.640846   -0.288462   -1.222709
      5          1           0       -0.736789   -1.815720    0.617708
      6          7           0       -1.782300    0.013922    0.971778
      7          1           0       -2.222232   -0.049369    0.028682
      8          1           0       -2.373604   -0.473644    1.635662
      9          6           0        1.365377   -0.971831   -0.678771
     10          7           0        2.301561   -1.636868   -0.926668
     11          7           0        0.525383    1.229162   -0.195232
     12          8           0       -0.260350    2.075507   -0.608865
     13          8           0        1.576925    1.469134    0.401287
     14          9           0       -2.143952   -0.610647   -1.572255
 ---------------------------------------------------------------------

 SCF Done:  E(RHF) =  -628.056063642     A.U. after    2 cycles

 The electronic state is 1-A.
 Alpha  occ. eigenvalues --  -25.99364 -25.78949 -20.50160 -20.49780 -15.79563
 Alpha  occ. eigenvalues --  -15.54038 -15.47959 -11.25371 -11.20401 -11.19242
 Alpha  occ. eigenvalues --   -1.52897  -1.42312  -1.28268  -1.24017  -1.08611
 Alpha  occ. eigenvalues --   -1.05914  -0.97609  -0.81347  -0.74756  -0.67329
 Alpha  occ. eigenvalues --   -0.65558  -0.63937  -0.62313  -0.60627  -0.58118
 Alpha  occ. eigenvalues --   -0.53144  -0.50818  -0.47848  -0.46007  -0.43637
 Alpha  occ. eigenvalues --   -0.40397  -0.40019  -0.37996  -0.37321  -0.36930
 Alpha  occ. eigenvalues --   -0.35514  -0.34418  -0.32473  -0.28321
 Alpha virt. eigenvalues --    0.12870   0.14847   0.15844   0.18015   0.18960
 Alpha virt. eigenvalues --    0.19360   0.20794   0.22205   0.23091   0.24122
 Alpha virt. eigenvalues --    0.24204   0.24967   0.26250   0.26474   0.27422

 Mulliken charges:
               1
     1  C    0.900035
     2  C    1.555427
     3  F   -0.433490
     4  H    0.003147
     5  H   -0.183793
     6  N   -0.470823
     7  H    0.215135
     8  H   -0.017520
     9  C   -0.388883
    10  N   -0.246929
    11  N    0.159292
    12  O   -0.548874
    13  O   -0.603080
    14  F   -0.939645
 Sum of Mulliken charges =  -1.00000

 Dipole moment (field-independent basis, Debye):
    X=              0.9829    Y=             -0.7732    Z=              3.3505  Tot=              3.5763

 Test job not archived.
 1\1\GINC-SE177\SP\RHF\Aug-CC-pVDZ\C3H4F2N3O2(1-)\OHZDE\09-Apr-2025\0\\
 #t hf aug-cc-pvdz iop(5/13=1,5/36=2,99/5=2) pseudo=read geom=check gue
 ss=(read,tcheck) scf=(maxcycle=1)\\title\\-1,1\C,0,0.01568,0.00185,0.0
 02237\C,0,-0.586125,-0.006456,-1.403596\F,0,1.409236,0.081856,-0.05543
 1\H,0,-1.701939,-0.011473,-1.163744\H,0,-0.206369,-0.984928,0.431409\N
 ,0,-0.512844,1.110426,0.717087\H,0,-1.540772,0.980827,0.600709\H,0,-0.
 282885,0.991881,1.697479\C,0,-0.128663,-1.149698,-2.172227\N,0,0.19206
 8,-2.111612,-2.765541\N,0,-0.217707,1.253061,-2.121341\O,0,-1.007447,2

 Normal termination of Gaussian 16 at Wed Apr  9 02:54:02 2025.
