 Gaussian 16, Revision C.01,

 ----------------------------------------------------------------------
 #t hf aug-cc-pvdz symm=none int=(grid=ultrafine) guess=(read,tcheck) s
 table=(opt,rrhf)
 ----------------------------------------------------------------------
 -----
 title
 -----
 Symbolic Z-matrix:
 Charge = -1 Multiplicity = 1

 SCF Done:  E(RHF) =  -479.357728476     A.U. after   15 cycles
 Normal termination of Gaussian 16 at Wed Apr  9 02:57:08 2025.
 Gaussian 16:  ES64L-G16RevC.01  3-Jul-2019

 ----------------------------------------------------------------------
 #t hf aug-cc-pvdz iop(5/13=1,5/36=2,99/5=2) pseudo=read geom=check gue
 ss=(read,tcheck) scf=(maxcycle=1)
 ----------------------------------------------------------------------
 -----
 title
 -----
 Structure from the checkpoint file:  "E2SN2_413_mol1.chk"
 Charge = -1 Multiplicity = 1

                         Standard orientation:
 ---------------------------------------------------------------------
 Center     Atomic      Atomic             Coordinates (Angstroms)
 Number     Number       Type             X           Y           Z
 ---------------------------------------------------------------------
      1          6           0       -0.596382    0.066859    0.001113
      2          1           0        0.373939   -1.476078   -1.132475
      3          9           0        0.156909    1.721017   -0.020160
      4          9           0       -1.383504   -1.570459    0.042499
      5          6           0        0.551561   -0.434639   -0.869248
      6          1           0        0.560025    0.174505   -1.772436
      7          7           0       -1.743244    0.584539   -0.705452
      8          1           0       -1.821870    1.557746   -0.448151
      9          1           0       -2.536894    0.039970   -0.402418
     10          7           0       -0.451456    0.017142    1.429504
     11          1           0       -1.210422   -0.542926    1.786073
     12          1           0       -0.466589    0.967791    1.766435
     13          6           0        1.859606   -0.320431   -0.229233
     14          7           0        2.945051   -0.308362    0.216824
 ---------------------------------------------------------------------

 SCF Done:  E(RHF) =  -479.501671546     A.U. after    2 cycles

 The electronic state is 1-A.
 Alpha  occ. eigenvalues --  -25.82061 -25.81915 -15.48391 -15.46474 -15.46007
 Alpha  occ. eigenvalues --  -11.26356 -11.14504 -11.12518  -1.33040  -1.32447
 Alpha  occ. eigenvalues --   -1.05000  -1.02578  -0.96532  -0.88450  -0.67084
 Alpha  occ. eigenvalues --   -0.56756  -0.55307  -0.52165  -0.50957  -0.48531
 Alpha  occ. eigenvalues --   -0.45606  -0.41224  -0.40792  -0.40148  -0.39286
 Alpha  occ. eigenvalues --   -0.38918  -0.38394  -0.36628  -0.30933  -0.29671
 Alpha  occ. eigenvalues --   -0.28416  -0.24321
 Alpha virt. eigenvalues --    0.13056   0.14239   0.15222   0.15615   0.17011
 Alpha virt. eigenvalues --    0.18363   0.19559   0.23048   0.23640   0.24989
 Alpha virt. eigenvalues --    0.25702   0.26388   0.27490   0.28572   0.29214

 Mulliken charges:
               1
     1  C    0.555550
     2  H    0.062595
     3  F   -0.763533
     4  F   -0.772426
     5  C    0.672920
     6  H    0.076332
     7  N   -0.367167
     8  H    0.044414
     9  H    0.037014
    10  N   -0.374033
    11  H    0.034468
    12  H    0.045458
    13  C    0.099538
    14  N   -0.351128
 Sum of Mulliken charges =  -1.00000

 Dipole moment (field-independent basis, Debye):
    X=             -3.3974    Y=              0.5432    Z=             -0.3370  Tot=              3.4570

 Test job not archived.
 1\1\GINC-SE227\SP\RHF\Aug-CC-pVDZ\C3H6F2N3(1-)\OHZDE\09-Apr-2025\0\\#t
  hf aug-cc-pvdz iop(5/13=1,5/36=2,99/5=2) pseudo=read geom=check guess
 =(read,tcheck) scf=(maxcycle=1)\\title\\-1,1\C,0,0.67821843,-0.0899742
 2,0.0176952\H,0,1.68808052,1.80273256,-0.05328373\F,0,-1.13938159,-0.0
 6947442,0.02456705\F,0,2.49425179,-0.15294813,0.00570455\C,0,0.6658964
 9,1.43535663,0.0215963\H,0,0.09774702,1.7544596,-0.8514764\N,0,0.66214
 361,-0.71692496,-1.28199483\H,0,-0.19414884,-1.24967705,-1.33155188\H,
 0,1.48344462,-1.30132965,-1.32892227\N,0,0.67706344,-0.78283445,1.2761

 Normal termination of Gaussian 16 at Wed Apr  9 02:57:13 2025.
