 Gaussian 16, Revision C.01,

 ----------------------------------------------------------------------
 #t hf aug-cc-pvdz symm=none int=(grid=ultrafine) guess=(read,tcheck) s
 table=(opt,rrhf)
 ----------------------------------------------------------------------
 -----
 title
 -----
 Symbolic Z-matrix:
 Charge = -1 Multiplicity = 1

 SCF Done:  E(RHF) =  -777.190975107     A.U. after   16 cycles
 Normal termination of Gaussian 16 at Wed Apr  9 02:43:56 2025.
 Gaussian 16:  ES64L-G16RevC.01  3-Jul-2019

 ----------------------------------------------------------------------
 #t hf aug-cc-pvdz iop(5/13=1,5/36=2,99/5=2) pseudo=read geom=check gue
 ss=(read,tcheck) scf=(maxcycle=1)
 ----------------------------------------------------------------------
 -----
 title
 -----
 Structure from the checkpoint file:  "E2SN2_260_mol2.chk"
 Charge = -1 Multiplicity = 1

                         Standard orientation:
 ---------------------------------------------------------------------
 Center     Atomic      Atomic             Coordinates (Angstroms)
 Number     Number       Type             X           Y           Z
 ---------------------------------------------------------------------
      1          6           0        0.562322   -0.360271    0.483000
      2          6           0       -0.871535    0.156827    0.719113
      3         17           0        0.669007   -1.321005   -1.025710
      4          1           0       -0.807968    0.670756    1.687271
      5          1           0        0.678204   -1.058723    1.382053
      6          6           0        1.554060    0.694683    0.467037
      7          7           0        2.354726    1.556322    0.504688
      8          7           0       -1.847654   -0.903429    0.874502
      9          1           0       -1.457778   -1.465474    1.649270
     10          1           0       -1.821829   -1.482674    0.041259
     11          6           0       -1.288720    1.127885   -0.302016
     12          7           0       -1.618753    1.894692   -1.128073
     13          1           0        0.081246   -1.754645    2.716591
 ---------------------------------------------------------------------

 SCF Done:  E(RHF) =  -777.300676512     A.U. after    2 cycles

 The electronic state is 1-A.
 Alpha  occ. eigenvalues -- -103.56123 -15.54472 -15.54077 -15.50043 -11.22096
 Alpha  occ. eigenvalues --  -11.21828 -11.19543 -11.18945 -10.59417  -8.25140
 Alpha  occ. eigenvalues --   -8.24859  -8.24834  -1.11736  -1.08024  -1.06539
 Alpha  occ. eigenvalues --   -1.04227  -0.90674  -0.80123  -0.64189  -0.59974
 Alpha  occ. eigenvalues --   -0.53298  -0.50579  -0.49847  -0.45988  -0.44594
 Alpha  occ. eigenvalues --   -0.43427  -0.37810  -0.37110  -0.35449  -0.35195
 Alpha  occ. eigenvalues --   -0.34921  -0.34175  -0.29685  -0.12041
 Alpha virt. eigenvalues --    0.13763   0.14345   0.16040   0.17576   0.18380
 Alpha virt. eigenvalues --    0.18903   0.19468   0.20517   0.22025   0.22966
 Alpha virt. eigenvalues --    0.23483   0.24583   0.24692   0.25568   0.25782

 Mulliken charges:
               1
     1  C    0.285735
     2  C    0.724476
     3  Cl  -0.172021
     4  H   -0.125578
     5  H    0.134625
     6  C   -0.233064
     7  N   -0.234718
     8  N   -0.413124
     9  H    0.136841
    10  H    0.030612
    11  C   -0.268233
    12  N   -0.246646
    13  H   -0.618904
 Sum of Mulliken charges =  -1.00000

 Dipole moment (field-independent basis, Debye):
    X=             -0.7402    Y=              1.1624    Z=             -5.9590  Tot=              6.1163

 Test job not archived.
 1\1\GINC-SE362\SP\RHF\Aug-CC-pVDZ\C4H5Cl1N3(1-)\OHZDE\09-Apr-2025\0\\#
 t hf aug-cc-pvdz iop(5/13=1,5/36=2,99/5=2) pseudo=read geom=check gues
 s=(read,tcheck) scf=(maxcycle=1)\\title\\-1,1\C,0,-0.117501,0.130316,0
 .023048\C,0,-0.588304,0.306087,-1.435217\Cl,0,1.572493,-0.460604,0.096
 06\H,0,-1.638133,0.611849,-1.335916\H,0,-0.822137,-0.70358,0.36607\C,0
 ,-0.253599,1.334398,0.815759\N,0,-0.414755,2.305614,1.460486\N,0,-0.58
 4932,-0.928873,-2.194136\H,0,-1.175867,-1.554234,-1.621525\H,0,0.35652
 3,-1.308203,-2.178103\C,0,0.146998,1.369703,-2.133611\N,0,0.74671,2.21

 Normal termination of Gaussian 16 at Wed Apr  9 02:44:00 2025.
