 Gaussian 16, Revision C.01,

 ----------------------------------------------------------------------
 #t hf aug-cc-pvdz symm=none int=(grid=ultrafine) guess=(read,tcheck) s
 table=(opt,rrhf)
 ----------------------------------------------------------------------
 -----
 title
 -----
 Symbolic Z-matrix:
 Charge = -1 Multiplicity = 1

 SCF Done:  E(RHF) =  -630.157695748     A.U. after   16 cycles
 Normal termination of Gaussian 16 at Wed Apr  9 02:58:10 2025.
 Gaussian 16:  ES64L-G16RevC.01  3-Jul-2019

 ----------------------------------------------------------------------
 #t hf aug-cc-pvdz iop(5/13=1,5/36=2,99/5=2) pseudo=read geom=check gue
 ss=(read,tcheck) scf=(maxcycle=1)
 ----------------------------------------------------------------------
 -----
 title
 -----
 Structure from the checkpoint file:  "E2SN2_411_mol1.chk"
 Charge = -1 Multiplicity = 1

                         Standard orientation:
 ---------------------------------------------------------------------
 Center     Atomic      Atomic             Coordinates (Angstroms)
 Number     Number       Type             X           Y           Z
 ---------------------------------------------------------------------
      1          6           0       -0.919295   -0.231273    0.070055
      2          1           0        0.152976    0.591250   -1.545278
      3          9           0        0.126693   -1.107617    1.295092
      4          9           0       -1.978961    0.644705   -1.070620
      5          6           0        0.265836    0.589632   -0.464074
      6          7           0       -1.683159    0.296389    1.173251
      7          1           0       -1.593842   -0.366509    1.928412
      8          1           0       -2.635275    0.400022    0.855613
      9          7           0       -1.186032   -1.474615   -0.597769
     10          1           0       -2.140420   -1.439710   -0.925137
     11          1           0       -1.036299   -2.204827    0.082537
     12          7           0        1.602080   -0.078855   -0.262588
     13          8           0        2.376984    0.371636    0.578555
     14          8           0        1.875152   -1.005153   -1.022396
     15          6           0        0.300771    1.988876    0.100545
     16          1           0       -0.652296    2.455659   -0.138631
     17          1           0        0.422327    1.950906    1.180444
     18          1           0        1.122057    2.563717   -0.336892
 ---------------------------------------------------------------------

 SCF Done:  E(RHF) =  -630.348838435     A.U. after    2 cycles

 The electronic state is 1-A.
 Alpha  occ. eigenvalues --  -25.83708 -25.81703 -20.45583 -20.45504 -15.75039
 Alpha  occ. eigenvalues --  -15.46428 -15.46206 -11.26877 -11.15741 -11.09141
 Alpha  occ. eigenvalues --   -1.38059  -1.34583  -1.32490  -1.19598  -1.05277
 Alpha  occ. eigenvalues --   -0.96751  -0.95092  -0.79578  -0.73227  -0.64813
 Alpha  occ. eigenvalues --   -0.59221  -0.57532  -0.56611  -0.56065  -0.52509
 Alpha  occ. eigenvalues --   -0.52204  -0.46729  -0.45361  -0.43171  -0.42295
 Alpha  occ. eigenvalues --   -0.41406  -0.40247  -0.39304  -0.39001  -0.37839
 Alpha  occ. eigenvalues --   -0.36250  -0.34683  -0.34036  -0.31138  -0.29045
 Alpha  occ. eigenvalues --   -0.24399
 Alpha virt. eigenvalues --    0.12820   0.13313   0.14086   0.15278   0.15948
 Alpha virt. eigenvalues --    0.16742   0.17693   0.18672   0.22806   0.23691
 Alpha virt. eigenvalues --    0.24371   0.24858   0.25038   0.26606   0.27330

 Mulliken charges:
               1
     1  C    0.642998
     2  H   -0.140204
     3  F   -0.788431
     4  F   -0.748522
     5  C    0.856098
     6  N   -0.464296
     7  H    0.051232
     8  H    0.055476
     9  N   -0.328034
    10  H    0.006462
    11  H    0.045192
    12  N    0.397796
    13  O   -0.654961
    14  O   -0.663575
    15  C    0.638077
    16  H    0.035093
    17  H    0.090195
    18  H   -0.030596
 Sum of Mulliken charges =  -1.00000

 Dipole moment (field-independent basis, Debye):
    X=             -2.3891    Y=              1.3877    Z=              0.0459  Tot=              2.7632

 Test job not archived.
 1\1\GINC-SE115\SP\RHF\Aug-CC-pVDZ\C3H8F2N3O2(1-)\OHZDE\09-Apr-2025\0\\
 #t hf aug-cc-pvdz iop(5/13=1,5/36=2,99/5=2) pseudo=read geom=check gue
 ss=(read,tcheck) scf=(maxcycle=1)\\title\\-1,1\C,0,0.57765826,-0.10449
 223,0.02045442\H,0,1.62818369,1.64661741,0.53583717\F,0,-1.15815439,-0
 .13810358,0.61088758\F,0,2.24808212,-0.10541012,-0.61283161\C,0,0.6540
 7752,1.42869953,0.10529141\N,0,0.11979121,-0.705992,-1.20735329\H,0,-0
 .71414136,-1.22599478,-0.97968521\H,0,0.8652867,-1.29408395,-1.5487374
 2\N,0,0.99344029,-0.82910847,1.18882738\H,0,1.73286204,-1.455259,0.905

 Normal termination of Gaussian 16 at Wed Apr  9 02:58:20 2025.
