 Gaussian 16, Revision C.01,

 ----------------------------------------------------------------------
 #t hf aug-cc-pvdz symm=none int=(grid=ultrafine) guess=(read,tcheck) s
 table=(opt,rrhf)
 ----------------------------------------------------------------------
 -----
 title
 -----
 Symbolic Z-matrix:
 Charge = -1 Multiplicity = 1

 SCF Done:  E(RHF) =  -479.406220145     A.U. after   15 cycles
 Normal termination of Gaussian 16 at Wed Apr  9 02:47:56 2025.
 Gaussian 16:  ES64L-G16RevC.01  3-Jul-2019

 ----------------------------------------------------------------------
 #t hf aug-cc-pvdz iop(5/13=1,5/36=2,99/5=2) pseudo=read geom=check gue
 ss=(read,tcheck) scf=(maxcycle=1)
 ----------------------------------------------------------------------
 -----
 title
 -----
 Structure from the checkpoint file:  "E2SN2_301_mol2.chk"
 Charge = -1 Multiplicity = 1

                         Standard orientation:
 ---------------------------------------------------------------------
 Center     Atomic      Atomic             Coordinates (Angstroms)
 Number     Number       Type             X           Y           Z
 ---------------------------------------------------------------------
      1          6           0       -0.499445    0.137147    0.229783
      2          6           0        0.367310    0.649050   -0.929202
      3          9           0       -0.970345    1.316856    0.922102
      4          1           0        0.600899   -0.207968   -1.563733
      5          1           0       -0.242930    1.365677   -1.492266
      6          6           0       -1.758807   -0.457267   -0.292084
      7          7           0       -2.728822   -0.964179   -0.721030
      8          7           0        0.202122   -0.699113    1.084758
      9          1           0        1.130627   -1.052249    0.680165
     10          1           0       -0.366388   -1.391470    1.545085
     11          7           0        1.625516    1.237361   -0.513050
     12          1           0        2.206836    0.426904   -0.255497
     13          1           0        1.455810    1.791917    0.318444
     14          9           0        2.400243   -1.308509   -0.059649
 ---------------------------------------------------------------------

 SCF Done:  E(RHF) =  -479.553276396     A.U. after    2 cycles

 The electronic state is 1-A.
 Alpha  occ. eigenvalues --  -25.97291 -25.77536 -15.53365 -15.46177 -15.44987
 Alpha  occ. eigenvalues --  -11.26005 -11.18027 -11.13514  -1.50031  -1.26956
 Alpha  occ. eigenvalues --   -1.08212  -1.04746  -0.99080  -0.84616  -0.73016
 Alpha  occ. eigenvalues --   -0.65326  -0.60079  -0.58890  -0.55406  -0.51374
 Alpha  occ. eigenvalues --   -0.50217  -0.45306  -0.43020  -0.41196  -0.39847
 Alpha  occ. eigenvalues --   -0.36652  -0.36378  -0.35646  -0.34524  -0.33917
 Alpha  occ. eigenvalues --   -0.27275  -0.23966
 Alpha virt. eigenvalues --    0.13833   0.14282   0.15247   0.16488   0.18173
 Alpha virt. eigenvalues --    0.19114   0.19875   0.21041   0.22685   0.23621
 Alpha virt. eigenvalues --    0.25071   0.25184   0.26382   0.26794   0.28165

 Mulliken charges:
               1
     1  C    1.228320
     2  C    0.882712
     3  F   -0.487121
     4  H   -0.073996
     5  H   -0.145562
     6  C   -0.610436
     7  N   -0.195272
     8  N   -0.592415
     9  H    0.202900
    10  H   -0.015543
    11  N   -0.467948
    12  H    0.122172
    13  H    0.040003
    14  F   -0.887815
 Sum of Mulliken charges =  -1.00000

 Dipole moment (field-independent basis, Debye):
    X=             -4.0494    Y=              2.1445    Z=              0.8316  Tot=              4.6571

 Test job not archived.
 1\1\GINC-SE435\SP\RHF\Aug-CC-pVDZ\C3H6F2N3(1-)\OHZDE\09-Apr-2025\0\\#t
  hf aug-cc-pvdz iop(5/13=1,5/36=2,99/5=2) pseudo=read geom=check guess
 =(read,tcheck) scf=(maxcycle=1)\\title\\-1,1\C,0,0.008085,0.079945,0.0
 45848\C,0,-0.538586,0.098432,-1.388504\F,0,1.386359,-0.346076,-0.06200
 1\H,0,-1.521934,0.571317,-1.355636\H,0,0.145025,0.716643,-1.983044\C,0
 ,0.13694,1.467177,0.566089\N,0,0.191067,2.566062,0.9801\N,0,-0.713976,
 -0.764332,0.875507\H,0,-1.660984,-1.063921,0.470607\H,0,-0.719735,-0.4
 87347,1.843861\N,0,-0.708285,-1.216803,-1.974793\H,0,-1.550189,-1.5892

 Normal termination of Gaussian 16 at Wed Apr  9 02:48:01 2025.
