 Gaussian 16, Revision C.01,

 ----------------------------------------------------------------------
 #t hf aug-cc-pvdz symm=none int=(grid=ultrafine) guess=(read,tcheck) s
 table=(opt,rrhf)
 ----------------------------------------------------------------------
 -----
 title
 -----
 Symbolic Z-matrix:
 Charge = -1 Multiplicity = 1

 SCF Done:  E(RHF) =  -1220.22574526     A.U. after   15 cycles
 Normal termination of Gaussian 16 at Wed Apr  9 02:45:23 2025.
 Gaussian 16:  ES64L-G16RevC.01  3-Jul-2019

 ----------------------------------------------------------------------
 #t hf aug-cc-pvdz iop(5/13=1,5/36=2,99/5=2) pseudo=read geom=check gue
 ss=(read,tcheck) scf=(maxcycle=1)
 ----------------------------------------------------------------------
 -----
 title
 -----
 Structure from the checkpoint file:  "E2SN2_271_mol2.chk"
 Charge = -1 Multiplicity = 1

                         Standard orientation:
 ---------------------------------------------------------------------
 Center     Atomic      Atomic             Coordinates (Angstroms)
 Number     Number       Type             X           Y           Z
 ---------------------------------------------------------------------
      1          6           0        0.471245    0.180672   -0.043593
      2          6           0        0.211148   -0.696288   -1.275392
      3         17           0        2.296514    0.313010    0.165210
      4          1           0        0.839035   -0.299008   -2.078840
      5          1           0       -0.840139   -0.548357   -1.522563
      6          6           0        0.010352    1.555742   -0.247909
      7          7           0       -0.177885    2.694141   -0.470802
      8          6           0       -0.006950   -0.395803    1.216229
      9          7           0       -0.129861   -0.905869    2.268784
     10          6           0        0.483832   -2.169689   -1.018449
     11          1           0        1.492556   -2.343807   -0.636043
     12          1           0       -0.240559   -2.559047   -0.300902
     13          1           0        0.370451   -2.730465   -1.949756
     14         17           0       -2.677978   -0.012129   -0.040685
 ---------------------------------------------------------------------

 SCF Done:  E(RHF) =  -1220.34337241     A.U. after    2 cycles

 The electronic state is 1-A.
 Alpha  occ. eigenvalues -- -103.57539-103.37470 -15.54130 -15.53516 -11.29047
 Alpha  occ. eigenvalues --  -11.19707 -11.19404 -11.14990 -11.13245 -10.60813
 Alpha  occ. eigenvalues --  -10.40600  -8.26524  -8.26225  -8.26223  -8.06200
 Alpha  occ. eigenvalues --   -8.06164  -8.06155  -1.12446  -1.06899  -1.05577
 Alpha  occ. eigenvalues --   -0.96727  -0.88424  -0.83003  -0.75537  -0.68326
 Alpha  occ. eigenvalues --   -0.57222  -0.53598  -0.49158  -0.45652  -0.44533
 Alpha  occ. eigenvalues --   -0.43829  -0.42228  -0.40728  -0.39033  -0.37685
 Alpha  occ. eigenvalues --   -0.35437  -0.34917  -0.34008  -0.33810  -0.20855
 Alpha  occ. eigenvalues --   -0.20661  -0.20480
 Alpha virt. eigenvalues --    0.11382   0.13355   0.13676   0.16296   0.16634
 Alpha virt. eigenvalues --    0.17628   0.18277   0.19202   0.21077   0.22281
 Alpha virt. eigenvalues --    0.22769   0.23116   0.24135   0.24394   0.25049

 Mulliken charges:
               1
     1  C    0.021126
     2  C    0.542489
     3  Cl  -0.068691
     4  H   -0.065757
     5  H   -0.119555
     6  C   -0.065658
     7  N   -0.278793
     8  C    0.015323
     9  N   -0.344750
    10  C    0.456295
    11  H   -0.072937
    12  H   -0.023568
    13  H   -0.078838
    14  Cl  -0.916687
 Sum of Mulliken charges =  -1.00000

 Dipole moment (field-independent basis, Debye):
    X=              9.3234    Y=             -2.5527    Z=             -2.9303  Tot=             10.1009

 Test job not archived.
 1\1\GINC-SE364\SP\RHF\Aug-CC-pVDZ\C5H5Cl2N2(1-)\OHZDE\09-Apr-2025\0\\#
 t hf aug-cc-pvdz iop(5/13=1,5/36=2,99/5=2) pseudo=read geom=check gues
 s=(read,tcheck) scf=(maxcycle=1)\\title\\-1,1\C,0,-0.078757,0.015557,-
 0.000203\C,0,-0.487698,0.168479,-1.47106\Cl,0,1.762049,0.011463,0.0641
 13\H,0,0.088077,1.009923,-1.868623\H,0,-1.547521,0.422816,-1.454657\C,
 0,-0.485479,1.172531,0.800405\N,0,-0.63445,2.169633,1.404278\C,0,-0.47
 5415,-1.259336,0.604326\N,0,-0.533016,-2.340504,1.063569\C,0,-0.26869,
 -1.100616,-2.27897\H,0,0.759081,-1.464887,-2.207776\H,0,-0.947471,-1.8

 Normal termination of Gaussian 16 at Wed Apr  9 02:45:29 2025.
