 Gaussian 16, Revision C.01,

 ----------------------------------------------------------------------
 #t hf aug-cc-pvdz symm=none int=(grid=ultrafine) guess=(read,tcheck) s
 table=(opt,rrhf)
 ----------------------------------------------------------------------
 -----
 title
 -----
 Symbolic Z-matrix:
 Charge = -1 Multiplicity = 1

 SCF Done:  E(RHF) =  -1199.57125058     A.U. after   15 cycles
 Normal termination of Gaussian 16 at Wed Apr  9 02:38:06 2025.
 Gaussian 16:  ES64L-G16RevC.01  3-Jul-2019

 ----------------------------------------------------------------------
 #t hf aug-cc-pvdz iop(5/13=1,5/36=2,99/5=2) pseudo=read geom=check gue
 ss=(read,tcheck) scf=(maxcycle=1)
 ----------------------------------------------------------------------
 -----
 title
 -----
 Structure from the checkpoint file:  "E2SN2_184_mol2.chk"
 Charge = -1 Multiplicity = 1

                         Standard orientation:
 ---------------------------------------------------------------------
 Center     Atomic      Atomic             Coordinates (Angstroms)
 Number     Number       Type             X           Y           Z
 ---------------------------------------------------------------------
      1          6           0        0.675552    0.033416   -0.204830
      2          6           0        0.120393    0.100455    1.237377
      3         17           0        1.592979   -1.495113   -0.459322
      4          1           0        0.981281    0.087938    1.917871
      5          1           0       -0.178250    0.013738   -0.892021
      6          6           0        1.567762    1.148048   -0.498480
      7          7           0        2.322361    2.015592   -0.738918
      8          7           0       -0.756182   -0.998643    1.595896
      9          1           0       -1.539384   -0.987075    0.941961
     10          1           0       -0.272867   -1.883784    1.491097
     11          7           0       -0.540671    1.386330    1.325032
     12          1           0       -1.334377    1.353680    0.683392
     13          1           0       -0.927399    1.458986    2.259987
     14         17           0       -2.657085    0.050527   -1.004252
 ---------------------------------------------------------------------

 SCF Done:  E(RHF) =  -1199.68326172     A.U. after    2 cycles

 The electronic state is 1-A.
 Alpha  occ. eigenvalues -- -103.56047-103.38964 -15.53632 -15.48775 -15.48720
 Alpha  occ. eigenvalues --  -11.22308 -11.20004 -11.19008 -10.59356 -10.42065
 Alpha  occ. eigenvalues --   -8.25076  -8.24795  -8.24776  -8.07663  -8.07635
 Alpha  occ. eigenvalues --   -8.07633  -1.11536  -1.07213  -1.05250  -0.97775
 Alpha  occ. eigenvalues --   -0.87905  -0.84459  -0.72831  -0.62007  -0.55953
 Alpha  occ. eigenvalues --   -0.54746  -0.50638  -0.49749  -0.45025  -0.43909
 Alpha  occ. eigenvalues --   -0.41125  -0.36996  -0.36659  -0.34813  -0.34273
 Alpha  occ. eigenvalues --   -0.29535  -0.28089  -0.22210  -0.22149  -0.22096
 Alpha virt. eigenvalues --    0.12511   0.13730   0.14403   0.15864   0.18252
 Alpha virt. eigenvalues --    0.18466   0.19216   0.19534   0.21506   0.22497
 Alpha virt. eigenvalues --    0.24126   0.24527   0.25433   0.25604   0.26477

 Mulliken charges:
               1
     1  C    0.660521
     2  C    0.606726
     3  Cl  -0.165965
     4  H   -0.175134
     5  H   -0.019106
     6  C   -0.284016
     7  N   -0.231929
     8  N   -0.317359
     9  H    0.064508
    10  H    0.017010
    11  N   -0.278029
    12  H    0.089317
    13  H   -0.033258
    14  Cl  -0.933287
 Sum of Mulliken charges =  -1.00000

 Dipole moment (field-independent basis, Debye):
    X=              5.5079    Y=             -2.6907    Z=              4.0504  Tot=              7.3473

 Test job not archived.
 1\1\GINC-SE049\SP\RHF\Aug-CC-pVDZ\C3H6Cl2N3(1-)\OHZDE\09-Apr-2025\0\\#
 t hf aug-cc-pvdz iop(5/13=1,5/36=2,99/5=2) pseudo=read geom=check gues
 s=(read,tcheck) scf=(maxcycle=1)\\title\\-1,1\C,0,-0.354071,-0.101905,
 0.151839\C,0,-0.583795,-0.775801,-1.221387\Cl,0,0.864076,1.217122,0.01
 3547\H,0,0.373895,-1.21104,-1.53404\H,0,-1.297881,0.363453,0.458859\C,
 0,0.120559,-1.049796,1.15229\N,0,0.543918,-1.790187,1.960034\N,0,-1.03
 4005,0.125313,-2.265533\H,0,-1.912802,0.537859,-1.951381\H,0,-0.36448,
 0.875328,-2.396932\N,0,-1.531746,-1.840036,-0.962627\H,0,-2.405865,-1.

 Normal termination of Gaussian 16 at Wed Apr  9 02:38:13 2025.
