 Gaussian 16, Revision C.01,

 ----------------------------------------------------------------------
 #t hf aug-cc-pvdz symm=none int=(grid=ultrafine) guess=(read,tcheck) s
 table=(opt,rrhf)
 ----------------------------------------------------------------------
 -----
 title
 -----
 Symbolic Z-matrix:
 Charge = -1 Multiplicity = 1

 SCF Done:  E(RHF) =  -724.472698322     A.U. after   15 cycles
 Normal termination of Gaussian 16 at Wed Apr  9 02:31:43 2025.
 Gaussian 16:  ES64L-G16RevC.01  3-Jul-2019

 ----------------------------------------------------------------------
 #t hf aug-cc-pvdz iop(5/13=1,5/36=2,99/5=2) pseudo=read geom=check gue
 ss=(read,tcheck) scf=(maxcycle=1)
 ----------------------------------------------------------------------
 -----
 title
 -----
 Structure from the checkpoint file:  "E2SN2_124_mol2.chk"
 Charge = -1 Multiplicity = 1

                         Standard orientation:
 ---------------------------------------------------------------------
 Center     Atomic      Atomic             Coordinates (Angstroms)
 Number     Number       Type             X           Y           Z
 ---------------------------------------------------------------------
      1          6           0        0.197041   -0.152682    0.243686
      2          6           0       -1.017638   -0.802256   -0.412082
      3         17           0        0.357668    1.592042   -0.419198
      4          1           0       -0.940543   -0.707645   -1.496986
      5          1           0       -0.963084   -1.873771   -0.193695
      6          7           0        0.113257   -0.173845    1.658143
      7          1           0       -0.779693    0.200458    1.951499
      8          1           0        0.867460    0.345650    2.088622
      9          6           0        1.452430   -0.794518   -0.169174
     10          7           0        2.452230   -1.324995   -0.483401
     11          6           0       -2.364487   -0.266530    0.042499
     12          1           0       -2.589773   -0.531287    1.081646
     13          1           0       -3.100530   -0.771478   -0.617400
     14          1           0       -2.437009    0.817117   -0.087293
     15          1           0       -3.699668   -1.955965   -2.052797
 ---------------------------------------------------------------------

 SCF Done:  E(RHF) =  -724.569785315     A.U. after    2 cycles

 The electronic state is 1-A.
 Alpha  occ. eigenvalues -- -103.56023 -15.56441 -15.55967 -11.29440 -11.21294
 Alpha  occ. eigenvalues --  -11.13870 -11.09664 -10.59362  -8.25056  -8.24791
 Alpha  occ. eigenvalues --   -8.24786  -1.15571  -1.09080  -1.03466  -0.93534
 Alpha  occ. eigenvalues --   -0.84780  -0.72152  -0.64324  -0.58461  -0.56257
 Alpha  occ. eigenvalues --   -0.49363  -0.48153  -0.46851  -0.41438  -0.40502
 Alpha  occ. eigenvalues --   -0.39239  -0.38567  -0.37184  -0.35843  -0.35316
 Alpha  occ. eigenvalues --   -0.33223  -0.06822
 Alpha virt. eigenvalues --    0.10494   0.13131   0.14466   0.15249   0.16365
 Alpha virt. eigenvalues --    0.17052   0.17761   0.18521   0.20405   0.21294
 Alpha virt. eigenvalues --    0.21515   0.22799   0.23236   0.23918   0.24722

 Mulliken charges:
               1
     1  C    0.751516
     2  C    0.072893
     3  Cl  -0.171862
     4  H   -0.088028
     5  H   -0.076582
     6  N   -0.385676
     7  H    0.046378
     8  H    0.014447
     9  C   -0.574456
    10  N   -0.175880
    11  C    0.792074
    12  H   -0.054251
    13  H   -0.197340
    14  H   -0.060130
    15  H   -0.893104
 Sum of Mulliken charges =  -1.00000

 Dipole moment (field-independent basis, Debye):
    X=             11.7181    Y=              8.9304    Z=             10.5425  Tot=             18.1165

 Test job not archived.
 1\1\GINC-SE341\SP\RHF\Aug-CC-pVDZ\C4H8Cl1N2(1-)\OHZDE\09-Apr-2025\0\\#
 t hf aug-cc-pvdz iop(5/13=1,5/36=2,99/5=2) pseudo=read geom=check gues
 s=(read,tcheck) scf=(maxcycle=1)\\title\\-1,1\C,0,-0.681969,0.101786,-
 1.574686\C,0,0.165797,-0.008953,-0.311179\Cl,0,-0.151734,-1.251594,-2.
 756419\H,0,1.223462,-0.02098,-0.58157\H,0,0.006711,0.910738,0.261248\N
 ,0,-2.069238,0.041346,-1.291863\H,0,-2.264317,-0.76884,-0.718223\H,0,-
 2.625644,0.012583,-2.136608\C,0,-0.400355,1.337352,-2.317975\N,0,-0.18
 9343,2.337161,-2.897286\C,0,-0.138696,-1.207163,0.571559\H,0,-1.121374

 Normal termination of Gaussian 16 at Wed Apr  9 02:31:49 2025.
