 Gaussian 16, Revision C.01,

 ----------------------------------------------------------------------
 #t hf aug-cc-pvdz symm=none int=(grid=ultrafine) guess=(read,tcheck) s
 table=(opt,rrhf)
 ----------------------------------------------------------------------
 -----
 title
 -----
 Symbolic Z-matrix:
 Charge = -1 Multiplicity = 1

 SCF Done:  E(RHF) =  -915.180790190     A.U. after   16 cycles
 Normal termination of Gaussian 16 at Wed Apr  9 03:00:50 2025.
 Gaussian 16:  ES64L-G16RevC.01  3-Jul-2019

 ----------------------------------------------------------------------
 #t hf aug-cc-pvdz iop(5/13=1,5/36=2,99/5=2) pseudo=read geom=check gue
 ss=(read,tcheck) scf=(maxcycle=1)
 ----------------------------------------------------------------------
 -----
 title
 -----
 Structure from the checkpoint file:  "E2SN2_87_mol1.chk"
 Charge = -1 Multiplicity = 1

                         Standard orientation:
 ---------------------------------------------------------------------
 Center     Atomic      Atomic             Coordinates (Angstroms)
 Number     Number       Type             X           Y           Z
 ---------------------------------------------------------------------
      1          6           0       -0.433604   -0.133007   -0.329436
      2          6           0        0.686260    0.338525    0.557149
      3         17           0       -0.727966   -1.969974   -0.179552
      4          9           0        0.471769    2.599848   -0.547155
      5          1           0        0.655477    1.641717    0.097921
      6          6           0       -1.702210    0.474811    0.107071
      7          7           0       -2.711751    0.952263    0.470882
      8          7           0       -0.256572    0.134393   -1.742902
      9          1           0        0.573014   -0.374435   -2.036255
     10          1           0       -0.025166    1.131811   -1.767146
     11          6           0        1.935964   -0.212046    0.115919
     12          7           0        2.978368   -0.627332   -0.249720
     13          6           0        0.456494    0.193193    2.052576
     14          1           0        0.330086   -0.852542    2.360828
     15          1           0        1.304323    0.610907    2.601958
     16          1           0       -0.435960    0.749340    2.351968
 ---------------------------------------------------------------------

 SCF Done:  E(RHF) =  -915.331953665     A.U. after    2 cycles

 The electronic state is 1-A.
 Alpha  occ. eigenvalues -- -103.53520 -25.85660 -15.53236 -15.50577 -15.50179
 Alpha  occ. eigenvalues --  -11.26760 -11.18336 -11.16122 -11.12087 -11.11509
 Alpha  occ. eigenvalues --  -10.56844  -8.22545  -8.22280  -8.22272  -1.36581
 Alpha  occ. eigenvalues --   -1.11901  -1.05931  -1.04206  -1.00105  -0.93371
 Alpha  occ. eigenvalues --   -0.81674  -0.76441  -0.59875  -0.57712  -0.55202
 Alpha  occ. eigenvalues --   -0.52979  -0.47634  -0.46279  -0.45383  -0.45078
 Alpha  occ. eigenvalues --   -0.44046  -0.43226  -0.42487  -0.40760  -0.37053
 Alpha  occ. eigenvalues --   -0.35090  -0.34846  -0.34442  -0.32749  -0.31674
 Alpha  occ. eigenvalues --   -0.29985  -0.22632
 Alpha virt. eigenvalues --    0.12840   0.14180   0.14810   0.15507   0.17229
 Alpha virt. eigenvalues --    0.17812   0.17902   0.19250   0.20013   0.22174
 Alpha virt. eigenvalues --    0.22679   0.23405   0.24579   0.24997   0.25817

 Mulliken charges:
               1
     1  C    1.002807
     2  C   -0.690621
     3  Cl  -0.264454
     4  F   -0.606554
     5  H    0.490833
     6  C   -0.470434
     7  N   -0.268993
     8  N   -0.587084
     9  H    0.064872
    10  H    0.110595
    11  C   -0.070543
    12  N   -0.402709
    13  C    0.785364
    14  H   -0.004360
    15  H   -0.009399
    16  H   -0.079319
 Sum of Mulliken charges =  -1.00000

 Dipole moment (field-independent basis, Debye):
    X=             -0.7521    Y=             -3.3885    Z=              1.6105  Tot=              3.8264

 Test job not archived.
 1\1\GINC-SE149\SP\RHF\Aug-CC-pVDZ\C5H6Cl1F1N3(1-)\OHZDE\09-Apr-2025\0\
 \#t hf aug-cc-pvdz iop(5/13=1,5/36=2,99/5=2) pseudo=read geom=check gu
 ess=(read,tcheck) scf=(maxcycle=1)\\title\\-1,1\C,0,-0.14673911,0.0438
 3685,-0.33836116\C,0,-0.0682734,-0.01185667,1.16270908\Cl,0,1.54150663
 ,0.06707435,-1.13387748\F,0,-2.57457653,0.29776827,1.20330165\H,0,-1.4
 333955,0.08998071,1.35301884\C,0,-0.77185113,-1.18813095,-0.84907857\N
 ,0,-1.25773055,-2.17992511,-1.24877716\N,0,-0.86372756,1.18229265,-0.8
 7741268\H,0,-0.35552012,2.01341041,-0.58733694\H,0,-1.74754139,1.17102

 Normal termination of Gaussian 16 at Wed Apr  9 03:01:00 2025.
