 Gaussian 16, Revision C.01,

 ----------------------------------------------------------------------
 #t hf aug-cc-pvdz symm=none int=(grid=ultrafine) guess=(read,tcheck) s
 table=(opt,rrhf)
 ----------------------------------------------------------------------
 -----
 title
 -----
 Symbolic Z-matrix:
 Charge = -1 Multiplicity = 1

 SCF Done:  E(RHF) =  -1295.25002952     A.U. after   17 cycles
 Normal termination of Gaussian 16 at Wed Apr  9 02:59:36 2025.
 Gaussian 16:  ES64L-G16RevC.01  3-Jul-2019

 ----------------------------------------------------------------------
 #t hf aug-cc-pvdz iop(5/13=1,5/36=2,99/5=2) pseudo=read geom=check gue
 ss=(read,tcheck) scf=(maxcycle=1)
 ----------------------------------------------------------------------
 -----
 title
 -----
 Structure from the checkpoint file:  "E2SN2_7_mol1.chk"
 Charge = -1 Multiplicity = 1

                         Standard orientation:
 ---------------------------------------------------------------------
 Center     Atomic      Atomic             Coordinates (Angstroms)
 Number     Number       Type             X           Y           Z
 ---------------------------------------------------------------------
      1          6           0        0.449983    0.045656   -0.393979
      2          6           0       -0.453504   -0.731814    0.315217
      3         17           0        2.587472   -0.935660   -0.446037
      4         17           0       -3.084207    0.286470   -0.492822
      5          1           0       -1.652193   -0.021359   -0.124127
      6          1           0        0.428405    0.019621   -1.474011
      7          6           0       -0.618473   -0.700857    1.811325
      8          1           0       -0.733555    0.307040    2.205589
      9          1           0       -1.500203   -1.294256    2.062554
     10          1           0        0.259689   -1.162259    2.274749
     11          7           0       -0.658685   -2.038136   -0.255008
     12          1           0        0.090671   -2.254647   -0.902406
     13          1           0       -1.558141   -2.109980   -0.716828
     14          7           0        0.833073    1.376586    0.063325
     15          8           0        1.030133    1.572765    1.262513
     16          8           0        0.922500    2.240363   -0.814826
 ---------------------------------------------------------------------

 SCF Done:  E(RHF) =  -1295.39397237     A.U. after    2 cycles

 The electronic state is 1-A.
 Alpha  occ. eigenvalues -- -103.48633-103.43788 -20.51024 -20.50967 -15.80849
 Alpha  occ. eigenvalues --  -15.50488 -11.24519 -11.16195 -11.11506 -10.51910
 Alpha  occ. eigenvalues --  -10.46947  -8.17584  -8.17403  -8.17401  -8.12578
 Alpha  occ. eigenvalues --   -8.12459  -8.12449  -1.43182  -1.24824  -1.07756
 Alpha  occ. eigenvalues --   -0.98013  -0.95989  -0.89226  -0.87061  -0.77777
 Alpha  occ. eigenvalues --   -0.69427  -0.63877  -0.61376  -0.60128  -0.56854
 Alpha  occ. eigenvalues --   -0.53622  -0.48053  -0.44275  -0.42945  -0.42334
 Alpha  occ. eigenvalues --   -0.40753  -0.39224  -0.35923  -0.32821  -0.31657
 Alpha  occ. eigenvalues --   -0.31256  -0.29694  -0.26705  -0.26417  -0.18840
 Alpha virt. eigenvalues --    0.12797   0.13407   0.13937   0.14898   0.15376
 Alpha virt. eigenvalues --    0.16397   0.17418   0.18523   0.20840   0.22047
 Alpha virt. eigenvalues --    0.23469   0.24139   0.25509   0.25653   0.26109

 Mulliken charges:
               1
     1  C    1.342812
     2  C   -0.867127
     3  Cl  -0.678242
     4  Cl  -0.589609
     5  H    0.692487
     6  H   -0.280942
     7  C    0.671483
     8  H    0.025672
     9  H   -0.066842
    10  H   -0.013073
    11  N   -0.378786
    12  H    0.067388
    13  H   -0.014616
    14  N    0.297354
    15  O   -0.607931
    16  O   -0.600028
 Sum of Mulliken charges =  -1.00000

 Dipole moment (field-independent basis, Debye):
    X=             -2.6137    Y=             -0.8806    Z=              0.3326  Tot=              2.7781

 Test job not archived.
 1\1\GINC-SE459\SP\RHF\Aug-CC-pVDZ\C3H7Cl2N2O2(1-)\OHZDE\09-Apr-2025\0\
 \#t hf aug-cc-pvdz iop(5/13=1,5/36=2,99/5=2) pseudo=read geom=check gu
 ess=(read,tcheck) scf=(maxcycle=1)\\title\\-1,1\C,0,-0.46900105,-0.023
 8752,-0.14097444\C,0,-0.10995985,0.12768249,1.19012535\Cl,0,1.37692846
 ,-0.60670037,-1.47791564\Cl,0,-2.65334268,0.01550896,2.64925068\H,0,-1
 .47168278,0.15501053,1.71888617\H,0,-0.96117851,-0.93482548,-0.4500757
 3\C,0,0.46658569,1.3860097,1.78234265\H,0,-0.11102629,2.27506397,1.536
 39494\H,0,0.49960025,1.26025305,2.86667704\H,0,1.48872105,1.51643113,1

 Normal termination of Gaussian 16 at Wed Apr  9 02:59:44 2025.
