 Gaussian 16, Revision C.01,

 ----------------------------------------------------------------------
 #t hf aug-cc-pvdz symm=none int=(grid=ultrafine) guess=(read,tcheck) s
 table=(opt,rrhf)
 ----------------------------------------------------------------------
 -----
 title
 -----
 Symbolic Z-matrix:
 Charge = -1 Multiplicity = 1

 SCF Done:  E(RHF) =  -518.446186400     A.U. after   15 cycles
 Normal termination of Gaussian 16 at Wed Apr  9 02:50:44 2025.
 Gaussian 16:  ES64L-G16RevC.01  3-Jul-2019

 ----------------------------------------------------------------------
 #t hf aug-cc-pvdz iop(5/13=1,5/36=2,99/5=2) pseudo=read geom=check gue
 ss=(read,tcheck) scf=(maxcycle=1)
 ----------------------------------------------------------------------
 -----
 title
 -----
 Structure from the checkpoint file:  "E2SN2_318_mol2.chk"
 Charge = -1 Multiplicity = 1

                         Standard orientation:
 ---------------------------------------------------------------------
 Center     Atomic      Atomic             Coordinates (Angstroms)
 Number     Number       Type             X           Y           Z
 ---------------------------------------------------------------------
      1          6           0        0.608574   -0.400233    0.084758
      2          6           0       -0.252272    0.292139   -0.994493
      3          9           0        1.071811   -1.630947   -0.553980
      4          1           0        0.384415    0.327189   -1.889057
      5          6           0        1.882098    0.329809    0.303453
      6          7           0        2.872354    0.937557    0.481749
      7          7           0       -0.072188   -0.649968    1.252801
      8          1           0        0.467480   -0.663205    2.099762
      9          1           0       -1.099271   -0.373602    1.315571
     10          6           0       -0.644446    1.699066   -0.562723
     11          1           0        0.221619    2.293327   -0.257863
     12          1           0       -1.357059    1.602342    0.258974
     13          1           0       -1.137305    2.199109   -1.400475
     14          7           0       -1.460685   -0.458231   -1.299791
     15          1           0       -2.074319   -0.364047   -0.476035
     16          1           0       -1.208326   -1.436406   -1.390834
     17          9           0       -2.531513    0.084846    1.188499
 ---------------------------------------------------------------------

 SCF Done:  E(RHF) =  -518.604826790     A.U. after    2 cycles

 The electronic state is 1-A.
 Alpha  occ. eigenvalues --  -25.96700 -25.77765 -15.53431 -15.46494 -15.45133
 Alpha  occ. eigenvalues --  -11.26075 -11.18191 -11.14398 -11.08658  -1.49227
 Alpha  occ. eigenvalues --   -1.27193  -1.08602  -1.05187  -0.99971  -0.86526
 Alpha  occ. eigenvalues --   -0.81019  -0.69524  -0.64087  -0.59620  -0.58714
 Alpha  occ. eigenvalues --   -0.55905  -0.51408  -0.50697  -0.46992  -0.44702
 Alpha  occ. eigenvalues --   -0.43759  -0.39663  -0.38967  -0.37696  -0.36675
 Alpha  occ. eigenvalues --   -0.35934  -0.35020  -0.34344  -0.33781  -0.27415
 Alpha  occ. eigenvalues --   -0.23965
 Alpha virt. eigenvalues --    0.13047   0.14104   0.14226   0.15142   0.16102
 Alpha virt. eigenvalues --    0.18138   0.18737   0.19333   0.20437   0.21086
 Alpha virt. eigenvalues --    0.22982   0.23741   0.24804   0.25268   0.25451

 Mulliken charges:
               1
     1  C    1.590282
     2  C   -0.175040
     3  F   -0.483743
     4  H   -0.234521
     5  C   -0.601905
     6  N   -0.230218
     7  N   -0.643081
     8  H   -0.029793
     9  H    0.175322
    10  C    0.927141
    11  H   -0.097726
    12  H   -0.075956
    13  H   -0.054032
    14  N   -0.291887
    15  H    0.133435
    16  H    0.018945
    17  F   -0.927224
 Sum of Mulliken charges =  -1.00000

 Dipole moment (field-independent basis, Debye):
    X=              3.9119    Y=              0.1759    Z=             -1.6218  Tot=              4.2384

 Test job not archived.
 1\1\GINC-SE036\SP\RHF\Aug-CC-pVDZ\C4H8F2N3(1-)\OHZDE\09-Apr-2025\0\\#t
  hf aug-cc-pvdz iop(5/13=1,5/36=2,99/5=2) pseudo=read geom=check guess
 =(read,tcheck) scf=(maxcycle=1)\\title\\-1,1\C,0,-0.002153,0.013328,0.
 035579\C,0,-0.344878,-0.1239,-1.464063\F,0,1.114184,-0.908379,0.239239
 \H,0,0.608663,0.021709,-1.989802\C,0,0.627794,1.326067,0.322868\N,0,1.
 099616,2.381673,0.534607\N,0,-1.060066,-0.265908,0.868032\H,0,-1.07815
 2,0.206074,1.75441\H,0,-1.988791,-0.557718,0.43498\C,0,-1.357494,0.929
 796,-1.893017\H,0,-1.044287,1.940086,-1.614861\H,0,-2.311049,0.676729,

 Normal termination of Gaussian 16 at Wed Apr  9 02:50:53 2025.
