 Gaussian 16, Revision C.01,

 ----------------------------------------------------------------------
 #t hf aug-cc-pvdz symm=none int=(grid=ultrafine) guess=(read,tcheck) s
 table=(opt,rrhf)
 ----------------------------------------------------------------------
 -----
 title
 -----
 Symbolic Z-matrix:
 Charge = -1 Multiplicity = 1

 SCF Done:  E(RHF) =  -1042.95404832     A.U. after   16 cycles
 Normal termination of Gaussian 16 at Wed Apr  9 02:34:31 2025.
 Gaussian 16:  ES64L-G16RevC.01  3-Jul-2019

 ----------------------------------------------------------------------
 #t hf aug-cc-pvdz iop(5/13=1,5/36=2,99/5=2) pseudo=read geom=check gue
 ss=(read,tcheck) scf=(maxcycle=1)
 ----------------------------------------------------------------------
 -----
 title
 -----
 Structure from the checkpoint file:  "E2SN2_143_mol2.chk"
 Charge = -1 Multiplicity = 1

                         Standard orientation:
 ---------------------------------------------------------------------
 Center     Atomic      Atomic             Coordinates (Angstroms)
 Number     Number       Type             X           Y           Z
 ---------------------------------------------------------------------
      1          6           0       -0.839251   -0.616754    0.146234
      2          6           0        0.667758   -0.239054    0.178884
      3         17           0       -1.537523    0.005578   -1.483873
      4          1           0        1.048767   -0.401526    1.188723
      5          7           0       -0.889607   -2.014033    0.261325
      6          1           0       -0.128313   -2.382817   -0.310094
      7          1           0       -1.795767   -2.397336    0.032152
      8          6           0       -1.688378    0.009709    1.162221
      9          7           0       -2.422186    0.426191    1.980212
     10          7           0        0.766507    1.274296   -0.018628
     11          8           0        1.306759    1.695651   -1.035396
     12          8           0        0.287355    1.974307    0.872744
     13          7           0        1.420474   -1.014740   -0.705603
     14          1           0        2.407672   -1.055124   -0.151121
     15          1           0        1.455040   -0.570888   -1.615600
     16          9           0        3.270054   -0.919134    0.870867
 ---------------------------------------------------------------------

 SCF Done:  E(RHF) =  -1043.14300386     A.U. after    2 cycles

 The electronic state is 1-A.
 Alpha  occ. eigenvalues -- -103.55730 -25.78463 -20.50471 -20.49994 -15.78876
 Alpha  occ. eigenvalues --  -15.55445 -15.54161 -15.46057 -11.29648 -11.22814
 Alpha  occ. eigenvalues --  -11.20532 -10.59062  -8.24757  -8.24493  -8.24486
 Alpha  occ. eigenvalues --   -1.42361  -1.28162  -1.24304  -1.15823  -1.08216
 Alpha  occ. eigenvalues --   -1.04600  -1.02917  -0.90103  -0.83173  -0.72432
 Alpha  occ. eigenvalues --   -0.67630  -0.64283  -0.61858  -0.59132  -0.56398
 Alpha  occ. eigenvalues --   -0.54892  -0.51987  -0.48607  -0.45563  -0.44212
 Alpha  occ. eigenvalues --   -0.41522  -0.39415  -0.38927  -0.38076  -0.37948
 Alpha  occ. eigenvalues --   -0.37300  -0.36253  -0.35149  -0.34916  -0.33017
 Alpha  occ. eigenvalues --   -0.32205  -0.26702
 Alpha virt. eigenvalues --    0.11340   0.13955   0.15401   0.16105   0.17310
 Alpha virt. eigenvalues --    0.18406   0.19214   0.19815   0.19990   0.21640
 Alpha virt. eigenvalues --    0.22764   0.23561   0.24424   0.24924   0.25828

 Mulliken charges:
               1
     1  C    0.687374
     2  C    1.473719
     3  Cl  -0.201147
     4  H   -0.101401
     5  N   -0.339467
     6  H    0.166453
     7  H   -0.035553
     8  C   -0.480433
     9  N   -0.213396
    10  N    0.370915
    11  O   -0.604997
    12  O   -0.619133
    13  N   -0.753946
    14  H    0.396384
    15  H    0.104617
    16  F   -0.849989
 Sum of Mulliken charges =  -1.00000

 Dipole moment (field-independent basis, Debye):
    X=             -7.3272    Y=             -1.9472    Z=             -4.0747  Tot=              8.6071

 Test job not archived.
 1\1\GINC-SE097\SP\RHF\Aug-CC-pVDZ\C3H5Cl1F1N4O2(1-)\OHZDE\09-Apr-2025\
 0\\#t hf aug-cc-pvdz iop(5/13=1,5/36=2,99/5=2) pseudo=read geom=check
 guess=(read,tcheck) scf=(maxcycle=1)\\title\\-1,1\C,0,-0.685641,-0.093
 668,-1.488083\C,0,0.061158,-0.044868,-0.126206\Cl,0,-2.525566,-0.18160
 8,-1.11516\H,0,1.126746,-0.200368,-0.304197\N,0,-0.324168,1.078574,-2.
 168786\H,0,-0.312132,1.828047,-1.475796\H,0,-0.912477,1.269469,-2.9675
 47\C,0,-0.433315,-1.268465,-2.325869\N,0,-0.238296,-2.150019,-3.078113
 \N,0,-0.366729,-1.274178,0.676726\O,0,-1.003751,-1.102893,1.710213\O,0

 Normal termination of Gaussian 16 at Wed Apr  9 02:34:41 2025.
