 Gaussian 16, Revision C.01,

 ----------------------------------------------------------------------
 #t hf aug-cc-pvdz symm=none int=(grid=ultrafine) guess=(read,tcheck) s
 table=(opt,rrhf)
 ----------------------------------------------------------------------
 -----
 title
 -----
 Symbolic Z-matrix:
 Charge = -1 Multiplicity = 1

 SCF Done:  E(RHF) =  -891.259469701     A.U. after   17 cycles
 Normal termination of Gaussian 16 at Wed Apr  9 02:53:46 2025.
 Gaussian 16:  ES64L-G16RevC.01  3-Jul-2019

 ----------------------------------------------------------------------
 #t hf aug-cc-pvdz iop(5/13=1,5/36=2,99/5=2) pseudo=read geom=check gue
 ss=(read,tcheck) scf=(maxcycle=1)
 ----------------------------------------------------------------------
 -----
 title
 -----
 Structure from the checkpoint file:  "E2SN2_364_mol1.chk"
 Charge = -1 Multiplicity = 1

                         Standard orientation:
 ---------------------------------------------------------------------
 Center     Atomic      Atomic             Coordinates (Angstroms)
 Number     Number       Type             X           Y           Z
 ---------------------------------------------------------------------
      1          6           0       -0.998302    0.252218    0.295019
      2          1           0        0.525930    1.246648    1.421139
      3         17           0       -0.615694   -1.385932   -0.946621
      4          1           0       -1.426971    1.968084    1.366220
      5          6           0        0.403047    0.917656    0.396384
      6          6           0       -1.484539   -0.472289    1.552275
      7          1           0       -1.279704   -1.544582    1.503366
      8          1           0       -1.000728   -0.057963    2.434494
      9          1           0       -2.558680   -0.318065    1.661776
     10          7           0       -1.916923    0.858004   -0.662585
     11          1           0       -2.461708    1.523616   -0.134581
     12          1           0       -2.496870    0.134081   -1.068301
     13          7           0        0.641186    2.006518   -0.500557
     14          1           0       -0.031303    2.700551   -0.182858
     15          1           0        0.316649    1.713200   -1.417325
     16          7           0        1.539962   -0.089818    0.241787
     17          8           0        2.232182   -0.086476   -0.768292
     18          8           0        1.706490   -0.840169    1.205297
 ---------------------------------------------------------------------

 SCF Done:  E(RHF) =  -891.404606549     A.U. after    2 cycles

 The electronic state is 1-A.
 Alpha  occ. eigenvalues -- -103.46549 -20.48043 -20.47443 -15.76646 -15.48368
 Alpha  occ. eigenvalues --  -15.48163 -11.24501 -11.20418 -11.10607 -10.49925
 Alpha  occ. eigenvalues --   -8.15581  -8.15411  -8.15391  -1.39984  -1.21803
 Alpha  occ. eigenvalues --   -1.08236  -1.02715  -0.93762  -0.88810  -0.84680
 Alpha  occ. eigenvalues --   -0.72730  -0.66641  -0.61868  -0.59709  -0.57321
 Alpha  occ. eigenvalues --   -0.53948  -0.51637  -0.50208  -0.47212  -0.45471
 Alpha  occ. eigenvalues --   -0.41964  -0.41099  -0.37451  -0.36624  -0.33657
 Alpha  occ. eigenvalues --   -0.31551  -0.29104  -0.28640  -0.28083  -0.27291
 Alpha  occ. eigenvalues --   -0.12404
 Alpha virt. eigenvalues --    0.12905   0.13633   0.14763   0.15552   0.15903
 Alpha virt. eigenvalues --    0.16732   0.17258   0.18704   0.19434   0.21924
 Alpha virt. eigenvalues --    0.22376   0.23658   0.23745   0.24791   0.25174

 Mulliken charges:
               1
     1  C   -1.029895
     2  H   -0.228534
     3  Cl  -0.500057
     4  H   -0.526391
     5  C    1.655589
     6  C    0.720293
     7  H   -0.000594
     8  H   -0.049355
     9  H   -0.042101
    10  N   -0.194267
    11  H    0.142076
    12  H    0.025397
    13  N   -0.352985
    14  H    0.140848
    15  H    0.094700
    16  N    0.439972
    17  O   -0.624303
    18  O   -0.670393
 Sum of Mulliken charges =  -1.00000

 Dipole moment (field-independent basis, Debye):
    X=             -1.3529    Y=             -1.4796    Z=             -0.9548  Tot=              2.2206

 Test job not archived.
 1\1\GINC-SE402\SP\RHF\Aug-CC-pVDZ\C3H9Cl1N3O2(1-)\OHZDE\09-Apr-2025\0\
 \#t hf aug-cc-pvdz iop(5/13=1,5/36=2,99/5=2) pseudo=read geom=check gu
 ess=(read,tcheck) scf=(maxcycle=1)\\title\\-1,1\C,0,0.43810828,-0.0273
 7536,-0.0465318\H,0,1.54532181,1.62385557,-0.83889383\Cl,0,-1.64007428
 ,-0.19125006,-0.20745451\H,0,2.46899756,0.14588776,0.30116947\C,0,0.65
 881759,1.50069049,-0.22864849\C,0,0.86814451,-0.90762942,-1.2222235\H,
 0,0.02537303,-1.14613803,-1.87568469\H,0,1.63825787,-0.40560563,-1.804
 41522\H,0,1.29622488,-1.83432288,-0.83811294\N,0,0.44367002,-0.5061189

 Normal termination of Gaussian 16 at Wed Apr  9 02:53:55 2025.
