 Gaussian 16, Revision C.01,

 ----------------------------------------------------------------------
 #t hf aug-cc-pvdz symm=none int=(grid=ultrafine) guess=(read,tcheck) s
 table=(opt,rrhf)
 ----------------------------------------------------------------------
 -----
 title
 -----
 Symbolic Z-matrix:
 Charge = -1 Multiplicity = 1

 SCF Done:  E(RHF) =  -611.831004498     A.U. after   17 cycles
 Normal termination of Gaussian 16 at Wed Apr  9 02:41:29 2025.
 Gaussian 16:  ES64L-G16RevC.01  3-Jul-2019

 ----------------------------------------------------------------------
 #t hf aug-cc-pvdz iop(5/13=1,5/36=2,99/5=2) pseudo=read geom=check gue
 ss=(read,tcheck) scf=(maxcycle=1)
 ----------------------------------------------------------------------
 -----
 title
 -----
 Structure from the checkpoint file:  "E2SN2_224_mol2.chk"
 Charge = -1 Multiplicity = 1

                         Standard orientation:
 ---------------------------------------------------------------------
 Center     Atomic      Atomic             Coordinates (Angstroms)
 Number     Number       Type             X           Y           Z
 ---------------------------------------------------------------------
      1          6           0        0.082513   -0.123513   -0.352078
      2          6           0        0.895304   -1.236703    0.264239
      3          9           0        0.083999   -0.313085   -1.749863
      4          1           0        0.626657   -2.155179   -0.266366
      5          1           0        0.585336   -1.297586    1.301560
      6          7           0       -1.390984   -0.232917   -0.016860
      7          8           0       -2.090343    0.728654   -0.307612
      8          8           0       -1.802173   -1.319321    0.377683
      9          6           0        0.560336    1.233249   -0.085803
     10          7           0        1.097733    2.257438   -0.323103
     11          6           0        2.387410   -0.948515    0.158552
     12          1           0        2.638207   -0.098029    0.793673
     13          1           0        2.681203   -0.713546   -0.867878
     14          1           0        2.966496   -1.814800    0.491878
     15          9           0       -0.068265    0.655944    1.800623
 ---------------------------------------------------------------------

 SCF Done:  E(RHF) =  -612.019750455     A.U. after    2 cycles

 The electronic state is 1-A.
 Alpha  occ. eigenvalues --  -26.01658 -25.77840 -20.48803 -20.48784 -15.78624
 Alpha  occ. eigenvalues --  -15.48689 -11.29788 -11.16659 -11.12293 -11.11772
 Alpha  occ. eigenvalues --   -1.54923  -1.41255  -1.27268  -1.23215  -1.04076
 Alpha  occ. eigenvalues --   -0.98643  -0.89684  -0.77300  -0.74596  -0.68497
 Alpha  occ. eigenvalues --   -0.67063  -0.62380  -0.60482  -0.58922  -0.56267
 Alpha  occ. eigenvalues --   -0.50447  -0.49148  -0.43702  -0.41360  -0.40687
 Alpha  occ. eigenvalues --   -0.39524  -0.38930  -0.38509  -0.37480  -0.36333
 Alpha  occ. eigenvalues --   -0.35480  -0.33983  -0.30637  -0.27310
 Alpha virt. eigenvalues --    0.11758   0.13931   0.14298   0.16826   0.17224
 Alpha virt. eigenvalues --    0.19366   0.20484   0.21031   0.22036   0.23242
 Alpha virt. eigenvalues --    0.24529   0.24689   0.25022   0.25797   0.25924

 Mulliken charges:
               1
     1  C    1.073996
     2  C    0.208238
     3  F   -0.513002
     4  H    0.023867
     5  H    0.120003
     6  N    0.532716
     7  O   -0.646842
     8  O   -0.630664
     9  C   -0.056455
    10  N   -0.409753
    11  C    0.353482
    12  H    0.017964
    13  H   -0.023754
    14  H   -0.111505
    15  F   -0.938290
 Sum of Mulliken charges =  -1.00000

 Dipole moment (field-independent basis, Debye):
    X=              2.4703    Y=             -5.2924    Z=             -3.2983  Tot=              6.7075

 Test job not archived.
 1\1\GINC-SE015\SP\RHF\Aug-CC-pVDZ\C4H5F2N2O2(1-)\OHZDE\09-Apr-2025\0\\
 #t hf aug-cc-pvdz iop(5/13=1,5/36=2,99/5=2) pseudo=read geom=check gue
 ss=(read,tcheck) scf=(maxcycle=1)\\title\\-1,1\C,0,-0.040838,0.00512,-
 0.013941\C,0,-0.351482,0.099041,-1.488507\F,0,1.361503,-0.051737,0.127
 302\H,0,0.373027,0.796167,-1.920264\H,0,-1.353802,0.506541,-1.560065\N
 ,0,-0.384909,1.279813,0.729234\O,0,-0.35114,1.225699,1.951605\O,0,-0.5
 2341,2.30195,0.065105\C,0,-0.606042,-1.151406,0.681049\N,0,-0.601721,-
 2.217549,1.188386\C,0,-0.272058,-1.269381,-2.153124\H,0,-1.082518,-1.8

 Normal termination of Gaussian 16 at Wed Apr  9 02:41:36 2025.
