 Gaussian 16, Revision C.01,

 ----------------------------------------------------------------------
 #t hf aug-cc-pvdz symm=none int=(grid=ultrafine) guess=(read,tcheck) s
 table=(opt,rrhf)
 ----------------------------------------------------------------------
 -----
 title
 -----
 Symbolic Z-matrix:
 Charge = -1 Multiplicity = 1

 SCF Done:  E(RHF) =  -380.438507888     A.U. after   15 cycles
 Normal termination of Gaussian 16 at Wed Apr  9 02:47:45 2025.
 Gaussian 16:  ES64L-G16RevC.01  3-Jul-2019

 ----------------------------------------------------------------------
 #t hf aug-cc-pvdz iop(5/13=1,5/36=2,99/5=2) pseudo=read geom=check gue
 ss=(read,tcheck) scf=(maxcycle=1)
 ----------------------------------------------------------------------
 -----
 title
 -----
 Structure from the checkpoint file:  "E2SN2_300_mol2.chk"
 Charge = -1 Multiplicity = 1

                         Standard orientation:
 ---------------------------------------------------------------------
 Center     Atomic      Atomic             Coordinates (Angstroms)
 Number     Number       Type             X           Y           Z
 ---------------------------------------------------------------------
      1          6           0        0.157973    0.072169    0.207210
      2          6           0       -0.819239   -0.537789   -0.804219
      3          9           0        0.157171   -0.819530    1.343919
      4          1           0       -0.695129   -0.002102   -1.749927
      5          1           0       -0.526572   -1.584300   -0.947153
      6          6           0        1.553170   -0.031937   -0.291963
      7          7           0        2.649117   -0.083763   -0.713999
      8          7           0       -0.210330    1.357943    0.582097
      9          1           0       -0.928243    1.824208   -0.054568
     10          1           0        0.559926    1.964861    0.818781
     11          7           0       -2.211700   -0.434954   -0.414815
     12          1           0       -2.474899    0.546401   -0.568133
     13          1           0       -2.280092   -0.618426    0.579979
     14          1           0       -2.010570    2.355887   -1.013398
 ---------------------------------------------------------------------

 SCF Done:  E(RHF) =  -380.557159674     A.U. after    2 cycles

 The electronic state is 1-A.
 Alpha  occ. eigenvalues --  -25.98150 -15.54037 -15.47544 -15.46569 -11.26976
 Alpha  occ. eigenvalues --  -11.18664 -11.14652  -1.50915  -1.09066  -1.05722
 Alpha  occ. eigenvalues --   -1.00287  -0.85794  -0.74128  -0.66303  -0.61003
 Alpha  occ. eigenvalues --   -0.59819  -0.55891  -0.52133  -0.50277  -0.45968
 Alpha  occ. eigenvalues --   -0.43012  -0.42205  -0.39646  -0.36454  -0.35971
 Alpha  occ. eigenvalues --   -0.28643  -0.25691  -0.10828
 Alpha virt. eigenvalues --    0.13487   0.14327   0.15019   0.16482   0.18098
 Alpha virt. eigenvalues --    0.19054   0.20282   0.20886   0.22561   0.23105
 Alpha virt. eigenvalues --    0.23932   0.24826   0.25066   0.26244   0.26778

 Mulliken charges:
               1
     1  C    1.161355
     2  C    0.759824
     3  F   -0.482361
     4  H   -0.058638
     5  H   -0.147011
     6  C   -0.559348
     7  N   -0.191881
     8  N   -0.467574
     9  H    0.023283
    10  H   -0.004530
    11  N   -0.432063
    12  H    0.070352
    13  H    0.054896
    14  H   -0.726305
 Sum of Mulliken charges =  -1.00000

 Dipole moment (field-independent basis, Debye):
    X=              4.6604    Y=             -5.6032    Z=              3.0285  Tot=              7.8922

 Test job not archived.
 1\1\GINC-SE453\SP\RHF\Aug-CC-pVDZ\C3H7F1N3(1-)\OHZDE\09-Apr-2025\0\\#t
  hf aug-cc-pvdz iop(5/13=1,5/36=2,99/5=2) pseudo=read geom=check guess
 =(read,tcheck) scf=(maxcycle=1)\\title\\-1,1\C,0,0.00379,0.072734,0.05
 245\C,0,-0.519209,0.332597,-1.364916\F,0,1.37787,-0.345071,-0.104317\H
 ,0,-1.485365,0.837678,-1.274564\H,0,0.191384,1.008924,-1.853699\C,0,0.
 13123,1.349763,0.800476\N,0,0.190671,2.361453,1.396169\N,0,-0.738976,-
 0.895515,0.715923\H,0,-1.68531,-1.116823,0.275901\H,0,-0.787373,-0.777
 297,1.716595\N,0,-0.718114,-0.869676,-2.149857\H,0,-1.572713,-1.306786

 Normal termination of Gaussian 16 at Wed Apr  9 02:47:49 2025.
