 Gaussian 16, Revision C.01,

 ----------------------------------------------------------------------
 #t hf aug-cc-pvdz symm=none int=(grid=ultrafine) guess=(read,tcheck) s
 table=(opt,rrhf)
 ----------------------------------------------------------------------
 -----
 title
 -----
 Symbolic Z-matrix:
 Charge = -1 Multiplicity = 1

 SCF Done:  E(RHF) =  -860.116469068     A.U. after   16 cycles
 Normal termination of Gaussian 16 at Wed Apr  9 02:59:13 2025.
 Gaussian 16:  ES64L-G16RevC.01  3-Jul-2019

 ----------------------------------------------------------------------
 #t hf aug-cc-pvdz iop(5/13=1,5/36=2,99/5=2) pseudo=read geom=check gue
 ss=(read,tcheck) scf=(maxcycle=1)
 ----------------------------------------------------------------------
 -----
 title
 -----
 Structure from the checkpoint file:  "E2SN2_66_mol2.chk"
 Charge = -1 Multiplicity = 1

                         Standard orientation:
 ---------------------------------------------------------------------
 Center     Atomic      Atomic             Coordinates (Angstroms)
 Number     Number       Type             X           Y           Z
 ---------------------------------------------------------------------
      1          6           0       -0.170506    0.097433   -0.054463
      2          6           0        0.648440   -0.100197   -1.338118
      3         17           0       -0.162986    1.924945    0.310090
      4          1           0        0.362920   -1.098313   -1.686725
      5          1           0        0.331286    0.666486   -2.052331
      6          6           0       -1.574667   -0.250765   -0.266215
      7          7           0       -2.724645   -0.334221   -0.495539
      8          6           0        0.401076   -0.561416    1.123425
      9          7           0        0.961099   -0.687812    2.154220
     10          6           0        2.145583   -0.042187   -1.083093
     11          1           0        2.438239    0.881264   -0.577180
     12          1           0        2.437068   -0.889559   -0.460983
     13          1           0        2.691474   -0.103334   -2.029363
     14          9           0       -0.204995   -2.209287   -0.040549
 ---------------------------------------------------------------------

 SCF Done:  E(RHF) =  -860.250750634     A.U. after    2 cycles

 The electronic state is 1-A.
 Alpha  occ. eigenvalues -- -103.54565 -25.77574 -15.51322 -15.48806 -11.26131
 Alpha  occ. eigenvalues --  -11.17729 -11.17071 -11.13240 -11.11727 -10.57837
 Alpha  occ. eigenvalues --   -8.23543  -8.23265  -8.23261  -1.26997  -1.09083
 Alpha  occ. eigenvalues --   -1.04164  -1.01989  -0.94348  -0.86110  -0.73402
 Alpha  occ. eigenvalues --   -0.65436  -0.55021  -0.51802  -0.47381  -0.43797
 Alpha  occ. eigenvalues --   -0.42066  -0.41853  -0.40895  -0.39225  -0.38739
 Alpha  occ. eigenvalues --   -0.36434  -0.35843  -0.35242  -0.34258  -0.32586
 Alpha  occ. eigenvalues --   -0.31260  -0.30592  -0.27495
 Alpha virt. eigenvalues --    0.11748   0.13959   0.14324   0.16531   0.17118
 Alpha virt. eigenvalues --    0.18098   0.19156   0.19948   0.22610   0.22936
 Alpha virt. eigenvalues --    0.23493   0.24176   0.24811   0.25305   0.25764

 Mulliken charges:
               1
     1  C    0.207639
     2  C    0.467537
     3  Cl  -0.181329
     4  H   -0.025111
     5  H   -0.115717
     6  C   -0.098456
     7  N   -0.318160
     8  C    0.141681
     9  N   -0.432470
    10  C    0.427528
    11  H   -0.053160
    12  H   -0.012811
    13  H   -0.092281
    14  F   -0.914890
 Sum of Mulliken charges =  -1.00000

 Dipole moment (field-independent basis, Debye):
    X=              3.1091    Y=              6.1188    Z=             -3.5089  Tot=              7.7083

 Test job not archived.
 1\1\GINC-SE090\SP\RHF\Aug-CC-pVDZ\C5H5Cl1F1N2(1-)\OHZDE\09-Apr-2025\0\
 \#t hf aug-cc-pvdz iop(5/13=1,5/36=2,99/5=2) pseudo=read geom=check gu
 ess=(read,tcheck) scf=(maxcycle=1)\\title\\-1,1\C,0,-0.096948,-0.00898
 7,-1.416425\C,0,-0.082573,0.08645,0.115954\Cl,0,-1.881154,0.098734,-1.
 943453\H,0,0.95557,0.336589,0.358797\H,0,-0.755734,0.901215,0.401438\C
 ,0,0.557927,1.149098,-2.022828\N,0,0.897907,2.167726,-2.501173\C,0,0.4
 12196,-1.280465,-1.938274\N,0,0.405629,-2.357963,-2.418997\C,0,-0.4756
 58,-1.222796,0.780184\H,0,-1.443283,-1.586385,0.425415\H,0,0.282272,-1

 Normal termination of Gaussian 16 at Wed Apr  9 02:59:20 2025.
