 Gaussian 16, Revision C.01,

 ----------------------------------------------------------------------
 #t hf aug-cc-pvdz symm=none int=(grid=ultrafine) guess=(read,tcheck) s
 table=(opt,rrhf)
 ----------------------------------------------------------------------
 -----
 title
 -----
 Symbolic Z-matrix:
 Charge = -1 Multiplicity = 1

 SCF Done:  E(RHF) =  -1222.55519289     A.U. after   16 cycles
 Normal termination of Gaussian 16 at Wed Apr  9 02:28:41 2025.
 Gaussian 16:  ES64L-G16RevC.01  3-Jul-2019

 ----------------------------------------------------------------------
 #t hf aug-cc-pvdz iop(5/13=1,5/36=2,99/5=2) pseudo=read geom=check gue
 ss=(read,tcheck) scf=(maxcycle=1)
 ----------------------------------------------------------------------
 -----
 title
 -----
 Structure from the checkpoint file:  "E2SN2_110_mol1.chk"
 Charge = -1 Multiplicity = 1

                         Standard orientation:
 ---------------------------------------------------------------------
 Center     Atomic      Atomic             Coordinates (Angstroms)
 Number     Number       Type             X           Y           Z
 ---------------------------------------------------------------------
      1          6           0       -0.487888   -0.529387    0.322945
      2          6           0        0.187276    0.443396   -0.403645
      3         17           0       -2.805084   -0.107359   -0.180032
      4         17           0        3.008970   -0.598073    0.051756
      5          1           0        1.659270   -0.159790   -0.060640
      6          6           0       -0.489830   -1.936329   -0.199345
      7          1           0       -0.629720   -1.954642   -1.276306
      8          1           0        0.484606   -2.388244    0.034159
      9          1           0       -1.278023   -2.515225    0.279932
     10          6           0       -0.573231   -0.383736    1.813745
     11          1           0       -1.349821   -1.038430    2.207901
     12          1           0        0.391755   -0.667525    2.256209
     13          1           0       -0.806230    0.640500    2.104113
     14          7           0        0.183206    0.327891   -1.837364
     15          1           0        0.872307    0.947416   -2.244638
     16          1           0       -0.744050    0.596311   -2.163180
     17          6           0        0.286626    1.768999    0.144690
     18          7           0        0.444815    2.865584    0.547765
 ---------------------------------------------------------------------

 SCF Done:  E(RHF) =  -1222.67519864     A.U. after    2 cycles

 The electronic state is 1-A.
 Alpha  occ. eigenvalues -- -103.49931-103.41542 -15.50702 -15.50245 -11.20421
 Alpha  occ. eigenvalues --  -11.16391 -11.15088 -11.12611 -11.11950 -10.53241
 Alpha  occ. eigenvalues --  -10.44733  -8.18940  -8.18735  -8.18729  -8.10356
 Alpha  occ. eigenvalues --   -8.10268  -8.10261  -1.07836  -1.03410  -0.97972
 Alpha  occ. eigenvalues --   -0.96976  -0.87098  -0.84134  -0.82101  -0.67001
 Alpha  occ. eigenvalues --   -0.56917  -0.55946  -0.52354  -0.49374  -0.45660
 Alpha  occ. eigenvalues --   -0.45171  -0.44077  -0.42329  -0.41165  -0.39901
 Alpha  occ. eigenvalues --   -0.36584  -0.33707  -0.32535  -0.32360  -0.29881
 Alpha  occ. eigenvalues --   -0.27532  -0.24791  -0.24577  -0.18434
 Alpha virt. eigenvalues --    0.12610   0.12965   0.14057   0.15007   0.15870
 Alpha virt. eigenvalues --    0.16458   0.16844   0.16998   0.18275   0.19617
 Alpha virt. eigenvalues --    0.21573   0.22783   0.22978   0.23255   0.23457

 Mulliken charges:
               1
     1  C   -1.804758
     2  C    1.158854
     3  Cl  -0.754398
     4  Cl  -0.492293
     5  H    0.656575
     6  C    0.891727
     7  H    0.019893
     8  H    0.046420
     9  H   -0.029567
    10  C    0.674719
    11  H   -0.008002
    12  H    0.082882
    13  H    0.018111
    14  N   -0.550159
    15  H   -0.030311
    16  H    0.052040
    17  C   -0.608758
    18  N   -0.322977
 Sum of Mulliken charges =  -1.00000

 Dipole moment (field-independent basis, Debye):
    X=              2.4106    Y=             -3.1426    Z=              0.0228  Tot=              3.9607

 Test job not archived.
 1\1\GINC-SE070\SP\RHF\Aug-CC-pVDZ\C5H9Cl2N2(1-)\OHZDE\09-Apr-2025\0\\#
 t hf aug-cc-pvdz iop(5/13=1,5/36=2,99/5=2) pseudo=read geom=check gues
 s=(read,tcheck) scf=(maxcycle=1)\\title\\-1,1\C,0,-0.36477077,0.000468
 03,-0.26619493\C,0,-0.18199001,-0.06327198,1.10952761\Cl,0,1.86564528,
 -0.2261767,-1.14617696\Cl,0,-3.11584736,-0.20775254,1.90048348\H,0,-1.
 77629793,-0.08327844,1.43515889\C,0,-0.91139759,-1.20735945,-0.9694938
 5\H,0,-0.46719604,-2.12033986,-0.58361528\H,0,-1.99553711,-1.24405076,
 -0.79180654\H,0,-0.72538539,-1.13642676,-2.04021409\C,0,-0.69506829,1.

 Normal termination of Gaussian 16 at Wed Apr  9 02:28:51 2025.
