 Gaussian 16, Revision C.01,

 ----------------------------------------------------------------------
 #t hf aug-cc-pvdz symm=none int=(grid=ultrafine) guess=(read,tcheck) s
 table=(opt,rrhf)
 ----------------------------------------------------------------------
 -----
 title
 -----
 Symbolic Z-matrix:
 Charge = -1 Multiplicity = 1

 SCF Done:  E(RHF) =  -1191.39782306     A.U. after   17 cycles
 Normal termination of Gaussian 16 at Wed Apr  9 02:51:01 2025.
 Gaussian 16:  ES64L-G16RevC.01  3-Jul-2019

 ----------------------------------------------------------------------
 #t hf aug-cc-pvdz iop(5/13=1,5/36=2,99/5=2) pseudo=read geom=check gue
 ss=(read,tcheck) scf=(maxcycle=1)
 ----------------------------------------------------------------------
 -----
 title
 -----
 Structure from the checkpoint file:  "E2SN2_306_mol2.chk"
 Charge = -1 Multiplicity = 1

                         Standard orientation:
 ---------------------------------------------------------------------
 Center     Atomic      Atomic             Coordinates (Angstroms)
 Number     Number       Type             X           Y           Z
 ---------------------------------------------------------------------
      1          6           0        0.856554   -0.529244   -0.071282
      2          6           0       -0.430166    0.185848    0.388278
      3         17           0        0.845174   -0.828546   -1.857699
      4          1           0       -0.280880    0.199106    1.542936
      5          6           0        1.984496    0.385304    0.178841
      6          7           0        2.920889    1.075487    0.340217
      7          7           0        1.111883   -1.751918    0.635580
      8          1           0        0.382058   -2.403057    0.369215
      9          1           0        0.943993   -1.477605    1.630135
     10          7           0       -1.688914   -0.559263    0.134797
     11          8           0       -2.720558    0.047876    0.408357
     12          8           0       -1.640142   -1.726872   -0.248722
     13          7           0       -0.582086    1.531176   -0.220837
     14          8           0       -1.184136    1.624553   -1.290460
     15          8           0       -0.050226    2.461720    0.384009
     16          9           0        0.283294   -0.423467    2.756645
 ---------------------------------------------------------------------

 SCF Done:  E(RHF) =  -1191.63069696     A.U. after    2 cycles

 The electronic state is 1-A.
 Alpha  occ. eigenvalues -- -103.56925 -25.82027 -20.53336 -20.53070 -20.53034
 Alpha  occ. eigenvalues --  -20.52760 -15.83182 -15.82638 -15.55045 -15.50990
 Alpha  occ. eigenvalues --  -11.30567 -11.25867 -11.19847 -10.60263  -8.25983
 Alpha  occ. eigenvalues --   -8.25678  -8.25675  -1.46510  -1.44541  -1.31722
 Alpha  occ. eigenvalues --   -1.27603  -1.26810  -1.15249  -1.07442  -1.03765
 Alpha  occ. eigenvalues --   -1.02668  -0.86996  -0.84217  -0.74235  -0.69813
 Alpha  occ. eigenvalues --   -0.67707  -0.66679  -0.64060  -0.62927  -0.61071
 Alpha  occ. eigenvalues --   -0.60046  -0.54746  -0.52575  -0.47719  -0.45985
 Alpha  occ. eigenvalues --   -0.45261  -0.43389  -0.43060  -0.41458  -0.41169
 Alpha  occ. eigenvalues --   -0.40857  -0.39421  -0.38521  -0.37635  -0.36624
 Alpha  occ. eigenvalues --   -0.35621  -0.35350  -0.34812  -0.31172
 Alpha virt. eigenvalues --    0.13575   0.15469   0.15709   0.16229   0.17268
 Alpha virt. eigenvalues --    0.17756   0.18682   0.21068   0.21580   0.21852
 Alpha virt. eigenvalues --    0.22376   0.23586   0.24618   0.24885   0.25827

 Mulliken charges:
               1
     1  C    0.858118
     2  C    2.001382
     3  Cl  -0.181182
     4  H    0.069718
     5  C   -0.492364
     6  N   -0.229614
     7  N   -0.589365
     8  H    0.089036
     9  H    0.164387
    10  N    0.359670
    11  O   -0.600873
    12  O   -0.633592
    13  N    0.178778
    14  O   -0.586503
    15  O   -0.540760
    16  F   -0.866835
 Sum of Mulliken charges =  -1.00000

 Dipole moment (field-independent basis, Debye):
    X=             -1.4837    Y=             -1.7016    Z=             -4.9617  Tot=              5.4512

 Test job not archived.
 1\1\GINC-SE159\SP\RHF\Aug-CC-pVDZ\C3H3Cl1F1N4O4(1-)\OHZDE\09-Apr-2025\
 0\\#t hf aug-cc-pvdz iop(5/13=1,5/36=2,99/5=2) pseudo=read geom=check
 guess=(read,tcheck) scf=(maxcycle=1)\\title\\-1,1\C,0,0.039686,-0.0460
 31,-0.002857\C,0,-0.655468,0.134488,-1.367545\Cl,0,1.824067,-0.290007,
 -0.196389\H,0,-1.774054,0.177019,-1.047149\C,0,-0.117978,1.214225,0.74
 421\N,0,-0.197717,2.197279,1.381763\N,0,-0.523386,-1.103436,0.787474\H
 ,0,-0.31353,-1.971822,0.308472\H,0,-1.550419,-0.931738,0.696388\N,0,-0
 .526793,-1.016432,-2.29637\O,0,-0.993228,-0.838242,-3.418167\O,0,-0.04

 Normal termination of Gaussian 16 at Wed Apr  9 02:51:15 2025.
