 Gaussian 16, Revision C.01,

 ----------------------------------------------------------------------
 #t hf aug-cc-pvdz symm=none int=(grid=ultrafine) guess=(read,tcheck) s
 table=(opt,rrhf)
 ----------------------------------------------------------------------
 -----
 title
 -----
 Symbolic Z-matrix:
 Charge = -1 Multiplicity = 1

 SCF Done:  E(RHF) =  -1295.29745599     A.U. after   16 cycles
 Normal termination of Gaussian 16 at Wed Apr  9 02:38:37 2025.
 Gaussian 16:  ES64L-G16RevC.01  3-Jul-2019

 ----------------------------------------------------------------------
 #t hf aug-cc-pvdz iop(5/13=1,5/36=2,99/5=2) pseudo=read geom=check gue
 ss=(read,tcheck) scf=(maxcycle=1)
 ----------------------------------------------------------------------
 -----
 title
 -----
 Structure from the checkpoint file:  "E2SN2_189_mol1.chk"
 Charge = -1 Multiplicity = 1

                         Standard orientation:
 ---------------------------------------------------------------------
 Center     Atomic      Atomic             Coordinates (Angstroms)
 Number     Number       Type             X           Y           Z
 ---------------------------------------------------------------------
      1          6           0       -0.644339    0.559182    0.018750
      2          1           0       -0.644913   -1.558254   -0.248880
      3         17           0        1.291251    1.886718   -0.298937
      4         17           0       -2.848736   -0.310608   -0.220945
      5          6           0        0.019849   -0.719672   -0.455395
      6          1           0       -1.008250    1.193158   -0.764545
      7          6           0       -0.833120    0.916314    1.464230
      8          1           0       -1.358651    0.131205    2.003015
      9          1           0        0.120668    1.092349    1.954265
     10          1           0       -1.433168    1.825142    1.513056
     11          7           0        1.241632   -1.083902    0.433732
     12          8           0        2.301697   -1.340901   -0.127520
     13          8           0        1.036163   -1.208806    1.638132
     14          7           0        0.341892   -0.658444   -1.828545
     15          1           0        0.765934   -1.522905   -2.134040
     16          1           0        0.993747    0.104558   -1.971590
 ---------------------------------------------------------------------

 SCF Done:  E(RHF) =  -1295.43840010     A.U. after    2 cycles

 The electronic state is 1-A.
 Alpha  occ. eigenvalues -- -103.43600-103.42539 -20.50320 -20.49945 -15.78871
 Alpha  occ. eigenvalues --  -15.51157 -11.23883 -11.23613 -11.11699 -10.46877
 Alpha  occ. eigenvalues --  -10.45792  -8.12505  -8.12406  -8.12392  -8.11416
 Alpha  occ. eigenvalues --   -8.11317  -8.11306  -1.42322  -1.24283  -1.09647
 Alpha  occ. eigenvalues --   -0.96130  -0.89929  -0.88802  -0.86157  -0.76921
 Alpha  occ. eigenvalues --   -0.70263  -0.64233  -0.62169  -0.60798  -0.56272
 Alpha  occ. eigenvalues --   -0.53916  -0.47651  -0.45519  -0.45306  -0.42312
 Alpha  occ. eigenvalues --   -0.39895  -0.39128  -0.35699  -0.31218  -0.29921
 Alpha  occ. eigenvalues --   -0.26972  -0.26757  -0.25809  -0.25429  -0.23432
 Alpha virt. eigenvalues --    0.12616   0.13894   0.14371   0.15684   0.16530
 Alpha virt. eigenvalues --    0.17122   0.18101   0.19601   0.20749   0.21666
 Alpha virt. eigenvalues --    0.22299   0.23368   0.24185   0.24919   0.26028

 Mulliken charges:
               1
     1  C   -0.059875
     2  H   -0.075820
     3  Cl  -0.742965
     4  Cl  -0.729512
     5  C    1.445772
     6  H   -0.357799
     7  C    0.553852
     8  H    0.015249
     9  H    0.035311
    10  H   -0.044375
    11  N    0.429747
    12  O   -0.633613
    13  O   -0.629310
    14  N   -0.260412
    15  H   -0.000240
    16  H    0.053988
 Sum of Mulliken charges =  -1.00000

 Dipole moment (field-independent basis, Debye):
    X=              1.7240    Y=             -2.2086    Z=             -0.0406  Tot=              2.8021

 Test job not archived.
 1\1\GINC-SE024\SP\RHF\Aug-CC-pVDZ\C3H7Cl2N2O2(1-)\OHZDE\09-Apr-2025\0\
 \#t hf aug-cc-pvdz iop(5/13=1,5/36=2,99/5=2) pseudo=read geom=check gu
 ess=(read,tcheck) scf=(maxcycle=1)\\title\\-1,1\C,0,0.52957058,-0.0223
 5771,0.07202171\H,0,1.75165869,1.71694221,0.263071\Cl,0,-1.8349632,0.0
 8100644,-0.01786847\Cl,0,2.79428387,-0.45116295,-0.52844121\C,0,0.7064
 8391,1.48428879,0.05994697\H,0,0.3836137,-0.46499592,-0.89269319\C,0,0
 .59388677,-0.86120279,1.31492051\H,0,1.52370438,-0.70087246,1.85584581
 \H,0,-0.23561905,-0.64162617,1.98165863\H,0,0.54682149,-1.90935861,1.0

 Normal termination of Gaussian 16 at Wed Apr  9 02:38:46 2025.
