 Gaussian 16, Revision C.01,

 ----------------------------------------------------------------------
 #t hf aug-cc-pvdz symm=none int=(grid=ultrafine) guess=(read,tcheck) s
 table=(opt,rrhf)
 ----------------------------------------------------------------------
 -----
 title
 -----
 Symbolic Z-matrix:
 Charge = -1 Multiplicity = 1

 SCF Done:  E(RHF) =  -419.416144305     A.U. after   17 cycles
 Normal termination of Gaussian 16 at Wed Apr  9 02:55:19 2025.
 Gaussian 16:  ES64L-G16RevC.01  3-Jul-2019

 ----------------------------------------------------------------------
 #t hf aug-cc-pvdz iop(5/13=1,5/36=2,99/5=2) pseudo=read geom=check gue
 ss=(read,tcheck) scf=(maxcycle=1)
 ----------------------------------------------------------------------
 -----
 title
 -----
 Structure from the checkpoint file:  "E2SN2_393_mol1.chk"
 Charge = -1 Multiplicity = 1

                         Standard orientation:
 ---------------------------------------------------------------------
 Center     Atomic      Atomic             Coordinates (Angstroms)
 Number     Number       Type             X           Y           Z
 ---------------------------------------------------------------------
      1          6           0        0.330166   -0.389002   -0.272096
      2          1           0       -1.217095    0.233379   -1.607607
      3          9           0        0.121472   -0.719564    1.345783
      4          1           0        0.872766    0.191143   -1.968715
      5          6           0       -1.034218    0.284496   -0.537712
      6          7           0        0.492864   -1.768567   -0.675438
      7          1           0        0.993098   -2.226318    0.077544
      8          1           0        1.040563   -1.775480   -1.522128
      9          6           0        1.503679    0.444624   -0.121488
     10          7           0        2.448612    1.058266    0.243494
     11          6           0       -0.969347    1.747322   -0.105168
     12          1           0       -0.730474    1.803200    0.959813
     13          1           0       -0.207371    2.292006   -0.667549
     14          1           0       -1.938250    2.230607   -0.277102
     15          7           0       -2.113252   -0.469629    0.123642
     16          1           0       -2.907899    0.154642    0.217493
     17          1           0       -1.777835   -0.692230    1.053099
 ---------------------------------------------------------------------

 SCF Done:  E(RHF) =  -419.542347152     A.U. after    2 cycles

 The electronic state is 1-A.
 Alpha  occ. eigenvalues --  -25.88391 -15.47492 -15.46192 -15.46077 -11.24497
 Alpha  occ. eigenvalues --  -11.13814 -11.13296 -11.09220  -1.39237  -1.04908
 Alpha  occ. eigenvalues --   -1.00757  -0.99394  -0.86618  -0.78790  -0.68716
 Alpha  occ. eigenvalues --   -0.58895  -0.56188  -0.52833  -0.49677  -0.46201
 Alpha  occ. eigenvalues --   -0.45673  -0.44655  -0.43903  -0.41644  -0.38319
 Alpha  occ. eigenvalues --   -0.37963  -0.36314  -0.31184  -0.29101  -0.26796
 Alpha  occ. eigenvalues --   -0.24760  -0.11603
 Alpha virt. eigenvalues --    0.12308   0.13675   0.14384   0.14630   0.16655
 Alpha virt. eigenvalues --    0.17104   0.17550   0.18264   0.19605   0.21096
 Alpha virt. eigenvalues --    0.23345   0.24591   0.25579   0.25784   0.26371

 Mulliken charges:
               1
     1  C    0.328651
     2  H   -0.173705
     3  F   -0.715490
     4  H   -0.244940
     5  C    0.217282
     6  N   -0.236959
     7  H    0.015645
     8  H    0.051517
     9  C   -0.072368
    10  N   -0.431860
    11  C    0.700974
    12  H    0.065060
    13  H    0.000809
    14  H   -0.154940
    15  N   -0.403291
    16  H   -0.042989
    17  H    0.096604
 Sum of Mulliken charges =  -1.00000

 Dipole moment (field-independent basis, Debye):
    X=             -4.4150    Y=             -0.2407    Z=              1.4780  Tot=              4.6620

 Test job not archived.
 1\1\GINC-SE249\SP\RHF\Aug-CC-pVDZ\C4H9F1N3(1-)\OHZDE\09-Apr-2025\0\\#t
  hf aug-cc-pvdz iop(5/13=1,5/36=2,99/5=2) pseudo=read geom=check guess
 =(read,tcheck) scf=(maxcycle=1)\\title\\-1,1\C,0,0.43626876,-0.0305153
 6,-0.09036533\H,0,1.6409621,1.71390299,-0.35622306\F,0,-1.21286066,-0.
 0959394,-0.30587912\H,0,2.21494134,-0.14636749,0.48617892\C,0,0.601777
 89,1.50492708,-0.11714774\N,0,0.76228366,-0.76654338,-1.29216918\H,0,0
 .03709616,-1.46582177,-1.40109629\H,0,1.6592617,-1.20394672,-1.1472069
 4\C,0,0.46460636,-0.71449986,1.18482537\N,0,0.24177653,-1.30665248,2.1

 Normal termination of Gaussian 16 at Wed Apr  9 02:55:27 2025.
