 Gaussian 16, Revision C.01,

 ----------------------------------------------------------------------
 #t hf aug-cc-pvdz symm=none int=(grid=ultrafine) guess=(read,tcheck) s
 table=(opt,rrhf)
 ----------------------------------------------------------------------
 -----
 title
 -----
 Symbolic Z-matrix:
 Charge = -1 Multiplicity = 1

 SCF Done:  E(RHF) =  -1259.23630533     A.U. after   16 cycles
 Normal termination of Gaussian 16 at Wed Apr  9 02:48:03 2025.
 Gaussian 16:  ES64L-G16RevC.01  3-Jul-2019

 ----------------------------------------------------------------------
 #t hf aug-cc-pvdz iop(5/13=1,5/36=2,99/5=2) pseudo=read geom=check gue
 ss=(read,tcheck) scf=(maxcycle=1)
 ----------------------------------------------------------------------
 -----
 title
 -----
 Structure from the checkpoint file:  "E2SN2_284_mol1.chk"
 Charge = -1 Multiplicity = 1

                         Standard orientation:
 ---------------------------------------------------------------------
 Center     Atomic      Atomic             Coordinates (Angstroms)
 Number     Number       Type             X           Y           Z
 ---------------------------------------------------------------------
      1          6           0       -0.380911   -0.240957   -0.288729
      2          1           0       -0.558995    1.807226    0.259889
      3         17           0        1.811211   -1.252808   -0.582236
      4         17           0       -2.567512    0.466174    0.201594
      5          6           0        0.249502    1.146066   -0.057441
      6          6           0       -0.489509   -1.141313    0.827432
      7          7           0       -0.608808   -1.871524    1.744770
      8          6           0       -0.806415   -0.677718   -1.682371
      9          1           0       -1.509431    0.036895   -2.104889
     10          1           0        0.056984   -0.782798   -2.333073
     11          1           0       -1.309143   -1.641447   -1.605613
     12          6           0        0.865806    1.756957   -1.318002
     13          1           0        1.689646    1.144262   -1.677977
     14          1           0        0.105593    1.850196   -2.095922
     15          1           0        1.235477    2.758177   -1.082986
     16          6           0        1.207034    1.160851    1.050328
     17          7           0        1.933656    1.325373    1.958685
 ---------------------------------------------------------------------

 SCF Done:  E(RHF) =  -1259.36282328     A.U. after    2 cycles

 The electronic state is 1-A.
 Alpha  occ. eigenvalues -- -103.45550-103.43774 -15.52584 -15.52216 -11.29537
 Alpha  occ. eigenvalues --  -11.20100 -11.18406 -11.18070 -11.14686 -11.14503
 Alpha  occ. eigenvalues --  -10.48833 -10.47065  -8.14463  -8.14333  -8.14327
 Alpha  occ. eigenvalues --   -8.12690  -8.12575  -8.12570  -1.08246  -1.06051
 Alpha  occ. eigenvalues --   -1.01772  -0.93691  -0.91284  -0.88449  -0.83588
 Alpha  occ. eigenvalues --   -0.76421  -0.63978  -0.57737  -0.52546  -0.49523
 Alpha  occ. eigenvalues --   -0.47758  -0.46115  -0.45656  -0.44288  -0.42622
 Alpha  occ. eigenvalues --   -0.42257  -0.39038  -0.34261  -0.34061  -0.33303
 Alpha  occ. eigenvalues --   -0.28709  -0.28289  -0.27887  -0.26439  -0.25792
 Alpha  occ. eigenvalues --   -0.25221
 Alpha virt. eigenvalues --    0.11418   0.12742   0.14259   0.14403   0.15813
 Alpha virt. eigenvalues --    0.15890   0.16403   0.16810   0.19126   0.19797
 Alpha virt. eigenvalues --    0.20697   0.21875   0.22687   0.23003   0.23924

 Mulliken charges:
               1
     1  C    0.096943
     2  H   -0.041837
     3  Cl  -0.656949
     4  Cl  -0.587872
     5  C    0.012827
     6  C   -0.353721
     7  N   -0.345735
     8  C    0.758106
     9  H    0.051591
    10  H    0.061927
    11  H   -0.096108
    12  C    0.737531
    13  H    0.013025
    14  H   -0.004422
    15  H   -0.109536
    16  C   -0.236290
    17  N   -0.299481
 Sum of Mulliken charges =  -1.00000

 Dipole moment (field-independent basis, Debye):
    X=             -0.8366    Y=              3.6677    Z=             -5.7484  Tot=              6.8699

 Test job not archived.
 1\1\GINC-SE051\SP\RHF\Aug-CC-pVDZ\C6H7Cl2N2(1-)\OHZDE\09-Apr-2025\0\\#
 t hf aug-cc-pvdz iop(5/13=1,5/36=2,99/5=2) pseudo=read geom=check gues
 s=(read,tcheck) scf=(maxcycle=1)\\title\\-1,1\C,0,0.63620695,-0.076502
 49,0.01917347\H,0,1.67212977,1.77585033,-0.13380703\Cl,0,-1.79281691,-
 0.14315715,-0.08468717\Cl,0,2.97452291,-0.25876288,-0.12482404\C,0,0.6
 3237253,1.46404121,-0.01901536\C,0,0.56692656,-0.79500877,-1.22469097\
 N,0,0.54106271,-1.38883889,-2.24235785\C,0,0.63354082,-0.82020528,1.34
 618289\H,0,1.4800853,-0.51071698,1.95528472\H,0,-0.29567206,-0.6482253

 Normal termination of Gaussian 16 at Wed Apr  9 02:48:14 2025.
