 Gaussian 16, Revision C.01,

 ----------------------------------------------------------------------
 #t hf aug-cc-pvdz symm=none int=(grid=ultrafine) guess=(read,tcheck) s
 table=(opt,rrhf)
 ----------------------------------------------------------------------
 -----
 title
 -----
 Symbolic Z-matrix:
 Charge = -1 Multiplicity = 1

 SCF Done:  E(RHF) =  -684.552544773     A.U. after   15 cycles
 Normal termination of Gaussian 16 at Wed Apr  9 02:40:01 2025.
 Gaussian 16:  ES64L-G16RevC.01  3-Jul-2019

 ----------------------------------------------------------------------
 #t hf aug-cc-pvdz iop(5/13=1,5/36=2,99/5=2) pseudo=read geom=check gue
 ss=(read,tcheck) scf=(maxcycle=1)
 ----------------------------------------------------------------------
 -----
 title
 -----
 Structure from the checkpoint file:  "E2SN2_211_mol1.chk"
 Charge = -1 Multiplicity = 1

                         Standard orientation:
 ---------------------------------------------------------------------
 Center     Atomic      Atomic             Coordinates (Angstroms)
 Number     Number       Type             X           Y           Z
 ---------------------------------------------------------------------
      1          6           0       -0.432686    0.331959   -0.323735
      2          1           0        0.795466    1.453763    1.024904
      3          9           0        0.108575   -1.240323   -0.834056
      4          9           0       -1.143899    1.836178    0.191377
      5          6           0        0.678423    0.430268    0.679617
      6          1           0       -0.361331    0.697046   -1.329537
      7          1           0        0.485839   -0.253888    1.498941
      8          7           0       -1.709504   -0.315355    0.061624
      9          8           0       -1.825206   -0.739562    1.207365
     10          8           0       -2.575744   -0.377018   -0.801468
     11          7           0        1.989691    0.046014    0.088736
     12          8           0        2.692318   -0.747665    0.711246
     13          8           0        2.328908    0.620796   -0.941895
 ---------------------------------------------------------------------

 SCF Done:  E(RHF) =  -684.762597277     A.U. after    2 cycles

 The electronic state is 1-A.
 Alpha  occ. eigenvalues --  -25.86675 -25.86493 -20.49756 -20.49454 -20.48109
 Alpha  occ. eigenvalues --  -20.48083 -15.79170 -15.78505 -11.28417 -11.19140
 Alpha  occ. eigenvalues --   -1.42232  -1.41582  -1.36966  -1.36611  -1.23724
 Alpha  occ. eigenvalues --   -1.22598  -1.00197  -0.91314  -0.75735  -0.70274
 Alpha  occ. eigenvalues --   -0.65090  -0.64200  -0.62216  -0.61467  -0.60075
 Alpha  occ. eigenvalues --   -0.59353  -0.52417  -0.50392  -0.48692  -0.46132
 Alpha  occ. eigenvalues --   -0.45189  -0.44572  -0.42857  -0.39976  -0.39012
 Alpha  occ. eigenvalues --   -0.38189  -0.37597  -0.36256  -0.35139  -0.33742
 Alpha virt. eigenvalues --    0.14045   0.14940   0.15889   0.20388   0.21078
 Alpha virt. eigenvalues --    0.21571   0.22663   0.23157   0.24141   0.25271
 Alpha virt. eigenvalues --    0.25957   0.26878   0.27943   0.29112   0.29896

 Mulliken charges:
               1
     1  C    1.518310
     2  H    0.000935
     3  F   -0.772701
     4  F   -0.767761
     5  C    0.806890
     6  H   -0.330529
     7  H   -0.012174
     8  N    0.615347
     9  O   -0.692663
    10  O   -0.669747
    11  N    0.589643
    12  O   -0.636486
    13  O   -0.649064
 Sum of Mulliken charges =  -1.00000

 Dipole moment (field-independent basis, Debye):
    X=              1.8485    Y=              1.4048    Z=              1.6140  Tot=              2.8276

 Test job not archived.
 1\1\GINC-SE023\SP\RHF\Aug-CC-pVDZ\C2H3F2N2O4(1-)\OHZDE\09-Apr-2025\0\\
 #t hf aug-cc-pvdz iop(5/13=1,5/36=2,99/5=2) pseudo=read geom=check gue
 ss=(read,tcheck) scf=(maxcycle=1)\\title\\-1,1\C,0,0.62292512,-0.07410
 095,0.02156071\H,0,1.90272169,1.57414718,0.5022129\F,0,-1.0895463,0.20
 615356,-0.09826457\F,0,2.31910861,-0.46948866,-0.00009993\C,0,0.893321
 47,1.39676378,0.14150572\H,0,0.47091241,-0.72250336,0.86208758\H,0,0.7
 1546793,1.8751979,-0.8155309\N,0,0.53958553,-0.69409369,-1.32247925\O,
 0,0.71372433,0.01985595,-2.30533903\O,0,0.30552539,-1.89533598,-1.3589

 Normal termination of Gaussian 16 at Wed Apr  9 02:40:07 2025.
