 Gaussian 16, Revision C.01,

 ----------------------------------------------------------------------
 #t hf aug-cc-pvdz symm=none int=(grid=ultrafine) guess=(read,tcheck) s
 table=(opt,rrhf)
 ----------------------------------------------------------------------
 -----
 title
 -----
 Symbolic Z-matrix:
 Charge = -1 Multiplicity = 1

 SCF Done:  E(RHF) =  -1083.65660072     A.U. after   16 cycles
 Normal termination of Gaussian 16 at Wed Apr  9 02:39:02 2025.
 Gaussian 16:  ES64L-G16RevC.01  3-Jul-2019

 ----------------------------------------------------------------------
 #t hf aug-cc-pvdz iop(5/13=1,5/36=2,99/5=2) pseudo=read geom=check gue
 ss=(read,tcheck) scf=(maxcycle=1)
 ----------------------------------------------------------------------
 -----
 title
 -----
 Structure from the checkpoint file:  "E2SN2_185_mol2.chk"
 Charge = -1 Multiplicity = 1

                         Standard orientation:
 ---------------------------------------------------------------------
 Center     Atomic      Atomic             Coordinates (Angstroms)
 Number     Number       Type             X           Y           Z
 ---------------------------------------------------------------------
      1          6           0        0.973185   -0.613104    0.259750
      2          6           0       -0.125601    0.145904   -0.446706
      3         17           0        2.515585    0.242012   -0.276140
      4          1           0        0.111571    0.293037   -1.501612
      5          1           0        0.849441   -0.460890    1.324429
      6          6           0        1.071038   -2.081210   -0.073934
      7          1           0        0.196650   -2.523484    0.399343
      8          1           0        1.984499   -2.482442    0.372202
      9          1           0        1.087405   -2.265654   -1.149835
     10          7           0       -0.278159    1.538351    0.094709
     11          8           0       -0.032553    1.751465    1.273605
     12          8           0       -0.655228    2.378014   -0.724328
     13          7           0       -1.501685   -0.476634   -0.467825
     14          8           0       -2.445875    0.187667   -0.075480
     15          8           0       -1.563856   -1.518152   -1.110305
     16          9           0       -0.940803   -1.245365    1.613230
 ---------------------------------------------------------------------

 SCF Done:  E(RHF) =  -1083.86259271     A.U. after    2 cycles

 The electronic state is 1-A.
 Alpha  occ. eigenvalues -- -103.53809 -25.74925 -20.51449 -20.50694 -20.49021
 Alpha  occ. eigenvalues --  -20.48433 -15.80520 -15.80016 -11.26140 -11.19986
 Alpha  occ. eigenvalues --  -11.10956 -10.57153  -8.22858  -8.22614  -8.22592
 Alpha  occ. eigenvalues --   -1.43841  -1.41570  -1.25243  -1.24152  -1.23772
 Alpha  occ. eigenvalues --   -1.07556  -1.00511  -0.88919  -0.82670  -0.75465
 Alpha  occ. eigenvalues --   -0.70058  -0.66989  -0.65440  -0.62426  -0.60250
 Alpha  occ. eigenvalues --   -0.59825  -0.57454  -0.49887  -0.48662  -0.45982
 Alpha  occ. eigenvalues --   -0.42799  -0.41213  -0.40332  -0.39399  -0.38642
 Alpha  occ. eigenvalues --   -0.37170  -0.36028  -0.35397  -0.34689  -0.33941
 Alpha  occ. eigenvalues --   -0.33378  -0.32817  -0.32114
 Alpha virt. eigenvalues --    0.12669   0.13451   0.15069   0.16904   0.17496
 Alpha virt. eigenvalues --    0.18025   0.18367   0.21062   0.21668   0.22811
 Alpha virt. eigenvalues --    0.23838   0.24773   0.25481   0.25990   0.26128

 Mulliken charges:
               1
     1  C   -0.409929
     2  C    1.583856
     3  Cl  -0.308334
     4  H   -0.147830
     5  H    0.148333
     6  C    0.570179
     7  H    0.170171
     8  H   -0.086016
     9  H   -0.001420
    10  N    0.370266
    11  O   -0.557450
    12  O   -0.625407
    13  N    0.620741
    14  O   -0.643492
    15  O   -0.681812
    16  F   -1.001856
 Sum of Mulliken charges =  -1.00000

 Dipole moment (field-independent basis, Debye):
    X=              4.8957    Y=              0.7456    Z=             -4.6503  Tot=              6.7934

 Test job not archived.
 1\1\GINC-SE159\SP\RHF\Aug-CC-pVDZ\C3H5Cl1F1N2O4(1-)\OHZDE\09-Apr-2025\
 0\\#t hf aug-cc-pvdz iop(5/13=1,5/36=2,99/5=2) pseudo=read geom=check
 guess=(read,tcheck) scf=(maxcycle=1)\\title\\-1,1\C,0,-0.077704,-0.026
 485,0.005615\C,0,-0.385938,0.056453,-1.471076\Cl,0,1.727231,0.334794,0
 .10094\H,0,0.342908,-0.504273,-2.058523\H,0,-0.613629,0.772886,0.50141
 1\C,0,-0.35845,-1.357976,0.657204\H,0,-1.444498,-1.420905,0.683487\H,0
 ,0.042901,-1.342919,1.673633\H,0,0.083621,-2.193029,0.110295\N,0,-0.27
 1587,1.462475,-1.986184\O,0,-0.536823,2.395332,-1.241225\O,0,0.089621,

 Normal termination of Gaussian 16 at Wed Apr  9 02:39:13 2025.
