 Gaussian 16, Revision C.01,

 ----------------------------------------------------------------------
 #t hf aug-cc-pvdz symm=none int=(grid=ultrafine) guess=(read,tcheck) s
 table=(opt,rrhf)
 ----------------------------------------------------------------------
 -----
 title
 -----
 Symbolic Z-matrix:
 Charge = -1 Multiplicity = 1

 SCF Done:  E(RHF) =  -417.093924566     A.U. after   17 cycles
 Normal termination of Gaussian 16 at Wed Apr  9 02:34:45 2025.
 Gaussian 16:  ES64L-G16RevC.01  3-Jul-2019

 ----------------------------------------------------------------------
 #t hf aug-cc-pvdz iop(5/13=1,5/36=2,99/5=2) pseudo=read geom=check gue
 ss=(read,tcheck) scf=(maxcycle=1)
 ----------------------------------------------------------------------
 -----
 title
 -----
 Structure from the checkpoint file:  "E2SN2_164_mol1.chk"
 Charge = -1 Multiplicity = 1

                         Standard orientation:
 ---------------------------------------------------------------------
 Center     Atomic      Atomic             Coordinates (Angstroms)
 Number     Number       Type             X           Y           Z
 ---------------------------------------------------------------------
      1          6           0        0.647642   -0.295171   -0.204427
      2          1           0       -0.715189   -0.904296   -1.790795
      3          9           0        0.260674   -0.479353    1.378590
      4          1           0        1.124535    0.107177   -1.955073
      5          6           0       -0.674553   -0.882165   -0.706095
      6          1           0       -0.685521   -1.904929   -0.322661
      7          7           0        1.784402   -1.191140   -0.155316
      8          1           0        2.196891   -1.075757    0.763958
      9          1           0        2.425638   -0.918341   -0.883572
     10          6           0        0.836197    1.137275   -0.224956
     11          7           0        0.980837    2.294314   -0.031800
     12          6           0       -1.847641   -0.175129   -0.190172
     13          7           0       -2.831280    0.368464    0.149221
 ---------------------------------------------------------------------

 SCF Done:  E(RHF) =  -417.217679010     A.U. after    2 cycles

 The electronic state is 1-A.
 Alpha  occ. eigenvalues --  -25.89971 -15.51317 -15.49560 -15.48297 -11.27386
 Alpha  occ. eigenvalues --  -11.16943 -11.16054 -11.15345  -1.40986  -1.06524
 Alpha  occ. eigenvalues --   -1.05000  -1.01434  -0.92420  -0.78542  -0.62886
 Alpha  occ. eigenvalues --   -0.58762  -0.55548  -0.50968  -0.49713  -0.48953
 Alpha  occ. eigenvalues --   -0.45251  -0.44408  -0.41928  -0.39828  -0.33445
 Alpha  occ. eigenvalues --   -0.33108  -0.32117  -0.30941  -0.28665  -0.13399
 Alpha virt. eigenvalues --    0.13057   0.13868   0.15083   0.16449   0.18405
 Alpha virt. eigenvalues --    0.19053   0.20112   0.22152   0.23369   0.24131
 Alpha virt. eigenvalues --    0.24618   0.25347   0.25960   0.26831   0.27374

 Mulliken charges:
               1
     1  C    0.072172
     2  H    0.017033
     3  F   -0.635113
     4  H   -0.308594
     5  C    0.590600
     6  H    0.090306
     7  N   -0.281538
     8  H    0.041410
     9  H    0.080232
    10  C   -0.044179
    11  N   -0.376564
    12  C    0.076303
    13  N   -0.322069
 Sum of Mulliken charges =  -1.00000

 Dipole moment (field-independent basis, Debye):
    X=              0.6858    Y=             -4.6161    Z=              0.4765  Tot=              4.6911

 Test job not archived.
 1\1\GINC-SE455\SP\RHF\Aug-CC-pVDZ\C4H5F1N3(1-)\OHZDE\09-Apr-2025\0\\#t
  hf aug-cc-pvdz iop(5/13=1,5/36=2,99/5=2) pseudo=read geom=check guess
 =(read,tcheck) scf=(maxcycle=1)\\title\\-1,1\C,0,0.50256005,-0.0709592
 9,0.00657801\H,0,1.71192036,1.74074714,-0.00180953\F,0,-1.13566975,-0.
 01029182,0.05276976\H,0,2.34797722,-0.26343725,0.11362381\C,0,0.666094
 85,1.45122384,0.03196592\H,0,0.16526949,1.79771696,-0.87484377\N,0,0.5
 6252776,-0.71386724,-1.28975051\H,0,-0.23959802,-1.33266315,-1.3367615
 1\H,0,1.42789147,-1.2281603,-1.34082592\C,0,0.73416996,-0.82543471,1.2

 Normal termination of Gaussian 16 at Wed Apr  9 02:34:49 2025.
