 Gaussian 16, Revision C.01,

 ----------------------------------------------------------------------
 #t hf aug-cc-pvdz symm=none int=(grid=ultrafine) guess=(read,tcheck) s
 table=(opt,rrhf)
 ----------------------------------------------------------------------
 -----
 title
 -----
 Symbolic Z-matrix:
 Charge = -1 Multiplicity = 1

 SCF Done:  E(RHF) =  -722.143477937     A.U. after   15 cycles
 Normal termination of Gaussian 16 at Wed Apr  9 02:59:25 2025.
 Gaussian 16:  ES64L-G16RevC.01  3-Jul-2019

 ----------------------------------------------------------------------
 #t hf aug-cc-pvdz iop(5/13=1,5/36=2,99/5=2) pseudo=read geom=check gue
 ss=(read,tcheck) scf=(maxcycle=1)
 ----------------------------------------------------------------------
 -----
 title
 -----
 Structure from the checkpoint file:  "E2SN2_85_mol1.chk"
 Charge = -1 Multiplicity = 1

                         Standard orientation:
 ---------------------------------------------------------------------
 Center     Atomic      Atomic             Coordinates (Angstroms)
 Number     Number       Type             X           Y           Z
 ---------------------------------------------------------------------
      1          6           0       -0.459696   -0.137922    0.429517
      2          6           0        0.569514   -1.123834   -0.115296
      3         17           0       -0.175184    1.595155    0.040043
      4          1           0        0.029500   -2.188275    2.221545
      5          1           0        0.499657   -1.906122    0.743229
      6          1           0        0.286033   -1.544499   -1.081880
      7          6           0       -1.792462   -0.499010   -0.038658
      8          7           0       -2.858959   -0.786772   -0.437756
      9          6           0        1.916776   -0.598477   -0.174769
     10          7           0        3.028649   -0.220602   -0.233009
     11          1           0       -0.429677   -0.271661    1.526978
 ---------------------------------------------------------------------

 SCF Done:  E(RHF) =  -722.238569552     A.U. after    2 cycles

 The electronic state is 1-A.
 Alpha  occ. eigenvalues -- -103.56188 -15.54404 -15.52350 -11.23763 -11.19620
 Alpha  occ. eigenvalues --  -11.17999 -11.15957 -10.59497  -8.25218  -8.24922
 Alpha  occ. eigenvalues --   -8.24909  -1.10320  -1.06860  -1.05740  -0.94679
 Alpha  occ. eigenvalues --   -0.82029  -0.61509  -0.57536  -0.53890  -0.48921
 Alpha  occ. eigenvalues --   -0.45016  -0.44801  -0.42760  -0.37266  -0.36747
 Alpha  occ. eigenvalues --   -0.35550  -0.34562  -0.32854  -0.32636  -0.10949
 Alpha virt. eigenvalues --    0.13360   0.15383   0.17355   0.18231   0.18404
 Alpha virt. eigenvalues --    0.19274   0.20509   0.21564   0.23192   0.23741
 Alpha virt. eigenvalues --    0.24192   0.24759   0.25979   0.26075   0.26708

 Mulliken charges:
               1
     1  C    0.173590
     2  C    0.293597
     3  Cl  -0.109475
     4  H   -0.632564
     5  H    0.116681
     6  H   -0.087078
     7  C   -0.133354
     8  N   -0.237325
     9  C   -0.178183
    10  N   -0.289712
    11  H    0.083822
 Sum of Mulliken charges =  -1.00000

 Dipole moment (field-independent basis, Debye):
    X=             -0.8647    Y=              5.9914    Z=             -6.2098  Tot=              8.6721

 Test job not archived.
 1\1\GINC-SE131\SP\RHF\Aug-CC-pVDZ\C4H4Cl1N2(1-)\OHZDE\09-Apr-2025\0\\#
 t hf aug-cc-pvdz iop(5/13=1,5/36=2,99/5=2) pseudo=read geom=check gues
 s=(read,tcheck) scf=(maxcycle=1)\\title\\-1,1\C,0,-0.21035022,-0.01168
 129,-0.3378203\C,0,-0.15699182,-0.03410235,1.18689839\Cl,0,1.3001698,0
 .49585696,-1.17264146\H,0,-2.60056891,0.82834202,0.77386314\H,0,-1.271
 97157,0.23562353,1.38180284\H,0,0.10772119,-1.01371009,1.58926502\C,0,
 -0.59265865,-1.32501948,-0.84261843\N,0,-0.88156779,-2.39206154,-1.239
 4229\C,0,0.68988703,0.98827283,1.76326428\N,0,1.35774345,1.80710931,2.

 Normal termination of Gaussian 16 at Wed Apr  9 02:59:30 2025.
