 Gaussian 16, Revision C.01,

 ----------------------------------------------------------------------
 #t hf aug-cc-pvdz symm=none int=(grid=ultrafine) guess=(read,tcheck) s
 table=(opt,rrhf)
 ----------------------------------------------------------------------
 -----
 title
 -----
 Symbolic Z-matrix:
 Charge = -1 Multiplicity = 1

 SCF Done:  E(RHF) =  -1026.92765669     A.U. after   17 cycles
 Normal termination of Gaussian 16 at Wed Apr  9 02:55:46 2025.
 Gaussian 16:  ES64L-G16RevC.01  3-Jul-2019

 ----------------------------------------------------------------------
 #t hf aug-cc-pvdz iop(5/13=1,5/36=2,99/5=2) pseudo=read geom=check gue
 ss=(read,tcheck) scf=(maxcycle=1)
 ----------------------------------------------------------------------
 -----
 title
 -----
 Structure from the checkpoint file:  "E2SN2_379_mol1.chk"
 Charge = -1 Multiplicity = 1

                         Standard orientation:
 ---------------------------------------------------------------------
 Center     Atomic      Atomic             Coordinates (Angstroms)
 Number     Number       Type             X           Y           Z
 ---------------------------------------------------------------------
      1          6           0        0.244794   -0.050551    0.443585
      2          1           0       -0.878060   -1.771332    0.661741
      3         17           0       -0.381732    1.789197   -0.585845
      4          9           0        1.076427   -1.639746    1.083022
      5          6           0       -0.937810   -0.912609   -0.009039
      6          7           0        0.187520    0.464247    1.752303
      7          1           0        0.476732    1.431282    1.759734
      8          1           0        0.824210   -0.109046    2.291315
      9          7           0        1.578510    0.027328   -0.295823
     10          8           0        1.683305   -0.491851   -1.395869
     11          8           0        2.464059    0.634008    0.289003
     12          6           0       -0.953505   -1.429825   -1.445341
     13          1           0       -0.906366   -0.605986   -2.156010
     14          1           0       -0.101809   -2.086416   -1.603167
     15          1           0       -1.880220   -1.988939   -1.603306
     16          6           0       -2.211364   -0.252096    0.302267
     17          7           0       -3.303815    0.109144    0.538942
 ---------------------------------------------------------------------

 SCF Done:  E(RHF) =  -1027.11089313     A.U. after    2 cycles

 The electronic state is 1-A.
 Alpha  occ. eigenvalues -- -103.46282 -25.84655 -20.48634 -20.48599 -15.79486
 Alpha  occ. eigenvalues --  -15.51417 -15.50981 -11.32961 -11.18134 -11.17208
 Alpha  occ. eigenvalues --  -11.12458 -10.49636  -8.15286  -8.15128  -8.15118
 Alpha  occ. eigenvalues --   -1.42039  -1.34802  -1.23598  -1.10003  -1.05569
 Alpha  occ. eigenvalues --   -0.96969  -0.92908  -0.87608  -0.79763  -0.69805
 Alpha  occ. eigenvalues --   -0.63652  -0.61450  -0.60665  -0.58197  -0.56541
 Alpha  occ. eigenvalues --   -0.53715  -0.47139  -0.45131  -0.43997  -0.43419
 Alpha  occ. eigenvalues --   -0.43140  -0.42497  -0.40058  -0.39068  -0.38873
 Alpha  occ. eigenvalues --   -0.34639  -0.33503  -0.32614  -0.30990  -0.29400
 Alpha  occ. eigenvalues --   -0.29061  -0.28305
 Alpha virt. eigenvalues --    0.12480   0.13283   0.14802   0.15292   0.16382
 Alpha virt. eigenvalues --    0.16914   0.18543   0.19245   0.21134   0.22299
 Alpha virt. eigenvalues --    0.23151   0.23902   0.24594   0.25316   0.25977

 Mulliken charges:
               1
     1  C    0.542408
     2  H    0.066082
     3  Cl  -0.516900
     4  F   -0.753120
     5  C    0.190727
     6  N   -0.264934
     7  H    0.087826
     8  H    0.105169
     9  N    0.721547
    10  O   -0.704563
    11  O   -0.711316
    12  C    0.830678
    13  H    0.036130
    14  H    0.040554
    15  H   -0.061615
    16  C   -0.283946
    17  N   -0.324726
 Sum of Mulliken charges =  -1.00000

 Dipole moment (field-independent basis, Debye):
    X=             -0.0729    Y=             -1.1247    Z=             -0.2150  Tot=              1.1474

 Test job not archived.
 1\1\GINC-SE090\SP\RHF\Aug-CC-pVDZ\C4H6Cl1F1N3O2(1-)\OHZDE\09-Apr-2025\
 0\\#t hf aug-cc-pvdz iop(5/13=1,5/36=2,99/5=2) pseudo=read geom=check
 guess=(read,tcheck) scf=(maxcycle=1)\\title\\-1,1\C,0,0.53654554,-0.08
 254798,-0.02705679\H,0,1.56785179,1.6949,-0.24285154\Cl,0,-1.64188364,
 -0.34783214,-0.17197789\F,0,2.37851838,-0.00184278,0.44902701\C,0,0.52
 469105,1.449224,-0.0369836\N,0,0.86201396,-0.72009952,-1.23893045\H,0,
 0.23743405,-1.49571573,-1.40377813\H,0,1.81526893,-1.04015928,-1.12300
 182\N,0,0.5235584,-0.92945036,1.24344603\O,0,0.33464863,-0.38759577,2.

 Normal termination of Gaussian 16 at Wed Apr  9 02:55:56 2025.
