 Gaussian 16, Revision C.01,

 ----------------------------------------------------------------------
 #t hf aug-cc-pvdz symm=none int=(grid=ultrafine) guess=(read,tcheck) s
 table=(opt,rrhf)
 ----------------------------------------------------------------------
 -----
 title
 -----
 Symbolic Z-matrix:
 Charge = -1 Multiplicity = 1

 SCF Done:  E(RHF) =  -739.594752169     A.U. after   16 cycles
 Normal termination of Gaussian 16 at Wed Apr  9 02:42:41 2025.
 Gaussian 16:  ES64L-G16RevC.01  3-Jul-2019

 ----------------------------------------------------------------------
 #t hf aug-cc-pvdz iop(5/13=1,5/36=2,99/5=2) pseudo=read geom=check gue
 ss=(read,tcheck) scf=(maxcycle=1)
 ----------------------------------------------------------------------
 -----
 title
 -----
 Structure from the checkpoint file:  "E2SN2_236_mol1.chk"
 Charge = -1 Multiplicity = 1

                         Standard orientation:
 ---------------------------------------------------------------------
 Center     Atomic      Atomic             Coordinates (Angstroms)
 Number     Number       Type             X           Y           Z
 ---------------------------------------------------------------------
      1          6           0       -0.449090    0.432239    0.050460
      2          1           0        0.543326   -0.862512    1.423228
      3          9           0        0.218112   -0.362022   -1.394829
      4          9           0       -1.271032    0.962461    1.460985
      5          6           0        0.745463    0.067527    0.903601
      6          1           0        0.920478    0.889499    1.590606
      7          7           0       -1.558710   -0.606135   -0.092358
      8          8           0       -1.428963   -1.684731    0.470221
      9          8           0       -2.529285   -0.271662   -0.760220
     10          7           0       -0.554043    1.673298   -0.601090
     11          1           0       -1.412563    2.109793   -0.300825
     12          1           0       -0.548098    1.494726   -1.593430
     13          7           0        2.021961   -0.122996    0.160480
     14          8           0        2.558326    0.880214   -0.300843
     15          8           0        2.503728   -1.254223    0.127270
 ---------------------------------------------------------------------

 SCF Done:  E(RHF) =  -739.820002514     A.U. after    2 cycles

 The electronic state is 1-A.
 Alpha  occ. eigenvalues --  -25.88687 -25.85735 -20.48370 -20.48207 -20.47952
 Alpha  occ. eigenvalues --  -20.47851 -15.77990 -15.77922 -15.49650 -11.32544
 Alpha  occ. eigenvalues --  -11.18506  -1.42008  -1.40723  -1.38834  -1.36245
 Alpha  occ. eigenvalues --   -1.22488  -1.22383  -1.07027  -0.96777  -0.87889
 Alpha  occ. eigenvalues --   -0.75346  -0.68343  -0.65123  -0.62566  -0.61313
 Alpha  occ. eigenvalues --   -0.60615  -0.60322  -0.58328  -0.57196  -0.50542
 Alpha  occ. eigenvalues --   -0.49310  -0.48312  -0.46454  -0.45745  -0.44663
 Alpha  occ. eigenvalues --   -0.43472  -0.41705  -0.38521  -0.37473  -0.36941
 Alpha  occ. eigenvalues --   -0.36097  -0.33792  -0.33729  -0.29860
 Alpha virt. eigenvalues --    0.13303   0.14054   0.15711   0.16401   0.20796
 Alpha virt. eigenvalues --    0.21566   0.22207   0.22352   0.22621   0.25591
 Alpha virt. eigenvalues --    0.25721   0.26336   0.26993   0.27281   0.28223

 Mulliken charges:
               1
     1  C    1.113114
     2  H   -0.021123
     3  F   -0.758621
     4  F   -0.683185
     5  C    1.051268
     6  H   -0.033507
     7  N    0.622437
     8  O   -0.708159
     9  O   -0.680471
    10  N   -0.358556
    11  H    0.042878
    12  H    0.083514
    13  N    0.646891
    14  O   -0.659535
    15  O   -0.656946
 Sum of Mulliken charges =  -1.00000

 Dipole moment (field-independent basis, Debye):
    X=              0.0421    Y=              2.0455    Z=              1.5917  Tot=              2.5922

 Test job not archived.
 1\1\GINC-SE016\SP\RHF\Aug-CC-pVDZ\C2H4F2N3O4(1-)\OHZDE\09-Apr-2025\0\\
 #t hf aug-cc-pvdz iop(5/13=1,5/36=2,99/5=2) pseudo=read geom=check gue
 ss=(read,tcheck) scf=(maxcycle=1)\\title\\-1,1\C,0,0.72085782,-0.05844
 319,-0.08718355\H,0,1.52007966,1.36602636,-1.45754564\F,0,-0.89498785,
 -0.07374351,-0.83127872\F,0,2.36072393,-0.20747868,0.39751414\C,0,0.99
 266838,1.36812302,-0.51008734\H,0,1.57136435,1.83887649,0.27842145\N,0
 ,1.01670599,-1.16348772,-1.09774135\O,0,1.44151012,-0.85082266,-2.2015
 8913\O,0,0.82009177,-2.31082878,-0.71710947\N,0,0.20990387,-0.37957619

 Normal termination of Gaussian 16 at Wed Apr  9 02:42:49 2025.
