 Gaussian 16, Revision C.01,

 ----------------------------------------------------------------------
 #t hf aug-cc-pvdz symm=none int=(grid=ultrafine) guess=(read,tcheck) s
 table=(opt,rrhf)
 ----------------------------------------------------------------------
 -----
 title
 -----
 Symbolic Z-matrix:
 Charge = -1 Multiplicity = 1

 SCF Done:  E(RHF) =  -575.110354542     A.U. after   16 cycles
 Normal termination of Gaussian 16 at Wed Apr  9 02:51:21 2025.
 Gaussian 16:  ES64L-G16RevC.01  3-Jul-2019

 ----------------------------------------------------------------------
 #t hf aug-cc-pvdz iop(5/13=1,5/36=2,99/5=2) pseudo=read geom=check gue
 ss=(read,tcheck) scf=(maxcycle=1)
 ----------------------------------------------------------------------
 -----
 title
 -----
 Structure from the checkpoint file:  "E2SN2_332_mol1.chk"
 Charge = -1 Multiplicity = 1

                         Standard orientation:
 ---------------------------------------------------------------------
 Center     Atomic      Atomic             Coordinates (Angstroms)
 Number     Number       Type             X           Y           Z
 ---------------------------------------------------------------------
      1          6           0       -0.036514    0.488813    0.017192
      2          1           0        1.220906    0.380255   -1.689247
      3          9           0        0.537673    0.030554    1.639829
      4          9           0       -0.865700    0.715685   -1.582503
      5          6           0        1.359108    0.524749   -0.621953
      6          1           0        1.712039    1.550604   -0.464663
      7          6           0       -0.698483    1.733075    0.542997
      8          1           0       -0.147164    2.103389    1.405133
      9          1           0       -0.735435    2.474422   -0.252473
     10          1           0       -1.715656    1.488093    0.843277
     11          7           0       -0.772994   -0.809916    0.022360
     12          8           0       -0.210893   -1.772912   -0.495410
     13          8           0       -1.880476   -0.858345    0.540641
     14          7           0        2.381096   -0.395545   -0.137325
     15          1           0        2.073050   -1.319849   -0.415397
     16          1           0        2.274073   -0.384613    0.870918
 ---------------------------------------------------------------------

 SCF Done:  E(RHF) =  -575.285779849     A.U. after    2 cycles

 The electronic state is 1-A.
 Alpha  occ. eigenvalues --  -25.84878 -25.82754 -20.46251 -20.46014 -15.76535
 Alpha  occ. eigenvalues --  -15.45680 -11.26022 -11.12918 -11.09467  -1.39592
 Alpha  occ. eigenvalues --   -1.35088  -1.32915  -1.20555  -1.01499  -0.93832
 Alpha  occ. eigenvalues --   -0.81857  -0.76988  -0.66113  -0.58744  -0.58292
 Alpha  occ. eigenvalues --   -0.57384  -0.52836  -0.51110  -0.48990  -0.45572
 Alpha  occ. eigenvalues --   -0.44093  -0.42992  -0.42040  -0.41017  -0.39649
 Alpha  occ. eigenvalues --   -0.37663  -0.37271  -0.35662  -0.35568  -0.34571
 Alpha  occ. eigenvalues --   -0.32004  -0.25952
 Alpha virt. eigenvalues --    0.13498   0.14145   0.15080   0.15318   0.16950
 Alpha virt. eigenvalues --    0.17140   0.18364   0.21260   0.22999   0.23926
 Alpha virt. eigenvalues --    0.24374   0.25697   0.26617   0.27370   0.28283

 Mulliken charges:
               1
     1  C    0.202205
     2  H    0.017732
     3  F   -0.774370
     4  F   -0.760258
     5  C    1.104774
     6  H   -0.085318
     7  C    0.193948
     8  H    0.098201
     9  H    0.110630
    10  H    0.062444
    11  N    0.549927
    12  O   -0.706266
    13  O   -0.693023
    14  N   -0.499743
    15  H    0.095611
    16  H    0.083506
 Sum of Mulliken charges =  -1.00000

 Dipole moment (field-independent basis, Debye):
    X=              1.1703    Y=              1.9920    Z=              0.7054  Tot=              2.4156

 Test job not archived.
 1\1\GINC-SE114\SP\RHF\Aug-CC-pVDZ\C3H7F2N2O2(1-)\OHZDE\09-Apr-2025\0\\
 #t hf aug-cc-pvdz iop(5/13=1,5/36=2,99/5=2) pseudo=read geom=check gue
 ss=(read,tcheck) scf=(maxcycle=1)\\title\\-1,1\C,0,0.74729494,0.036632
 64,0.00503285\H,0,1.67964357,1.93792253,0.14872653\F,0,-0.95442394,-0.
 21427188,0.46746508\F,0,2.54783793,0.04598833,-0.23161382\C,0,0.668590
 88,1.57004576,0.00198045\H,0,0.36030464,1.83189251,-1.01687832\C,0,0.5
 8025976,-0.76693775,-1.25561618\H,0,-0.44111885,-0.66897458,-1.6183178
 4\H,0,1.29859862,-0.41623382,-1.9936737\H,0,0.78561763,-1.81262817,-1.

 Normal termination of Gaussian 16 at Wed Apr  9 02:51:28 2025.
