 Gaussian 16, Revision C.01,

 ----------------------------------------------------------------------
 #t hf aug-cc-pvdz symm=none int=(grid=ultrafine) guess=(read,tcheck) s
 table=(opt,rrhf)
 ----------------------------------------------------------------------
 -----
 title
 -----
 Symbolic Z-matrix:
 Charge = -1 Multiplicity = 1

 SCF Done:  E(RHF) =  -836.245143954     A.U. after   16 cycles
 Normal termination of Gaussian 16 at Wed Apr  9 02:46:09 2025.
 Gaussian 16:  ES64L-G16RevC.01  3-Jul-2019

 ----------------------------------------------------------------------
 #t hf aug-cc-pvdz iop(5/13=1,5/36=2,99/5=2) pseudo=read geom=check gue
 ss=(read,tcheck) scf=(maxcycle=1)
 ----------------------------------------------------------------------
 -----
 title
 -----
 Structure from the checkpoint file:  "E2SN2_27_mol2.chk"
 Charge = -1 Multiplicity = 1

                         Standard orientation:
 ---------------------------------------------------------------------
 Center     Atomic      Atomic             Coordinates (Angstroms)
 Number     Number       Type             X           Y           Z
 ---------------------------------------------------------------------
      1          6           0       -0.194015   -0.143524   -0.572758
      2          6           0        1.262715   -0.358807   -0.201234
      3         17           0       -1.249035   -1.561218   -0.287273
      4          1           0        1.619573   -1.136084   -0.895983
      5          1           0       -0.261148    0.108710   -1.627475
      6          7           0       -0.807582    1.026335    0.144132
      7          8           0       -1.246711    1.936536   -0.553881
      8          8           0       -0.834709    0.998397    1.371902
      9          6           0        1.534861   -0.801480    1.227615
     10          1           0        2.590656   -1.078824    1.288099
     11          1           0        1.340301    0.005956    1.935884
     12          1           0        0.932665   -1.664996    1.520257
     13          7           0        1.918219    0.882582   -0.576792
     14          1           0        2.547371    0.583676   -1.375273
     15          1           0        2.516215    1.188931    0.183182
     16          1           0        3.203494   -0.485675   -2.382337
 ---------------------------------------------------------------------

 SCF Done:  E(RHF) =  -836.379264824     A.U. after    2 cycles

 The electronic state is 1-A.
 Alpha  occ. eigenvalues -- -103.56841 -20.51662 -20.51225 -15.80706 -15.45602
 Alpha  occ. eigenvalues --  -11.25169 -11.15245 -11.11473 -10.60164  -8.25891
 Alpha  occ. eigenvalues --   -8.25598  -8.25586  -1.43761  -1.25561  -1.09986
 Alpha  occ. eigenvalues --   -1.02748  -0.92596  -0.86151  -0.76741  -0.69947
 Alpha  occ. eigenvalues --   -0.64287  -0.62173  -0.60332  -0.54179  -0.51483
 Alpha  occ. eigenvalues --   -0.49863  -0.45656  -0.43391  -0.41242  -0.40759
 Alpha  occ. eigenvalues --   -0.39430  -0.37530  -0.36524  -0.35803  -0.35517
 Alpha  occ. eigenvalues --   -0.25959  -0.09298
 Alpha virt. eigenvalues --    0.12656   0.13807   0.14688   0.15473   0.16441
 Alpha virt. eigenvalues --    0.17068   0.18231   0.18676   0.21476   0.21617
 Alpha virt. eigenvalues --    0.22465   0.23310   0.24442   0.25342   0.25987

 Mulliken charges:
               1
     1  C    0.949540
     2  C   -0.239163
     3  Cl  -0.200774
     4  H   -0.040131
     5  H   -0.101372
     6  N    0.531888
     7  O   -0.619542
     8  O   -0.677988
     9  C    0.550040
    10  H   -0.053034
    11  H    0.026997
    12  H   -0.109436
    13  N   -0.351742
    14  H    0.116167
    15  H   -0.003924
    16  H   -0.777526
 Sum of Mulliken charges =  -1.00000

 Dipole moment (field-independent basis, Debye):
    X=             -8.5898    Y=             -0.7538    Z=              7.7597  Tot=             11.6002

 Test job not archived.
 1\1\GINC-SE342\SP\RHF\Aug-CC-pVDZ\C3H8Cl1N2O2(1-)\OHZDE\09-Apr-2025\0\
 \#t hf aug-cc-pvdz iop(5/13=1,5/36=2,99/5=2) pseudo=read geom=check gu
 ess=(read,tcheck) scf=(maxcycle=1)\\title\\-1,1\C,0,-0.478001,-0.12700
 2,-1.479649\C,0,0.033735,-0.147764,-0.049917\Cl,0,-0.36474,-1.697992,-
 2.330288\H,0,1.111843,-0.357468,-0.138742\H,0,0.091532,0.598936,-2.053
 412\N,0,-1.904398,0.336468,-1.577394\O,0,-2.116573,1.340171,-2.252734\
 O,0,-2.761899,-0.31304,-0.984295\C,0,-0.600626,-1.172031,0.877497\H,0,
 -0.016069,-1.182351,1.80133\H,0,-1.632205,-0.90563,1.114827\H,0,-0.596

 Normal termination of Gaussian 16 at Wed Apr  9 02:46:16 2025.
