 Gaussian 16, Revision C.01,

 ----------------------------------------------------------------------
 #t hf aug-cc-pvdz symm=none int=(grid=ultrafine) guess=(read,tcheck) s
 table=(opt,rrhf)
 ----------------------------------------------------------------------
 -----
 title
 -----
 Symbolic Z-matrix:
 Charge = -1 Multiplicity = 1

 SCF Done:  E(RHF) =  -1099.64863477     A.U. after   16 cycles
 Normal termination of Gaussian 16 at Wed Apr  9 02:42:53 2025.
 Gaussian 16:  ES64L-G16RevC.01  3-Jul-2019

 ----------------------------------------------------------------------
 #t hf aug-cc-pvdz iop(5/13=1,5/36=2,99/5=2) pseudo=read geom=check gue
 ss=(read,tcheck) scf=(maxcycle=1)
 ----------------------------------------------------------------------
 -----
 title
 -----
 Structure from the checkpoint file:  "E2SN2_237_mol1.chk"
 Charge = -1 Multiplicity = 1

                         Standard orientation:
 ---------------------------------------------------------------------
 Center     Atomic      Atomic             Coordinates (Angstroms)
 Number     Number       Type             X           Y           Z
 ---------------------------------------------------------------------
      1          6           0       -0.571881   -0.159359   -0.512272
      2          1           0        0.764819    1.115635   -1.586140
      3          9           0       -0.134638   -2.022735   -0.654848
      4         17           0       -1.125589    1.883944   -0.004971
      5          6           0        0.798207    0.148567   -1.093117
      6          1           0        1.029640   -0.662846   -1.772182
      7          7           0       -0.782304   -0.594899    0.923143
      8          8           0        0.169341   -0.527478    1.684518
      9          8           0       -1.912347   -0.962763    1.208075
     10          7           0       -1.591225   -0.356862   -1.464402
     11          1           0       -2.435625    0.108936   -1.167029
     12          1           0       -1.712647   -1.361541   -1.503683
     13          7           0        1.941408    0.219513   -0.136360
     14          8           0        2.160082    1.301052    0.404534
     15          8           0        2.628858   -0.789826    0.000729
 ---------------------------------------------------------------------

 SCF Done:  E(RHF) =  -1099.85570148     A.U. after    2 cycles

 The electronic state is 1-A.
 Alpha  occ. eigenvalues -- -103.47022 -25.83748 -20.49197 -20.49080 -20.48753
 Alpha  occ. eigenvalues --  -20.48572 -15.79510 -15.78877 -15.51643 -11.33467
 Alpha  occ. eigenvalues --  -11.20116 -10.50352  -8.16009  -8.15835  -8.15830
 Alpha  occ. eigenvalues --   -1.42212  -1.41403  -1.33963  -1.23738  -1.23200
 Alpha  occ. eigenvalues --   -1.10242  -0.98095  -0.93670  -0.88047  -0.76784
 Alpha  occ. eigenvalues --   -0.69458  -0.66218  -0.61948  -0.61298  -0.60627
 Alpha  occ. eigenvalues --   -0.60221  -0.57660  -0.57392  -0.52433  -0.49661
 Alpha  occ. eigenvalues --   -0.43345  -0.42658  -0.41834  -0.39891  -0.38835
 Alpha  occ. eigenvalues --   -0.38411  -0.37997  -0.35117  -0.33696  -0.31874
 Alpha  occ. eigenvalues --   -0.30044  -0.29599  -0.29373
 Alpha virt. eigenvalues --    0.12843   0.13897   0.15051   0.16994   0.18275
 Alpha virt. eigenvalues --    0.20051   0.20496   0.21038   0.22339   0.23116
 Alpha virt. eigenvalues --    0.24684   0.25664   0.26096   0.27154   0.27479

 Mulliken charges:
               1
     1  C    0.438309
     2  H   -0.024858
     3  F   -0.756503
     4  Cl  -0.500666
     5  C    1.265799
     6  H    0.000955
     7  N    0.706886
     8  O   -0.715510
     9  O   -0.704641
    10  N   -0.278382
    11  H    0.106241
    12  H    0.114647
    13  N    0.658351
    14  O   -0.663653
    15  O   -0.646975
 Sum of Mulliken charges =  -1.00000

 Dipole moment (field-independent basis, Debye):
    X=             -1.0767    Y=              1.3891    Z=             -3.8416  Tot=              4.2245

 Test job not archived.
 1\1\GINC-SE097\SP\RHF\Aug-CC-pVDZ\C2H4Cl1F1N3O4(1-)\OHZDE\09-Apr-2025\
 0\\#t hf aug-cc-pvdz iop(5/13=1,5/36=2,99/5=2) pseudo=read geom=check
 guess=(read,tcheck) scf=(maxcycle=1)\\title\\-1,1\C,0,0.73327732,-0.05
 576755,0.01489529\H,0,1.26848538,1.94485257,0.54086241\F,0,-1.16217226
 ,-0.34607247,-0.06680717\Cl,0,2.89602231,0.08016157,-0.19268161\C,0,0.
 44639373,1.43623481,0.04600736\H,0,-0.49616116,1.55356991,0.56649088\N
 ,0,0.64357859,-0.8886311,-1.24711937\O,0,0.50350557,-0.30204486,-2.308
 32656\O,0,0.74265133,-2.09728571,-1.09596784\N,0,0.74485019,-0.6859566

 Normal termination of Gaussian 16 at Wed Apr  9 02:43:02 2025.
