 Gaussian 16, Revision C.01,

 ----------------------------------------------------------------------
 #t hf aug-cc-pvdz symm=none int=(grid=ultrafine) guess=(read,tcheck) s
 table=(opt,rrhf)
 ----------------------------------------------------------------------
 -----
 title
 -----
 Symbolic Z-matrix:
 Charge = -1 Multiplicity = 1

 SCF Done:  E(RHF) =  -778.676256892     A.U. after   16 cycles
 Normal termination of Gaussian 16 at Wed Apr  9 02:43:08 2025.
 Gaussian 16:  ES64L-G16RevC.01  3-Jul-2019

 ----------------------------------------------------------------------
 #t hf aug-cc-pvdz iop(5/13=1,5/36=2,99/5=2) pseudo=read geom=check gue
 ss=(read,tcheck) scf=(maxcycle=1)
 ----------------------------------------------------------------------
 -----
 title
 -----
 Structure from the checkpoint file:  "E2SN2_242_mol2.chk"
 Charge = -1 Multiplicity = 1

                         Standard orientation:
 ---------------------------------------------------------------------
 Center     Atomic      Atomic             Coordinates (Angstroms)
 Number     Number       Type             X           Y           Z
 ---------------------------------------------------------------------
      1          6           0       -0.393874   -0.183027   -0.505562
      2          6           0        0.647396   -0.156609    0.609998
      3          9           0       -0.386299   -1.391813   -1.188299
      4          1           0        0.408733    0.748817    1.176973
      5          7           0       -1.835448   -0.247047    0.148026
      6          8           0       -2.757285   -0.085086   -0.646593
      7          8           0       -1.976268   -0.474796    1.344950
      8          7           0       -0.262021    0.901958   -1.336211
      9          1           0       -1.019506    0.889687   -2.010231
     10          1           0       -0.376632    1.736178   -0.622652
     11          7           0        1.971718    0.105484   -0.050385
     12          8           0        2.547235    1.157457    0.214635
     13          8           0        2.427012   -0.780941   -0.773396
     14          6           0        0.806201   -1.434881    1.411909
     15          1           0       -0.083659   -1.607847    2.010739
     16          1           0        0.974731   -2.280003    0.744925
     17          1           0        1.666497   -1.339269    2.079971
     18          9           0       -0.610790    2.352225    0.641123
 ---------------------------------------------------------------------

 SCF Done:  E(RHF) =  -778.915777527     A.U. after    2 cycles

 The electronic state is 1-A.
 Alpha  occ. eigenvalues --  -26.02100 -25.78466 -20.50120 -20.49838 -20.49770
 Alpha  occ. eigenvalues --  -20.49295 -15.78827 -15.78418 -15.47319 -11.31362
 Alpha  occ. eigenvalues --  -11.19287 -11.13653  -1.56007  -1.41894  -1.41795
 Alpha  occ. eigenvalues --   -1.28154  -1.23968  -1.23564  -1.09037  -0.98887
 Alpha  occ. eigenvalues --   -0.87737  -0.83735  -0.75846  -0.72159  -0.68510
 Alpha  occ. eigenvalues --   -0.66417  -0.64000  -0.61875  -0.61363  -0.60641
 Alpha  occ. eigenvalues --   -0.59640  -0.57171  -0.56043  -0.51357  -0.50146
 Alpha  occ. eigenvalues --   -0.46973  -0.44093  -0.41966  -0.40764  -0.39809
 Alpha  occ. eigenvalues --   -0.39157  -0.37960  -0.37138  -0.36348  -0.35222
 Alpha  occ. eigenvalues --   -0.34980  -0.34573  -0.28368
 Alpha virt. eigenvalues --    0.12060   0.13898   0.14477   0.14705   0.17613
 Alpha virt. eigenvalues --    0.18774   0.19696   0.20308   0.20952   0.21540
 Alpha virt. eigenvalues --    0.22575   0.23658   0.23806   0.25301   0.26175

 Mulliken charges:
               1
     1  C    1.370528
     2  C    0.419730
     3  F   -0.429529
     4  H   -0.117511
     5  N    0.347609
     6  O   -0.653957
     7  O   -0.620601
     8  N   -0.559343
     9  H    0.003996
    10  H    0.307018
    11  N    0.314311
    12  O   -0.604742
    13  O   -0.645482
    14  C    0.703687
    15  H    0.029361
    16  H    0.077292
    17  H   -0.010860
    18  F   -0.931508
 Sum of Mulliken charges =  -1.00000

 Dipole moment (field-independent basis, Debye):
    X=              1.0090    Y=             -5.8995    Z=              0.1833  Tot=              5.9880

 Test job not archived.
 1\1\GINC-SE367\SP\RHF\Aug-CC-pVDZ\C3H6F2N3O4(1-)\OHZDE\09-Apr-2025\0\\
 #t hf aug-cc-pvdz iop(5/13=1,5/36=2,99/5=2) pseudo=read geom=check gue
 ss=(read,tcheck) scf=(maxcycle=1)\\title\\-1,1\C,0,-0.021347,-0.02161,
 -0.026761\C,0,-0.499757,0.096252,-1.471284\F,0,1.363253,-0.08309,0.053
 561\H,0,-1.566044,0.326955,-1.381696\N,0,-0.276818,1.359356,0.706094\O
 ,0,-0.103428,1.325361,1.92109\O,0,-0.587648,2.362295,0.072197\N,0,-0.6
 41958,-1.061016,0.620567\H,0,-0.359175,-1.053165,1.594327\H,0,-1.70395
 9,-0.780889,0.511447\N,0,-0.422935,-1.284872,-2.058841\O,0,-1.473438,-

 Normal termination of Gaussian 16 at Wed Apr  9 02:43:18 2025.
