 Gaussian 16, Revision C.01,

 ----------------------------------------------------------------------
 #t hf aug-cc-pvdz symm=none int=(grid=ultrafine) guess=(read,tcheck) s
 table=(opt,rrhf)
 ----------------------------------------------------------------------
 -----
 title
 -----
 Symbolic Z-matrix:
 Charge = -1 Multiplicity = 1

 SCF Done:  E(RHF) =  -935.188977902     A.U. after   16 cycles
 Normal termination of Gaussian 16 at Wed Apr  9 02:55:06 2025.
 Gaussian 16:  ES64L-G16RevC.01  3-Jul-2019

 ----------------------------------------------------------------------
 #t hf aug-cc-pvdz iop(5/13=1,5/36=2,99/5=2) pseudo=read geom=check gue
 ss=(read,tcheck) scf=(maxcycle=1)
 ----------------------------------------------------------------------
 -----
 title
 -----
 Structure from the checkpoint file:  "E2SN2_378_mol1.chk"
 Charge = -1 Multiplicity = 1

                         Standard orientation:
 ---------------------------------------------------------------------
 Center     Atomic      Atomic             Coordinates (Angstroms)
 Number     Number       Type             X           Y           Z
 ---------------------------------------------------------------------
      1          6           0        0.038663   -0.047209    0.526345
      2          1           0        0.203172    1.966066    1.104828
      3          9           0        1.685875   -1.088946    0.679230
      4         17           0       -1.855506    0.944697   -0.075394
      5          6           0        0.866484    1.208092    0.686152
      6          1           0        1.595312    0.937043    1.449416
      7          7           0       -0.456354   -0.633386    1.706952
      8          1           0        0.242825   -1.337467    1.922634
      9          1           0       -1.341139   -1.079388    1.507780
     10          7           0       -0.033425   -0.889827   -0.741618
     11          8           0        0.451120   -0.453673   -1.774177
     12          8           0       -0.611959   -1.963505   -0.633601
     13          6           0        1.598598    1.762054   -0.523832
     14          1           0        2.300618    1.023671   -0.904884
     15          1           0        0.909754    2.036644   -1.321877
     16          1           0        2.152880    2.656383   -0.216360
 ---------------------------------------------------------------------

 SCF Done:  E(RHF) =  -935.348055144     A.U. after    2 cycles

 The electronic state is 1-A.
 Alpha  occ. eigenvalues -- -103.44537 -25.81614 -20.46911 -20.46854 -15.77636
 Alpha  occ. eigenvalues --  -15.49289 -11.30160 -11.11446 -11.09460 -10.47850
 Alpha  occ. eigenvalues --   -8.13500  -8.13348  -8.13340  -1.40155  -1.31555
 Alpha  occ. eigenvalues --   -1.21746  -1.07680  -0.93411  -0.89939  -0.85261
 Alpha  occ. eigenvalues --   -0.75431  -0.66831  -0.59780  -0.58825  -0.58136
 Alpha  occ. eigenvalues --   -0.54712  -0.49990  -0.49750  -0.42563  -0.41232
 Alpha  occ. eigenvalues --   -0.40671  -0.40221  -0.39142  -0.37045  -0.36051
 Alpha  occ. eigenvalues --   -0.35340  -0.32877  -0.29704  -0.27696  -0.27133
 Alpha  occ. eigenvalues --   -0.26856
 Alpha virt. eigenvalues --    0.12558   0.13781   0.15051   0.15429   0.16643
 Alpha virt. eigenvalues --    0.17560   0.17835   0.19826   0.22219   0.22644
 Alpha virt. eigenvalues --    0.23667   0.24967   0.25560   0.26860   0.27232

 Mulliken charges:
               1
     1  C    0.127306
     2  H   -0.089139
     3  F   -0.788175
     4  Cl  -0.568755
     5  C    0.601367
     6  H    0.029736
     7  N   -0.247041
     8  H    0.121575
     9  H    0.106296
    10  N    0.820540
    11  O   -0.711553
    12  O   -0.730431
    13  C    0.421249
    14  H    0.022401
    15  H   -0.018452
    16  H   -0.096924
 Sum of Mulliken charges =  -1.00000

 Dipole moment (field-independent basis, Debye):
    X=              0.3599    Y=              1.9580    Z=              1.6581  Tot=              2.5909

 Test job not archived.
 1\1\GINC-SE036\SP\RHF\Aug-CC-pVDZ\C3H7Cl1F1N2O2(1-)\OHZDE\09-Apr-2025\
 0\\#t hf aug-cc-pvdz iop(5/13=1,5/36=2,99/5=2) pseudo=read geom=check
 guess=(read,tcheck) scf=(maxcycle=1)\\title\\-1,1\C,0,0.72260027,-0.03
 6532,0.00346928\H,0,1.36293145,1.9125541,-0.4504267\F,0,-1.21023145,-0
 .31480288,-0.08938539\Cl,0,2.87993749,0.0618446,0.52314557\C,0,0.46800
 485,1.45370008,-0.02810584\H,0,-0.33994846,1.55873125,-0.75157676\N,0,
 0.88706779,-0.67691743,-1.23964546\H,0,-0.04582216,-1.02218017,-1.4436
 2964\H,0,1.52307765,-1.45444941,-1.12843495\N,0,0.50126279,-0.9344755,

 Normal termination of Gaussian 16 at Wed Apr  9 02:55:15 2025.
