 Gaussian 16, Revision C.01,

 ----------------------------------------------------------------------
 #t hf aug-cc-pvdz symm=none int=(grid=ultrafine) guess=(read,tcheck) s
 table=(opt,rrhf)
 ----------------------------------------------------------------------
 -----
 title
 -----
 Symbolic Z-matrix:
 Charge = -1 Multiplicity = 1

 SCF Done:  E(RHF) =  -935.217490522     A.U. after   16 cycles
 Normal termination of Gaussian 16 at Wed Apr  9 02:31:14 2025.
 Gaussian 16:  ES64L-G16RevC.01  3-Jul-2019

 ----------------------------------------------------------------------
 #t hf aug-cc-pvdz iop(5/13=1,5/36=2,99/5=2) pseudo=read geom=check gue
 ss=(read,tcheck) scf=(maxcycle=1)
 ----------------------------------------------------------------------
 -----
 title
 -----
 Structure from the checkpoint file:  "E2SN2_121_mol1.chk"
 Charge = -1 Multiplicity = 1

                         Standard orientation:
 ---------------------------------------------------------------------
 Center     Atomic      Atomic             Coordinates (Angstroms)
 Number     Number       Type             X           Y           Z
 ---------------------------------------------------------------------
      1          6           0       -0.861930    0.257760   -0.457789
      2          6           0        0.462282    0.236481    0.239250
      3         17           0       -1.935488   -1.153806    0.062856
      4          9           0        0.993401    2.597561   -0.449938
      5          1           0        0.920691    1.467598   -0.182895
      6          1           0       -0.710687    0.089237   -1.520469
      7          7           0       -1.638632    1.470699   -0.267229
      8          1           0       -0.965767    2.221700   -0.431247
      9          1           0       -1.903153    1.525782    0.710475
     10          7           0        1.320357   -0.809155   -0.254061
     11          8           0        2.192300   -1.272684    0.501310
     12          8           0        1.212509   -1.173270   -1.437216
     13          6           0        0.445368    0.310757    1.744624
     14          1           0        0.038000   -0.594859    2.209550
     15          1           0        1.455194    0.464514    2.123554
     16          1           0       -0.156469    1.169521    2.051695
 ---------------------------------------------------------------------

 SCF Done:  E(RHF) =  -935.380000694     A.U. after    2 cycles

 The electronic state is 1-A.
 Alpha  occ. eigenvalues -- -103.50995 -25.85714 -20.45546 -20.45277 -15.75455
 Alpha  occ. eigenvalues --  -15.48625 -11.20261 -11.11440 -11.10350 -10.54350
 Alpha  occ. eigenvalues --   -8.20053  -8.19803  -8.19801  -1.37539  -1.36520
 Alpha  occ. eigenvalues --   -1.18879  -1.07331  -0.97661  -0.94900  -0.81149
 Alpha  occ. eigenvalues --   -0.75277  -0.64579  -0.60311  -0.58070  -0.57541
 Alpha  occ. eigenvalues --   -0.54836  -0.51837  -0.47716  -0.45515  -0.45098
 Alpha  occ. eigenvalues --   -0.44136  -0.43411  -0.40429  -0.39496  -0.36095
 Alpha  occ. eigenvalues --   -0.34750  -0.32631  -0.31897  -0.31797  -0.27680
 Alpha  occ. eigenvalues --   -0.22931
 Alpha virt. eigenvalues --    0.13239   0.14491   0.15072   0.15448   0.16522
 Alpha virt. eigenvalues --    0.17936   0.18658   0.19828   0.22565   0.23179
 Alpha virt. eigenvalues --    0.24432   0.25114   0.25923   0.27000   0.27445

 Mulliken charges:
               1
     1  C    0.507725
     2  C   -0.122228
     3  Cl  -0.297794
     4  F   -0.580313
     5  H    0.394015
     6  H   -0.077313
     7  N   -0.493919
     8  H    0.101067
     9  H    0.062515
    10  N    0.366513
    11  O   -0.685867
    12  O   -0.706114
    13  C    0.592066
    14  H   -0.000044
    15  H    0.000030
    16  H   -0.060336
 Sum of Mulliken charges =  -1.00000

 Dipole moment (field-independent basis, Debye):
    X=             -2.8811    Y=             -0.7605    Z=              2.7290  Tot=              4.0406

 Test job not archived.
 1\1\GINC-SE459\SP\RHF\Aug-CC-pVDZ\C3H7Cl1F1N2O2(1-)\OHZDE\09-Apr-2025\
 0\\#t hf aug-cc-pvdz iop(5/13=1,5/36=2,99/5=2) pseudo=read geom=check
 guess=(read,tcheck) scf=(maxcycle=1)\\title\\-1,1\C,0,-0.17354383,0.01
 05296,-0.38380649\C,0,-0.05923628,0.00091324,1.10840489\Cl,0,1.4791503
 3,-0.12186601,-1.20062215\F,0,-2.52227147,-0.41645058,1.41011452\H,0,-
 1.40378653,-0.09652449,1.40282614\H,0,-0.54574896,0.97819849,-0.708836
 16\N,0,-1.00613485,-1.03989793,-0.94433721\H,0,-1.85050021,-1.01716932
 ,-0.36972304\H,0,-0.55527545,-1.93035351,-0.763436\N,0,0.4735873,1.236

 Normal termination of Gaussian 16 at Wed Apr  9 02:31:22 2025.
