 Gaussian 16, Revision C.01,

 ----------------------------------------------------------------------
 #t hf aug-cc-pvdz symm=none int=(grid=ultrafine) guess=(read,tcheck) s
 table=(opt,rrhf)
 ----------------------------------------------------------------------
 -----
 title
 -----
 Symbolic Z-matrix:
 Charge = -1 Multiplicity = 1

 SCF Done:  E(RHF) =  -779.535932183     A.U. after   16 cycles
 Normal termination of Gaussian 16 at Wed Apr  9 02:53:24 2025.
 Gaussian 16:  ES64L-G16RevC.01  3-Jul-2019

 ----------------------------------------------------------------------
 #t hf aug-cc-pvdz iop(5/13=1,5/36=2,99/5=2) pseudo=read geom=check gue
 ss=(read,tcheck) scf=(maxcycle=1)
 ----------------------------------------------------------------------
 -----
 title
 -----
 Structure from the checkpoint file:  "E2SN2_362_mol2.chk"
 Charge = -1 Multiplicity = 1

                         Standard orientation:
 ---------------------------------------------------------------------
 Center     Atomic      Atomic             Coordinates (Angstroms)
 Number     Number       Type             X           Y           Z
 ---------------------------------------------------------------------
      1          6           0       -0.594837    0.250778    0.135728
      2          6           0        0.771702    0.317891   -0.594988
      3         17           0       -1.393545   -1.304316   -0.435470
      4          1           0        0.564874    0.043898   -1.634156
      5          6           0       -0.474411    0.161153    1.647302
      6          1           0        0.129008   -0.689872    1.969445
      7          1           0       -0.047039    1.108415    1.993805
      8          1           0       -1.474815    0.071851    2.078887
      9          7           0       -1.371117    1.366371   -0.336138
     10          1           0       -2.317944    1.256780    0.018064
     11          1           0       -0.977358    2.205706    0.160532
     12          6           0        1.700056   -0.699218   -0.067380
     13          7           0        2.444384   -1.509859    0.342317
     14          7           0        1.406488    1.627688   -0.581178
     15          1           0        1.147904    2.153668    0.269356
     16          1           0        0.961054    2.167268   -1.315196
     17          1           0       -0.068756    3.282644    1.163283
 ---------------------------------------------------------------------

 SCF Done:  E(RHF) =  -779.647903792     A.U. after    2 cycles

 The electronic state is 1-A.
 Alpha  occ. eigenvalues -- -103.53130 -15.52598 -15.48471 -15.48202 -11.22986
 Alpha  occ. eigenvalues --  -11.19840 -11.17721 -11.11199 -10.56514  -8.22214
 Alpha  occ. eigenvalues --   -8.21965  -8.21954  -1.11074  -1.06434  -1.02932
 Alpha  occ. eigenvalues --   -0.98900  -0.87773  -0.83341  -0.68349  -0.59317
 Alpha  occ. eigenvalues --   -0.56339  -0.52624  -0.49379  -0.48678  -0.45808
 Alpha  occ. eigenvalues --   -0.44989  -0.42537  -0.40566  -0.39039  -0.35155
 Alpha  occ. eigenvalues --   -0.34330  -0.33766  -0.33364  -0.28727  -0.27424
 Alpha  occ. eigenvalues --   -0.10933
 Alpha virt. eigenvalues --    0.13050   0.13082   0.14514   0.15741   0.16338
 Alpha virt. eigenvalues --    0.17845   0.18182   0.18626   0.19879   0.21186
 Alpha virt. eigenvalues --    0.22477   0.22990   0.23820   0.24577   0.25053

 Mulliken charges:
               1
     1  C   -0.768583
     2  C    1.190805
     3  Cl  -0.274793
     4  H   -0.035623
     5  C    0.919672
     6  H   -0.093719
     7  H    0.045293
     8  H   -0.081665
     9  N   -0.457730
    10  H    0.004951
    11  H    0.069344
    12  C   -0.178384
    13  N   -0.292946
    14  N   -0.462015
    15  H    0.047293
    16  H    0.071747
    17  H   -0.703646
 Sum of Mulliken charges =  -1.00000

 Dipole moment (field-independent basis, Debye):
    X=             -2.9002    Y=             -7.0518    Z=             -3.0323  Tot=              8.2057

 Test job not archived.
 1\1\GINC-SE106\SP\RHF\Aug-CC-pVDZ\C4H9Cl1N3(1-)\OHZDE\09-Apr-2025\0\\#
 t hf aug-cc-pvdz iop(5/13=1,5/36=2,99/5=2) pseudo=read geom=check gues
 s=(read,tcheck) scf=(maxcycle=1)\\title\\-1,1\C,0,-0.022503,0.016043,-
 0.037287\C,0,-0.28845,0.145422,-1.55992\Cl,0,1.805965,-0.051622,0.1488
 5\H,0,0.38168,-0.574965,-2.039177\C,0,-0.509212,1.207038,0.770201\H,0,
 -0.079694,2.149943,0.425848\H,0,-1.602554,1.217478,0.70303\H,0,-0.2435
 ,1.057212,1.819962\N,0,-0.573314,-1.248251,0.372569\H,0,-0.281059,-1.4
 17087,1.331752\H,0,-1.61298,-1.094977,0.41515\C,0,0.105552,1.479121,-2

 Normal termination of Gaussian 16 at Wed Apr  9 02:53:32 2025.
