 Gaussian 16, Revision C.01,

 ----------------------------------------------------------------------
 #t hf aug-cc-pvdz symm=none int=(grid=ultrafine) guess=(read,tcheck) s
 table=(opt,rrhf)
 ----------------------------------------------------------------------
 -----
 title
 -----
 Symbolic Z-matrix:
 Charge = -1 Multiplicity = 1

 SCF Done:  E(RHF) =  -1291.30268860     A.U. after   16 cycles
 Normal termination of Gaussian 16 at Wed Apr  9 03:01:02 2025.
 Gaussian 16:  ES64L-G16RevC.01  3-Jul-2019

 ----------------------------------------------------------------------
 #t hf aug-cc-pvdz iop(5/13=1,5/36=2,99/5=2) pseudo=read geom=check gue
 ss=(read,tcheck) scf=(maxcycle=1)
 ----------------------------------------------------------------------
 -----
 title
 -----
 Structure from the checkpoint file:  "E2SN2_93_mol2.chk"
 Charge = -1 Multiplicity = 1

                         Standard orientation:
 ---------------------------------------------------------------------
 Center     Atomic      Atomic             Coordinates (Angstroms)
 Number     Number       Type             X           Y           Z
 ---------------------------------------------------------------------
      1          6           0        0.437855   -0.612994   -0.120555
      2          6           0       -0.049652    0.841417    0.131072
      3         17           0        1.838276   -0.519789   -1.340491
      4          1           0       -0.819887    0.757536    0.919477
      5          6           0        1.060370   -1.163051    1.093797
      6          7           0        1.499666   -1.642570    2.073923
      7          7           0       -0.609036   -1.386205   -0.643626
      8          1           0       -1.540902   -1.044801   -0.366140
      9          1           0       -0.501689   -2.374762   -0.470505
     10          7           0       -0.674759    1.479909   -0.998471
     11          1           0       -0.210169    1.210124   -1.856889
     12          1           0       -1.645883    1.176566   -1.017317
     13          6           0        1.062396    1.653567    0.651714
     14          7           0        1.928525    2.319496    1.081786
     15         17           0       -3.329926   -0.035076    0.261662
 ---------------------------------------------------------------------

 SCF Done:  E(RHF) =  -1291.43826940     A.U. after    2 cycles

 The electronic state is 1-A.
 Alpha  occ. eigenvalues -- -103.56384-103.40693 -15.56634 -15.54462 -15.52517
 Alpha  occ. eigenvalues --  -15.51324 -11.30203 -11.23055 -11.21261 -11.19321
 Alpha  occ. eigenvalues --  -10.59729 -10.43837  -8.25427  -8.25158  -8.25143
 Alpha  occ. eigenvalues --   -8.09445  -8.09405  -8.09393  -1.15989  -1.09444
 Alpha  occ. eigenvalues --   -1.08314  -1.05587  -1.03270  -0.90371  -0.86424
 Alpha  occ. eigenvalues --   -0.79790  -0.66917  -0.62958  -0.59654  -0.53239
 Alpha  occ. eigenvalues --   -0.52631  -0.51458  -0.47048  -0.46047  -0.44496
 Alpha  occ. eigenvalues --   -0.39577  -0.39033  -0.37625  -0.35884  -0.35743
 Alpha  occ. eigenvalues --   -0.35197  -0.32081  -0.30303  -0.24245  -0.24059
 Alpha  occ. eigenvalues --   -0.23894
 Alpha virt. eigenvalues --    0.12634   0.13679   0.15316   0.15961   0.17739
 Alpha virt. eigenvalues --    0.18339   0.18640   0.18891   0.20311   0.21810
 Alpha virt. eigenvalues --    0.22444   0.22804   0.23336   0.24068   0.25017

 Mulliken charges:
               1
     1  C    0.780423
     2  C    0.818900
     3  Cl  -0.219053
     4  H   -0.048566
     5  C   -0.319856
     6  N   -0.230359
     7  N   -0.450131
     8  H    0.065393
     9  H   -0.001111
    10  N   -0.317166
    11  H    0.035225
    12  H    0.108681
    13  C   -0.063313
    14  N   -0.259400
    15  Cl  -0.899668
 Sum of Mulliken charges =  -1.00000

 Dipole moment (field-independent basis, Debye):
    X=              5.2719    Y=             -2.2517    Z=             -3.3667  Tot=              6.6481

 Test job not archived.
 1\1\GINC-SE435\SP\RHF\Aug-CC-pVDZ\C4H5Cl2N4(1-)\OHZDE\09-Apr-2025\0\\#
 t hf aug-cc-pvdz iop(5/13=1,5/36=2,99/5=2) pseudo=read geom=check gues
 s=(read,tcheck) scf=(maxcycle=1)\\title\\-1,1\C,0,-0.190735,-0.035025,
 -1.505186\C,0,0.026808,0.164346,0.020992\Cl,0,-1.967861,-0.526236,-1.7
 47353\H,0,1.06308,0.535902,0.120829\C,0,-0.077817,1.250416,-2.21203\N,
 0,0.07608,2.256814,-2.801135\N,0,0.659484,-1.042937,-1.983393\H,0,1.51
 8562,-1.145838,-1.423638\H,0,0.858255,-0.964271,-2.969821\N,0,-0.06582
 5,-1.035134,0.812803\H,0,-0.789498,-1.642524,0.448268\H,0,0.837812,-1.

 Normal termination of Gaussian 16 at Wed Apr  9 03:01:11 2025.
