 Gaussian 16, Revision C.01,

 ----------------------------------------------------------------------
 #t hf aug-cc-pvdz symm=none int=(grid=ultrafine) guess=(read,tcheck) s
 table=(opt,rrhf)
 ----------------------------------------------------------------------
 -----
 title
 -----
 Symbolic Z-matrix:
 Charge = -1 Multiplicity = 1

 SCF Done:  E(RHF) =  -575.178184854     A.U. after   16 cycles
 Normal termination of Gaussian 16 at Wed Apr  9 02:56:24 2025.
 Gaussian 16:  ES64L-G16RevC.01  3-Jul-2019

 ----------------------------------------------------------------------
 #t hf aug-cc-pvdz iop(5/13=1,5/36=2,99/5=2) pseudo=read geom=check gue
 ss=(read,tcheck) scf=(maxcycle=1)
 ----------------------------------------------------------------------
 -----
 title
 -----
 Structure from the checkpoint file:  "E2SN2_400_mol2.chk"
 Charge = -1 Multiplicity = 1

                         Standard orientation:
 ---------------------------------------------------------------------
 Center     Atomic      Atomic             Coordinates (Angstroms)
 Number     Number       Type             X           Y           Z
 ---------------------------------------------------------------------
      1          6           0       -0.636089    0.679809    0.075776
      2          6           0        0.255024   -0.318030   -0.671615
      3          9           0        0.018108    1.929589    0.042070
      4          1           0       -0.292313   -1.272540   -0.605762
      5          1           0        0.377778    0.021224   -1.699768
      6          7           0       -1.891490    0.787752   -0.607677
      7          1           0       -2.233446   -0.207274   -0.588359
      8          1           0       -1.698816    1.016676   -1.579802
      9          6           0       -0.895165    0.285834    1.509266
     10          1           0        0.027444    0.228149    2.086007
     11          1           0       -1.564027    1.031624    1.942702
     12          1           0       -1.387539   -0.687048    1.464041
     13          7           0        1.627255   -0.427773   -0.127238
     14          8           0        2.545615    0.102874   -0.759745
     15          8           0        1.787244   -1.036502    0.933063
     16          9           0       -2.060878   -1.825958   -0.346711
 ---------------------------------------------------------------------

 SCF Done:  E(RHF) =  -575.357120522     A.U. after    2 cycles

 The electronic state is 1-A.
 Alpha  occ. eigenvalues --  -25.97156 -25.76329 -20.49308 -20.49178 -15.78383
 Alpha  occ. eigenvalues --  -15.45858 -11.22703 -11.15529 -11.08532  -1.50450
 Alpha  occ. eigenvalues --   -1.41233  -1.25334  -1.22876  -1.04544  -0.94629
 Alpha  occ. eigenvalues --   -0.85336  -0.74711  -0.70109  -0.63488  -0.61823
 Alpha  occ. eigenvalues --   -0.61656  -0.59171  -0.57475  -0.55048  -0.48986
 Alpha  occ. eigenvalues --   -0.47558  -0.44358  -0.41614  -0.40400  -0.39007
 Alpha  occ. eigenvalues --   -0.38577  -0.36872  -0.34815  -0.34634  -0.34016
 Alpha  occ. eigenvalues --   -0.33802  -0.26143
 Alpha virt. eigenvalues --    0.13584   0.13771   0.15199   0.16500   0.17004
 Alpha virt. eigenvalues --    0.18366   0.19504   0.20005   0.20693   0.22528
 Alpha virt. eigenvalues --    0.24445   0.25301   0.25807   0.26007   0.27076

 Mulliken charges:
               1
     1  C   -0.354169
     2  C    1.309282
     3  F   -0.493692
     4  H    0.020712
     5  H   -0.127096
     6  N   -0.531198
     7  H    0.252496
     8  H   -0.013360
     9  C    0.721508
    10  H    0.026122
    11  H   -0.016523
    12  H    0.030746
    13  N    0.397873
    14  O   -0.629522
    15  O   -0.617628
    16  F   -0.975553
 Sum of Mulliken charges =  -1.00000

 Dipole moment (field-independent basis, Debye):
    X=              2.9166    Y=              3.1867    Z=             -0.5178  Tot=              4.3508

 Test job not archived.
 1\1\GINC-SE208\SP\RHF\Aug-CC-pVDZ\C3H7F2N2O2(1-)\OHZDE\09-Apr-2025\0\\
 #t hf aug-cc-pvdz iop(5/13=1,5/36=2,99/5=2) pseudo=read geom=check gue
 ss=(read,tcheck) scf=(maxcycle=1)\\title\\-1,1\C,0,-0.017662,-0.029653
 ,0.013894\C,0,-0.491967,-0.07034,-1.442725\F,0,1.388848,0.081191,-0.00
 8556\H,0,-1.587348,-0.168528,-1.368547\H,0,-0.189381,0.852229,-1.93726
 4\N,0,-0.57035,1.128422,0.652791\H,0,-1.603398,0.969086,0.531103\H,0,-
 0.327,1.940669,0.091016\C,0,-0.41348,-1.254732,0.80113\H,0,0.015403,-2
 .162967,0.378833\H,0,-0.066814,-1.116382,1.826863\H,0,-1.503825,-1.287

 Normal termination of Gaussian 16 at Wed Apr  9 02:56:31 2025.
