 Gaussian 16, Revision C.01,

 ----------------------------------------------------------------------
 #t hf aug-cc-pvdz symm=none int=(grid=ultrafine) guess=(read,tcheck) s
 table=(opt,rrhf)
 ----------------------------------------------------------------------
 -----
 title
 -----
 Symbolic Z-matrix:
 Charge = -1 Multiplicity = 1

 SCF Done:  E(RHF) =  -1042.91876477     A.U. after   17 cycles
 Normal termination of Gaussian 16 at Wed Apr  9 02:58:21 2025.
 Gaussian 16:  ES64L-G16RevC.01  3-Jul-2019

 ----------------------------------------------------------------------
 #t hf aug-cc-pvdz iop(5/13=1,5/36=2,99/5=2) pseudo=read geom=check gue
 ss=(read,tcheck) scf=(maxcycle=1)
 ----------------------------------------------------------------------
 -----
 title
 -----
 Structure from the checkpoint file:  "E2SN2_415_mol1.chk"
 Charge = -1 Multiplicity = 1

                         Standard orientation:
 ---------------------------------------------------------------------
 Center     Atomic      Atomic             Coordinates (Angstroms)
 Number     Number       Type             X           Y           Z
 ---------------------------------------------------------------------
      1          6           0        0.996285    0.077624    0.024875
      2          1           0       -0.191765    1.061543    1.451487
      3         17           0        0.256222   -1.650119   -1.262719
      4          9           0        1.666506    1.536076    1.094462
      5          6           0       -0.382162    0.322093    0.674478
      6          7           0        1.334733    0.839101   -1.129130
      7          1           0        1.773043    0.250740   -1.820535
      8          1           0        1.932852    1.584970   -0.800908
      9          7           0        1.835488   -0.787137    0.796161
     10          1           0        2.552789   -0.189492    1.184053
     11          1           0        2.205014   -1.529343    0.222019
     12          6           0       -0.998599   -0.854372    1.272920
     13          7           0       -1.535664   -1.701465    1.883201
     14          7           0       -1.347956    0.999284   -0.259085
     15          8           0       -1.173437    2.204469   -0.410744
     16          8           0       -2.242265    0.336578   -0.775721
 ---------------------------------------------------------------------

 SCF Done:  E(RHF) =  -1043.10440780     A.U. after    2 cycles

 The electronic state is 1-A.
 Alpha  occ. eigenvalues -- -103.43833 -25.84327 -20.50398 -20.50056 -15.79999
 Alpha  occ. eigenvalues --  -15.53024 -15.50425 -15.49981 -11.32128 -11.23417
 Alpha  occ. eigenvalues --  -11.18548 -10.47214  -8.12848  -8.12727  -8.12710
 Alpha  occ. eigenvalues --   -1.42745  -1.34902  -1.24485  -1.11457  -1.06838
 Alpha  occ. eigenvalues --   -1.01159  -0.98914  -0.90580  -0.79089  -0.72259
 Alpha  occ. eigenvalues --   -0.66793  -0.63212  -0.60561  -0.59097  -0.56876
 Alpha  occ. eigenvalues --   -0.55885  -0.54141  -0.50604  -0.44703  -0.42897
 Alpha  occ. eigenvalues --   -0.42667  -0.42075  -0.40204  -0.39205  -0.36262
 Alpha  occ. eigenvalues --   -0.34630  -0.34241  -0.32315  -0.28785  -0.27639
 Alpha  occ. eigenvalues --   -0.26991  -0.26402
 Alpha virt. eigenvalues --    0.12353   0.13680   0.14087   0.15770   0.17679
 Alpha virt. eigenvalues --    0.19064   0.19294   0.20890   0.21505   0.22534
 Alpha virt. eigenvalues --    0.22998   0.24141   0.25053   0.25327   0.26068

 Mulliken charges:
               1
     1  C   -0.328037
     2  H    0.041328
     3  Cl  -0.613690
     4  F   -0.805822
     5  C    2.309191
     6  N   -0.135866
     7  H    0.026777
     8  H    0.086009
     9  N   -0.289676
    10  H    0.076066
    11  H    0.063896
    12  C   -0.228781
    13  N   -0.274653
    14  N    0.209116
    15  O   -0.567860
    16  O   -0.567998
 Sum of Mulliken charges =  -1.00000

 Dipole moment (field-independent basis, Debye):
    X=              3.0104    Y=              1.1703    Z=             -0.1007  Tot=              3.2314

 Test job not archived.
 1\1\GINC-SE128\SP\RHF\Aug-CC-pVDZ\C3H5Cl1F1N4O2(1-)\OHZDE\09-Apr-2025\
 0\\#t hf aug-cc-pvdz iop(5/13=1,5/36=2,99/5=2) pseudo=read geom=check
 guess=(read,tcheck) scf=(maxcycle=1)\\title\\-1,1\C,0,0.5919758,-0.127
 57878,-0.00332668\H,0,1.58114124,1.71599971,0.19044948\Cl,0,-1.6735525
 8,-0.36019069,0.05961421\F,0,2.51415324,0.02131886,-0.06127228\C,0,0.5
 4128084,1.41300025,0.07356601\N,0,0.65343278,-0.72985102,-1.2915853\H,
 0,0.03537288,-1.52505705,-1.33603394\H,0,1.62467962,-0.96902637,-1.437
 43024\N,0,0.744363,-0.7493151,1.27619601\H,0,1.69160384,-1.10235785,1.

 Normal termination of Gaussian 16 at Wed Apr  9 02:58:31 2025.
