 Gaussian 16, Revision C.01,

 ----------------------------------------------------------------------
 #t hf aug-cc-pvdz symm=none int=(grid=ultrafine) guess=(read,tcheck) s
 table=(opt,rrhf)
 ----------------------------------------------------------------------
 -----
 title
 -----
 Symbolic Z-matrix:
 Charge = -1 Multiplicity = 1

 SCF Done:  E(RHF) =  -419.433168959     A.U. after   16 cycles
 Normal termination of Gaussian 16 at Wed Apr  9 02:59:15 2025.
 Gaussian 16:  ES64L-G16RevC.01  3-Jul-2019

 ----------------------------------------------------------------------
 #t hf aug-cc-pvdz iop(5/13=1,5/36=2,99/5=2) pseudo=read geom=check gue
 ss=(read,tcheck) scf=(maxcycle=1)
 ----------------------------------------------------------------------
 -----
 title
 -----
 Structure from the checkpoint file:  "E2SN2_74_mol1.chk"
 Charge = -1 Multiplicity = 1

                         Standard orientation:
 ---------------------------------------------------------------------
 Center     Atomic      Atomic             Coordinates (Angstroms)
 Number     Number       Type             X           Y           Z
 ---------------------------------------------------------------------
      1          6           0        0.309406    0.418405    0.058201
      2          6           0       -0.899007   -0.351114   -0.225388
      3          9           0        0.498709    0.755299    1.493980
      4          1           0       -1.283230   -1.327098   -2.376083
      5          1           0       -0.932646   -0.807005   -1.525695
      6          6           0        1.497967   -0.405794   -0.235512
      7          7           0        2.454826   -1.043019   -0.482477
      8          6           0        0.377749    1.748644   -0.661955
      9          1           0        1.279113    2.293595   -0.370545
     10          1           0        0.375626    1.584821   -1.742637
     11          1           0       -0.516236    2.308426   -0.392614
     12          7           0       -1.002639   -1.608489    0.500235
     13          1           0       -0.253728   -1.718316    1.173162
     14          1           0       -0.943088   -2.371051   -0.178680
     15          7           0       -2.113348    0.435301   -0.205688
     16          1           0       -2.616617    0.210571    0.647772
     17          1           0       -2.686145    0.080962   -0.977061
 ---------------------------------------------------------------------

 SCF Done:  E(RHF) =  -419.563172558     A.U. after    2 cycles

 The electronic state is 1-A.
 Alpha  occ. eigenvalues --  -25.95703 -15.51768 -15.45865 -15.45464 -11.22365
 Alpha  occ. eigenvalues --  -11.16703 -11.11375 -11.09864  -1.47494  -1.06295
 Alpha  occ. eigenvalues --   -1.03752  -0.94247  -0.93092  -0.78549  -0.68221
 Alpha  occ. eigenvalues --   -0.62120  -0.57958  -0.55375  -0.52236  -0.50895
 Alpha  occ. eigenvalues --   -0.47385  -0.45204  -0.44255  -0.43063  -0.40965
 Alpha  occ. eigenvalues --   -0.39782  -0.34670  -0.33514  -0.32893  -0.27215
 Alpha  occ. eigenvalues --   -0.23880  -0.09723
 Alpha virt. eigenvalues --    0.12691   0.13563   0.14488   0.15123   0.16086
 Alpha virt. eigenvalues --    0.17141   0.17901   0.19065   0.19646   0.21369
 Alpha virt. eigenvalues --    0.23415   0.24239   0.25065   0.25696   0.26187

 Mulliken charges:
               1
     1  C   -0.051262
     2  C    0.759547
     3  F   -0.575263
     4  H   -0.950307
     5  H    0.494575
     6  C   -0.443216
     7  N   -0.287133
     8  C    0.731044
     9  H    0.020538
    10  H    0.100373
    11  H    0.065657
    12  N   -0.456306
    13  H    0.026410
    14  H   -0.001150
    15  N   -0.520436
    16  H    0.038275
    17  H    0.048654
 Sum of Mulliken charges =  -1.00000

 Dipole moment (field-independent basis, Debye):
    X=              1.1491    Y=              3.9639    Z=              3.9325  Tot=              5.7007

 Test job not archived.
 1\1\GINC-SE412\SP\RHF\Aug-CC-pVDZ\C4H9F1N3(1-)\OHZDE\09-Apr-2025\0\\#t
  hf aug-cc-pvdz iop(5/13=1,5/36=2,99/5=2) pseudo=read geom=check guess
 =(read,tcheck) scf=(maxcycle=1)\\title\\-1,1\C,0,-0.08659135,0.0332240
 2,-0.43836959\C,0,-0.15140612,0.06339604,1.02030532\F,0,1.29077488,-0.
 07063017,-0.98870864\H,0,-2.23441564,-0.12380031,2.18292837\H,0,-1.444
 58123,-0.03893894,1.48613202\C,0,-0.72217301,-1.20324697,-0.93377198\N
 ,0,-1.24162066,-2.17456876,-1.34527513\C,0,-0.67803977,1.25560146,-1.1
 0830524\H,0,-0.55499695,1.19273769,-2.19239815\H,0,-1.73909166,1.33720

 Normal termination of Gaussian 16 at Wed Apr  9 02:59:22 2025.
