 Gaussian 16, Revision C.01,

 ----------------------------------------------------------------------
 #t hf aug-cc-pvdz symm=none int=(grid=ultrafine) guess=(read,tcheck) s
 table=(opt,rrhf)
 ----------------------------------------------------------------------
 -----
 title
 -----
 Symbolic Z-matrix:
 Charge = -1 Multiplicity = 1

 SCF Done:  E(RHF) =  -935.180938141     A.U. after   16 cycles
 Normal termination of Gaussian 16 at Wed Apr  9 02:36:13 2025.
 Gaussian 16:  ES64L-G16RevC.01  3-Jul-2019

 ----------------------------------------------------------------------
 #t hf aug-cc-pvdz iop(5/13=1,5/36=2,99/5=2) pseudo=read geom=check gue
 ss=(read,tcheck) scf=(maxcycle=1)
 ----------------------------------------------------------------------
 -----
 title
 -----
 Structure from the checkpoint file:  "E2SN2_172_mol1.chk"
 Charge = -1 Multiplicity = 1

                         Standard orientation:
 ---------------------------------------------------------------------
 Center     Atomic      Atomic             Coordinates (Angstroms)
 Number     Number       Type             X           Y           Z
 ---------------------------------------------------------------------
      1          6           0       -0.119786   -0.083642   -0.496757
      2          1           0        0.807577   -1.872192   -0.102139
      3         17           0        0.465924    1.913176   -0.190123
      4          9           0       -0.980584   -1.825731   -0.973262
      5          6           0        1.093607   -0.830891    0.029404
      6          1           0       -0.238750    0.020841   -1.556375
      7          7           0       -1.399587    0.008722    0.236949
      8          8           0       -1.439977   -0.376499    1.402336
      9          8           0       -2.337695    0.511920   -0.367391
     10          6           0        1.492802   -0.594700    1.483598
     11          1           0        1.752296    0.450812    1.656753
     12          1           0        0.697462   -0.877941    2.169962
     13          1           0        2.375289   -1.210561    1.693045
     14          7           0        2.181272   -0.554149   -0.919979
     15          1           0        2.938045   -1.198673   -0.720579
     16          1           0        2.522478    0.385309   -0.745047
 ---------------------------------------------------------------------

 SCF Done:  E(RHF) =  -935.340581900     A.U. after    2 cycles

 The electronic state is 1-A.
 Alpha  occ. eigenvalues -- -103.47365 -25.78587 -20.46762 -20.46746 -15.77646
 Alpha  occ. eigenvalues --  -15.49075 -11.25127 -11.15031 -11.10153 -10.50665
 Alpha  occ. eigenvalues --   -8.16329  -8.16154  -8.16141  -1.39854  -1.28177
 Alpha  occ. eigenvalues --   -1.21339  -1.05423  -0.97352  -0.90143  -0.85487
 Alpha  occ. eigenvalues --   -0.75138  -0.67118  -0.61141  -0.59214  -0.57743
 Alpha  occ. eigenvalues --   -0.54948  -0.49360  -0.46596  -0.45042  -0.42351
 Alpha  occ. eigenvalues --   -0.40927  -0.38668  -0.37638  -0.36642  -0.35883
 Alpha  occ. eigenvalues --   -0.34294  -0.32533  -0.29916  -0.29649  -0.29071
 Alpha  occ. eigenvalues --   -0.27472
 Alpha virt. eigenvalues --    0.11663   0.13417   0.14374   0.15740   0.16428
 Alpha virt. eigenvalues --    0.16907   0.17569   0.19810   0.21296   0.23037
 Alpha virt. eigenvalues --    0.23847   0.24928   0.26152   0.26303   0.27395

 Mulliken charges:
               1
     1  C    1.206699
     2  H   -0.034466
     3  Cl  -0.556093
     4  F   -0.871229
     5  C   -0.110702
     6  H   -0.272562
     7  N    0.691664
     8  O   -0.708120
     9  O   -0.700417
    10  C    0.753882
    11  H   -0.064269
    12  H   -0.006463
    13  H   -0.049143
    14  N   -0.299336
    15  H   -0.045485
    16  H    0.066041
 Sum of Mulliken charges =  -1.00000

 Dipole moment (field-independent basis, Debye):
    X=              5.9053    Y=              1.0913    Z=              2.1712  Tot=              6.3857

 Test job not archived.
 1\1\GINC-SE455\SP\RHF\Aug-CC-pVDZ\C3H7Cl1F1N2O2(1-)\OHZDE\09-Apr-2025\
 0\\#t hf aug-cc-pvdz iop(5/13=1,5/36=2,99/5=2) pseudo=read geom=check
 guess=(read,tcheck) scf=(maxcycle=1)\\title\\-1,1\C,0,0.56734234,-0.01
 178201,0.05434024\H,0,1.63845268,1.73588762,0.16840125\Cl,0,-1.4970955
 9,-0.40395176,-0.03874066\F,0,2.56781769,-0.02132062,0.08451817\C,0,0.
 57715053,1.50650951,0.10170824\H,0,0.79162143,-0.49798465,-0.87365011\
 N,0,0.84103046,-0.86423153,1.23042223\O,0,0.90207974,-0.33801665,2.338
 35962\O,0,0.94791442,-2.06511787,1.01845899\C,0,-0.16085774,2.18204575

 Normal termination of Gaussian 16 at Wed Apr  9 02:36:21 2025.
