 Gaussian 16, Revision C.01,

 ----------------------------------------------------------------------
 #t hf aug-cc-pvdz symm=none int=(grid=ultrafine) guess=(read,tcheck) s
 table=(opt,rrhf)
 ----------------------------------------------------------------------
 -----
 title
 -----
 Symbolic Z-matrix:
 Charge = -1 Multiplicity = 1

 SCF Done:  E(RHF) =  -836.239304196     A.U. after   17 cycles
 Normal termination of Gaussian 16 at Wed Apr  9 02:38:08 2025.
 Gaussian 16:  ES64L-G16RevC.01  3-Jul-2019

 ----------------------------------------------------------------------
 #t hf aug-cc-pvdz iop(5/13=1,5/36=2,99/5=2) pseudo=read geom=check gue
 ss=(read,tcheck) scf=(maxcycle=1)
 ----------------------------------------------------------------------
 -----
 title
 -----
 Structure from the checkpoint file:  "E2SN2_188_mol1.chk"
 Charge = -1 Multiplicity = 1

                         Standard orientation:
 ---------------------------------------------------------------------
 Center     Atomic      Atomic             Coordinates (Angstroms)
 Number     Number       Type             X           Y           Z
 ---------------------------------------------------------------------
      1          6           0       -1.011365    0.270037    0.717102
      2          1           0        0.815714    0.754449    1.678969
      3         17           0       -1.368767   -1.020297   -0.857775
      4          1           0       -1.049340    1.201271    2.688300
      5          6           0        0.472810    0.021176    0.953909
      6          1           0       -1.611438   -0.231858    1.452413
      7          6           0       -1.498198    1.589675    0.153967
      8          1           0       -1.012281    2.427395    0.640699
      9          1           0       -1.313931    1.638772   -0.919982
     10          1           0       -2.571973    1.660990    0.335138
     11          7           0        1.289052    0.378225   -0.311709
     12          8           0        1.998858   -0.490555   -0.818228
     13          8           0        1.255000    1.549583   -0.686707
     14          7           0        0.725021   -1.301574    1.394549
     15          1           0        1.717285   -1.447324    1.518567
     16          1           0        0.386139   -1.952761    0.697802
 ---------------------------------------------------------------------

 SCF Done:  E(RHF) =  -836.369787275     A.U. after    2 cycles

 The electronic state is 1-A.
 Alpha  occ. eigenvalues -- -103.48066 -20.49712 -20.49389 -15.78070 -15.50606
 Alpha  occ. eigenvalues --  -11.21753 -11.20245 -11.10240 -10.51353  -8.17016
 Alpha  occ. eigenvalues --   -8.16843  -8.16826  -1.41513  -1.23395  -1.08647
 Alpha  occ. eigenvalues --   -0.97590  -0.90600  -0.85735  -0.75466  -0.68971
 Alpha  occ. eigenvalues --   -0.63236  -0.61489  -0.59521  -0.55461  -0.51602
 Alpha  occ. eigenvalues --   -0.47820  -0.44063  -0.42548  -0.41174  -0.39161
 Alpha  occ. eigenvalues --   -0.37646  -0.35214  -0.32534  -0.30969  -0.30065
 Alpha  occ. eigenvalues --   -0.29527  -0.09511
 Alpha virt. eigenvalues --    0.12750   0.14043   0.14691   0.15927   0.16757
 Alpha virt. eigenvalues --    0.17106   0.18114   0.20013   0.20701   0.21912
 Alpha virt. eigenvalues --    0.22773   0.23209   0.24960   0.26007   0.26433

 Mulliken charges:
               1
     1  C   -0.549818
     2  H   -0.178801
     3  Cl  -0.546751
     4  H   -0.611938
     5  C    1.493002
     6  H   -0.336596
     7  C    0.703971
     8  H   -0.063963
     9  H    0.036722
    10  H   -0.015974
    11  N    0.472097
    12  O   -0.643115
    13  O   -0.634811
    14  N   -0.168005
    15  H   -0.008553
    16  H    0.052534
 Sum of Mulliken charges =  -1.00000

 Dipole moment (field-independent basis, Debye):
    X=              3.0548    Y=             -2.6397    Z=             -4.6815  Tot=              6.1819

 Test job not archived.
 1\1\GINC-SE149\SP\RHF\Aug-CC-pVDZ\C3H8Cl1N2O2(1-)\OHZDE\09-Apr-2025\0\
 \#t hf aug-cc-pvdz iop(5/13=1,5/36=2,99/5=2) pseudo=read geom=check gu
 ess=(read,tcheck) scf=(maxcycle=1)\\title\\-1,1\C,0,0.35915658,-0.0360
 1852,0.07273541\H,0,1.74218895,1.56397554,0.23179776\Cl,0,-1.7053914,0
 .01205809,-0.01817614\H,0,2.45282528,-0.37167279,-0.43534954\C,0,0.677
 02321,1.45363739,0.0467805\H,0,0.53419799,-0.48719519,-0.88563259\C,0,
 0.5958791,-0.85978251,1.32211418\H,0,1.56065922,-0.63641869,1.76268905
 \H,0,-0.18881226,-0.67487789,2.0568251\H,0,0.58055319,-1.91433486,1.04

 Normal termination of Gaussian 16 at Wed Apr  9 02:38:15 2025.
