 Gaussian 16, Revision C.01,

 ----------------------------------------------------------------------
 #t hf aug-cc-pvdz symm=none int=(grid=ultrafine) guess=(read,tcheck) s
 table=(opt,rrhf)
 ----------------------------------------------------------------------
 -----
 title
 -----
 Symbolic Z-matrix:
 Charge = -1 Multiplicity = 1

 SCF Done:  E(RHF) =  -627.831849281     A.U. after   16 cycles
 Normal termination of Gaussian 16 at Wed Apr  9 02:54:16 2025.
 Gaussian 16:  ES64L-G16RevC.01  3-Jul-2019

 ----------------------------------------------------------------------
 #t hf aug-cc-pvdz iop(5/13=1,5/36=2,99/5=2) pseudo=read geom=check gue
 ss=(read,tcheck) scf=(maxcycle=1)
 ----------------------------------------------------------------------
 -----
 title
 -----
 Structure from the checkpoint file:  "E2SN2_376_mol1.chk"
 Charge = -1 Multiplicity = 1

                         Standard orientation:
 ---------------------------------------------------------------------
 Center     Atomic      Atomic             Coordinates (Angstroms)
 Number     Number       Type             X           Y           Z
 ---------------------------------------------------------------------
      1          6           0       -0.111392    0.303758    0.124455
      2          1           0        1.052886    1.103947   -1.471578
      3          9           0        0.400400   -1.181409    0.914450
      4          9           0       -0.866444    1.620817   -0.742604
      5          6           0        0.998090    0.177007   -0.903699
      6          1           0        0.735071   -0.636488   -1.579638
      7          7           0        0.042722    1.069624    1.295656
      8          1           0       -0.019094    0.443325    2.083712
      9          1           0       -0.686262    1.766329    1.305395
     10          7           0       -1.409520   -0.446645   -0.143686
     11          8           0       -1.505265   -1.099613   -1.174909
     12          8           0       -2.287190   -0.335700    0.702474
     13          6           0        2.305424   -0.093509   -0.308944
     14          7           0        3.409471   -0.261953    0.051474
 ---------------------------------------------------------------------

 SCF Done:  E(RHF) =  -628.021038264     A.U. after    2 cycles

 The electronic state is 1-A.
 Alpha  occ. eigenvalues --  -25.86852 -25.86203 -20.47782 -20.47730 -15.77848
 Alpha  occ. eigenvalues --  -15.50673 -15.49566 -11.31947 -11.16768 -11.15944
 Alpha  occ. eigenvalues --   -1.41474  -1.37328  -1.36699  -1.22331  -1.06895
 Alpha  occ. eigenvalues --   -1.04730  -0.93307  -0.85986  -0.69031  -0.63835
 Alpha  occ. eigenvalues --   -0.61137  -0.60533  -0.57861  -0.56691  -0.53317
 Alpha  occ. eigenvalues --   -0.49167  -0.46549  -0.46082  -0.44795  -0.43925
 Alpha  occ. eigenvalues --   -0.43206  -0.41845  -0.41279  -0.38054  -0.35911
 Alpha  occ. eigenvalues --   -0.33638  -0.32445  -0.31806  -0.29784
 Alpha virt. eigenvalues --    0.13389   0.14140   0.15438   0.16723   0.18679
 Alpha virt. eigenvalues --    0.21152   0.22114   0.22630   0.23769   0.24269
 Alpha virt. eigenvalues --    0.25726   0.26230   0.26751   0.27046   0.28743

 Mulliken charges:
               1
     1  C    0.893562
     2  H    0.063071
     3  F   -0.710929
     4  F   -0.717696
     5  C    0.426021
     6  H    0.196368
     7  N   -0.359733
     8  H    0.068777
     9  H    0.057731
    10  N    0.693712
    11  O   -0.725444
    12  O   -0.684086
    13  C    0.163069
    14  N   -0.364424
 Sum of Mulliken charges =  -1.00000

 Dipole moment (field-independent basis, Debye):
    X=             -0.8160    Y=              1.5140    Z=             -0.4206  Tot=              1.7705

 Test job not archived.
 1\1\GINC-SE069\SP\RHF\Aug-CC-pVDZ\C3H4F2N3O2(1-)\OHZDE\09-Apr-2025\0\\
 #t hf aug-cc-pvdz iop(5/13=1,5/36=2,99/5=2) pseudo=read geom=check gue
 ss=(read,tcheck) scf=(maxcycle=1)\\title\\-1,1\C,0,0.6932338,-0.058427
 22,-0.08275139\H,0,1.69276673,1.81795048,-0.23542486\F,0,-1.06287113,-
 0.11618095,-0.14987572\F,0,2.40562132,-0.11157388,0.26573448\C,0,0.675
 54411,1.45938806,-0.08914157\H,0,0.32005784,1.79289765,0.8856639\N,0,0
 .83899853,-0.80637631,-1.2665332\H,0,-0.00450122,-1.34346467,-1.397488
 5\H,0,1.65156487,-1.39410579,-1.16060729\N,0,0.5292887,-0.75928112,1.2

 Normal termination of Gaussian 16 at Wed Apr  9 02:54:22 2025.
