 Gaussian 16, Revision C.01,

 ----------------------------------------------------------------------
 #t hf aug-cc-pvdz symm=none int=(grid=ultrafine) guess=(read,tcheck) s
 table=(opt,rrhf)
 ----------------------------------------------------------------------
 -----
 title
 -----
 Symbolic Z-matrix:
 Charge = -1 Multiplicity = 1

 SCF Done:  E(RHF) =  -1236.25644626     A.U. after   15 cycles
 Normal termination of Gaussian 16 at Wed Apr  9 02:43:12 2025.
 Gaussian 16:  ES64L-G16RevC.01  3-Jul-2019

 ----------------------------------------------------------------------
 #t hf aug-cc-pvdz iop(5/13=1,5/36=2,99/5=2) pseudo=read geom=check gue
 ss=(read,tcheck) scf=(maxcycle=1)
 ----------------------------------------------------------------------
 -----
 title
 -----
 Structure from the checkpoint file:  "E2SN2_254_mol2.chk"
 Charge = -1 Multiplicity = 1

                         Standard orientation:
 ---------------------------------------------------------------------
 Center     Atomic      Atomic             Coordinates (Angstroms)
 Number     Number       Type             X           Y           Z
 ---------------------------------------------------------------------
      1          6           0        0.129535   -0.460684   -0.384948
      2          6           0        0.275609    0.600776    0.728560
      3         17           0        1.746126   -0.896691   -1.059130
      4          1           0       -0.761918    0.889669    0.939920
      5          1           0       -0.495136   -0.066515   -1.186237
      6          6           0       -0.466604   -1.669115    0.173291
      7          7           0       -0.847048   -2.659909    0.676212
      8          6           0        0.966212    1.780505    0.193844
      9          7           0        1.546729    2.716438   -0.211776
     10          7           0        0.939701    0.165615    1.944002
     11          1           0        0.348388   -0.508705    2.414962
     12          1           0        1.819945   -0.283853    1.717630
     13         17           0       -2.794094    0.714662   -0.412036
 ---------------------------------------------------------------------

 SCF Done:  E(RHF) =  -1236.37769435     A.U. after    2 cycles

 The electronic state is 1-A.
 Alpha  occ. eigenvalues -- -103.57686-103.38517 -15.55156 -15.54350 -15.53836
 Alpha  occ. eigenvalues --  -11.25279 -11.22552 -11.20371 -11.19328 -10.60997
 Alpha  occ. eigenvalues --  -10.41610  -8.26715  -8.26425  -8.26415  -8.07209
 Alpha  occ. eigenvalues --   -8.07182  -8.07170  -1.13530  -1.08877  -1.07082
 Alpha  occ. eigenvalues --   -1.06414  -0.92622  -0.83853  -0.82751  -0.63970
 Alpha  occ. eigenvalues --   -0.61424  -0.58377  -0.53504  -0.52574  -0.47067
 Alpha  occ. eigenvalues --   -0.45712  -0.44217  -0.38930  -0.38472  -0.37090
 Alpha  occ. eigenvalues --   -0.35836  -0.35464  -0.34736  -0.32446  -0.22050
 Alpha  occ. eigenvalues --   -0.21738  -0.21614
 Alpha virt. eigenvalues --    0.12055   0.14080   0.15108   0.16240   0.17820
 Alpha virt. eigenvalues --    0.18102   0.19149   0.21143   0.21731   0.23037
 Alpha virt. eigenvalues --    0.23560   0.23755   0.24248   0.25325   0.25762

 Mulliken charges:
               1
     1  C    0.643951
     2  C    1.056555
     3  Cl  -0.136713
     4  H   -0.128401
     5  H   -0.157442
     6  C   -0.255416
     7  N   -0.223622
     8  C   -0.283583
     9  N   -0.246010
    10  N   -0.417703
    11  H    0.039695
    12  H    0.040945
    13  Cl  -0.932256
 Sum of Mulliken charges =  -1.00000

 Dipole moment (field-independent basis, Debye):
    X=              8.2442    Y=             -3.4184    Z=              1.5961  Tot=              9.0664

 Test job not archived.
 1\1\GINC-SE462\SP\RHF\Aug-CC-pVDZ\C4H4Cl2N3(1-)\OHZDE\09-Apr-2025\0\\#
 t hf aug-cc-pvdz iop(5/13=1,5/36=2,99/5=2) pseudo=read geom=check gues
 s=(read,tcheck) scf=(maxcycle=1)\\title\\-1,1\C,0,-0.108075,0.060475,0
 .001489\C,0,-0.549266,0.203915,-1.472523\Cl,0,1.6831,-0.134526,0.10945
 8\H,0,-1.644229,0.156366,-1.414298\H,0,-0.587891,-0.812466,0.443528\C,
 0,-0.47514,1.265772,0.736226\N,0,-0.687348,2.289824,1.270665\C,0,-0.09
 2883,-0.963257,-2.236747\N,0,0.294635,-1.87469,-2.866523\N,0,-0.128549
 ,1.416451,-2.151076\H,0,-0.614253,2.204948,-1.740556\H,0,0.86828,1.555

 Normal termination of Gaussian 16 at Wed Apr  9 02:43:27 2025.
