 Gaussian 16, Revision C.01,

 ----------------------------------------------------------------------
 #t hf aug-cc-pvdz symm=none int=(grid=ultrafine) guess=(read,tcheck) s
 table=(opt,rrhf)
 ----------------------------------------------------------------------
 -----
 title
 -----
 Symbolic Z-matrix:
 Charge = -1 Multiplicity = 1

 SCF Done:  E(RHF) =  -531.193900341     A.U. after   17 cycles
 Normal termination of Gaussian 16 at Wed Apr  9 02:57:31 2025.
 Gaussian 16:  ES64L-G16RevC.01  3-Jul-2019

 ----------------------------------------------------------------------
 #t hf aug-cc-pvdz iop(5/13=1,5/36=2,99/5=2) pseudo=read geom=check gue
 ss=(read,tcheck) scf=(maxcycle=1)
 ----------------------------------------------------------------------
 -----
 title
 -----
 Structure from the checkpoint file:  "E2SN2_410_mol1.chk"
 Charge = -1 Multiplicity = 1

                         Standard orientation:
 ---------------------------------------------------------------------
 Center     Atomic      Atomic             Coordinates (Angstroms)
 Number     Number       Type             X           Y           Z
 ---------------------------------------------------------------------
      1          6           0       -1.090656   -0.062434   -0.147466
      2          1           0        0.314227    0.198016   -1.720770
      3          9           0       -0.513707   -0.785640    1.206026
      4          1           0       -1.743282    0.793348   -1.656269
      5          6           0        0.249722    0.482044   -0.676601
      6          7           0       -1.946167    0.832797    0.617288
      7          1           0       -2.222627    0.331723    1.453774
      8          1           0       -2.735904    1.073768    0.041908
      9          7           0       -1.540104   -1.306084   -0.744312
     10          1           0       -2.341500   -1.112300   -1.320270
     11          1           0       -1.766333   -1.933114    0.018454
     12          7           0        1.439972   -0.248446   -0.057188
     13          8           0        2.036200    0.251343    0.895591
     14          8           0        1.763152   -1.312287   -0.585738
     15          6           0        0.442225    1.963826   -0.452188
     16          1           0        0.403786    2.187104    0.611996
     17          1           0        1.405888    2.291005   -0.854976
     18          1           0       -0.369362    2.480279   -0.959894
 ---------------------------------------------------------------------

 SCF Done:  E(RHF) =  -531.356870057     A.U. after    2 cycles

 The electronic state is 1-A.
 Alpha  occ. eigenvalues --  -25.87866 -20.45993 -20.45956 -15.74930 -15.46614
 Alpha  occ. eigenvalues --  -15.46387 -11.25609 -11.15699 -11.08948  -1.39750
 Alpha  occ. eigenvalues --   -1.37731  -1.19787  -1.05124  -0.96336  -0.94686
 Alpha  occ. eigenvalues --   -0.79253  -0.73119  -0.65096  -0.59846  -0.58436
 Alpha  occ. eigenvalues --   -0.57529  -0.54302  -0.53592  -0.50226  -0.48232
 Alpha  occ. eigenvalues --   -0.45443  -0.43756  -0.42684  -0.42232  -0.39608
 Alpha  occ. eigenvalues --   -0.37084  -0.35348  -0.34176  -0.31580  -0.29502
 Alpha  occ. eigenvalues --   -0.24330  -0.12122
 Alpha virt. eigenvalues --    0.12812   0.13437   0.14119   0.15287   0.16031
 Alpha virt. eigenvalues --    0.16934   0.17637   0.18570   0.20048   0.22927
 Alpha virt. eigenvalues --    0.23625   0.24600   0.24906   0.25738   0.26904

 Mulliken charges:
               1
     1  C   -0.160464
     2  H   -0.289177
     3  F   -0.621960
     4  H   -0.394989
     5  C    0.814048
     6  N   -0.213997
     7  H   -0.000785
     8  H    0.062072
     9  N   -0.089921
    10  H    0.022046
    11  H   -0.020257
    12  N    0.385559
    13  O   -0.655111
    14  O   -0.661456
    15  C    0.778830
    16  H    0.080132
    17  H   -0.017323
    18  H   -0.017247
 Sum of Mulliken charges =  -1.00000

 Dipole moment (field-independent basis, Debye):
    X=             -0.8209    Y=              0.6255    Z=              1.2723  Tot=              1.6383

 Test job not archived.
 1\1\GINC-SE149\SP\RHF\Aug-CC-pVDZ\C3H9F1N3O2(1-)\OHZDE\09-Apr-2025\0\\
 #t hf aug-cc-pvdz iop(5/13=1,5/36=2,99/5=2) pseudo=read geom=check gue
 ss=(read,tcheck) scf=(maxcycle=1)\\title\\-1,1\C,0,0.50747041,-0.11364
 19,0.04156765\H,0,1.46028263,1.65967235,0.72297882\F,0,-1.04327582,-0.
 31897475,0.53234459\H,0,2.2459738,0.12813337,-0.55334466\C,0,0.5609960
 5,1.42079833,0.16678987\N,0,0.23805701,-0.69081942,-1.26704602\H,0,-0.
 49036402,-1.38366701,-1.13828586\H,0,1.0925741,-1.09874736,-1.60794227
 \N,0,1.06675972,-0.85234605,1.15799245\H,0,1.92020552,-1.29009563,0.85

 Normal termination of Gaussian 16 at Wed Apr  9 02:57:40 2025.
