 Gaussian 16, Revision C.01,

 ----------------------------------------------------------------------
 #t hf aug-cc-pvdz symm=none int=(grid=ultrafine) guess=(read,tcheck) s
 table=(opt,rrhf)
 ----------------------------------------------------------------------
 -----
 title
 -----
 Symbolic Z-matrix:
 Charge = -1 Multiplicity = 1

 SCF Done:  E(RHF) =  -1043.01736483     A.U. after   16 cycles
 Normal termination of Gaussian 16 at Wed Apr  9 02:51:13 2025.
 Gaussian 16:  ES64L-G16RevC.01  3-Jul-2019

 ----------------------------------------------------------------------
 #t hf aug-cc-pvdz iop(5/13=1,5/36=2,99/5=2) pseudo=read geom=check gue
 ss=(read,tcheck) scf=(maxcycle=1)
 ----------------------------------------------------------------------
 -----
 title
 -----
 Structure from the checkpoint file:  "E2SN2_321_mol2.chk"
 Charge = -1 Multiplicity = 1

                         Standard orientation:
 ---------------------------------------------------------------------
 Center     Atomic      Atomic             Coordinates (Angstroms)
 Number     Number       Type             X           Y           Z
 ---------------------------------------------------------------------
      1          6           0        0.230024    0.841134    0.401551
      2          6           0        0.800304   -0.049692   -0.732565
      3          9           0        1.353115    1.494813    0.941430
      4          1           0        1.290534    0.585962   -1.471414
      5          6           0       -0.584927    1.883972   -0.258823
      6          7           0       -1.149253    2.743982   -0.824060
      7          7           0       -0.495012    0.224027    1.436769
      8          1           0       -0.043229   -0.642282    1.704384
      9          1           0       -1.458054    0.010789    1.155554
     10          7           0       -0.133567   -0.939679   -1.304379
     11          1           0       -0.371846   -0.683700   -2.249229
     12          1           0       -0.993705   -1.072477   -0.766251
     13          7           0        1.970308   -0.827704   -0.135255
     14          8           0        1.719907   -1.615213    0.774023
     15          8           0        3.084556   -0.631615   -0.616095
     16         17           0       -3.121010   -1.066697    0.071656
 ---------------------------------------------------------------------

 SCF Done:  E(RHF) =  -1043.20680456     A.U. after    2 cycles

 The electronic state is 1-A.
 Alpha  occ. eigenvalues -- -103.39664 -26.03646 -20.53067 -20.52741 -15.81486
 Alpha  occ. eigenvalues --  -15.56723 -15.52454 -15.51557 -11.32481 -11.26281
 Alpha  occ. eigenvalues --  -11.20933 -10.42788  -8.08393  -8.08361  -8.08339
 Alpha  occ. eigenvalues --   -1.57117  -1.44946  -1.26907  -1.14025  -1.09447
 Alpha  occ. eigenvalues --   -1.06997  -0.94309  -0.87529  -0.85210  -0.75539
 Alpha  occ. eigenvalues --   -0.72010  -0.68873  -0.66367  -0.65183  -0.63767
 Alpha  occ. eigenvalues --   -0.61277  -0.59845  -0.54599  -0.54432  -0.52703
 Alpha  occ. eigenvalues --   -0.48064  -0.46164  -0.42969  -0.41935  -0.38429
 Alpha  occ. eigenvalues --   -0.38098  -0.37763  -0.33513  -0.31077  -0.23160
 Alpha  occ. eigenvalues --   -0.23007  -0.22772
 Alpha virt. eigenvalues --    0.12045   0.14225   0.14948   0.16813   0.17044
 Alpha virt. eigenvalues --    0.18491   0.18774   0.19575   0.20330   0.22148
 Alpha virt. eigenvalues --    0.22451   0.23449   0.24062   0.24634   0.25085

 Mulliken charges:
               1
     1  C    1.237171
     2  C    1.395808
     3  F   -0.445502
     4  H   -0.241947
     5  C   -0.502108
     6  N   -0.186784
     7  N   -0.437516
     8  H    0.098483
     9  H    0.070893
    10  N   -0.249298
    11  H    0.002434
    12  H    0.019941
    13  N    0.367918
    14  O   -0.608513
    15  O   -0.622434
    16  Cl  -0.898545
 Sum of Mulliken charges =  -1.00000

 Dipole moment (field-independent basis, Debye):
    X=              7.3013    Y=              2.0475    Z=             -1.9219  Tot=              7.8227

 Test job not archived.
 1\1\GINC-SE335\SP\RHF\Aug-CC-pVDZ\C3H5Cl1F1N4O2(1-)\OHZDE\09-Apr-2025\
 0\\#t hf aug-cc-pvdz iop(5/13=1,5/36=2,99/5=2) pseudo=read geom=check
 guess=(read,tcheck) scf=(maxcycle=1)\\title\\-1,1\C,0,-0.020094,0.0218
 19,-0.026732\C,0,-0.214425,0.325722,-1.535005\F,0,1.366441,-0.164638,0
 .124442\H,0,0.343804,1.22754,-1.790707\C,0,-0.356821,1.268049,0.695263
 \N,0,-0.547611,2.29851,1.223772\N,0,-0.703257,-1.075165,0.528326\H,0,-
 0.676763,-1.858,-0.114079\H,0,-1.68525,-0.854675,0.726005\N,0,-1.56090
 3,0.373808,-1.954348\H,0,-1.848918,1.307954,-2.198197\H,0,-2.235925,-0

 Normal termination of Gaussian 16 at Wed Apr  9 02:51:22 2025.
