 Gaussian 16, Revision C.01,

 ----------------------------------------------------------------------
 #t hf aug-cc-pvdz symm=none int=(grid=ultrafine) guess=(read,tcheck) s
 table=(opt,rrhf)
 ----------------------------------------------------------------------
 -----
 title
 -----
 Symbolic Z-matrix:
 Charge = -1 Multiplicity = 1

 SCF Done:  E(RHF) =  -852.257228304     A.U. after   17 cycles
 Normal termination of Gaussian 16 at Wed Apr  9 02:31:00 2025.
 Gaussian 16:  ES64L-G16RevC.01  3-Jul-2019

 ----------------------------------------------------------------------
 #t hf aug-cc-pvdz iop(5/13=1,5/36=2,99/5=2) pseudo=read geom=check gue
 ss=(read,tcheck) scf=(maxcycle=1)
 ----------------------------------------------------------------------
 -----
 title
 -----
 Structure from the checkpoint file:  "E2SN2_119_mol1.chk"
 Charge = -1 Multiplicity = 1

                         Standard orientation:
 ---------------------------------------------------------------------
 Center     Atomic      Atomic             Coordinates (Angstroms)
 Number     Number       Type             X           Y           Z
 ---------------------------------------------------------------------
      1          6           0        0.868072    0.080825    0.605254
      2          6           0       -0.393659    0.694366    0.056173
      3         17           0        1.478503   -1.250658   -0.509462
      4          1           0       -0.320005    2.847596    1.264558
      5          1           0       -0.555081    1.653847    0.812141
      6          1           0        0.666885   -0.422023    1.546788
      7          7           0        1.932392    1.042190    0.774147
      8          1           0        1.493196    1.816810    1.286459
      9          1           0        2.135272    1.429721   -0.143042
     10          7           0       -0.317136    1.320829   -1.207890
     11          1           0        0.360219    0.903951   -1.831438
     12          1           0       -0.146365    2.312634   -1.065550
     13          7           0       -1.539028   -0.217109    0.188350
     14          8           0       -2.444795   -0.203199   -0.648503
     15          8           0       -1.573798   -0.916034    1.216019
 ---------------------------------------------------------------------

 SCF Done:  E(RHF) =  -852.393775790     A.U. after    2 cycles

 The electronic state is 1-A.
 Alpha  occ. eigenvalues -- -103.52639 -20.47049 -20.46365 -15.76093 -15.49641
 Alpha  occ. eigenvalues --  -15.48896 -11.21524 -11.16792 -10.55996  -8.21700
 Alpha  occ. eigenvalues --   -8.21446  -8.21442  -1.38720  -1.20226  -1.10173
 Alpha  occ. eigenvalues --   -1.03415  -0.99177  -0.89274  -0.76403  -0.66665
 Alpha  occ. eigenvalues --   -0.61445  -0.59734  -0.59071  -0.55411  -0.53308
 Alpha  occ. eigenvalues --   -0.50731  -0.46956  -0.42431  -0.38152  -0.36650
 Alpha  occ. eigenvalues --   -0.36635  -0.33669  -0.33453  -0.32814  -0.29887
 Alpha  occ. eigenvalues --   -0.27661  -0.12617
 Alpha virt. eigenvalues --    0.12951   0.14626   0.15202   0.16388   0.18126
 Alpha virt. eigenvalues --    0.18994   0.19452   0.20313   0.22506   0.23029
 Alpha virt. eigenvalues --    0.24158   0.26066   0.26598   0.27271   0.27744

 Mulliken charges:
               1
     1  C    0.637478
     2  C    0.733539
     3  Cl  -0.251100
     4  H   -0.491530
     5  H   -0.177552
     6  H   -0.038166
     7  N   -0.467082
     8  H    0.076008
     9  H    0.061505
    10  N   -0.180756
    11  H    0.018328
    12  H    0.063360
    13  N    0.307382
    14  O   -0.590932
    15  O   -0.700480
 Sum of Mulliken charges =  -1.00000

 Dipole moment (field-independent basis, Debye):
    X=              3.8553    Y=             -3.5532    Z=             -3.3404  Tot=              6.2167

 Test job not archived.
 1\1\GINC-SE247\SP\RHF\Aug-CC-pVDZ\C2H7Cl1N3O2(1-)\OHZDE\09-Apr-2025\0\
 \#t hf aug-cc-pvdz iop(5/13=1,5/36=2,99/5=2) pseudo=read geom=check gu
 ess=(read,tcheck) scf=(maxcycle=1)\\title\\-1,1\C,0,-0.21058346,0.0263
 4739,-0.37150823\C,0,-0.04475323,0.05884734,1.1255997\Cl,0,1.41790298,
 -0.20317219,-1.19819795\H,0,-2.35820662,-0.51796213,1.77154426\H,0,-1.
 21596329,0.03941751,1.50774842\H,0,-0.56845036,0.98549638,-0.73452826\
 N,0,-1.08807126,-1.03086457,-0.81630688\H,0,-1.92302661,-0.93016778,-0
 .22630531\H,0,-0.67394365,-1.90984585,-0.51887321\N,0,0.49037181,-1.09

 Normal termination of Gaussian 16 at Wed Apr  9 02:31:06 2025.
