 Gaussian 16, Revision C.01,

 ----------------------------------------------------------------------
 #t hf aug-cc-pvdz symm=none int=(grid=ultrafine) guess=(read,tcheck) s
 table=(opt,rrhf)
 ----------------------------------------------------------------------
 -----
 title
 -----
 Symbolic Z-matrix:
 Charge = -1 Multiplicity = 1

 SCF Done:  E(RHF) =  -825.790282893     A.U. after   14 cycles
 Normal termination of Gaussian 16 at Wed Apr  9 02:35:23 2025.
 Gaussian 16:  ES64L-G16RevC.01  3-Jul-2019

 ----------------------------------------------------------------------
 #t hf aug-cc-pvdz iop(5/13=1,5/36=2,99/5=2) pseudo=read geom=check gue
 ss=(read,tcheck) scf=(maxcycle=1)
 ----------------------------------------------------------------------
 -----
 title
 -----
 Structure from the checkpoint file:  "E2SN2_151_mol2.chk"
 Charge = -1 Multiplicity = 1

                         Standard orientation:
 ---------------------------------------------------------------------
 Center     Atomic      Atomic             Coordinates (Angstroms)
 Number     Number       Type             X           Y           Z
 ---------------------------------------------------------------------
      1          6           0       -0.030582   -0.465609    0.039166
      2          6           0        0.156068    1.063311   -0.004670
      3         17           0       -1.842971   -0.857907   -0.130640
      4          1           0        1.255298    1.133219    0.030730
      5          7           0        0.658083   -0.994658   -1.106339
      6          1           0        0.582990   -2.008012   -1.079445
      7          1           0        1.666134   -0.741685   -0.866654
      8          6           0        0.435760   -1.081543    1.347421
      9          1           0        0.308909   -2.167788    1.304516
     10          1           0       -0.101666   -0.704611    2.220208
     11          1           0        1.504961   -0.842976    1.380747
     12          6           0       -0.461634    1.814826    1.161841
     13          1           0       -1.540681    1.636828    1.221190
     14          1           0       -0.010931    1.532096    2.114717
     15          1           0       -0.298047    2.883619    1.005918
     16          7           0       -0.293456    1.664646   -1.261063
     17          1           0       -1.293935    1.494716   -1.332839
     18          1           0        0.125695    1.099358   -1.994234
     19          9           0        2.886857   -0.156241   -0.052745
 ---------------------------------------------------------------------

 SCF Done:  E(RHF) =  -825.917731902     A.U. after    2 cycles

 The electronic state is 1-A.
 Alpha  occ. eigenvalues -- -103.49857 -25.75062 -15.46023 -15.44205 -11.18710
 Alpha  occ. eigenvalues --  -11.11557 -11.09431 -11.08541 -10.53241  -8.18933
 Alpha  occ. eigenvalues --   -8.18714  -8.18701  -1.24077  -1.06760  -0.99583
 Alpha  occ. eigenvalues --   -0.95757  -0.86460  -0.81914  -0.72122  -0.60400
 Alpha  occ. eigenvalues --   -0.53593  -0.51180  -0.48749  -0.47296  -0.44813
 Alpha  occ. eigenvalues --   -0.43142  -0.40896  -0.38516  -0.37904  -0.36339
 Alpha  occ. eigenvalues --   -0.35829  -0.33700  -0.32944  -0.31235  -0.30828
 Alpha  occ. eigenvalues --   -0.29832  -0.24898  -0.23998
 Alpha virt. eigenvalues --    0.12864   0.13365   0.13981   0.14958   0.15510
 Alpha virt. eigenvalues --    0.15882   0.17469   0.18268   0.18791   0.19129
 Alpha virt. eigenvalues --    0.20485   0.21095   0.23930   0.24736   0.25463

 Mulliken charges:
               1
     1  C   -0.557294
     2  C    0.300280
     3  Cl  -0.434124
     4  H   -0.167818
     5  N   -0.585558
     6  H   -0.042442
     7  H    0.236133
     8  C    0.878554
     9  H   -0.095082
    10  H   -0.055278
    11  H    0.118861
    12  C    0.834421
    13  H   -0.031819
    14  H   -0.057460
    15  H   -0.049573
    16  N   -0.426014
    17  H    0.035709
    18  H    0.081953
    19  F   -0.983451
 Sum of Mulliken charges =  -1.00000

 Dipole moment (field-independent basis, Debye):
    X=             -6.3586    Y=             -0.6229    Z=              1.8005  Tot=              6.6379

 Test job not archived.
 1\1\GINC-SE059\SP\RHF\Aug-CC-pVDZ\C4H11Cl1F1N2(1-)\OHZDE\09-Apr-2025\0
 \\#t hf aug-cc-pvdz iop(5/13=1,5/36=2,99/5=2) pseudo=read geom=check g
 uess=(read,tcheck) scf=(maxcycle=1)\\title\\-1,1\C,0,0.069296,0.020797
 ,-1.477247\C,0,-0.001192,-0.020109,0.06149\Cl,0,-1.646057,0.280466,-2.
 153725\H,0,1.069306,-0.101643,0.310152\N,0,0.870624,1.164023,-1.819652
 \H,0,0.965317,1.191404,-2.83135\H,0,1.814552,0.872891,-1.417343\C,0,0.
 592839,-1.27171,-2.080331\H,0,0.650802,-1.168973,-3.168423\H,0,-0.0258
 67,-2.140943,-1.847308\H,0,1.605596,-1.358547,-1.670456\C,0,-0.770426,

 Normal termination of Gaussian 16 at Wed Apr  9 02:35:33 2025.
