 Gaussian 16, Revision C.01,

 ----------------------------------------------------------------------
 #t hf aug-cc-pvdz symm=none int=(grid=ultrafine) guess=(read,tcheck) s
 table=(opt,rrhf)
 ----------------------------------------------------------------------
 -----
 title
 -----
 Symbolic Z-matrix:
 Charge = -1 Multiplicity = 1

 SCF Done:  E(RHF) =  -935.186844072     A.U. after   15 cycles
 Normal termination of Gaussian 16 at Wed Apr  9 02:32:09 2025.
 Gaussian 16:  ES64L-G16RevC.01  3-Jul-2019

 ----------------------------------------------------------------------
 #t hf aug-cc-pvdz iop(5/13=1,5/36=2,99/5=2) pseudo=read geom=check gue
 ss=(read,tcheck) scf=(maxcycle=1)
 ----------------------------------------------------------------------
 -----
 title
 -----
 Structure from the checkpoint file:  "E2SN2_128_mol2.chk"
 Charge = -1 Multiplicity = 1

                         Standard orientation:
 ---------------------------------------------------------------------
 Center     Atomic      Atomic             Coordinates (Angstroms)
 Number     Number       Type             X           Y           Z
 ---------------------------------------------------------------------
      1          6           0        0.468833    0.205223    0.383912
      2          6           0       -1.031703    0.186694    0.189259
      3         17           0        1.140570    1.784694   -0.144004
      4          1           0       -1.350532    0.466843   -0.817157
      5          1           0       -1.472616    0.959704    0.823680
      6          7           0        0.964802   -0.055913    1.707045
      7          1           0        0.421613    0.522646    2.338361
      8          1           0        0.773893   -1.027258    1.922593
      9          7           0        1.066345   -0.862216   -0.537614
     10          8           0        1.479158   -1.891841   -0.006701
     11          8           0        1.009416   -0.660898   -1.742488
     12          6           0       -1.699244   -1.142293    0.517431
     13          1           0       -1.582183   -1.435570    1.567304
     14          1           0       -2.747624   -0.887489    0.263997
     15          1           0       -1.338768   -1.955554   -0.121651
     16          9           0       -3.627489    0.485329   -0.473907
 ---------------------------------------------------------------------

 SCF Done:  E(RHF) =  -935.349537915     A.U. after    2 cycles

 The electronic state is 1-A.
 Alpha  occ. eigenvalues -- -103.55861 -25.71378 -20.52036 -20.51992 -15.81072
 Alpha  occ. eigenvalues --  -15.53644 -11.29328 -11.10936 -11.07504 -10.59226
 Alpha  occ. eigenvalues --   -8.24949  -8.24651  -8.24636  -1.44488  -1.26353
 Alpha  occ. eigenvalues --   -1.19718  -1.13889  -1.03098  -0.93137  -0.87169
 Alpha  occ. eigenvalues --   -0.74672  -0.70552  -0.64473  -0.63622  -0.61744
 Alpha  occ. eigenvalues --   -0.56089  -0.52097  -0.49837  -0.46756  -0.42759
 Alpha  occ. eigenvalues --   -0.41257  -0.39878  -0.38283  -0.37615  -0.36292
 Alpha  occ. eigenvalues --   -0.35363  -0.34391  -0.32205  -0.29945  -0.29672
 Alpha  occ. eigenvalues --   -0.28087
 Alpha virt. eigenvalues --    0.11900   0.13865   0.15045   0.15855   0.16773
 Alpha virt. eigenvalues --    0.17397   0.18223   0.19124   0.19880   0.21424
 Alpha virt. eigenvalues --    0.23041   0.24762   0.25347   0.25566   0.26278

 Mulliken charges:
               1
     1  C    0.912176
     2  C    0.341827
     3  Cl  -0.174639
     4  H   -0.104028
     5  H   -0.108565
     6  N   -0.472083
     7  H    0.073136
     8  H    0.103125
     9  N    0.341741
    10  O   -0.628074
    11  O   -0.605483
    12  C    0.441523
    13  H   -0.116251
    14  H    0.066830
    15  H   -0.078836
    16  F   -0.992399
 Sum of Mulliken charges =  -1.00000

 Dipole moment (field-independent basis, Debye):
    X=             10.0799    Y=             -0.7086    Z=              4.4714  Tot=             11.0498

 Test job not archived.
 1\1\GINC-SE459\SP\RHF\Aug-CC-pVDZ\C3H7Cl1F1N2O2(1-)\OHZDE\09-Apr-2025\
 0\\#t hf aug-cc-pvdz iop(5/13=1,5/36=2,99/5=2) pseudo=read geom=check
 guess=(read,tcheck) scf=(maxcycle=1)\\title\\-1,1\C,0,-0.634859,0.0193
 6,-1.535927\C,0,0.139339,0.031766,-0.23581\Cl,0,-0.062773,-1.323013,-2
 .582544\H,0,1.223698,0.03018,-0.366847\H,0,-0.057565,-0.904054,0.29325
 3\N,0,-2.065894,-0.078367,-1.449639\H,0,-2.265197,-0.830762,-0.79962\H
 ,0,-2.411249,0.786328,-1.050328\N,0,-0.318238,1.323817,-2.273355\O,0,-
 1.200062,2.180675,-2.297685\O,0,0.816555,1.463474,-2.70721\C,0,-0.1982

 Normal termination of Gaussian 16 at Wed Apr  9 02:32:16 2025.
