 Gaussian 16, Revision C.01,

 ----------------------------------------------------------------------
 #t hf aug-cc-pvdz symm=none int=(grid=ultrafine) guess=(read,tcheck) s
 table=(opt,rrhf)
 ----------------------------------------------------------------------
 -----
 title
 -----
 Symbolic Z-matrix:
 Charge = -1 Multiplicity = 1

 SCF Done:  E(RHF) =  -534.387435872     A.U. after   15 cycles
 Normal termination of Gaussian 16 at Wed Apr  9 02:50:16 2025.
 Gaussian 16:  ES64L-G16RevC.01  3-Jul-2019

 ----------------------------------------------------------------------
 #t hf aug-cc-pvdz iop(5/13=1,5/36=2,99/5=2) pseudo=read geom=check gue
 ss=(read,tcheck) scf=(maxcycle=1)
 ----------------------------------------------------------------------
 -----
 title
 -----
 Structure from the checkpoint file:  "E2SN2_322_mol1.chk"
 Charge = -1 Multiplicity = 1

                         Standard orientation:
 ---------------------------------------------------------------------
 Center     Atomic      Atomic             Coordinates (Angstroms)
 Number     Number       Type             X           Y           Z
 ---------------------------------------------------------------------
      1          6           0        0.255261    0.296289    0.128824
      2          1           0       -0.951229    0.424970   -1.613871
      3          9           0       -0.257119   -0.618049    1.557754
      4          9           0        0.978228    1.194510   -1.342074
      5          6           0       -1.024549   -0.065924   -0.646951
      6          6           0        1.450284   -0.537020    0.023154
      7          7           0        2.433526   -1.181156    0.026225
      8          7           0        0.289069    1.532125    0.862490
      9          1           0        0.996396    2.094827    0.411167
     10          1           0        0.539121    1.307306    1.815371
     11          7           0       -2.227170    0.428637    0.022706
     12          1           0       -2.122743    1.437437    0.088681
     13          1           0       -2.134719    0.096407    0.979363
     14          7           0       -1.058518   -1.503623   -0.842933
     15          1           0       -1.975593   -1.726911   -1.213254
     16          1           0       -0.985541   -1.914135    0.081850
 ---------------------------------------------------------------------

 SCF Done:  E(RHF) =  -534.545693926     A.U. after    2 cycles

 The electronic state is 1-A.
 Alpha  occ. eigenvalues --  -25.86411 -25.81811 -15.48527 -15.48472 -15.46699
 Alpha  occ. eigenvalues --  -15.46665 -11.26834 -11.15856 -11.15009  -1.37115
 Alpha  occ. eigenvalues --   -1.32176  -1.07502  -1.03442  -1.01486  -0.95660
 Alpha  occ. eigenvalues --   -0.82471  -0.70296  -0.59259  -0.56797  -0.55725
 Alpha  occ. eigenvalues --   -0.51884  -0.49519  -0.46247  -0.45404  -0.44407
 Alpha  occ. eigenvalues --   -0.42674  -0.41630  -0.40394  -0.39834  -0.37648
 Alpha  occ. eigenvalues --   -0.36673  -0.31882  -0.29652  -0.28436  -0.27698
 Alpha  occ. eigenvalues --   -0.25608
 Alpha virt. eigenvalues --    0.12932   0.13133   0.14605   0.15028   0.17190
 Alpha virt. eigenvalues --    0.17919   0.18354   0.20003   0.22340   0.24257
 Alpha virt. eigenvalues --    0.25234   0.25343   0.26167   0.26510   0.27649

 Mulliken charges:
               1
     1  C    1.445754
     2  H   -0.020377
     3  F   -0.787249
     4  F   -0.804421
     5  C    0.971762
     6  C   -0.627593
     7  N   -0.266298
     8  N   -0.620700
     9  H    0.102316
    10  H    0.087094
    11  N   -0.416663
    12  H    0.076162
    13  H    0.085448
    14  N   -0.266306
    15  H   -0.043561
    16  H    0.084632
 Sum of Mulliken charges =  -1.00000

 Dipole moment (field-independent basis, Debye):
    X=             -3.6108    Y=              1.4586    Z=              1.9873  Tot=              4.3720

 Test job not archived.
 1\1\GINC-SE362\SP\RHF\Aug-CC-pVDZ\C3H7F2N4(1-)\OHZDE\09-Apr-2025\0\\#t
  hf aug-cc-pvdz iop(5/13=1,5/36=2,99/5=2) pseudo=read geom=check guess
 =(read,tcheck) scf=(maxcycle=1)\\title\\-1,1\C,0,0.70768359,0.07780515
 ,0.03265922\H,0,1.76201787,1.91361514,-0.13270458\F,0,-1.05919265,0.01
 983853,0.15584661\F,0,2.55809266,-0.02265711,-0.21007061\C,0,0.7194498
 4,1.61460272,-0.06249925\C,0,0.65115931,-0.74197917,-1.17498669\N,0,0.
 56005545,-1.46685307,-2.09582485\N,0,0.87371002,-0.53333885,1.32325425
 \H,0,1.74804537,-1.03698362,1.27307479\H,0,0.08937604,-1.15496025,1.46

 Normal termination of Gaussian 16 at Wed Apr  9 02:50:22 2025.
