 Gaussian 16, Revision C.01,

 ----------------------------------------------------------------------
 #t hf aug-cc-pvdz symm=none int=(grid=ultrafine) guess=(read,tcheck) s
 table=(opt,rrhf)
 ----------------------------------------------------------------------
 -----
 title
 -----
 Symbolic Z-matrix:
 Charge = -1 Multiplicity = 1

 SCF Done:  E(RHF) =  -888.923960629     A.U. after   17 cycles
 Normal termination of Gaussian 16 at Wed Apr  9 02:52:13 2025.
 Gaussian 16:  ES64L-G16RevC.01  3-Jul-2019

 ----------------------------------------------------------------------
 #t hf aug-cc-pvdz iop(5/13=1,5/36=2,99/5=2) pseudo=read geom=check gue
 ss=(read,tcheck) scf=(maxcycle=1)
 ----------------------------------------------------------------------
 -----
 title
 -----
 Structure from the checkpoint file:  "E2SN2_34_mol2.chk"
 Charge = -1 Multiplicity = 1

                         Standard orientation:
 ---------------------------------------------------------------------
 Center     Atomic      Atomic             Coordinates (Angstroms)
 Number     Number       Type             X           Y           Z
 ---------------------------------------------------------------------
      1          6           0       -0.044613    0.222262   -0.167096
      2          6           0        1.131215   -0.069919   -1.076532
      3         17           0       -1.525997    0.663735   -1.093232
      4          1           0        1.411893    0.853500   -1.616635
      5          1           0        0.792903   -0.810216   -1.809738
      6          7           0       -0.410040   -1.055406    0.599415
      7          8           0       -0.633394   -0.959516    1.800053
      8          8           0       -0.478666   -2.078798   -0.067667
      9          6           0        0.228178    1.277628    0.800025
     10          7           0        0.391893    2.184377    1.528612
     11          7           0        2.224965   -0.455236   -0.225270
     12          1           0        3.053118    0.117629   -0.623814
     13          1           0        2.433385   -1.438473   -0.360310
     14          1           0        3.810724    1.004599   -1.521328
 ---------------------------------------------------------------------

 SCF Done:  E(RHF) =  -889.070248033     A.U. after    2 cycles

 The electronic state is 1-A.
 Alpha  occ. eigenvalues -- -103.60007 -20.54366 -20.53931 -15.83774 -15.56267
 Alpha  occ. eigenvalues --  -15.46427 -11.31909 -11.21099 -11.16941 -10.63280
 Alpha  occ. eigenvalues --   -8.29006  -8.28690  -8.28682  -1.46749  -1.28663
 Alpha  occ. eigenvalues --   -1.14457  -1.08402  -1.03751  -0.95654  -0.82490
 Alpha  occ. eigenvalues --   -0.76711  -0.71125  -0.65584  -0.64819  -0.57263
 Alpha  occ. eigenvalues --   -0.53629  -0.52928  -0.47189  -0.46130  -0.44436
 Alpha  occ. eigenvalues --   -0.44067  -0.40525  -0.40030  -0.38914  -0.38316
 Alpha  occ. eigenvalues --   -0.36727  -0.36316  -0.27388  -0.09901
 Alpha virt. eigenvalues --    0.13302   0.14298   0.14593   0.16079   0.17393
 Alpha virt. eigenvalues --    0.18174   0.20137   0.20538   0.21506   0.22045
 Alpha virt. eigenvalues --    0.22755   0.23945   0.24620   0.25002   0.25247

 Mulliken charges:
               1
     1  C    0.537808
     2  C    0.979592
     3  Cl  -0.100329
     4  H   -0.094956
     5  H   -0.039067
     6  N    0.356453
     7  O   -0.582525
     8  O   -0.611344
     9  C   -0.339011
    10  N   -0.191549
    11  N   -0.307588
    12  H    0.113843
    13  H    0.032460
    14  H   -0.753788
 Sum of Mulliken charges =  -1.00000

 Dipole moment (field-independent basis, Debye):
    X=            -12.2177    Y=             -4.0768    Z=              1.2846  Tot=             12.9438

 Test job not archived.
 1\1\GINC-SE228\SP\RHF\Aug-CC-pVDZ\C3H5Cl1N3O2(1-)\OHZDE\09-Apr-2025\0\
 \#t hf aug-cc-pvdz iop(5/13=1,5/36=2,99/5=2) pseudo=read geom=check gu
 ess=(read,tcheck) scf=(maxcycle=1)\\title\\-1,1\C,0,-0.631538,-0.08193
 6,-1.501767\C,0,0.05221,-0.158098,-0.152063\Cl,0,-0.512852,-1.632886,-
 2.411489\H,0,1.138185,-0.304372,-0.301919\H,0,-0.348062,-1.039638,0.36
 0534\N,0,-2.132772,0.14925,-1.286452\O,0,-2.688675,0.990822,-1.981681\
 O,0,-2.668014,-0.558441,-0.443998\C,0,-0.116624,0.989508,-2.344623\N,0
 ,0.340827,1.786825,-3.075964\N,0,-0.156548,1.113128,0.488102\H,0,0.827

 Normal termination of Gaussian 16 at Wed Apr  9 02:52:19 2025.
