 Gaussian 16, Revision C.01,

 ----------------------------------------------------------------------
 #t hf aug-cc-pvdz symm=none int=(grid=ultrafine) guess=(read,tcheck) s
 table=(opt,rrhf)
 ----------------------------------------------------------------------
 -----
 title
 -----
 Symbolic Z-matrix:
 Charge = -1 Multiplicity = 1

 SCF Done:  E(RHF) =  -1220.20581449     A.U. after   16 cycles
 Normal termination of Gaussian 16 at Wed Apr  9 02:46:16 2025.
 Gaussian 16:  ES64L-G16RevC.01  3-Jul-2019

 ----------------------------------------------------------------------
 #t hf aug-cc-pvdz iop(5/13=1,5/36=2,99/5=2) pseudo=read geom=check gue
 ss=(read,tcheck) scf=(maxcycle=1)
 ----------------------------------------------------------------------
 -----
 title
 -----
 Structure from the checkpoint file:  "E2SN2_279_mol1.chk"
 Charge = -1 Multiplicity = 1

                         Standard orientation:
 ---------------------------------------------------------------------
 Center     Atomic      Atomic             Coordinates (Angstroms)
 Number     Number       Type             X           Y           Z
 ---------------------------------------------------------------------
      1          6           0        0.076211   -0.479683   -0.224148
      2          1           0       -0.916945    0.569799   -1.806949
      3         17           0        2.432850   -0.133197   -0.060373
      4         17           0       -2.288774   -0.693456   -0.072853
      5          6           0       -0.084061    0.742776   -1.124883
      6          1           0        0.828439    0.877900   -1.705899
      7          6           0        0.059086   -0.377094    1.209298
      8          7           0        0.050084   -0.329891    2.386550
      9          6           0        0.293988   -1.817940   -0.903834
     10          1           0       -0.642547   -2.202887   -1.300878
     11          1           0        1.017489   -1.694575   -1.709052
     12          1           0        0.709751   -2.527893   -0.190379
     13          6           0       -0.344097    1.979706   -0.398177
     14          7           0       -0.543264    3.007630    0.131801
 ---------------------------------------------------------------------

 SCF Done:  E(RHF) =  -1220.32068700     A.U. after    2 cycles

 The electronic state is 1-A.
 Alpha  occ. eigenvalues -- -103.44840-103.44728 -15.53312 -15.52248 -11.29752
 Alpha  occ. eigenvalues --  -11.19603 -11.18650 -11.18497 -11.14882 -10.48118
 Alpha  occ. eigenvalues --  -10.47995  -8.13747  -8.13625  -8.13619  -8.13614
 Alpha  occ. eigenvalues --   -8.13500  -8.13494  -1.08263  -1.06368  -1.01382
 Alpha  occ. eigenvalues --   -0.91462  -0.90652  -0.88662  -0.79588  -0.64013
 Alpha  occ. eigenvalues --   -0.54935  -0.54720  -0.50861  -0.48894  -0.45870
 Alpha  occ. eigenvalues --   -0.43404  -0.42561  -0.39495  -0.34682  -0.34612
 Alpha  occ. eigenvalues --   -0.33596  -0.28353  -0.28110  -0.27974  -0.27390
 Alpha  occ. eigenvalues --   -0.25996  -0.25502
 Alpha virt. eigenvalues --    0.12140   0.13640   0.14662   0.15325   0.15820
 Alpha virt. eigenvalues --    0.16326   0.18031   0.19366   0.20754   0.21296
 Alpha virt. eigenvalues --    0.22080   0.22687   0.24449   0.24795   0.25373

 Mulliken charges:
               1
     1  C   -0.414344
     2  H    0.144625
     3  Cl  -0.637330
     4  Cl  -0.621184
     5  C    0.854530
     6  H    0.064603
     7  C   -0.506006
     8  N   -0.316196
     9  C    0.643157
    10  H    0.018143
    11  H    0.025226
    12  H   -0.019829
    13  C    0.068465
    14  N   -0.303860
 Sum of Mulliken charges =  -1.00000

 Dipole moment (field-independent basis, Debye):
    X=              0.4074    Y=             -2.4319    Z=             -5.5281  Tot=              6.0531

 Test job not archived.
 1\1\GINC-SE188\SP\RHF\Aug-CC-pVDZ\C5H5Cl2N2(1-)\OHZDE\09-Apr-2025\0\\#
 t hf aug-cc-pvdz iop(5/13=1,5/36=2,99/5=2) pseudo=read geom=check gues
 s=(read,tcheck) scf=(maxcycle=1)\\title\\-1,1\C,0,0.57807235,-0.073512
 16,0.01137258\H,0,1.50776077,1.79783655,0.48757346\Cl,0,-1.79675875,-0
 .14839126,0.24630893\Cl,0,2.88992771,-0.0714754,-0.55170895\C,0,0.5755
 0928,1.4531279,0.03933983\H,0,-0.26003325,1.79574593,0.65005751\C,0,0.
 38419468,-0.81334933,-1.20544215\N,0,0.22841552,-1.45154201,-2.1835392
 5\C,0,0.75770252,-0.79091943,1.33552924\H,0,1.80047645,-0.77048484,1.6

 Normal termination of Gaussian 16 at Wed Apr  9 02:46:23 2025.
