 Gaussian 16, Revision C.01,

 ----------------------------------------------------------------------
 #t hf aug-cc-pvdz symm=none int=(grid=ultrafine) guess=(read,tcheck) s
 table=(opt,rrhf)
 ----------------------------------------------------------------------
 -----
 title
 -----
 Symbolic Z-matrix:
 Charge = -1 Multiplicity = 1

 SCF Done:  E(RHF) =  -839.465412269     A.U. after   15 cycles
 Normal termination of Gaussian 16 at Wed Apr  9 02:54:08 2025.
 Gaussian 16:  ES64L-G16RevC.01  3-Jul-2019

 ----------------------------------------------------------------------
 #t hf aug-cc-pvdz iop(5/13=1,5/36=2,99/5=2) pseudo=read geom=check gue
 ss=(read,tcheck) scf=(maxcycle=1)
 ----------------------------------------------------------------------
 -----
 title
 -----
 Structure from the checkpoint file:  "E2SN2_370_mol2.chk"
 Charge = -1 Multiplicity = 1

                         Standard orientation:
 ---------------------------------------------------------------------
 Center     Atomic      Atomic             Coordinates (Angstroms)
 Number     Number       Type             X           Y           Z
 ---------------------------------------------------------------------
      1          6           0        0.132240   -0.721350   -0.123093
      2          6           0       -0.063259    0.682796   -0.739909
      3         17           0        1.948273   -1.095857   -0.247679
      4          1           0        0.528579    0.749520   -1.659688
      5          1           0       -0.352791   -1.433434   -0.790942
      6          7           0       -0.357068   -0.925315    1.177204
      7          1           0       -0.135198   -0.135652    1.773011
      8          1           0       -1.401481   -1.024795    1.049636
      9          6           0        0.484086    1.698970    0.180465
     10          7           0        0.919094    2.499599    0.921114
     11          7           0       -1.463794    0.975577   -1.022197
     12          1           0       -2.065271    0.366465   -0.419080
     13          1           0       -1.647284    0.659014   -1.967383
     14          9           0       -2.783691   -0.929231    0.309707
 ---------------------------------------------------------------------

 SCF Done:  E(RHF) =  -839.594267314     A.U. after    2 cycles

 The electronic state is 1-A.
 Alpha  occ. eigenvalues -- -103.51714 -25.78115 -15.52170 -15.47352 -15.46006
 Alpha  occ. eigenvalues --  -11.21324 -11.19347 -11.17231 -10.55072  -8.20770
 Alpha  occ. eigenvalues --   -8.20520  -8.20515  -1.27488  -1.09375  -1.05361
 Alpha  occ. eigenvalues --   -1.01736  -0.97754  -0.84101  -0.72296  -0.58690
 Alpha  occ. eigenvalues --   -0.55353  -0.53685  -0.50025  -0.45827  -0.45055
 Alpha  occ. eigenvalues --   -0.42601  -0.40904  -0.37280  -0.36477  -0.34913
 Alpha  occ. eigenvalues --   -0.34313  -0.33418  -0.32791  -0.32313  -0.28047
 Alpha  occ. eigenvalues --   -0.24390
 Alpha virt. eigenvalues --    0.12543   0.14902   0.15352   0.15910   0.18233
 Alpha virt. eigenvalues --    0.19178   0.19635   0.19975   0.22313   0.23331
 Alpha virt. eigenvalues --    0.24351   0.24802   0.25713   0.26385   0.27856

 Mulliken charges:
               1
     1  C    0.464208
     2  C    1.025397
     3  Cl  -0.262634
     4  H   -0.112318
     5  H    0.002558
     6  N   -0.451984
     7  H   -0.012121
     8  H    0.195916
     9  C   -0.361014
    10  N   -0.262700
    11  N   -0.471974
    12  H    0.150326
    13  H    0.009694
    14  F   -0.913354
 Sum of Mulliken charges =  -1.00000

 Dipole moment (field-independent basis, Debye):
    X=              4.4846    Y=              0.2818    Z=             -3.6866  Tot=              5.8122

 Test job not archived.
 1\1\GINC-SE227\SP\RHF\Aug-CC-pVDZ\C3H6Cl1F1N3(1-)\OHZDE\09-Apr-2025\0\
 \#t hf aug-cc-pvdz iop(5/13=1,5/36=2,99/5=2) pseudo=read geom=check gu
 ess=(read,tcheck) scf=(maxcycle=1)\\title\\-1,1\C,0,-0.024095,0.030472
 ,-0.071967\C,0,-0.285881,-0.087689,-1.591116\Cl,0,1.812768,0.232645,0.
 125047\H,0,0.468026,-0.751904,-2.028334\H,0,-0.253447,-0.940335,0.3676
 61\N,0,-0.738052,1.016511,0.627882\H,0,-0.759532,1.88458,0.104646\H,0,
 -1.70821,0.610505,0.732391\C,0,-0.091967,1.232628,-2.222341\N,0,0.0612
 45,2.287837,-2.714133\N,0,-1.624621,-0.584679,-1.88723\H,0,-2.244802,-

 Normal termination of Gaussian 16 at Wed Apr  9 02:54:14 2025.
