 Gaussian 16, Revision C.01,

 ----------------------------------------------------------------------
 #t hf aug-cc-pvdz symm=none int=(grid=ultrafine) guess=(read,tcheck) s
 table=(opt,rrhf)
 ----------------------------------------------------------------------
 -----
 title
 -----
 Symbolic Z-matrix:
 Charge = -1 Multiplicity = 1

 SCF Done:  E(RHF) =  -971.938413864     A.U. after   17 cycles
 Normal termination of Gaussian 16 at Wed Apr  9 02:44:57 2025.
 Gaussian 16:  ES64L-G16RevC.01  3-Jul-2019

 ----------------------------------------------------------------------
 #t hf aug-cc-pvdz iop(5/13=1,5/36=2,99/5=2) pseudo=read geom=check gue
 ss=(read,tcheck) scf=(maxcycle=1)
 ----------------------------------------------------------------------
 -----
 title
 -----
 Structure from the checkpoint file:  "E2SN2_263_mol2.chk"
 Charge = -1 Multiplicity = 1

                         Standard orientation:
 ---------------------------------------------------------------------
 Center     Atomic      Atomic             Coordinates (Angstroms)
 Number     Number       Type             X           Y           Z
 ---------------------------------------------------------------------
      1          6           0       -0.725690    0.129154    0.049221
      2          6           0       -0.729875   -0.741439   -1.178129
      3          9           0       -2.036367    0.537637    0.312889
      4          1           0       -1.318569   -0.205105   -1.926447
      5          1           0        0.302312   -0.822367   -1.515347
      6          6           0       -0.245615   -0.499423    1.283741
      7          7           0       -0.168543   -1.025971    2.332103
      8          7           0       -0.012654    1.458332   -0.173560
      9          8           0        0.035844    1.866568   -1.326804
     10          8           0        0.317975    2.072197    0.832385
     11          6           0       -1.313358   -2.116793   -0.876202
     12          1           0       -1.434196   -2.678938   -1.805278
     13          1           0       -0.637801   -2.677771   -0.228292
     14          1           0       -2.290179   -2.045446   -0.390820
     15         17           0        2.366517   -0.680868   -0.222121
 ---------------------------------------------------------------------

 SCF Done:  E(RHF) =  -972.110237411     A.U. after    2 cycles

 The electronic state is 1-A.
 Alpha  occ. eigenvalues -- -103.37401 -26.05209 -20.51678 -20.51654 -15.81263
 Alpha  occ. eigenvalues --  -15.54252 -11.33375 -11.19377 -11.14304 -11.13560
 Alpha  occ. eigenvalues --  -10.40522  -8.06125  -8.06088  -8.06081  -1.58719
 Alpha  occ. eigenvalues --   -1.43985  -1.26181  -1.08276  -1.02078  -0.91940
 Alpha  occ. eigenvalues --   -0.82975  -0.80266  -0.77376  -0.71714  -0.69952
 Alpha  occ. eigenvalues --   -0.65519  -0.63176  -0.61879  -0.59044  -0.52422
 Alpha  occ. eigenvalues --   -0.51222  -0.45854  -0.44832  -0.42092  -0.41514
 Alpha  occ. eigenvalues --   -0.40489  -0.39338  -0.36742  -0.35766  -0.35029
 Alpha  occ. eigenvalues --   -0.20993  -0.20665  -0.20432
 Alpha virt. eigenvalues --    0.11310   0.13444   0.13643   0.16535   0.17341
 Alpha virt. eigenvalues --    0.18268   0.18744   0.19357   0.21264   0.22408
 Alpha virt. eigenvalues --    0.23725   0.23836   0.24099   0.24815   0.25250

 Mulliken charges:
               1
     1  C    1.324744
     2  C    0.142620
     3  F   -0.459006
     4  H    0.059474
     5  H    0.047357
     6  C   -0.315570
     7  N   -0.285929
     8  N    0.305990
     9  O   -0.576121
    10  O   -0.590073
    11  C    0.425968
    12  H   -0.093841
    13  H   -0.017347
    14  H   -0.031968
    15  Cl  -0.936296
 Sum of Mulliken charges =  -1.00000

 Dipole moment (field-independent basis, Debye):
    X=             -8.7725    Y=             -0.1968    Z=             -2.3519  Tot=              9.0844

 Test job not archived.
 1\1\GINC-SE070\SP\RHF\Aug-CC-pVDZ\C4H5Cl1F1N2O2(1-)\OHZDE\09-Apr-2025\
 0\\#t hf aug-cc-pvdz iop(5/13=1,5/36=2,99/5=2) pseudo=read geom=check
 guess=(read,tcheck) scf=(maxcycle=1)\\title\\-1,1\C,0,-0.068751,-0.003
 771,-0.006509\C,0,-0.488242,0.258565,-1.427615\F,0,1.327818,-0.002866,
 0.055513\H,0,0.107804,-0.415732,-2.047493\H,0,-1.540704,-0.009985,-1.5
 04297\C,0,-0.514908,0.976163,0.988626\N,0,-0.577914,1.865907,1.754552\
 N,0,-0.410934,-1.415144,0.457929\O,0,-0.515481,-2.267849,-0.414392\O,0
 ,-0.405334,-1.604981,1.667062\C,0,-0.270063,1.718858,-1.80597\H,0,-0.4

 Normal termination of Gaussian 16 at Wed Apr  9 02:45:04 2025.
