 Gaussian 16, Revision C.01,

 ----------------------------------------------------------------------
 #t hf aug-cc-pvdz symm=none int=(grid=ultrafine) guess=(read,tcheck) s
 table=(opt,rrhf)
 ----------------------------------------------------------------------
 -----
 title
 -----
 Symbolic Z-matrix:
 Charge = -1 Multiplicity = 1

 SCF Done:  E(RHF) =  -777.187962709     A.U. after   16 cycles
 Normal termination of Gaussian 16 at Wed Apr  9 02:55:00 2025.
 Gaussian 16:  ES64L-G16RevC.01  3-Jul-2019

 ----------------------------------------------------------------------
 #t hf aug-cc-pvdz iop(5/13=1,5/36=2,99/5=2) pseudo=read geom=check gue
 ss=(read,tcheck) scf=(maxcycle=1)
 ----------------------------------------------------------------------
 -----
 title
 -----
 Structure from the checkpoint file:  "E2SN2_384_mol2.chk"
 Charge = -1 Multiplicity = 1

                         Standard orientation:
 ---------------------------------------------------------------------
 Center     Atomic      Atomic             Coordinates (Angstroms)
 Number     Number       Type             X           Y           Z
 ---------------------------------------------------------------------
      1          6           0        0.390382   -0.147453    0.214209
      2          6           0       -0.602517   -0.830761   -0.744290
      3         17           0        0.220936    1.677583    0.032906
      4          1           0       -0.455927   -1.910051   -0.502661
      5          1           0       -0.378309   -0.615615   -1.792720
      6          7           0        0.259750   -0.537753    1.572085
      7          1           0       -0.683570   -0.297501    1.871524
      8          1           0        0.283147   -1.618690    1.512810
      9          6           0        1.750758   -0.455273   -0.261713
     10          7           0        2.830086   -0.658992   -0.677212
     11          6           0       -1.978103   -0.466905   -0.443534
     12          7           0       -3.092668   -0.179154   -0.209672
     13          1           0        0.135461   -3.043414    0.967216
 ---------------------------------------------------------------------

 SCF Done:  E(RHF) =  -777.297082859     A.U. after    2 cycles

 The electronic state is 1-A.
 Alpha  occ. eigenvalues -- -103.55475 -15.54264 -15.53921 -15.49200 -11.28330
 Alpha  occ. eigenvalues --  -11.19314 -11.19193 -11.17855 -10.58811  -8.24515
 Alpha  occ. eigenvalues --   -8.24234  -8.24228  -1.13152  -1.07797  -1.06531
 Alpha  occ. eigenvalues --   -1.01281  -0.93000  -0.80604  -0.60607  -0.58696
 Alpha  occ. eigenvalues --   -0.55991  -0.52218  -0.49612  -0.45297  -0.44571
 Alpha  occ. eigenvalues --   -0.42778  -0.37634  -0.36570  -0.36156  -0.35003
 Alpha  occ. eigenvalues --   -0.34601  -0.33759  -0.29740  -0.11561
 Alpha virt. eigenvalues --    0.12883   0.14726   0.16780   0.17440   0.17784
 Alpha virt. eigenvalues --    0.18800   0.19612   0.21098   0.22279   0.23017
 Alpha virt. eigenvalues --    0.23177   0.24264   0.24544   0.25502   0.25974

 Mulliken charges:
               1
     1  C    0.696085
     2  C    0.627128
     3  Cl  -0.200520
     4  H    0.077906
     5  H   -0.081573
     6  N   -0.584078
     7  H    0.036546
     8  H    0.086770
     9  C   -0.455799
    10  N   -0.196157
    11  C   -0.074588
    12  N   -0.309137
    13  H   -0.622584
 Sum of Mulliken charges =  -1.00000

 Dipole moment (field-independent basis, Debye):
    X=             -1.0061    Y=              7.8665    Z=             -3.4297  Tot=              8.6404

 Test job not archived.
 1\1\GINC-SE131\SP\RHF\Aug-CC-pVDZ\C4H5Cl1N3(1-)\OHZDE\09-Apr-2025\0\\#
 t hf aug-cc-pvdz iop(5/13=1,5/36=2,99/5=2) pseudo=read geom=check gues
 s=(read,tcheck) scf=(maxcycle=1)\\title\\-1,1\C,0,0.000058,-0.024587,0
 .014146\C,0,-0.50739,-0.146936,-1.434649\Cl,0,1.834372,0.138614,-0.017
 429\H,0,-1.613765,-0.174482,-1.293525\H,0,-0.138397,-1.05147,-1.926\N,
 0,-0.591426,1.029692,0.757025\H,0,-0.380716,1.901495,0.274533\H,0,-1.6
 50679,0.860409,0.609337\C,0,-0.258852,-1.310614,0.685695\N,0,-0.418434
 ,-2.354954,1.198507\C,0,-0.165902,1.024918,-2.225362\N,0,0.10532,1.966

 Normal termination of Gaussian 16 at Wed Apr  9 02:55:05 2025.
