 Gaussian 16, Revision C.01,

 ----------------------------------------------------------------------
 #t hf aug-cc-pvdz symm=none int=(grid=ultrafine) guess=(read,tcheck) s
 table=(opt,rrhf)
 ----------------------------------------------------------------------
 -----
 title
 -----
 Symbolic Z-matrix:
 Charge = -1 Multiplicity = 1

 SCF Done:  E(RHF) =  -907.308652183     A.U. after   17 cycles
 Normal termination of Gaussian 16 at Wed Apr  9 02:35:21 2025.
 Gaussian 16:  ES64L-G16RevC.01  3-Jul-2019

 ----------------------------------------------------------------------
 #t hf aug-cc-pvdz iop(5/13=1,5/36=2,99/5=2) pseudo=read geom=check gue
 ss=(read,tcheck) scf=(maxcycle=1)
 ----------------------------------------------------------------------
 -----
 title
 -----
 Structure from the checkpoint file:  "E2SN2_161_mol2.chk"
 Charge = -1 Multiplicity = 1

                         Standard orientation:
 ---------------------------------------------------------------------
 Center     Atomic      Atomic             Coordinates (Angstroms)
 Number     Number       Type             X           Y           Z
 ---------------------------------------------------------------------
      1          6           0       -0.892994    0.380937   -0.054744
      2          6           0        0.416215    0.330116    0.749509
      3         17           0       -1.214625   -1.320227   -0.728338
      4          1           0        0.521619    1.359787    1.106020
      5          7           0       -1.991295    0.730931    0.787648
      6          1           0       -1.949004    0.161529    1.627996
      7          1           0       -1.766014    1.713533    1.055526
      8          7           0       -0.730382    1.289443   -1.139311
      9          1           0       -0.517384    2.186736   -0.662979
     10          1           0       -1.655328    1.404334   -1.544918
     11          7           0        1.617408    0.080308   -0.149912
     12          8           0        2.141797    1.050794   -0.687439
     13          8           0        2.014212   -1.083663   -0.259680
     14          7           0        0.349702   -0.606137    1.822567
     15          1           0        0.432023   -1.544489    1.450471
     16          1           0        1.109629   -0.442629    2.469768
     17          1           0       -0.632342    3.139883    1.041285
 ---------------------------------------------------------------------

 SCF Done:  E(RHF) =  -907.459764969     A.U. after    2 cycles

 The electronic state is 1-A.
 Alpha  occ. eigenvalues -- -103.51826 -20.49880 -20.49525 -15.78404 -15.52413
 Alpha  occ. eigenvalues --  -15.48142 -15.47924 -11.25359 -11.21427 -10.55228
 Alpha  occ. eigenvalues --   -8.20927  -8.20680  -8.20664  -1.41716  -1.23550
 Alpha  occ. eigenvalues --   -1.13756  -1.07098  -0.99012  -0.97778  -0.90089
 Alpha  occ. eigenvalues --   -0.75641  -0.68020  -0.64244  -0.61812  -0.60553
 Alpha  occ. eigenvalues --   -0.58043  -0.55660  -0.52547  -0.50318  -0.46778
 Alpha  occ. eigenvalues --   -0.43833  -0.41007  -0.40098  -0.38355  -0.35644
 Alpha  occ. eigenvalues --   -0.33481  -0.33248  -0.31409  -0.28981  -0.28296
 Alpha  occ. eigenvalues --   -0.11032
 Alpha virt. eigenvalues --    0.11780   0.13893   0.14877   0.15160   0.18001
 Alpha virt. eigenvalues --    0.19199   0.19467   0.20037   0.20890   0.21952
 Alpha virt. eigenvalues --    0.22716   0.23482   0.23945   0.24831   0.26292

 Mulliken charges:
               1
     1  C    0.076765
     2  C    1.719311
     3  Cl  -0.261028
     4  H   -0.100800
     5  N   -0.393825
     6  H    0.055936
     7  H    0.091345
     8  N   -0.457456
     9  H    0.165535
    10  H    0.006902
    11  N    0.299181
    12  O   -0.566467
    13  O   -0.633949
    14  N   -0.371617
    15  H    0.113190
    16  H    0.005226
    17  H   -0.748249
 Sum of Mulliken charges =  -1.00000

 Dipole moment (field-independent basis, Debye):
    X=              0.9457    Y=             -8.0808    Z=              0.5621  Tot=              8.1553

 Test job not archived.
 1\1\GINC-SE403\SP\RHF\Aug-CC-pVDZ\C2H8Cl1N4O2(1-)\OHZDE\09-Apr-2025\0\
 \#t hf aug-cc-pvdz iop(5/13=1,5/36=2,99/5=2) pseudo=read geom=check gu
 ess=(read,tcheck) scf=(maxcycle=1)\\title\\-1,1\C,0,-0.237052,0.068003
 ,-1.407805\C,0,-0.003539,0.004997,0.110396\Cl,0,-2.067956,0.188224,-1.
 698447\H,0,1.086711,-0.059623,0.18531\N,0,0.370177,1.233652,-1.965406\
 H,0,0.119432,2.034626,-1.392902\H,0,1.386928,1.046911,-1.826258\N,0,0.
 25139,-1.132752,-1.997487\H,0,1.258414,-1.124105,-1.746044\H,0,0.21581
 ,-0.981901,-3.002086\N,0,-0.535132,-1.289876,0.706165\O,0,0.199396,-2.

 Normal termination of Gaussian 16 at Wed Apr  9 02:35:30 2025.
