 Gaussian 16, Revision C.01,

 ----------------------------------------------------------------------
 #t hf aug-cc-pvdz symm=none int=(grid=ultrafine) guess=(read,tcheck) s
 table=(opt,rrhf)
 ----------------------------------------------------------------------
 -----
 title
 -----
 Symbolic Z-matrix:
 Charge = -1 Multiplicity = 1

 SCF Done:  E(RHF) =  -583.953666789     A.U. after   18 cycles
 Normal termination of Gaussian 16 at Wed Apr  9 02:57:22 2025.
 Gaussian 16:  ES64L-G16RevC.01  3-Jul-2019

 ----------------------------------------------------------------------
 #t hf aug-cc-pvdz iop(5/13=1,5/36=2,99/5=2) pseudo=read geom=check gue
 ss=(read,tcheck) scf=(maxcycle=1)
 ----------------------------------------------------------------------
 -----
 title
 -----
 Structure from the checkpoint file:  "E2SN2_408_mol2.chk"
 Charge = -1 Multiplicity = 1

                         Standard orientation:
 ---------------------------------------------------------------------
 Center     Atomic      Atomic             Coordinates (Angstroms)
 Number     Number       Type             X           Y           Z
 ---------------------------------------------------------------------
      1          6           0       -1.059114   -0.324062    0.177289
      2          6           0        0.203197    0.203793   -0.544706
      3          9           0       -0.942931   -0.024942    1.530724
      4          1           0        0.007361   -0.079997   -1.611983
      5          7           0       -2.241338    0.310581   -0.313561
      6          1           0       -2.178854    1.317873   -0.198487
      7          1           0       -2.250882    0.081185   -1.323587
      8          7           0       -1.080225   -1.735448   -0.004004
      9          1           0       -1.078797   -1.861448   -1.028002
     10          1           0       -1.992920   -2.041973    0.320728
     11          7           0        1.443965   -0.479136   -0.064702
     12          8           0        1.991462   -0.026909    0.941260
     13          8           0        1.821867   -1.456729   -0.702989
     14          6           0        0.348439    1.639196   -0.376653
     15          7           0        0.421982    2.808271   -0.285104
     16          1           0       -1.291983   -0.765505   -2.705343
 ---------------------------------------------------------------------

 SCF Done:  E(RHF) =  -584.132840737     A.U. after    2 cycles

 The electronic state is 1-A.
 Alpha  occ. eigenvalues --  -26.00156 -20.51405 -20.51130 -15.80932 -15.55334
 Alpha  occ. eigenvalues --  -15.49915 -15.49623 -11.29307 -11.22561 -11.20427
 Alpha  occ. eigenvalues --   -1.54141  -1.43609  -1.25378  -1.12503  -1.08775
 Alpha  occ. eigenvalues --   -1.00035  -0.99241  -0.79999  -0.75999  -0.68301
 Alpha  occ. eigenvalues --   -0.67184  -0.64528  -0.63196  -0.61816  -0.59574
 Alpha  occ. eigenvalues --   -0.55625  -0.52144  -0.50764  -0.48192  -0.46815
 Alpha  occ. eigenvalues --   -0.45146  -0.41613  -0.40724  -0.37047  -0.36250
 Alpha  occ. eigenvalues --   -0.35710  -0.31029  -0.30288  -0.12857
 Alpha virt. eigenvalues --    0.13153   0.14327   0.15612   0.17782   0.18092
 Alpha virt. eigenvalues --    0.18625   0.19069   0.20432   0.20742   0.21925
 Alpha virt. eigenvalues --    0.22800   0.24027   0.24316   0.25353   0.25961

 Mulliken charges:
               1
     1  C    0.336355
     2  C    1.996518
     3  F   -0.398602
     4  H   -0.103136
     5  N   -0.389133
     6  H   -0.013465
     7  H    0.157550
     8  N   -0.358205
     9  H    0.211593
    10  H   -0.037018
    11  N    0.113278
    12  O   -0.572961
    13  O   -0.549476
    14  C   -0.472228
    15  N   -0.254345
    16  H   -0.666726
 Sum of Mulliken charges =  -1.00000

 Dipole moment (field-independent basis, Debye):
    X=              0.5214    Y=              1.0333    Z=              4.7627  Tot=              4.9013

 Test job not archived.
 1\1\GINC-SE092\SP\RHF\Aug-CC-pVDZ\C3H6F1N4O2(1-)\OHZDE\09-Apr-2025\0\\
 #t hf aug-cc-pvdz iop(5/13=1,5/36=2,99/5=2) pseudo=read geom=check gue
 ss=(read,tcheck) scf=(maxcycle=1)\\title\\-1,1\C,0,-0.00803,-0.019052,
 0.007338\C,0,-0.49604,-0.076426,-1.459595\F,0,1.382906,-0.013151,0.002
 903\H,0,-1.611579,-0.071487,-1.343333\N,0,-0.450915,1.174808,0.655343\
 H,0,-0.122184,1.994984,0.154314\H,0,-1.483832,1.127447,0.594462\N,0,-0
 .482673,-1.197782,0.648145\H,0,-1.506587,-1.159464,0.527395\H,0,-0.306
 259,-1.063195,1.639702\N,0,-0.069009,-1.338857,-2.137985\O,0,1.051283,

 Normal termination of Gaussian 16 at Wed Apr  9 02:57:31 2025.
