 Gaussian 16, Revision C.01,

 ----------------------------------------------------------------------
 #t hf aug-cc-pvdz symm=none int=(grid=ultrafine) guess=(read,tcheck) s
 table=(opt,rrhf)
 ----------------------------------------------------------------------
 -----
 title
 -----
 Symbolic Z-matrix:
 Charge = -1 Multiplicity = 1

 SCF Done:  E(RHF) =  -777.179460631     A.U. after   16 cycles
 Normal termination of Gaussian 16 at Wed Apr  9 02:31:47 2025.
 Gaussian 16:  ES64L-G16RevC.01  3-Jul-2019

 ----------------------------------------------------------------------
 #t hf aug-cc-pvdz iop(5/13=1,5/36=2,99/5=2) pseudo=read geom=check gue
 ss=(read,tcheck) scf=(maxcycle=1)
 ----------------------------------------------------------------------
 -----
 title
 -----
 Structure from the checkpoint file:  "E2SN2_122_mol1.chk"
 Charge = -1 Multiplicity = 1

                         Standard orientation:
 ---------------------------------------------------------------------
 Center     Atomic      Atomic             Coordinates (Angstroms)
 Number     Number       Type             X           Y           Z
 ---------------------------------------------------------------------
      1          6           0       -0.521920    0.126527    0.312812
      2          6           0        0.751907   -0.151958    1.069461
      3         17           0       -1.043845   -1.336198   -0.702773
      4          1           0        0.316773    1.735414    2.695218
      5          1           0        0.757730    0.814918    1.854541
      6          1           0        0.598593   -1.008638    1.732595
      7          7           0       -1.617588    0.469409    1.186874
      8          1           0       -1.196521    1.152035    1.850243
      9          1           0       -1.819934   -0.358590    1.741326
     10          6           0        1.940066   -0.312117    0.275476
     11          7           0        2.939313   -0.415855   -0.340452
     12          6           0       -0.326473    1.218632   -0.653053
     13          7           0       -0.174975    2.102692   -1.411416
 ---------------------------------------------------------------------

 SCF Done:  E(RHF) =  -777.288525993     A.U. after    2 cycles

 The electronic state is 1-A.
 Alpha  occ. eigenvalues -- -103.54922 -15.53857 -15.51557 -15.51154 -11.27929
 Alpha  occ. eigenvalues --  -11.18644 -11.17226 -11.14207 -10.58248  -8.23948
 Alpha  occ. eigenvalues --   -8.23675  -8.23665  -1.12793  -1.06272  -1.05401
 Alpha  occ. eigenvalues --   -1.01229  -0.91574  -0.79514  -0.62022  -0.58336
 Alpha  occ. eigenvalues --   -0.54390  -0.50471  -0.47816  -0.44503  -0.42446
 Alpha  occ. eigenvalues --   -0.42217  -0.37305  -0.35624  -0.34920  -0.33927
 Alpha  occ. eigenvalues --   -0.33737  -0.32336  -0.30616  -0.12654
 Alpha virt. eigenvalues --    0.12485   0.14612   0.16556   0.17642   0.18281
 Alpha virt. eigenvalues --    0.19189   0.19695   0.20465   0.22376   0.22843
 Alpha virt. eigenvalues --    0.23416   0.24201   0.24752   0.25697   0.26388

 Mulliken charges:
               1
     1  C    0.257676
     2  C    0.821256
     3  Cl  -0.216188
     4  H   -0.518840
     5  H   -0.014040
     6  H   -0.047718
     7  N   -0.437566
     8  H    0.091492
     9  H    0.054413
    10  C   -0.183665
    11  N   -0.324406
    12  C   -0.246338
    13  N   -0.236075
 Sum of Mulliken charges =  -1.00000

 Dipole moment (field-independent basis, Debye):
    X=             -3.6308    Y=             -6.2206    Z=             -2.1804  Tot=              7.5255

 Test job not archived.
 1\1\GINC-SE051\SP\RHF\Aug-CC-pVDZ\C4H5Cl1N3(1-)\OHZDE\09-Apr-2025\0\\#
 t hf aug-cc-pvdz iop(5/13=1,5/36=2,99/5=2) pseudo=read geom=check gues
 s=(read,tcheck) scf=(maxcycle=1)\\title\\-1,1\C,0,-0.19199313,0.019877
 89,-0.34986555\C,0,-0.12551026,0.03532201,1.15613774\Cl,0,1.49116669,-
 0.18681442,-1.10328057\H,0,-2.58382814,-0.51739673,1.37008842\H,0,-1.3
 3360895,-0.09114026,1.43134227\H,0,0.30863906,-0.90515111,1.50852569\N
 ,0,-1.03284729,-1.03935263,-0.85289236\H,0,-1.88143078,-0.9835274,-0.2
 5278969\H,0,-0.58095646,-1.91539874,-0.60332898\C,0,0.52986336,1.16849

 Normal termination of Gaussian 16 at Wed Apr  9 02:31:52 2025.
