 Gaussian 16, Revision C.01,

 ----------------------------------------------------------------------
 #t hf aug-cc-pvdz symm=none int=(grid=ultrafine) guess=(read,tcheck) s
 table=(opt,rrhf)
 ----------------------------------------------------------------------
 -----
 title
 -----
 Symbolic Z-matrix:
 Charge = -1 Multiplicity = 1

 SCF Done:  E(RHF) =  -739.643309036     A.U. after   16 cycles
 Normal termination of Gaussian 16 at Wed Apr  9 02:42:38 2025.
 Gaussian 16:  ES64L-G16RevC.01  3-Jul-2019

 ----------------------------------------------------------------------
 #t hf aug-cc-pvdz iop(5/13=1,5/36=2,99/5=2) pseudo=read geom=check gue
 ss=(read,tcheck) scf=(maxcycle=1)
 ----------------------------------------------------------------------
 -----
 title
 -----
 Structure from the checkpoint file:  "E2SN2_236_mol2.chk"
 Charge = -1 Multiplicity = 1

                         Standard orientation:
 ---------------------------------------------------------------------
 Center     Atomic      Atomic             Coordinates (Angstroms)
 Number     Number       Type             X           Y           Z
 ---------------------------------------------------------------------
      1          6           0        0.407813   -0.040004    0.415491
      2          6           0       -0.640368   -0.006825   -0.675850
      3          9           0        0.211253   -1.142717    1.261014
      4          1           0       -0.444619   -0.761086   -1.428625
      5          1           0       -0.633852    1.037067   -1.058938
      6          7           0        1.783472   -0.530779   -0.257188
      7          8           0        2.811379   -0.099072    0.258815
      8          8           0        1.752073   -1.340583   -1.180289
      9          7           0        0.539368    1.133735    1.081128
     10          1           0        0.366359    1.937023    0.380654
     11          1           0        1.410123    1.179252    1.592197
     12          7           0       -1.982798   -0.321093   -0.125540
     13          8           0       -2.412343    0.358009    0.801265
     14          8           0       -2.607499   -1.238313   -0.667731
     15          9           0        0.007430    2.639978   -0.873060
 ---------------------------------------------------------------------

 SCF Done:  E(RHF) =  -739.871705140     A.U. after    2 cycles

 The electronic state is 1-A.
 Alpha  occ. eigenvalues --  -26.02415 -25.79482 -20.51366 -20.51350 -20.50252
 Alpha  occ. eigenvalues --  -20.50087 -15.79723 -15.79294 -15.48318 -11.32393
 Alpha  occ. eigenvalues --  -11.18057  -1.56029  -1.42906  -1.42461  -1.28982
 Alpha  occ. eigenvalues --   -1.25152  -1.24090  -1.09606  -0.97354  -0.88053
 Alpha  occ. eigenvalues --   -0.76751  -0.73477  -0.69414  -0.67127  -0.64911
 Alpha  occ. eigenvalues --   -0.62942  -0.62577  -0.62054  -0.59655  -0.58128
 Alpha  occ. eigenvalues --   -0.57715  -0.52856  -0.48729  -0.46147  -0.42305
 Alpha  occ. eigenvalues --   -0.41087  -0.39153  -0.38919  -0.38605  -0.36748
 Alpha  occ. eigenvalues --   -0.36445  -0.35921  -0.35562  -0.29109
 Alpha virt. eigenvalues --    0.13961   0.14546   0.16799   0.18539   0.19152
 Alpha virt. eigenvalues --    0.19223   0.19774   0.20810   0.22547   0.24062
 Alpha virt. eigenvalues --    0.25339   0.25619   0.26237   0.26989   0.27937

 Mulliken charges:
               1
     1  C    1.349356
     2  C    0.999630
     3  F   -0.439796
     4  H   -0.093014
     5  H   -0.046915
     6  N    0.363242
     7  O   -0.614581
     8  O   -0.628645
     9  N   -0.493861
    10  H    0.232026
    11  H    0.066512
    12  N    0.441213
    13  O   -0.586269
    14  O   -0.635434
    15  F   -0.913465
 Sum of Mulliken charges =  -1.00000

 Dipole moment (field-independent basis, Debye):
    X=              1.1832    Y=             -4.0696    Z=              1.2634  Tot=              4.4224

 Test job not archived.
 1\1\GINC-SE049\SP\RHF\Aug-CC-pVDZ\C2H4F2N3O4(1-)\OHZDE\09-Apr-2025\0\\
 #t hf aug-cc-pvdz iop(5/13=1,5/36=2,99/5=2) pseudo=read geom=check gue
 ss=(read,tcheck) scf=(maxcycle=1)\\title\\-1,1\C,0,-0.084185,-0.053915
 ,0.063849\C,0,-0.604218,-0.060051,-1.357537\F,0,1.285497,-0.358186,0.0
 94029\H,0,-0.281645,0.82344,-1.895391\H,0,-1.707489,-0.165544,-1.26713
 2\N,0,0.029377,1.482362,0.525102\O,0,-0.127474,1.690071,1.725717\O,0,0
 .325362,2.342959,-0.299913\N,0,-0.822654,-0.804382,0.917959\H,0,-1.856
 089,-0.740841,0.611623\H,0,-0.637133,-0.566297,1.882519\N,0,-0.059107,

 Normal termination of Gaussian 16 at Wed Apr  9 02:42:48 2025.
