 Gaussian 16, Revision C.01,

 ----------------------------------------------------------------------
 #t hf aug-cc-pvdz symm=none int=(grid=ultrafine) guess=(read,tcheck) s
 table=(opt,rrhf)
 ----------------------------------------------------------------------
 -----
 title
 -----
 Symbolic Z-matrix:
 Charge = -1 Multiplicity = 1

 SCF Done:  E(RHF) =  -479.428670513     A.U. after   14 cycles
 Normal termination of Gaussian 16 at Wed Apr  9 02:57:05 2025.
 Gaussian 16:  ES64L-G16RevC.01  3-Jul-2019

 ----------------------------------------------------------------------
 #t hf aug-cc-pvdz iop(5/13=1,5/36=2,99/5=2) pseudo=read geom=check gue
 ss=(read,tcheck) scf=(maxcycle=1)
 ----------------------------------------------------------------------
 -----
 title
 -----
 Structure from the checkpoint file:  "E2SN2_413_mol2.chk"
 Charge = -1 Multiplicity = 1

                         Standard orientation:
 ---------------------------------------------------------------------
 Center     Atomic      Atomic             Coordinates (Angstroms)
 Number     Number       Type             X           Y           Z
 ---------------------------------------------------------------------
      1          6           0       -0.333346    0.631208    0.004630
      2          6           0        0.493960   -0.371884   -0.815048
      3          9           0        0.358305    1.849053    0.016460
      4          1           0        0.568411   -0.021211   -1.846847
      5          1           0       -0.109507   -1.291936   -0.758140
      6          7           0       -1.578183    0.793309   -0.684467
      7          1           0       -2.147631    1.375074   -0.075460
      8          1           0       -1.970815   -0.165466   -0.620265
      9          7           0       -0.539926    0.232614    1.370135
     10          1           0       -1.070113   -0.646318    1.252078
     11          1           0        0.353669    0.024944    1.805950
     12          6           0        1.826287   -0.571829   -0.263926
     13          7           0        2.896790   -0.733957    0.191582
     14          9           0       -1.802326   -1.787254    0.044429
 ---------------------------------------------------------------------

 SCF Done:  E(RHF) =  -479.576253316     A.U. after    2 cycles

 The electronic state is 1-A.
 Alpha  occ. eigenvalues --  -25.96870 -25.77126 -15.51607 -15.46164 -15.45874
 Alpha  occ. eigenvalues --  -11.24683 -11.17220 -11.13304  -1.50565  -1.26186
 Alpha  occ. eigenvalues --   -1.07938  -1.05494  -0.95974  -0.89411  -0.72460
 Alpha  occ. eigenvalues --   -0.62178  -0.60077  -0.59071  -0.53504  -0.50028
 Alpha  occ. eigenvalues --   -0.48251  -0.47591  -0.44234  -0.43265  -0.41194
 Alpha  occ. eigenvalues --   -0.36320  -0.35492  -0.35341  -0.33096  -0.31830
 Alpha  occ. eigenvalues --   -0.27314  -0.26493
 Alpha virt. eigenvalues --    0.13694   0.14320   0.15434   0.17062   0.18360
 Alpha virt. eigenvalues --    0.19154   0.19573   0.20782   0.22622   0.24426
 Alpha virt. eigenvalues --    0.24824   0.26202   0.26892   0.27947   0.28270

 Mulliken charges:
               1
     1  C    0.830104
     2  C    0.659839
     3  F   -0.437660
     4  H    0.006113
     5  H    0.012496
     6  N   -0.475753
     7  H   -0.009279
     8  H    0.189168
     9  N   -0.513334
    10  H    0.172654
    11  H    0.007545
    12  C   -0.145487
    13  N   -0.312372
    14  F   -0.984034
 Sum of Mulliken charges =  -1.00000

 Dipole moment (field-independent basis, Debye):
    X=              1.4979    Y=              2.8426    Z=             -0.8568  Tot=              3.3254

 Test job not archived.
 1\1\GINC-SE228\SP\RHF\Aug-CC-pVDZ\C3H6F2N3(1-)\OHZDE\09-Apr-2025\0\\#t
  hf aug-cc-pvdz iop(5/13=1,5/36=2,99/5=2) pseudo=read geom=check guess
 =(read,tcheck) scf=(maxcycle=1)\\title\\-1,1\C,0,-0.008656,0.001092,-0
 .005128\C,0,-0.456492,0.124789,-1.470271\F,0,1.391768,-0.003376,0.0162
 95\H,0,-0.114267,1.080566,-1.87338\H,0,-1.555396,0.104679,-1.393389\N,
 0,-0.494933,1.166478,0.670268\H,0,-0.280621,1.015688,1.652584\H,0,-1.5
 21016,1.041855,0.574587\N,0,-0.459465,-1.202382,0.638751\H,0,-1.485606
 ,-1.090407,0.593432\H,0,-0.189149,-2.009777,0.085023\C,0,0.041449,-0.9

 Normal termination of Gaussian 16 at Wed Apr  9 02:57:10 2025.
