 Gaussian 16, Revision C.01,

 ----------------------------------------------------------------------
 #t hf aug-cc-pvdz symm=none int=(grid=ultrafine) guess=(read,tcheck) s
 table=(opt,rrhf)
 ----------------------------------------------------------------------
 -----
 title
 -----
 Symbolic Z-matrix:
 Charge = -1 Multiplicity = 1

 SCF Done:  E(RHF) =  -565.553283106     A.U. after   17 cycles
 Normal termination of Gaussian 16 at Wed Apr  9 02:58:49 2025.
 Gaussian 16:  ES64L-G16RevC.01  3-Jul-2019

 ----------------------------------------------------------------------
 #t hf aug-cc-pvdz iop(5/13=1,5/36=2,99/5=2) pseudo=read geom=check gue
 ss=(read,tcheck) scf=(maxcycle=1)
 ----------------------------------------------------------------------
 -----
 title
 -----
 Structure from the checkpoint file:  "E2SN2_64_mol1.chk"
 Charge = -1 Multiplicity = 1

                         Standard orientation:
 ---------------------------------------------------------------------
 Center     Atomic      Atomic             Coordinates (Angstroms)
 Number     Number       Type             X           Y           Z
 ---------------------------------------------------------------------
      1          6           0        0.651297   -0.078748    0.454308
      2          6           0       -0.717432   -0.584063    0.756530
      3          9           0        1.375855   -0.181509    1.648634
      4          1           0        0.427399   -2.251110   -0.184467
      5          1           0       -0.381505   -1.819601    0.378400
      6          1           0       -1.027477   -0.531375    1.793494
      7          6           0        0.730896    1.311016    0.006022
      8          7           0        0.845970    2.442826   -0.288365
      9          6           0        1.405268   -1.017064   -0.557353
     10          7           0        2.344364   -0.990172   -1.291478
     11          7           0       -1.722210   -0.161444   -0.146320
     12          8           0       -2.905573   -0.131256    0.230716
     13          8           0       -1.356697    0.057550   -1.318096
 ---------------------------------------------------------------------

 SCF Done:  E(RHF) =  -565.723085964     A.U. after    2 cycles

 The electronic state is 1-A.
 Alpha  occ. eigenvalues --  -26.02596 -20.48586 -20.48359 -15.78577 -15.53967
 Alpha  occ. eigenvalues --  -15.46947 -11.28834 -11.19014 -11.17063 -11.15951
 Alpha  occ. eigenvalues --   -1.55771  -1.40458  -1.22043  -1.07940  -1.03076
 Alpha  occ. eigenvalues --   -0.99786  -0.89116  -0.74545  -0.70472  -0.68137
 Alpha  occ. eigenvalues --   -0.64665  -0.61056  -0.60952  -0.58309  -0.56104
 Alpha  occ. eigenvalues --   -0.49658  -0.45737  -0.42098  -0.39994  -0.39262
 Alpha  occ. eigenvalues --   -0.38597  -0.36261  -0.35043  -0.34080  -0.32195
 Alpha  occ. eigenvalues --   -0.30015  -0.16181
 Alpha virt. eigenvalues --    0.12807   0.15486   0.16702   0.17930   0.19328
 Alpha virt. eigenvalues --    0.19648   0.20624   0.21761   0.22010   0.22994
 Alpha virt. eigenvalues --    0.24243   0.25175   0.25592   0.26185   0.26686

 Mulliken charges:
               1
     1  C    0.719563
     2  C    0.596518
     3  F   -0.471408
     4  H   -0.071825
     5  H    0.347684
     6  H   -0.094848
     7  C   -0.436264
     8  N   -0.229591
     9  C   -0.072819
    10  N   -0.463512
    11  N    0.515809
    12  O   -0.698101
    13  O   -0.641205
 Sum of Mulliken charges =  -1.00000

 Dipole moment (field-independent basis, Debye):
    X=             -2.1616    Y=              0.2464    Z=              4.3033  Tot=              4.8219

 Test job not archived.
 1\1\GINC-SE149\SP\RHF\Aug-CC-pVDZ\C4H3F1N3O2(1-)\OHZDE\09-Apr-2025\0\\
 #t hf aug-cc-pvdz iop(5/13=1,5/36=2,99/5=2) pseudo=read geom=check gue
 ss=(read,tcheck) scf=(maxcycle=1)\\title\\-1,1\C,0,-0.18650273,-0.0391
 1665,-0.33748304\C,0,0.43416304,0.07999085,1.01184535\F,0,0.52471409,-
 1.04446139,-1.00487434\H,0,-1.37517434,-1.20924532,1.21015289\H,0,-0.4
 3402352,-0.79445543,1.52563428\H,0,1.4627871,-0.25051197,1.09490172\C,
 0,-0.13768296,1.16381572,-1.16773182\N,0,-0.05664401,2.08498271,-1.892
 84125\C,0,-1.66148177,-0.57709178,-0.25154259\N,0,-2.64687752,-0.63203

 Normal termination of Gaussian 16 at Wed Apr  9 02:58:55 2025.
