 Gaussian 16, Revision C.01,

 ----------------------------------------------------------------------
 #t hf aug-cc-pvdz symm=none int=(grid=ultrafine) guess=(read,tcheck) s
 table=(opt,rrhf)
 ----------------------------------------------------------------------
 -----
 title
 -----
 Symbolic Z-matrix:
 Charge = -1 Multiplicity = 1

 SCF Done:  E(RHF) =  -1295.33625316     A.U. after   15 cycles
 Normal termination of Gaussian 16 at Wed Apr  9 02:43:41 2025.
 Gaussian 16:  ES64L-G16RevC.01  3-Jul-2019

 ----------------------------------------------------------------------
 #t hf aug-cc-pvdz iop(5/13=1,5/36=2,99/5=2) pseudo=read geom=check gue
 ss=(read,tcheck) scf=(maxcycle=1)
 ----------------------------------------------------------------------
 -----
 title
 -----
 Structure from the checkpoint file:  "E2SN2_245_mol2.chk"
 Charge = -1 Multiplicity = 1

                         Standard orientation:
 ---------------------------------------------------------------------
 Center     Atomic      Atomic             Coordinates (Angstroms)
 Number     Number       Type             X           Y           Z
 ---------------------------------------------------------------------
      1          6           0        0.517924    0.144787   -0.152514
      2          6           0       -0.098241    0.898835    1.004119
      3         17           0        2.125968    0.909836   -0.630187
      4          1           0        0.645977    0.982876    1.795630
      5          1           0       -0.926874    0.279874    1.363411
      6          7           0        1.029405   -1.250446    0.367903
      7          8           0        1.026998   -2.168137   -0.445867
      8          8           0        1.416867   -1.331433    1.527932
      9          7           0       -0.313236    0.032950   -1.243566
     10          1           0       -1.298935   -0.088195   -0.957986
     11          1           0       -0.015696   -0.690434   -1.883459
     12          6           0       -0.640647    2.258801    0.582843
     13          1           0       -0.984092    2.803387    1.466505
     14          1           0        0.125100    2.856211    0.083168
     15          1           0       -1.492102    2.131134   -0.083898
     16         17           0       -3.260773   -0.413975   -0.129633
 ---------------------------------------------------------------------

 SCF Done:  E(RHF) =  -1295.48140310     A.U. after    2 cycles

 The electronic state is 1-A.
 Alpha  occ. eigenvalues -- -103.55527-103.38217 -20.51384 -20.51300 -15.79925
 Alpha  occ. eigenvalues --  -15.50230 -11.29622 -11.13593 -11.11718 -10.58883
 Alpha  occ. eigenvalues --  -10.41317  -8.24592  -8.24317  -8.24304  -8.06923
 Alpha  occ. eigenvalues --   -8.06882  -8.06875  -1.43488  -1.25529  -1.12924
 Alpha  occ. eigenvalues --   -1.02219  -0.93420  -0.87462  -0.83626  -0.76607
 Alpha  occ. eigenvalues --   -0.69368  -0.65139  -0.62964  -0.61322  -0.56999
 Alpha  occ. eigenvalues --   -0.53662  -0.48007  -0.46208  -0.44029  -0.42691
 Alpha  occ. eigenvalues --   -0.39966  -0.39542  -0.38773  -0.36904  -0.35755
 Alpha  occ. eigenvalues --   -0.35570  -0.30151  -0.21720  -0.21402  -0.21298
 Alpha virt. eigenvalues --    0.12198   0.13518   0.14433   0.14773   0.16969
 Alpha virt. eigenvalues --    0.17684   0.18074   0.18630   0.20621   0.21127
 Alpha virt. eigenvalues --    0.23882   0.24117   0.24424   0.25288   0.26089

 Mulliken charges:
               1
     1  C    0.649603
     2  C    0.328108
     3  Cl  -0.231858
     4  H   -0.062502
     5  H    0.023313
     6  N    0.427405
     7  O   -0.613384
     8  O   -0.623588
     9  N   -0.324897
    10  H    0.028668
    11  H    0.038110
    12  C    0.424306
    13  H   -0.059307
    14  H   -0.073055
    15  H   -0.009262
    16  Cl  -0.921659
 Sum of Mulliken charges =  -1.00000

 Dipole moment (field-independent basis, Debye):
    X=              8.3947    Y=              3.5331    Z=              0.2052  Tot=              9.1102

 Test job not archived.
 1\1\GINC-SE054\SP\RHF\Aug-CC-pVDZ\C3H7Cl2N2O2(1-)\OHZDE\09-Apr-2025\0\
 \#t hf aug-cc-pvdz iop(5/13=1,5/36=2,99/5=2) pseudo=read geom=check gu
 ess=(read,tcheck) scf=(maxcycle=1)\\title\\-1,1\C,0,0.020761,0.04977,0
 .018607\C,0,-0.473522,0.194447,-1.402942\Cl,0,1.849019,-0.18761,0.0385
 92\H,0,0.115265,0.968201,-1.894927\H,0,-1.511933,0.533992,-1.330503\N,
 0,-0.075223,1.449706,0.732813\O,0,-0.264572,1.429782,1.944479\O,0,0.06
 7166,2.459724,0.05315\N,0,-0.609595,-0.950496,0.722771\H,0,-1.60836,-1
 .021941,0.46743\H,0,-0.482493,-0.859352,1.721177\C,0,-0.434368,-1.1245

 Normal termination of Gaussian 16 at Wed Apr  9 02:43:49 2025.
