 Gaussian 16, Revision C.01,

 ----------------------------------------------------------------------
 #t hf aug-cc-pvdz symm=none int=(grid=ultrafine) guess=(read,tcheck) s
 table=(opt,rrhf)
 ----------------------------------------------------------------------
 -----
 title
 -----
 Symbolic Z-matrix:
 Charge = -1 Multiplicity = 1

 SCF Done:  E(RHF) =  -1291.25706182     A.U. after   17 cycles
 Normal termination of Gaussian 16 at Wed Apr  9 03:00:51 2025.
 Gaussian 16:  ES64L-G16RevC.01  3-Jul-2019

 ----------------------------------------------------------------------
 #t hf aug-cc-pvdz iop(5/13=1,5/36=2,99/5=2) pseudo=read geom=check gue
 ss=(read,tcheck) scf=(maxcycle=1)
 ----------------------------------------------------------------------
 -----
 title
 -----
 Structure from the checkpoint file:  "E2SN2_93_mol1.chk"
 Charge = -1 Multiplicity = 1

                         Standard orientation:
 ---------------------------------------------------------------------
 Center     Atomic      Atomic             Coordinates (Angstroms)
 Number     Number       Type             X           Y           Z
 ---------------------------------------------------------------------
      1          6           0        0.451192   -0.644110    0.051320
      2          6           0       -0.375461    0.437734   -0.303662
      3         17           0        2.718212    0.183779   -0.703843
      4         17           0       -3.155661   -0.493395   -0.023429
      5          1           0       -1.724556   -0.114425    0.003893
      6          6           0        0.884092   -0.784852    1.416513
      7          7           0        1.163063   -0.951792    2.547806
      8          7           0        0.408437   -1.775014   -0.692136
      9          1           0        0.166684   -1.556735   -1.652355
     10          1           0        1.214917   -2.371523   -0.587434
     11          7           0       -0.527719    0.572783   -1.728941
     12          1           0        0.245617    1.129810   -2.084358
     13          1           0       -1.412968    1.008919   -1.955143
     14          6           0       -0.299368    1.627215    0.498638
     15          7           0       -0.331751    2.632810    1.110722
 ---------------------------------------------------------------------

 SCF Done:  E(RHF) =  -1291.39300959     A.U. after    2 cycles

 The electronic state is 1-A.
 Alpha  occ. eigenvalues -- -103.49249-103.42598 -15.57093 -15.56973 -15.53167
 Alpha  occ. eigenvalues --  -15.52702 -11.30069 -11.21463 -11.19015 -11.18096
 Alpha  occ. eigenvalues --  -10.52541 -10.45773  -8.18223  -8.18035  -8.18029
 Alpha  occ. eigenvalues --   -8.11386  -8.11311  -8.11302  -1.16869  -1.09266
 Alpha  occ. eigenvalues --   -1.08386  -1.05050  -0.96876  -0.93169  -0.88212
 Alpha  occ. eigenvalues --   -0.79721  -0.70766  -0.61562  -0.59313  -0.57232
 Alpha  occ. eigenvalues --   -0.52735  -0.49514  -0.46558  -0.43902  -0.43649
 Alpha  occ. eigenvalues --   -0.38024  -0.37566  -0.36933  -0.35700  -0.32253
 Alpha  occ. eigenvalues --   -0.31947  -0.31542  -0.27035  -0.25663  -0.25363
 Alpha  occ. eigenvalues --   -0.21941
 Alpha virt. eigenvalues --    0.11854   0.12645   0.15188   0.15253   0.15638
 Alpha virt. eigenvalues --    0.17124   0.18384   0.19302   0.21113   0.21977
 Alpha virt. eigenvalues --    0.22449   0.22948   0.23829   0.24172   0.24896

 Mulliken charges:
               1
     1  C    1.400037
     2  C    0.415111
     3  Cl  -0.787273
     4  Cl  -0.578502
     5  H    0.763932
     6  C   -0.924554
     7  N   -0.179142
     8  N   -0.391405
     9  H    0.116565
    10  H    0.032368
    11  N   -0.543007
    12  H    0.083321
    13  H    0.052230
    14  C   -0.156202
    15  N   -0.303478
 Sum of Mulliken charges =  -1.00000

 Dipole moment (field-independent basis, Debye):
    X=             -2.0289    Y=             -3.3071    Z=             -3.6624  Tot=              5.3354

 Test job not archived.
 1\1\GINC-SE073\SP\RHF\Aug-CC-pVDZ\C4H5Cl2N4(1-)\OHZDE\09-Apr-2025\0\\#
 t hf aug-cc-pvdz iop(5/13=1,5/36=2,99/5=2) pseudo=read geom=check gues
 s=(read,tcheck) scf=(maxcycle=1)\\title\\-1,1\C,0,-0.47498757,0.005044
 45,-0.27378383\C,0,-0.26795773,0.03610129,1.11759295\Cl,0,1.89919897,0
 .09773135,-1.13963697\Cl,0,-2.90241116,0.48482602,2.35587658\H,0,-1.66
 801583,0.1334442,1.61748348\C,0,-0.73232077,-1.25357733,-0.92233138\N,
 0,-1.03288472,-2.26751932,-1.43914986\N,0,-0.94288889,1.11451905,-0.89
 316498\H,0,-0.64407979,1.94729721,-0.39788247\H,0,-0.77771331,1.135653

 Normal termination of Gaussian 16 at Wed Apr  9 03:00:59 2025.
