 Gaussian 16, Revision C.01,

 ----------------------------------------------------------------------
 #t hf aug-cc-pvdz symm=none int=(grid=ultrafine) guess=(read,tcheck) s
 table=(opt,rrhf)
 ----------------------------------------------------------------------
 -----
 title
 -----
 Symbolic Z-matrix:
 Charge = -1 Multiplicity = 1

 SCF Done:  E(RHF) =  -763.503358732     A.U. after   17 cycles
 Normal termination of Gaussian 16 at Wed Apr  9 02:27:57 2025.
 Gaussian 16:  ES64L-G16RevC.01  3-Jul-2019

 ----------------------------------------------------------------------
 #t hf aug-cc-pvdz iop(5/13=1,5/36=2,99/5=2) pseudo=read geom=check gue
 ss=(read,tcheck) scf=(maxcycle=1)
 ----------------------------------------------------------------------
 -----
 title
 -----
 Structure from the checkpoint file:  "E2SN2_105_mol1.chk"
 Charge = -1 Multiplicity = 1

                         Standard orientation:
 ---------------------------------------------------------------------
 Center     Atomic      Atomic             Coordinates (Angstroms)
 Number     Number       Type             X           Y           Z
 ---------------------------------------------------------------------
      1          6           0       -0.269081   -0.023330    0.373899
      2          6           0        1.101166    0.426562    0.061058
      3         17           0       -0.892388   -1.431164   -0.812377
      4          1           0        2.252496    1.866827    1.688460
      5          1           0        1.417324    1.285291    0.898622
      6          6           0       -0.391042   -0.595600    1.771883
      7          1           0        0.291195   -1.439874    1.847135
      8          1           0       -0.064290    0.177300    2.477404
      9          1           0       -1.415493   -0.902082    1.990741
     10          6           0       -1.249785    1.038027    0.155119
     11          7           0       -2.034417    1.903401    0.017097
     12          7           0        2.082827   -0.585273    0.399193
     13          1           0        2.798221   -0.090919    0.944053
     14          1           0        2.512588   -0.956447   -0.440587
     15          6           0        1.299256    1.064700   -1.294850
     16          1           0        2.250208    1.609883   -1.276154
     17          1           0        1.339201    0.312459   -2.094540
     18          1           0        0.507194    1.778300   -1.541397
 ---------------------------------------------------------------------

 SCF Done:  E(RHF) =  -763.611327990     A.U. after    2 cycles

 The electronic state is 1-A.
 Alpha  occ. eigenvalues -- -103.51810 -15.52992 -15.46642 -11.22608 -11.18190
 Alpha  occ. eigenvalues --  -11.12222 -11.11167 -11.09787 -10.55054  -8.20739
 Alpha  occ. eigenvalues --   -8.20503  -8.20499  -1.08135  -1.04279  -0.99945
 Alpha  occ. eigenvalues --   -0.91643  -0.85259  -0.77345  -0.68351  -0.56508
 Alpha  occ. eigenvalues --   -0.52175  -0.50409  -0.47994  -0.45622  -0.44403
 Alpha  occ. eigenvalues --   -0.42881  -0.40580  -0.40044  -0.38549  -0.34948
 Alpha  occ. eigenvalues --   -0.34243  -0.32615  -0.32349  -0.31813  -0.25720
 Alpha  occ. eigenvalues --   -0.09719
 Alpha virt. eigenvalues --    0.12762   0.12935   0.14179   0.15337   0.15716
 Alpha virt. eigenvalues --    0.16817   0.16881   0.18116   0.18992   0.19720
 Alpha virt. eigenvalues --    0.20548   0.21591   0.22704   0.23512   0.24728

 Mulliken charges:
               1
     1  C   -0.724285
     2  C   -0.051841
     3  Cl  -0.330173
     4  H   -0.695824
     5  H    0.205622
     6  C    0.898553
     7  H    0.049268
     8  H    0.089776
     9  H   -0.039287
    10  C   -0.218205
    11  N   -0.315015
    12  N   -0.426448
    13  H    0.105457
    14  H    0.025208
    15  C    0.611907
    16  H   -0.019493
    17  H   -0.038273
    18  H   -0.126946
 Sum of Mulliken charges =  -1.00000

 Dipole moment (field-independent basis, Debye):
    X=             -3.2034    Y=             -5.8677    Z=             -3.7378  Tot=              7.6592

 Test job not archived.
 1\1\GINC-SE165\SP\RHF\Aug-CC-pVDZ\C5H10Cl1N2(1-)\OHZDE\09-Apr-2025\0\\
 #t hf aug-cc-pvdz iop(5/13=1,5/36=2,99/5=2) pseudo=read geom=check gue
 ss=(read,tcheck) scf=(maxcycle=1)\\title\\-1,1\C,0,-0.12549689,-0.0068
 541,-0.44628487\C,0,-0.214732,-0.04255468,1.02633512\Cl,0,1.70736253,0
 .00407252,-1.09302064\H,0,-2.40255569,-0.50940372,2.04802059\H,0,-1.41
 617355,-0.09432789,1.33087207\C,0,-0.7727572,-1.21119535,-1.10000207\H
 ,0,-0.26917819,-2.10201225,-0.73018989\H,0,-1.81892194,-1.24454911,-0.
 77392296\H,0,-0.71502588,-1.1548107,-2.18849534\C,0,-0.66511109,1.2375

 Normal termination of Gaussian 16 at Wed Apr  9 02:28:10 2025.
