 Gaussian 16, Revision C.01,

 ----------------------------------------------------------------------
 #t hf aug-cc-pvdz symm=none int=(grid=ultrafine) guess=(read,tcheck) s
 table=(opt,rrhf)
 ----------------------------------------------------------------------
 -----
 title
 -----
 Symbolic Z-matrix:
 Charge = -1 Multiplicity = 1

 SCF Done:  E(RHF) =  -456.133603069     A.U. after   17 cycles
 Normal termination of Gaussian 16 at Wed Apr  9 02:55:28 2025.
 Gaussian 16:  ES64L-G16RevC.01  3-Jul-2019

 ----------------------------------------------------------------------
 #t hf aug-cc-pvdz iop(5/13=1,5/36=2,99/5=2) pseudo=read geom=check gue
 ss=(read,tcheck) scf=(maxcycle=1)
 ----------------------------------------------------------------------
 -----
 title
 -----
 Structure from the checkpoint file:  "E2SN2_391_mol1.chk"
 Charge = -1 Multiplicity = 1

                         Standard orientation:
 ---------------------------------------------------------------------
 Center     Atomic      Atomic             Coordinates (Angstroms)
 Number     Number       Type             X           Y           Z
 ---------------------------------------------------------------------
      1          6           0       -0.520634   -0.404450    0.285501
      2          1           0        0.804383    0.496569    1.701466
      3          9           0       -0.081230   -0.718088   -1.265472
      4          1           0       -1.229752    0.107366    1.911878
      5          6           0        0.664079    0.516550    0.622626
      6          7           0       -0.428556   -1.768850    0.747373
      7          1           0       -0.679501   -2.357609   -0.037920
      8          1           0       -1.067228   -1.891190    1.517704
      9          6           0       -1.805791    0.188084   -0.015413
     10          7           0       -2.825530    0.603237   -0.446062
     11          6           0        0.399277    1.946792    0.162843
     12          1           0        0.207817    1.957500   -0.911033
     13          1           0       -0.480377    2.324892    0.688101
     14          1           0        1.254017    2.591323    0.383093
     15          6           0        1.909151    0.009641    0.027239
     16          7           0        2.974831   -0.306639   -0.352855
 ---------------------------------------------------------------------

 SCF Done:  E(RHF) =  -456.269136036     A.U. after    2 cycles

 The electronic state is 1-A.
 Alpha  occ. eigenvalues --  -25.89870 -15.50546 -15.49464 -15.48384 -11.27135
 Alpha  occ. eigenvalues --  -11.16397 -11.16332 -11.15665 -11.12129  -1.40896
 Alpha  occ. eigenvalues --   -1.06749  -1.04554  -1.01681  -0.95357  -0.81305
 Alpha  occ. eigenvalues --   -0.76930  -0.60526  -0.59003  -0.56195  -0.53755
 Alpha  occ. eigenvalues --   -0.49853  -0.47028  -0.45787  -0.45029  -0.42233
 Alpha  occ. eigenvalues --   -0.41056  -0.40044  -0.39956  -0.33360  -0.32910
 Alpha  occ. eigenvalues --   -0.31797  -0.30516  -0.28649  -0.13725
 Alpha virt. eigenvalues --    0.12594   0.13394   0.14553   0.15647   0.16294
 Alpha virt. eigenvalues --    0.16690   0.18713   0.19208   0.19758   0.22509
 Alpha virt. eigenvalues --    0.23892   0.24166   0.24947   0.25401   0.25778

 Mulliken charges:
               1
     1  C    0.307786
     2  H   -0.096349
     3  F   -0.648448
     4  H   -0.218626
     5  C    0.119900
     6  N   -0.253610
     7  H    0.019142
     8  H    0.056979
     9  C   -0.086394
    10  N   -0.378956
    11  C    0.797901
    12  H    0.097705
    13  H    0.045998
    14  H   -0.112877
    15  C   -0.341726
    16  N   -0.308425
 Sum of Mulliken charges =  -1.00000

 Dipole moment (field-independent basis, Debye):
    X=              1.5670    Y=              0.5595    Z=              0.6629  Tot=              1.7911

 Test job not archived.
 1\1\GINC-SE247\SP\RHF\Aug-CC-pVDZ\C5H7F1N3(1-)\OHZDE\09-Apr-2025\0\\#t
  hf aug-cc-pvdz iop(5/13=1,5/36=2,99/5=2) pseudo=read geom=check guess
 =(read,tcheck) scf=(maxcycle=1)\\title\\-1,1\C,0,0.44112461,-0.0857641
 9,-0.05183482\H,0,1.58629954,1.68932694,-0.38363223\F,0,-1.17692859,-0
 .16087605,-0.32243808\H,0,2.19507131,-0.08153502,0.52571154\C,0,0.5604
 1291,1.44632429,-0.11439669\N,0,0.82651486,-0.81158877,-1.23844526\H,0
 ,0.08921184,-1.48234603,-1.41945529\H,0,1.70655756,-1.27083282,-1.0626
 6412\C,0,0.43057605,-0.73595313,1.24061111\N,0,0.23259258,-1.31290954,

 Normal termination of Gaussian 16 at Wed Apr  9 02:55:35 2025.
