 Gaussian 16, Revision C.01,

 ----------------------------------------------------------------------
 #t hf aug-cc-pvdz symm=none int=(grid=ultrafine) guess=(read,tcheck) s
 table=(opt,rrhf)
 ----------------------------------------------------------------------
 -----
 title
 -----
 Symbolic Z-matrix:
 Charge = -1 Multiplicity = 1

 SCF Done:  E(RHF) =  -380.463388254     A.U. after   14 cycles
 Normal termination of Gaussian 16 at Wed Apr  9 02:56:51 2025.
 Gaussian 16:  ES64L-G16RevC.01  3-Jul-2019

 ----------------------------------------------------------------------
 #t hf aug-cc-pvdz iop(5/13=1,5/36=2,99/5=2) pseudo=read geom=check gue
 ss=(read,tcheck) scf=(maxcycle=1)
 ----------------------------------------------------------------------
 -----
 title
 -----
 Structure from the checkpoint file:  "E2SN2_412_mol2.chk"
 Charge = -1 Multiplicity = 1

                         Standard orientation:
 ---------------------------------------------------------------------
 Center     Atomic      Atomic             Coordinates (Angstroms)
 Number     Number       Type             X           Y           Z
 ---------------------------------------------------------------------
      1          6           0       -0.687560   -0.127875   -0.007462
      2          6           0        0.440259    0.627663   -0.722571
      3          9           0       -0.473037   -1.496866   -0.226257
      4          1           0        0.235963    1.692793   -0.517751
      5          1           0        0.375987    0.436076   -1.796043
      6          7           0       -0.726695    0.070287    1.414312
      7          1           0       -0.926678    1.075791    1.518577
      8          1           0        0.185659   -0.123720    1.817153
      9          7           0       -1.911436    0.266961   -0.628342
     10          1           0       -1.955873    1.287999   -0.443156
     11          1           0       -2.650261   -0.143514   -0.062772
     12          6           0        1.756705    0.248752   -0.227908
     13          7           0        2.815274   -0.053176    0.181768
     14          1           0       -1.303883    2.766630    0.493782
 ---------------------------------------------------------------------

 SCF Done:  E(RHF) =  -380.582603667     A.U. after    2 cycles

 The electronic state is 1-A.
 Alpha  occ. eigenvalues --  -25.97693 -15.52454 -15.47802 -15.47297 -11.25932
 Alpha  occ. eigenvalues --  -11.17995 -11.14727  -1.51387  -1.09250  -1.06347
 Alpha  occ. eigenvalues --   -0.97365  -0.90637  -0.73601  -0.63155  -0.61060
 Alpha  occ. eigenvalues --   -0.60019  -0.54651  -0.51164  -0.48848  -0.48179
 Alpha  occ. eigenvalues --   -0.44824  -0.43980  -0.42164  -0.34049  -0.33477
 Alpha  occ. eigenvalues --   -0.28897  -0.28061  -0.10830
 Alpha virt. eigenvalues --    0.13487   0.14119   0.15149   0.17331   0.18598
 Alpha virt. eigenvalues --    0.19149   0.19578   0.21194   0.22395   0.22635
 Alpha virt. eigenvalues --    0.24201   0.24684   0.26066   0.27123   0.27560

 Mulliken charges:
               1
     1  C    0.391370
     2  C    0.674743
     3  F   -0.410440
     4  H    0.024854
     5  H    0.006636
     6  N   -0.417214
     7  H    0.153870
     8  H   -0.009691
     9  N   -0.354765
    10  H    0.173934
    11  H   -0.025872
    12  C   -0.112363
    13  N   -0.312461
    14  H   -0.782604
 Sum of Mulliken charges =  -1.00000

 Dipole moment (field-independent basis, Debye):
    X=              1.7464    Y=             -6.0661    Z=             -1.8277  Tot=              6.5718

 Test job not archived.
 1\1\GINC-SE042\SP\RHF\Aug-CC-pVDZ\C3H7F1N3(1-)\OHZDE\09-Apr-2025\0\\#t
  hf aug-cc-pvdz iop(5/13=1,5/36=2,99/5=2) pseudo=read geom=check guess
 =(read,tcheck) scf=(maxcycle=1)\\title\\-1,1\C,0,-0.011939,0.002768,-0
 .007691\C,0,-0.441029,0.004558,-1.480808\F,0,1.390678,-0.009809,0.0154
 22\H,0,-1.544168,0.02241,-1.449915\H,0,-0.096849,-0.9169,-1.955818\N,0
 ,-0.435021,1.156444,0.735459\H,0,-1.463613,1.095245,0.723008\H,0,-0.15
 3382,2.003971,0.251013\N,0,-0.507976,-1.206076,0.568421\H,0,-1.537755,
 -1.114397,0.46873\H,0,-0.324313,-1.129595,1.565737\C,0,0.075235,1.1590

 Normal termination of Gaussian 16 at Wed Apr  9 02:56:56 2025.
