 Gaussian 16, Revision C.01,

 ----------------------------------------------------------------------
 #t hf aug-cc-pvdz symm=none int=(grid=ultrafine) guess=(read,tcheck) s
 table=(opt,rrhf)
 ----------------------------------------------------------------------
 -----
 title
 -----
 Symbolic Z-matrix:
 Charge = -1 Multiplicity = 1

 SCF Done:  E(RHF) =  -502.378466731     A.U. after   15 cycles
 Normal termination of Gaussian 16 at Wed Apr  9 02:49:31 2025.
 Gaussian 16:  ES64L-G16RevC.01  3-Jul-2019

 ----------------------------------------------------------------------
 #t hf aug-cc-pvdz iop(5/13=1,5/36=2,99/5=2) pseudo=read geom=check gue
 ss=(read,tcheck) scf=(maxcycle=1)
 ----------------------------------------------------------------------
 -----
 title
 -----
 Structure from the checkpoint file:  "E2SN2_315_mol1.chk"
 Charge = -1 Multiplicity = 1

                         Standard orientation:
 ---------------------------------------------------------------------
 Center     Atomic      Atomic             Coordinates (Angstroms)
 Number     Number       Type             X           Y           Z
 ---------------------------------------------------------------------
      1          6           0        0.263789   -0.376815    0.099562
      2          1           0       -1.076763    0.192347    1.583984
      3          9           0       -0.194365   -0.509187   -1.652986
      4          9           0        0.991544   -0.139304    1.739979
      5          6           0       -1.042651    0.309427    0.499405
      6          6           0        1.407198    0.398505   -0.388132
      7          7           0        2.341290    0.995140   -0.779719
      8          7           0        0.352918   -1.806152    0.225199
      9          1           0        1.107858   -1.986760    0.871704
     10          1           0        0.556826   -2.161603   -0.698315
     11          6           0       -2.278697   -0.363227   -0.087616
     12          1           0       -2.374546   -0.146961   -1.149402
     13          1           0       -2.206522   -1.444748    0.036883
     14          1           0       -3.169852   -0.006336    0.444644
     15          6           0       -0.999757    1.795032    0.169237
     16          1           0       -0.164961    2.278878    0.681350
     17          1           0       -0.876177    1.926823   -0.908190
     18          1           0       -1.929220    2.284334    0.481314
 ---------------------------------------------------------------------

 SCF Done:  E(RHF) =  -502.530501657     A.U. after    2 cycles

 The electronic state is 1-A.
 Alpha  occ. eigenvalues --  -25.82914 -25.82852 -15.47830 -15.47558 -11.26075
 Alpha  occ. eigenvalues --  -11.14478 -11.10247 -11.08886 -11.08195  -1.33747
 Alpha  occ. eigenvalues --   -1.33115  -1.04213  -1.01027  -0.93041  -0.80046
 Alpha  occ. eigenvalues --   -0.78391  -0.67247  -0.56099  -0.55318  -0.51618
 Alpha  occ. eigenvalues --   -0.49109  -0.46385  -0.43443  -0.42189  -0.42050
 Alpha  occ. eigenvalues --   -0.41331  -0.40013  -0.39856  -0.39132  -0.37959
 Alpha  occ. eigenvalues --   -0.35706  -0.34175  -0.32925  -0.30243  -0.28942
 Alpha  occ. eigenvalues --   -0.27292
 Alpha virt. eigenvalues --    0.12442   0.13406   0.14148   0.14953   0.16060
 Alpha virt. eigenvalues --    0.16939   0.17097   0.17405   0.17750   0.20120
 Alpha virt. eigenvalues --    0.23260   0.24614   0.24838   0.25225   0.25307

 Mulliken charges:
               1
     1  C    1.556696
     2  H   -0.067210
     3  F   -0.758992
     4  F   -0.761738
     5  C   -0.913325
     6  C   -0.892466
     7  N   -0.249189
     8  N   -0.560997
     9  H    0.073097
    10  H    0.086460
    11  C    0.824009
    12  H    0.020726
    13  H   -0.033420
    14  H   -0.074035
    15  C    0.760805
    16  H   -0.027217
    17  H    0.092936
    18  H   -0.076143
 Sum of Mulliken charges =  -1.00000

 Dipole moment (field-independent basis, Debye):
    X=             -3.8305    Y=             -0.8125    Z=              0.8455  Tot=              4.0059

 Test job not archived.
 1\1\GINC-SE455\SP\RHF\Aug-CC-pVDZ\C5H9F2N2(1-)\OHZDE\09-Apr-2025\0\\#t
  hf aug-cc-pvdz iop(5/13=1,5/36=2,99/5=2) pseudo=read geom=check guess
 =(read,tcheck) scf=(maxcycle=1)\\title\\-1,1\C,0,0.66912896,-0.0367866
 8,0.06006037\H,0,1.68163486,1.77534964,0.18467398\F,0,-1.11292727,-0.2
 0068405,0.37032822\F,0,2.39975912,-0.08741738,-0.4684867\C,0,0.6358297
 5,1.49175709,0.0540992\C,0,0.39948977,-0.80417136,-1.15844978\N,0,0.19
 021331,-1.44542259,-2.1211752\N,0,0.98553158,-0.71011335,1.29020344\H,
 0,1.82037951,-1.24983991,1.11063228\H,0,0.19482737,-1.3019449,1.503097

 Normal termination of Gaussian 16 at Wed Apr  9 02:49:39 2025.
