 Gaussian 16, Revision C.01,

 ----------------------------------------------------------------------
 #t hf aug-cc-pvdz symm=none int=(grid=ultrafine) guess=(read,tcheck) s
 table=(opt,rrhf)
 ----------------------------------------------------------------------
 -----
 title
 -----
 Symbolic Z-matrix:
 Charge = -1 Multiplicity = 1

 SCF Done:  E(RHF) =  -878.490752730     A.U. after   15 cycles
 Normal termination of Gaussian 16 at Wed Apr  9 02:59:38 2025.
 Gaussian 16:  ES64L-G16RevC.01  3-Jul-2019

 ----------------------------------------------------------------------
 #t hf aug-cc-pvdz iop(5/13=1,5/36=2,99/5=2) pseudo=read geom=check gue
 ss=(read,tcheck) scf=(maxcycle=1)
 ----------------------------------------------------------------------
 -----
 title
 -----
 Structure from the checkpoint file:  "E2SN2_76_mol2.chk"
 Charge = -1 Multiplicity = 1

                         Standard orientation:
 ---------------------------------------------------------------------
 Center     Atomic      Atomic             Coordinates (Angstroms)
 Number     Number       Type             X           Y           Z
 ---------------------------------------------------------------------
      1          6           0        0.769542    0.046992    0.217475
      2          6           0       -0.724116    0.028584   -0.167255
      3         17           0        1.593573   -1.377767   -0.557779
      4          1           0       -0.781990    0.103816   -1.263386
      5          6           0        1.420220    1.239766   -0.327749
      6          7           0        1.997453    2.175410   -0.742035
      7          6           0        0.985132   -0.043904    1.719435
      8          1           0        0.609116    0.870127    2.183361
      9          1           0        0.419146   -0.898891    2.087080
     10          1           0        2.045881   -0.149759    1.953835
     11          7           0       -1.343565    1.228095    0.360184
     12          1           0       -2.306242    1.126787   -0.037963
     13          1           0       -1.484158    1.047586    1.352737
     14          7           0       -1.382573   -1.164714    0.344781
     15          1           0       -2.374507   -0.933483    0.104946
     16          1           0       -1.115355   -1.960380   -0.228076
     17          9           0       -3.522944    0.101785   -0.562471
 ---------------------------------------------------------------------

 SCF Done:  E(RHF) =  -878.631615600     A.U. after    2 cycles

 The electronic state is 1-A.
 Alpha  occ. eigenvalues -- -103.55472 -25.75926 -15.53530 -15.45049 -15.44864
 Alpha  occ. eigenvalues --  -11.23459 -11.18768 -11.16989 -11.14149 -10.58797
 Alpha  occ. eigenvalues --   -8.24509  -8.24233  -8.24228  -1.24985  -1.10941
 Alpha  occ. eigenvalues --   -1.06278  -1.04018  -0.94048  -0.92024  -0.80684
 Alpha  occ. eigenvalues --   -0.69536  -0.59076  -0.54674  -0.52365  -0.48402
 Alpha  occ. eigenvalues --   -0.46967  -0.45998  -0.45599  -0.42886  -0.41090
 Alpha  occ. eigenvalues --   -0.40130  -0.36259  -0.36108  -0.34955  -0.34455
 Alpha  occ. eigenvalues --   -0.34008  -0.33511  -0.32192  -0.25880  -0.25313
 Alpha virt. eigenvalues --    0.11748   0.14019   0.14140   0.15036   0.16593
 Alpha virt. eigenvalues --    0.17175   0.17575   0.18428   0.19467   0.20859
 Alpha virt. eigenvalues --    0.21872   0.22550   0.24212   0.24831   0.25178

 Mulliken charges:
               1
     1  C   -0.464726
     2  C    1.005891
     3  Cl  -0.198928
     4  H   -0.209434
     5  C   -0.284566
     6  N   -0.261439
     7  C    0.900684
     8  H   -0.011852
     9  H    0.048381
    10  H   -0.079204
    11  N   -0.439559
    12  H    0.146984
    13  H    0.048304
    14  N   -0.389407
    15  H    0.118498
    16  H    0.011842
    17  F   -0.941470
 Sum of Mulliken charges =  -1.00000

 Dipole moment (field-independent basis, Debye):
    X=              8.0174    Y=             -3.0880    Z=              3.2265  Tot=              9.1774

 Test job not archived.
 1\1\GINC-SE402\SP\RHF\Aug-CC-pVDZ\C4H8Cl1F1N3(1-)\OHZDE\09-Apr-2025\0\
 \#t hf aug-cc-pvdz iop(5/13=1,5/36=2,99/5=2) pseudo=read geom=check gu
 ess=(read,tcheck) scf=(maxcycle=1)\\title\\-1,1\C,0,-0.715177,-0.00376
 8,-1.570003\C,0,0.158216,0.029639,-0.299004\Cl,0,-0.42482,1.518788,-2.
 522631\H,0,1.208239,0.08294,-0.62323\C,0,-0.308109,-1.110581,-2.43754\
 N,0,-0.0244,-1.979023,-3.176173\C,0,-2.199825,-0.08615,-1.254314\H,0,-
 2.407707,-1.055895,-0.797756\H,0,-2.435568,0.707937,-0.546955\H,0,-2.7
 96202,0.012776,-2.163097\N,0,0.004872,-1.235946,0.390572\H,0,0.69857,-

 Normal termination of Gaussian 16 at Wed Apr  9 02:59:47 2025.
