 Gaussian 16, Revision C.01,

 ----------------------------------------------------------------------
 #t hf aug-cc-pvdz symm=none int=(grid=ultrafine) guess=(read,tcheck) s
 table=(opt,rrhf)
 ----------------------------------------------------------------------
 -----
 title
 -----
 Symbolic Z-matrix:
 Charge = -1 Multiplicity = 1

 SCF Done:  E(RHF) =  -555.106363615     A.U. after   16 cycles
 Normal termination of Gaussian 16 at Wed Apr  9 02:45:28 2025.
 Gaussian 16:  ES64L-G16RevC.01  3-Jul-2019

 ----------------------------------------------------------------------
 #t hf aug-cc-pvdz iop(5/13=1,5/36=2,99/5=2) pseudo=read geom=check gue
 ss=(read,tcheck) scf=(maxcycle=1)
 ----------------------------------------------------------------------
 -----
 title
 -----
 Structure from the checkpoint file:  "E2SN2_273_mol2.chk"
 Charge = -1 Multiplicity = 1

                         Standard orientation:
 ---------------------------------------------------------------------
 Center     Atomic      Atomic             Coordinates (Angstroms)
 Number     Number       Type             X           Y           Z
 ---------------------------------------------------------------------
      1          6           0        0.204573    0.331116   -0.448236
      2          6           0       -0.608452   -1.003563   -0.598302
      3          9           0        0.264782    0.889319   -1.758354
      4          1           0       -0.462166   -1.251962   -1.657156
      5          6           0       -0.403789    1.377656    0.383785
      6          7           0       -0.945157    2.372770    0.706007
      7          6           0        1.596659    0.061935   -0.065936
      8          7           0        2.745800   -0.165002    0.027251
      9          6           0       -2.079285   -0.736772   -0.324242
     10          1           0       -2.458795    0.106535   -0.907859
     11          1           0       -2.653330   -1.634328   -0.563007
     12          1           0       -2.182575   -0.512163    0.738678
     13          7           0       -0.159945   -2.120001    0.208558
     14          1           0        0.764181   -2.396972   -0.107266
     15          1           0       -0.037356   -1.689682    1.139436
     16          9           0        0.100431   -0.157988    1.878582
 ---------------------------------------------------------------------

 SCF Done:  E(RHF) =  -555.272777197     A.U. after    2 cycles

 The electronic state is 1-A.
 Alpha  occ. eigenvalues --  -26.01169 -25.78617 -15.52366 -15.50145 -15.46436
 Alpha  occ. eigenvalues --  -11.28125 -11.18184 -11.17278 -11.16616 -11.10583
 Alpha  occ. eigenvalues --   -1.53980  -1.28228  -1.07289  -1.04568  -1.03338
 Alpha  occ. eigenvalues --   -0.92990  -0.85911  -0.72696  -0.69394  -0.65386
 Alpha  occ. eigenvalues --   -0.61299  -0.56376  -0.54805  -0.51591  -0.46053
 Alpha  occ. eigenvalues --   -0.43795  -0.41782  -0.41342  -0.40252  -0.39859
 Alpha  occ. eigenvalues --   -0.39140  -0.38633  -0.35844  -0.33434  -0.33032
 Alpha  occ. eigenvalues --   -0.32319  -0.29582  -0.26570
 Alpha virt. eigenvalues --    0.12213   0.13648   0.14295   0.15630   0.17544
 Alpha virt. eigenvalues --    0.18268   0.18885   0.19790   0.20522   0.23300
 Alpha virt. eigenvalues --    0.23512   0.23768   0.24672   0.25271   0.25785

 Mulliken charges:
               1
     1  C    1.360343
     2  C    0.175399
     3  F   -0.512566
     4  H   -0.106702
     5  C   -0.162545
     6  N   -0.414490
     7  C   -0.444340
     8  N   -0.308992
     9  C    0.668643
    10  H   -0.003799
    11  H   -0.107525
    12  H    0.046732
    13  N   -0.454360
    14  H    0.001205
    15  H    0.186955
    16  F   -0.923957
 Sum of Mulliken charges =  -1.00000

 Dipole moment (field-independent basis, Debye):
    X=             -1.7270    Y=             -2.1597    Z=             -5.2225  Tot=              5.9094

 Test job not archived.
 1\1\GINC-SE368\SP\RHF\Aug-CC-pVDZ\C5H6F2N3(1-)\OHZDE\09-Apr-2025\0\\#t
  hf aug-cc-pvdz iop(5/13=1,5/36=2,99/5=2) pseudo=read geom=check guess
 =(read,tcheck) scf=(maxcycle=1)\\title\\-1,1\C,0,-0.054156,0.012858,-0
 .026519\C,0,-0.376408,0.104099,-1.560379\F,0,1.354746,0.201692,0.07816
 9\H,0,0.585205,-0.157046,-2.020138\C,0,-0.642082,1.05258,0.828425\N,0,
 -0.748995,2.001523,1.517799\C,0,-0.314121,-1.337457,0.488828\N,0,-0.31
 7815,-2.45761,0.843726\C,0,-0.75337,1.532542,-1.91687\H,0,-0.016501,2.
 254059,-1.553221\H,0,-0.842047,1.615985,-3.001912\H,0,-1.719819,1.7446

 Normal termination of Gaussian 16 at Wed Apr  9 02:45:35 2025.
