 Gaussian 16, Revision C.01,

 ----------------------------------------------------------------------
 #t hf aug-cc-pvdz symm=none int=(grid=ultrafine) guess=(read,tcheck) s
 table=(opt,rrhf)
 ----------------------------------------------------------------------
 -----
 title
 -----
 Symbolic Z-matrix:
 Charge = -1 Multiplicity = 1

 SCF Done:  E(RHF) =  -403.489028661     A.U. after   15 cycles
 Normal termination of Gaussian 16 at Wed Apr  9 02:29:01 2025.
 Gaussian 16:  ES64L-G16RevC.01  3-Jul-2019

 ----------------------------------------------------------------------
 #t hf aug-cc-pvdz iop(5/13=1,5/36=2,99/5=2) pseudo=read geom=check gue
 ss=(read,tcheck) scf=(maxcycle=1)
 ----------------------------------------------------------------------
 -----
 title
 -----
 Structure from the checkpoint file:  "E2SN2_115_mol2.chk"
 Charge = -1 Multiplicity = 1

                         Standard orientation:
 ---------------------------------------------------------------------
 Center     Atomic      Atomic             Coordinates (Angstroms)
 Number     Number       Type             X           Y           Z
 ---------------------------------------------------------------------
      1          6           0        0.770784   -0.229071    0.084517
      2          6           0       -0.462375    0.520256   -0.436818
      3          9           0        0.624879   -0.396883    1.488023
      4          1           0       -0.265846    0.640638   -1.513335
      5          6           0        0.869360   -1.628597   -0.496288
      6          1           0       -0.002353   -2.237256   -0.243459
      7          1           0        1.763585   -2.116015   -0.095511
      8          1           0        0.967673   -1.536971   -1.581238
      9          7           0        1.902694    0.598788   -0.168419
     10          1           0        1.824837    0.885672   -1.179025
     11          1           0        2.743667    0.034941   -0.085769
     12          6           0       -0.602562    1.912773    0.181801
     13          1           0        0.256590    2.512011   -0.114542
     14          1           0       -1.515891    2.395337   -0.176415
     15          1           0       -0.633790    1.847022    1.270998
     16          6           0       -1.679007   -0.258019   -0.224931
     17          7           0       -2.675980   -0.857346   -0.054491
     18          1           0        1.273412    1.052424   -2.763217
 ---------------------------------------------------------------------

 SCF Done:  E(RHF) =  -403.615628144     A.U. after    2 cycles

 The electronic state is 1-A.
 Alpha  occ. eigenvalues --  -25.97007 -15.51722 -15.46474 -11.23091 -11.17145
 Alpha  occ. eigenvalues --  -11.14393 -11.11368 -11.11025  -1.50182  -1.06673
 Alpha  occ. eigenvalues --   -1.04492  -0.93626  -0.86855  -0.77304  -0.71498
 Alpha  occ. eigenvalues --   -0.62482  -0.60009  -0.59010  -0.52219  -0.49179
 Alpha  occ. eigenvalues --   -0.48000  -0.46552  -0.44419  -0.43546  -0.42441
 Alpha  occ. eigenvalues --   -0.40954  -0.40084  -0.37478  -0.32529  -0.32368
 Alpha  occ. eigenvalues --   -0.26934  -0.10089
 Alpha virt. eigenvalues --    0.12509   0.13141   0.14273   0.15005   0.15973
 Alpha virt. eigenvalues --    0.16699   0.17086   0.18369   0.19607   0.20377
 Alpha virt. eigenvalues --    0.21352   0.22077   0.22726   0.24440   0.25459

 Mulliken charges:
               1
     1  C   -0.251287
     2  C   -0.093398
     3  F   -0.530466
     4  H   -0.109870
     5  C    0.728552
     6  H   -0.029002
     7  H   -0.048071
     8  H    0.134562
     9  N   -0.338124
    10  H    0.110184
    11  H   -0.054535
    12  C    0.824070
    13  H    0.061286
    14  H   -0.054022
    15  H   -0.009380
    16  C   -0.381532
    17  N   -0.315280
    18  H   -0.643686
 Sum of Mulliken charges =  -1.00000

 Dipole moment (field-independent basis, Debye):
    X=             -0.8164    Y=             -2.5416    Z=              6.7174  Tot=              7.2284

 Test job not archived.
 1\1\GINC-SE292\SP\RHF\Aug-CC-pVDZ\C5H10F1N2(1-)\OHZDE\09-Apr-2025\0\\#
 t hf aug-cc-pvdz iop(5/13=1,5/36=2,99/5=2) pseudo=read geom=check gues
 s=(read,tcheck) scf=(maxcycle=1)\\title\\-1,1\C,0,-0.236121,-0.029684,
 -1.467709\C,0,-0.026708,0.064993,0.049243\F,0,-1.61774,-0.257726,-1.70
 9377\H,0,1.059173,0.20848,0.160056\C,0,0.101395,1.274921,-2.167576\H,0
 ,-0.519884,2.100779,-1.81227\H,0,-0.062215,1.152469,-3.242785\H,0,1.15
 8315,1.489609,-1.988674\N,0,0.506784,-1.156736,-1.924211\H,0,1.469956,
 -1.048305,-1.511622\H,0,0.609012,-1.092679,-2.932891\C,0,-0.414134,-1.

 Normal termination of Gaussian 16 at Wed Apr  9 02:29:09 2025.
