 Gaussian 16, Revision C.01,

 ----------------------------------------------------------------------
 #t hf aug-cc-pvdz symm=none int=(grid=ultrafine) guess=(read,tcheck) s
 table=(opt,rrhf)
 ----------------------------------------------------------------------
 -----
 title
 -----
 Symbolic Z-matrix:
 Charge = -1 Multiplicity = 1

 SCF Done:  E(RHF) =  -836.225142808     A.U. after   17 cycles
 Normal termination of Gaussian 16 at Wed Apr  9 02:27:31 2025.
 Gaussian 16:  ES64L-G16RevC.01  3-Jul-2019

 ----------------------------------------------------------------------
 #t hf aug-cc-pvdz iop(5/13=1,5/36=2,99/5=2) pseudo=read geom=check gue
 ss=(read,tcheck) scf=(maxcycle=1)
 ----------------------------------------------------------------------
 -----
 title
 -----
 Structure from the checkpoint file:  "E2SN2_104_mol1.chk"
 Charge = -1 Multiplicity = 1

                         Standard orientation:
 ---------------------------------------------------------------------
 Center     Atomic      Atomic             Coordinates (Angstroms)
 Number     Number       Type             X           Y           Z
 ---------------------------------------------------------------------
      1          6           0       -0.124650   -0.042688    0.201579
      2          6           0       -1.084651   -0.727776   -0.659004
      3         17           0       -0.005244    1.869002   -0.055165
      4          1           0       -1.523773   -3.055349   -0.032429
      5          1           0       -1.029992   -1.956102   -0.374527
      6          1           0       -0.838580   -0.623619   -1.718119
      7          6           0       -0.373154   -0.247388    1.666539
      8          1           0       -1.356291    0.167058    1.881440
      9          1           0       -0.400934   -1.325071    1.859177
     10          1           0        0.391279    0.227777    2.279024
     11          7           0       -2.461341   -0.470407   -0.286589
     12          1           0       -2.882809   -1.397372   -0.157103
     13          1           0       -2.949278    0.007565   -1.031840
     14          7           0        1.264906   -0.497271   -0.197813
     15          8           0        1.573141   -0.406802   -1.383134
     16          8           0        1.995522   -0.960330    0.679174
 ---------------------------------------------------------------------

 SCF Done:  E(RHF) =  -836.357374427     A.U. after    2 cycles

 The electronic state is 1-A.
 Alpha  occ. eigenvalues -- -103.52081 -20.50018 -20.49652 -15.79086 -15.47033
 Alpha  occ. eigenvalues --  -11.24633 -11.11459 -11.10368 -10.55335  -8.21026
 Alpha  occ. eigenvalues --   -8.20779  -8.20773  -1.42063  -1.23788  -1.05925
 Alpha  occ. eigenvalues --   -0.99990  -0.93449  -0.83404  -0.76838  -0.67702
 Alpha  occ. eigenvalues --   -0.61635  -0.60018  -0.57838  -0.54146  -0.48400
 Alpha  occ. eigenvalues --   -0.46579  -0.45782  -0.42122  -0.39851  -0.38806
 Alpha  occ. eigenvalues --   -0.38170  -0.35244  -0.33651  -0.33187  -0.32629
 Alpha  occ. eigenvalues --   -0.26080  -0.10011
 Alpha virt. eigenvalues --    0.13010   0.13382   0.15026   0.16207   0.16779
 Alpha virt. eigenvalues --    0.17569   0.18551   0.19233   0.21129   0.21805
 Alpha virt. eigenvalues --    0.22602   0.24227   0.25355   0.25945   0.26431

 Mulliken charges:
               1
     1  C   -0.542983
     2  C    0.653108
     3  Cl  -0.326099
     4  H   -0.758810
     5  H    0.298939
     6  H   -0.127068
     7  C    0.694570
     8  H    0.067176
     9  H    0.165332
    10  H   -0.020102
    11  N   -0.364851
    12  H    0.085526
    13  H   -0.000013
    14  N    0.430798
    15  O   -0.636038
    16  O   -0.619486
 Sum of Mulliken charges =  -1.00000

 Dipole moment (field-independent basis, Debye):
    X=              1.2724    Y=              7.3724    Z=              0.6036  Tot=              7.5057

 Test job not archived.
 1\1\GINC-SE131\SP\RHF\Aug-CC-pVDZ\C3H8Cl1N2O2(1-)\OHZDE\09-Apr-2025\0\
 \#t hf aug-cc-pvdz iop(5/13=1,5/36=2,99/5=2) pseudo=read geom=check gu
 ess=(read,tcheck) scf=(maxcycle=1)\\title\\-1,1\C,0,-0.16379096,-0.067
 29469,-0.48017231\C,0,-0.17166734,-0.02138115,0.9790675\Cl,0,1.5880034
 ,-0.04738305,-1.29598825\H,0,-2.35587129,-0.47198203,1.9935777\H,0,-1.
 37921395,-0.02964148,1.34575825\H,0,0.28408022,0.89253242,1.36659785\C
 ,0,-0.87100436,-1.26060281,-1.05081113\H,0,-0.34139492,-2.14221139,-0.
 69474231\H,0,-1.88802995,-1.27901512,-0.64510012\H,0,-0.89714654,-1.23

 Normal termination of Gaussian 16 at Wed Apr  9 02:27:38 2025.
