 Gaussian 16, Revision C.01,

 ----------------------------------------------------------------------
 #t hf aug-cc-pvdz symm=none int=(grid=ultrafine) guess=(read,tcheck) s
 table=(opt,rrhf)
 ----------------------------------------------------------------------
 -----
 title
 -----
 Symbolic Z-matrix:
 Charge = -1 Multiplicity = 1

 SCF Done:  E(RHF) =  -974.323992879     A.U. after   15 cycles
 Normal termination of Gaussian 16 at Wed Apr  9 02:44:28 2025.
 Gaussian 16:  ES64L-G16RevC.01  3-Jul-2019

 ----------------------------------------------------------------------
 #t hf aug-cc-pvdz iop(5/13=1,5/36=2,99/5=2) pseudo=read geom=check gue
 ss=(read,tcheck) scf=(maxcycle=1)
 ----------------------------------------------------------------------
 -----
 title
 -----
 Structure from the checkpoint file:  "E2SN2_246_mol2.chk"
 Charge = -1 Multiplicity = 1

                         Standard orientation:
 ---------------------------------------------------------------------
 Center     Atomic      Atomic             Coordinates (Angstroms)
 Number     Number       Type             X           Y           Z
 ---------------------------------------------------------------------
      1          6           0        0.742951    0.125712   -0.518421
      2          6           0        0.290144    1.236813    0.407511
      3          9           0        1.613025    0.667172   -1.483729
      4          1           0        1.203168    1.791758    0.643568
      5          7           0        1.780503   -0.772777    0.254083
      6          8           0        2.676629   -0.195984    0.863460
      7          8           0        1.655278   -1.992414    0.173899
      8          7           0       -0.250182   -0.607662   -1.106153
      9          1           0       -1.179168   -0.601243   -0.670873
     10          1           0        0.028594   -1.536510   -1.382097
     11          6           0       -0.320701    0.691544    1.697620
     12          1           0       -0.588403    1.528727    2.349044
     13          1           0        0.384118    0.061208    2.245995
     14          1           0       -1.231827    0.126890    1.490659
     15          6           0       -0.691563    2.150164   -0.327214
     16          1           0       -0.286403    2.464780   -1.291269
     17          1           0       -0.881245    3.041953    0.278076
     18          1           0       -1.642812    1.639480   -0.488004
     19         17           0       -3.283279   -0.739808    0.016889
 ---------------------------------------------------------------------

 SCF Done:  E(RHF) =  -974.498750217     A.U. after    2 cycles

 The electronic state is 1-A.
 Alpha  occ. eigenvalues -- -103.38025 -26.01666 -20.51979 -20.51487 -15.79849
 Alpha  occ. eigenvalues --  -15.49951 -11.31359 -11.14636 -11.11639 -11.11264
 Alpha  occ. eigenvalues --  -10.41117  -8.06722  -8.06686  -8.06680  -1.55297
 Alpha  occ. eigenvalues --   -1.43450  -1.25653  -1.09908  -0.96687  -0.89275
 Alpha  occ. eigenvalues --   -0.83457  -0.82288  -0.76986  -0.71009  -0.69316
 Alpha  occ. eigenvalues --   -0.65064  -0.62915  -0.62348  -0.60252  -0.58301
 Alpha  occ. eigenvalues --   -0.54035  -0.50132  -0.49089  -0.45521  -0.43436
 Alpha  occ. eigenvalues --   -0.41948  -0.41749  -0.38566  -0.37683  -0.37105
 Alpha  occ. eigenvalues --   -0.37018  -0.30720  -0.21628  -0.21157  -0.21112
 Alpha virt. eigenvalues --    0.11655   0.13040   0.14015   0.14226   0.15228
 Alpha virt. eigenvalues --    0.15781   0.18298   0.18329   0.18954   0.19131
 Alpha virt. eigenvalues --    0.21126   0.22462   0.22720   0.24075   0.24421

 Mulliken charges:
               1
     1  C    1.200474
     2  C   -1.285173
     3  F   -0.414108
     4  H   -0.042052
     5  N    0.269666
     6  O   -0.609009
     7  O   -0.614801
     8  N   -0.228496
     9  H    0.074066
    10  H    0.038225
    11  C    1.014936
    12  H   -0.045997
    13  H   -0.016322
    14  H   -0.146266
    15  C    0.830328
    16  H   -0.019542
    17  H   -0.048533
    18  H   -0.034413
    19  Cl  -0.922982
 Sum of Mulliken charges =  -1.00000

 Dipole moment (field-independent basis, Debye):
    X=              7.7238    Y=              3.8293    Z=              0.3584  Tot=              8.6284

 Test job not archived.
 1\1\GINC-SE120\SP\RHF\Aug-CC-pVDZ\C4H9Cl1F1N2O2(1-)\OHZDE\09-Apr-2025\
 0\\#t hf aug-cc-pvdz iop(5/13=1,5/36=2,99/5=2) pseudo=read geom=check
 guess=(read,tcheck) scf=(maxcycle=1)\\title\\-1,1\C,0,-0.084222,0.0177
 04,0.040195\C,0,-0.447699,0.449155,-1.366455\F,0,1.285975,-0.303783,0.
 075333\H,0,0.353147,1.133072,-1.663445\N,0,-0.048093,1.296829,0.958394
 \O,0,0.559935,2.274785,0.532981\O,0,-0.596621,1.231224,2.055863\N,0,-0
 .840481,-0.988999,0.573301\H,0,-1.765759,-1.16658,0.167284\H,0,-0.8645
 19,-0.999925,1.581231\C,0,-1.786194,1.184928,-1.41006\H,0,-1.980702,1.

 Normal termination of Gaussian 16 at Wed Apr  9 02:44:40 2025.
