 Gaussian 16, Revision C.01,

 ----------------------------------------------------------------------
 #t hf aug-cc-pvdz symm=none int=(grid=ultrafine) guess=(read,tcheck) s
 table=(opt,rrhf)
 ----------------------------------------------------------------------
 -----
 title
 -----
 Symbolic Z-matrix:
 Charge = -1 Multiplicity = 1

 SCF Done:  E(RHF) =  -816.225034759     A.U. after   16 cycles
 Normal termination of Gaussian 16 at Wed Apr  9 02:49:22 2025.
 Gaussian 16:  ES64L-G16RevC.01  3-Jul-2019

 ----------------------------------------------------------------------
 #t hf aug-cc-pvdz iop(5/13=1,5/36=2,99/5=2) pseudo=read geom=check gue
 ss=(read,tcheck) scf=(maxcycle=1)
 ----------------------------------------------------------------------
 -----
 title
 -----
 Structure from the checkpoint file:  "E2SN2_310_mol2.chk"
 Charge = -1 Multiplicity = 1

                         Standard orientation:
 ---------------------------------------------------------------------
 Center     Atomic      Atomic             Coordinates (Angstroms)
 Number     Number       Type             X           Y           Z
 ---------------------------------------------------------------------
      1          6           0        0.438024   -0.214311    0.380814
      2          6           0       -0.615698    0.886946    0.139792
      3         17           0        0.312597   -1.482103   -0.949859
      4          1           0       -0.482294    1.488656    1.082652
      5          6           0        1.779349    0.374181    0.223369
      6          7           0        2.841699    0.843585    0.047319
      7          7           0        0.345378   -0.829112    1.661594
      8          1           0        0.339713    0.013219    2.325560
      9          1           0       -0.579749   -1.248686    1.732914
     10          6           0       -1.947738    0.300916    0.192136
     11          7           0       -3.036350   -0.142001    0.226172
     12          6           0       -0.426915    1.730978   -1.116101
     13          1           0       -1.201700    2.499678   -1.166544
     14          1           0        0.544077    2.228942   -1.083185
     15          1           0       -0.481532    1.119237   -2.019567
     16          1           0        0.130112    1.515132    2.810118
 ---------------------------------------------------------------------

 SCF Done:  E(RHF) =  -816.345940054     A.U. after    2 cycles

 The electronic state is 1-A.
 Alpha  occ. eigenvalues -- -103.55327 -15.54137 -15.53525 -15.49383 -11.27965
 Alpha  occ. eigenvalues --  -11.19122 -11.18757 -11.17618 -11.14515 -10.58662
 Alpha  occ. eigenvalues --   -8.24366  -8.24089  -8.24085  -1.13229  -1.07513
 Alpha  occ. eigenvalues --   -1.06392  -1.01243  -0.96385  -0.82694  -0.79067
 Alpha  occ. eigenvalues --   -0.60416  -0.59468  -0.54743  -0.52285  -0.48710
 Alpha  occ. eigenvalues --   -0.46031  -0.45502  -0.43914  -0.43542  -0.42161
 Alpha  occ. eigenvalues --   -0.37283  -0.36513  -0.36015  -0.34328  -0.34214
 Alpha  occ. eigenvalues --   -0.33429  -0.29661  -0.11426
 Alpha virt. eigenvalues --    0.12003   0.13942   0.14795   0.15112   0.17435
 Alpha virt. eigenvalues --    0.17785   0.18493   0.19327   0.20449   0.21134
 Alpha virt. eigenvalues --    0.21789   0.22931   0.23443   0.23912   0.24714

 Mulliken charges:
               1
     1  C    0.997394
     2  C    0.035201
     3  Cl  -0.211394
     4  H    0.009598
     5  C   -0.531330
     6  N   -0.218503
     7  N   -0.670388
     8  H    0.099390
     9  H    0.018836
    10  C   -0.222604
    11  N   -0.312487
    12  C    0.680443
    13  H   -0.018231
    14  H   -0.061703
    15  H   -0.004847
    16  H   -0.589374
 Sum of Mulliken charges =  -1.00000

 Dipole moment (field-independent basis, Debye):
    X=             -1.0731    Y=             -2.6675    Z=             -8.4410  Tot=              8.9172

 Test job not archived.
 1\1\GINC-SE040\SP\RHF\Aug-CC-pVDZ\C5H7Cl1N3(1-)\OHZDE\09-Apr-2025\0\\#
 t hf aug-cc-pvdz iop(5/13=1,5/36=2,99/5=2) pseudo=read geom=check gues
 s=(read,tcheck) scf=(maxcycle=1)\\title\\-1,1\C,0,-0.009399,0.022886,0
 .012475\C,0,-0.55527,-0.061043,-1.428417\Cl,0,1.826518,-0.125739,-0.01
 9742\H,0,-1.660831,-0.077438,-1.213235\C,0,-0.274775,1.37286,0.539173\
 N,0,-0.448469,2.466961,0.929933\N,0,-0.569399,-0.94181,0.897192\H,0,-1
 .623664,-0.808258,0.75195\H,0,-0.349298,-1.863182,0.523538\C,0,-0.2123
 57,-1.355553,-2.000391\N,0,0.05077,-2.390844,-2.491662\C,0,-0.16462,1.

 Normal termination of Gaussian 16 at Wed Apr  9 02:49:30 2025.
