 Gaussian 16, Revision C.01,

 ----------------------------------------------------------------------
 #t hf aug-cc-pvdz symm=none int=(grid=ultrafine) guess=(read,tcheck) s
 table=(opt,rrhf)
 ----------------------------------------------------------------------
 -----
 title
 -----
 Symbolic Z-matrix:
 Charge = -1 Multiplicity = 1

 SCF Done:  E(RHF) =  -1099.67679600     A.U. after   16 cycles
 Normal termination of Gaussian 16 at Wed Apr  9 02:53:48 2025.
 Gaussian 16:  ES64L-G16RevC.01  3-Jul-2019

 ----------------------------------------------------------------------
 #t hf aug-cc-pvdz iop(5/13=1,5/36=2,99/5=2) pseudo=read geom=check gue
 ss=(read,tcheck) scf=(maxcycle=1)
 ----------------------------------------------------------------------
 -----
 title
 -----
 Structure from the checkpoint file:  "E2SN2_366_mol2.chk"
 Charge = -1 Multiplicity = 1

                         Standard orientation:
 ---------------------------------------------------------------------
 Center     Atomic      Atomic             Coordinates (Angstroms)
 Number     Number       Type             X           Y           Z
 ---------------------------------------------------------------------
      1          6           0       -1.116917    0.079799   -0.409342
      2          6           0        0.367947    0.294574   -0.207677
      3         17           0       -1.745550   -1.469383    0.284657
      4          1           0        0.505424    1.305063   -0.746675
      5          1           0       -1.252227   -0.031748   -1.486336
      6          7           0       -1.777928    1.204378    0.189633
      7          1           0       -2.760036    1.162241   -0.058339
      8          1           0       -1.339930    1.999862   -0.317655
      9          7           0        1.219744   -0.735182   -0.840717
     10          8           0        0.772525   -1.299072   -1.837813
     11          8           0        2.355344   -0.887331   -0.394627
     12          7           0        0.736877    0.403299    1.226030
     13          8           0        0.988948    1.528212    1.651386
     14          8           0        0.749157   -0.630315    1.893357
     15          9           0       -0.129301    2.499826   -1.450122
 ---------------------------------------------------------------------

 SCF Done:  E(RHF) =  -1099.88623390     A.U. after    2 cycles

 The electronic state is 1-A.
 Alpha  occ. eigenvalues -- -103.53680 -25.79887 -20.51705 -20.51599 -20.50713
 Alpha  occ. eigenvalues --  -20.50334 -15.81576 -15.80184 -15.49169 -11.23748
 Alpha  occ. eigenvalues --  -11.23299 -10.57052  -8.22768  -8.22494  -8.22477
 Alpha  occ. eigenvalues --   -1.44674  -1.42442  -1.29298  -1.25920  -1.24517
 Alpha  occ. eigenvalues --   -1.10864  -1.01400  -0.99867  -0.84316  -0.78952
 Alpha  occ. eigenvalues --   -0.70504  -0.68351  -0.65278  -0.63502  -0.61693
 Alpha  occ. eigenvalues --   -0.60344  -0.58375  -0.54228  -0.51875  -0.48986
 Alpha  occ. eigenvalues --   -0.43454  -0.42616  -0.41446  -0.40755  -0.39246
 Alpha  occ. eigenvalues --   -0.38897  -0.38333  -0.37441  -0.35590  -0.34636
 Alpha  occ. eigenvalues --   -0.33887  -0.33233  -0.28751
 Alpha virt. eigenvalues --    0.12981   0.15193   0.16603   0.17408   0.17877
 Alpha virt. eigenvalues --    0.18544   0.19652   0.22101   0.22536   0.23410
 Alpha virt. eigenvalues --    0.24037   0.25114   0.26410   0.26678   0.27744

 Mulliken charges:
               1
     1  C    0.240994
     2  C    1.829326
     3  Cl  -0.211913
     4  H    0.066471
     5  H    0.110828
     6  N   -0.456804
     7  H   -0.015250
     8  H    0.194117
     9  N    0.290171
    10  O   -0.622927
    11  O   -0.586602
    12  N    0.259605
    13  O   -0.576293
    14  O   -0.612328
    15  F   -0.909395
 Sum of Mulliken charges =  -1.00000

 Dipole moment (field-independent basis, Debye):
    X=             -2.4691    Y=             -3.8519    Z=              0.6701  Tot=              4.6241

 Test job not archived.
 1\1\GINC-SE460\SP\RHF\Aug-CC-pVDZ\C2H4Cl1F1N3O4(1-)\OHZDE\09-Apr-2025\
 0\\#t hf aug-cc-pvdz iop(5/13=1,5/36=2,99/5=2) pseudo=read geom=check
 guess=(read,tcheck) scf=(maxcycle=1)\\title\\-1,1\C,0,-0.051393,0.0161
 88,0.022757\C,0,-0.597552,-0.145547,-1.379802\Cl,0,1.750861,0.163026,0
 .106988\H,0,-1.724704,-0.238219,-1.152983\H,0,-0.270215,-0.923971,0.53
 1566\N,0,-0.677766,1.184439,0.573421\H,0,-0.444484,1.233028,1.558825\H
 ,0,-1.685865,0.94534,0.480974\N,0,-0.121761,-1.359028,-2.078218\O,0,0.
 181205,-2.325976,-1.381512\O,0,-0.157835,-1.359355,-3.307214\N,0,-0.32

 Normal termination of Gaussian 16 at Wed Apr  9 02:53:56 2025.
