 Gaussian 16, Revision C.01,

 ----------------------------------------------------------------------
 #t hf aug-cc-pvdz symm=none int=(grid=ultrafine) guess=(read,tcheck) s
 table=(opt,rrhf)
 ----------------------------------------------------------------------
 -----
 title
 -----
 Symbolic Z-matrix:
 Charge = -1 Multiplicity = 1

 SCF Done:  E(RHF) =  -1043.01928358     A.U. after   16 cycles
 Normal termination of Gaussian 16 at Wed Apr  9 02:43:03 2025.
 Gaussian 16:  ES64L-G16RevC.01  3-Jul-2019

 ----------------------------------------------------------------------
 #t hf aug-cc-pvdz iop(5/13=1,5/36=2,99/5=2) pseudo=read geom=check gue
 ss=(read,tcheck) scf=(maxcycle=1)
 ----------------------------------------------------------------------
 -----
 title
 -----
 Structure from the checkpoint file:  "E2SN2_243_mol2.chk"
 Charge = -1 Multiplicity = 1

                         Standard orientation:
 ---------------------------------------------------------------------
 Center     Atomic      Atomic             Coordinates (Angstroms)
 Number     Number       Type             X           Y           Z
 ---------------------------------------------------------------------
      1          6           0       -0.430582    0.436864   -0.481483
      2          6           0       -0.754110   -0.593215    0.607614
      3          9           0       -1.607476    1.025860   -0.915127
      4          1           0        0.208609   -0.951255    0.993394
      5          7           0        0.305415    1.670917    0.139911
      6          8           0        0.569597    1.696960    1.338746
      7          8           0        0.593166    2.550029   -0.667891
      8          7           0        0.270458   -0.099510   -1.544341
      9          1           0        0.569686    0.630809   -2.179213
     10          1           0        1.082313   -0.629724   -1.187879
     11          6           0       -1.439466   -1.720113   -0.043997
     12          7           0       -2.048606   -2.608364   -0.509959
     13          7           0       -1.598499   -0.121266    1.695311
     14          1           0       -2.390688    0.376991    1.306669
     15          1           0       -1.054635    0.524402    2.251173
     16         17           0        2.587851   -1.399619    0.160347
 ---------------------------------------------------------------------

 SCF Done:  E(RHF) =  -1043.20933756     A.U. after    2 cycles

 The electronic state is 1-A.
 Alpha  occ. eigenvalues -- -103.39327 -26.05218 -20.53293 -20.52785 -15.81531
 Alpha  occ. eigenvalues --  -15.53902 -15.53369 -15.52283 -11.34205 -11.22536
 Alpha  occ. eigenvalues --  -11.19082 -10.42450  -8.08058  -8.08021  -8.08003
 Alpha  occ. eigenvalues --   -1.59261  -1.44862  -1.27082  -1.13569  -1.08943
 Alpha  occ. eigenvalues --   -1.06306  -0.92746  -0.87543  -0.84922  -0.77417
 Alpha  occ. eigenvalues --   -0.71714  -0.69453  -0.67511  -0.64226  -0.62839
 Alpha  occ. eigenvalues --   -0.61276  -0.60464  -0.54584  -0.54175  -0.51233
 Alpha  occ. eigenvalues --   -0.48981  -0.44544  -0.43501  -0.42384  -0.38463
 Alpha  occ. eigenvalues --   -0.35767  -0.35232  -0.33614  -0.31627  -0.23010
 Alpha  occ. eigenvalues --   -0.22626  -0.22456
 Alpha virt. eigenvalues --    0.11748   0.13350   0.14327   0.16288   0.17098
 Alpha virt. eigenvalues --    0.18246   0.18999   0.19723   0.20862   0.22345
 Alpha virt. eigenvalues --    0.23903   0.24076   0.24440   0.25350   0.25591

 Mulliken charges:
               1
     1  C    1.265397
     2  C    1.292199
     3  F   -0.419727
     4  H   -0.081598
     5  N    0.294613
     6  O   -0.599069
     7  O   -0.611985
     8  N   -0.392444
     9  H    0.050014
    10  H    0.058813
    11  C   -0.382390
    12  N   -0.255111
    13  N   -0.389969
    14  H    0.015503
    15  H    0.076160
    16  Cl  -0.920408
 Sum of Mulliken charges =  -1.00000

 Dipole moment (field-independent basis, Debye):
    X=             -6.2124    Y=              5.9340    Z=              0.0371  Tot=              8.5911

 Test job not archived.
 1\1\GINC-SE455\SP\RHF\Aug-CC-pVDZ\C3H5Cl1F1N4O2(1-)\OHZDE\09-Apr-2025\
 0\\#t hf aug-cc-pvdz iop(5/13=1,5/36=2,99/5=2) pseudo=read geom=check
 guess=(read,tcheck) scf=(maxcycle=1)\\title\\-1,1\C,0,-0.017787,0.0237
 97,-0.0022\C,0,-0.500316,0.005556,-1.457775\F,0,1.364119,-0.075485,0.0
 20633\H,0,-1.58075,0.194604,-1.430021\N,0,-0.22171,1.445967,0.619538\O
 ,0,-0.736359,2.344052,-0.040957\O,0,0.149486,1.548159,1.785708\N,0,-0.
 59372,-0.964535,0.772605\H,0,-0.345486,-0.843821,1.747169\H,0,-1.61938
 8,-0.94256,0.650858\C,0,-0.281586,-1.353972,-1.97551\N,0,-0.062829,-2.

 Normal termination of Gaussian 16 at Wed Apr  9 02:43:11 2025.
