 Gaussian 16, Revision C.01,

 ----------------------------------------------------------------------
 #t hf aug-cc-pvdz symm=none int=(grid=ultrafine) guess=(read,tcheck) s
 table=(opt,rrhf)
 ----------------------------------------------------------------------
 -----
 title
 -----
 Symbolic Z-matrix:
 Charge = -1 Multiplicity = 1

 SCF Done:  E(RHF) =  -823.445285935     A.U. after   16 cycles
 Normal termination of Gaussian 16 at Wed Apr  9 02:32:58 2025.
 Gaussian 16:  ES64L-G16RevC.01  3-Jul-2019

 ----------------------------------------------------------------------
 #t hf aug-cc-pvdz iop(5/13=1,5/36=2,99/5=2) pseudo=read geom=check gue
 ss=(read,tcheck) scf=(maxcycle=1)
 ----------------------------------------------------------------------
 -----
 title
 -----
 Structure from the checkpoint file:  "E2SN2_139_mol2.chk"
 Charge = -1 Multiplicity = 1

                         Standard orientation:
 ---------------------------------------------------------------------
 Center     Atomic      Atomic             Coordinates (Angstroms)
 Number     Number       Type             X           Y           Z
 ---------------------------------------------------------------------
      1          6           0       -0.091699   -0.312778   -0.183759
      2          6           0        0.154867    1.072780   -0.782502
      3         17           0       -1.928709   -0.630648   -0.235421
      4          1           0        1.248439    1.100500   -0.813262
      5          1           0       -0.226557    1.036493   -1.810292
      6          7           0        0.597824   -1.377074   -0.825577
      7          1           0        1.630879   -1.041849   -0.696768
      8          1           0        0.389018   -1.297232   -1.818659
      9          6           0        0.248433   -0.313467    1.249649
     10          7           0        0.464408   -0.279090    2.403155
     11          6           0       -0.440485    2.249976   -0.024584
     12          1           0       -1.529604    2.185324    0.036991
     13          1           0       -0.181872    3.188329   -0.524481
     14          1           0       -0.042134    2.296580    0.991907
     15          9           0        2.759728   -0.148116   -0.439905
 ---------------------------------------------------------------------

 SCF Done:  E(RHF) =  -823.571169280     A.U. after    2 cycles

 The electronic state is 1-A.
 Alpha  occ. eigenvalues -- -103.52302 -25.76441 -15.51053 -15.45670 -11.24218
 Alpha  occ. eigenvalues --  -11.16278 -11.11231 -11.11057 -10.55643  -8.21340
 Alpha  occ. eigenvalues --   -8.21085  -8.21077  -1.25807  -1.09150  -1.03576
 Alpha  occ. eigenvalues --   -0.97895  -0.91121  -0.79136  -0.72110  -0.56189
 Alpha  occ. eigenvalues --   -0.51833  -0.49670  -0.48970  -0.43500  -0.42861
 Alpha  occ. eigenvalues --   -0.41376  -0.39456  -0.38235  -0.35803  -0.34989
 Alpha  occ. eigenvalues --   -0.34637  -0.32948  -0.32255  -0.31336  -0.31081
 Alpha  occ. eigenvalues --   -0.25150
 Alpha virt. eigenvalues --    0.12148   0.13649   0.14363   0.15372   0.16899
 Alpha virt. eigenvalues --    0.18182   0.19120   0.19414   0.20848   0.23451
 Alpha virt. eigenvalues --    0.23724   0.24320   0.24973   0.25766   0.26323

 Mulliken charges:
               1
     1  C    0.636473
     2  C    0.516891
     3  Cl  -0.281002
     4  H   -0.029319
     5  H   -0.087764
     6  N   -0.736224
     7  H    0.246470
     8  H    0.019797
     9  C   -0.344000
    10  N   -0.289061
    11  C    0.472771
    12  H   -0.066885
    13  H   -0.052338
    14  H   -0.090484
    15  F   -0.915326
 Sum of Mulliken charges =  -1.00000

 Dipole moment (field-independent basis, Debye):
    X=             -6.7725    Y=              2.8314    Z=             -2.6950  Tot=              7.8197

 Test job not archived.
 1\1\GINC-SE462\SP\RHF\Aug-CC-pVDZ\C4H7Cl1F1N2(1-)\OHZDE\09-Apr-2025\0\
 \#t hf aug-cc-pvdz iop(5/13=1,5/36=2,99/5=2) pseudo=read geom=check gu
 ess=(read,tcheck) scf=(maxcycle=1)\\title\\-1,1\C,0,-0.000216,-0.02548
 1,-1.471356\C,0,0.015203,-0.00032,0.057757\Cl,0,-1.732885,0.386837,-2.
 02468\H,0,1.082199,-0.131293,0.262651\H,0,-0.278977,1.014561,0.352084\
 N,0,0.925333,0.853149,-2.097029\H,0,1.862466,0.473259,-1.680334\H,0,0.
 775196,1.770916,-1.683087\C,0,0.232258,-1.396355,-1.95819\N,0,0.356079
 ,-2.50411,-2.326906\C,0,-0.848156,-1.039401,0.757469\H,0,-1.905814,-0.

 Normal termination of Gaussian 16 at Wed Apr  9 02:33:04 2025.
