 Gaussian 16, Revision C.01,

 ----------------------------------------------------------------------
 #t hf aug-cc-pvdz symm=none int=(grid=ultrafine) guess=(read,tcheck) s
 table=(opt,rrhf)
 ----------------------------------------------------------------------
 -----
 title
 -----
 Symbolic Z-matrix:
 Charge = -1 Multiplicity = 1

 SCF Done:  E(RHF) =  -528.861495363     A.U. after   17 cycles
 Normal termination of Gaussian 16 at Wed Apr  9 02:39:57 2025.
 Gaussian 16:  ES64L-G16RevC.01  3-Jul-2019

 ----------------------------------------------------------------------
 #t hf aug-cc-pvdz iop(5/13=1,5/36=2,99/5=2) pseudo=read geom=check gue
 ss=(read,tcheck) scf=(maxcycle=1)
 ----------------------------------------------------------------------
 -----
 title
 -----
 Structure from the checkpoint file:  "E2SN2_217_mol1.chk"
 Charge = -1 Multiplicity = 1

                         Standard orientation:
 ---------------------------------------------------------------------
 Center     Atomic      Atomic             Coordinates (Angstroms)
 Number     Number       Type             X           Y           Z
 ---------------------------------------------------------------------
      1          6           0       -0.281863   -0.235427    0.442349
      2          1           0        0.607557   -0.081192   -1.487063
      3          9           0       -0.527974    1.010454    1.298447
      4          1           0       -0.110419   -1.877840   -0.554640
      5          6           0        0.892491    0.149002   -0.464387
      6          1           0       -0.152189   -0.977023    1.210697
      7          7           0       -1.582168   -0.359925   -0.223484
      8          8           0       -1.746035    0.241213   -1.292857
      9          8           0       -2.492736   -0.883186    0.429321
     10          6           0        2.046360   -0.701866   -0.102745
     11          7           0        3.069742   -1.203729    0.189617
     12          7           0        1.226389    1.581294   -0.394565
     13          1           0        2.157086    1.712803   -0.773138
     14          1           0        1.220234    1.871224    0.574124
 ---------------------------------------------------------------------

 SCF Done:  E(RHF) =  -529.022040059     A.U. after    2 cycles

 The electronic state is 1-A.
 Alpha  occ. eigenvalues --  -25.94982 -20.46297 -20.46128 -15.77046 -15.51747
 Alpha  occ. eigenvalues --  -15.50524 -11.26551 -11.20117 -11.17430  -1.46771
 Alpha  occ. eigenvalues --   -1.38335  -1.20159  -1.08147  -1.03901  -0.95438
 Alpha  occ. eigenvalues --   -0.83259  -0.70856  -0.64157  -0.63371  -0.60569
 Alpha  occ. eigenvalues --   -0.57730  -0.57261  -0.52513  -0.52033  -0.50527
 Alpha  occ. eigenvalues --   -0.47569  -0.44570  -0.42894  -0.37130  -0.36162
 Alpha  occ. eigenvalues --   -0.34218  -0.33104  -0.32434  -0.29205  -0.13425
 Alpha virt. eigenvalues --    0.12490   0.14150   0.15461   0.16821   0.18109
 Alpha virt. eigenvalues --    0.19224   0.21392   0.22928   0.23189   0.23511
 Alpha virt. eigenvalues --    0.24805   0.25718   0.25936   0.27070   0.27607

 Mulliken charges:
               1
     1  C    1.383806
     2  H   -0.046331
     3  F   -0.589004
     4  H   -0.274248
     5  C    0.916992
     6  H   -0.478138
     7  N    0.314188
     8  O   -0.639655
     9  O   -0.638892
    10  C   -0.234592
    11  N   -0.317407
    12  N   -0.455637
    13  H   -0.022627
    14  H    0.081546
 Sum of Mulliken charges =  -1.00000

 Dipole moment (field-independent basis, Debye):
    X=              2.5253    Y=              4.2308    Z=              0.7834  Tot=              4.9891

 Test job not archived.
 1\1\GINC-SE455\SP\RHF\Aug-CC-pVDZ\C3H5F1N3O2(1-)\OHZDE\09-Apr-2025\0\\
 #t hf aug-cc-pvdz iop(5/13=1,5/36=2,99/5=2) pseudo=read geom=check gue
 ss=(read,tcheck) scf=(maxcycle=1)\\title\\-1,1\C,0,0.1802179,-0.013120
 28,-0.22636681\H,0,1.6053517,1.52195883,-0.6136815\F,0,-1.17571784,-0.
 02737219,-0.93835643\H,0,1.87561883,-0.17098412,0.68005313\C,0,0.59427
 552,1.46254521,-0.22094899\H,0,-0.07812379,-0.50612848,0.69414484\N,0,
 0.95464398,-0.88526185,-1.1147692\O,0,1.5438813,-0.36380748,-2.0701030
 1\O,0,0.79658225,-2.10350942,-0.97342021\C,0,0.61512628,1.92592907,1.1

 Normal termination of Gaussian 16 at Wed Apr  9 02:40:04 2025.
