 Gaussian 16, Revision C.01,

 ----------------------------------------------------------------------
 #t hf aug-cc-pvdz symm=none int=(grid=ultrafine) guess=(read,tcheck) s
 table=(opt,rrhf)
 ----------------------------------------------------------------------
 -----
 title
 -----
 Symbolic Z-matrix:
 Charge = -1 Multiplicity = 1

 SCF Done:  E(RHF) =  -476.160275603     A.U. after   17 cycles
 Normal termination of Gaussian 16 at Wed Apr  9 02:26:55 2025.
 Gaussian 16:  ES64L-G16RevC.01  3-Jul-2019

 ----------------------------------------------------------------------
 #t hf aug-cc-pvdz iop(5/13=1,5/36=2,99/5=2) pseudo=read geom=check gue
 ss=(read,tcheck) scf=(maxcycle=1)
 ----------------------------------------------------------------------
 -----
 title
 -----
 Structure from the checkpoint file:  "E2SN2_101_mol1.chk"
 Charge = -1 Multiplicity = 1

                         Standard orientation:
 ---------------------------------------------------------------------
 Center     Atomic      Atomic             Coordinates (Angstroms)
 Number     Number       Type             X           Y           Z
 ---------------------------------------------------------------------
      1          6           0       -0.075412    0.597537    0.077418
      2          6           0        1.133904    0.499052   -0.746591
      3          9           0        0.156289    0.825094    1.466746
      4          1           0        0.851020   -1.201774   -2.477308
      5          1           0        0.847683   -0.263852   -1.781087
      6          1           0        1.426542    1.489153   -1.113818
      7          6           0       -1.058580    1.643637   -0.380757
      8          1           0       -0.588464    2.620964   -0.257193
      9          1           0       -1.314979    1.487886   -1.427475
     10          1           0       -1.968258    1.605887    0.221083
     11          7           0       -0.746174   -0.769091    0.082957
     12          8           0       -0.203731   -1.658138    0.739050
     13          8           0       -1.722618   -0.935431   -0.651154
     14          7           0        2.237027   -0.267285   -0.209009
     15          1           0        2.200175   -1.181804   -0.669533
     16          1           0        2.115023   -0.420484    0.783383
 ---------------------------------------------------------------------

 SCF Done:  E(RHF) =  -476.310448954     A.U. after    2 cycles

 The electronic state is 1-A.
 Alpha  occ. eigenvalues --  -25.98867 -20.48001 -20.47883 -15.76583 -15.44825
 Alpha  occ. eigenvalues --  -11.25482 -11.12819 -11.08208  -1.51842  -1.39631
 Alpha  occ. eigenvalues --   -1.21665  -1.01506  -0.95388  -0.83426  -0.75825
 Alpha  occ. eigenvalues --   -0.69169  -0.65617  -0.61325  -0.60303  -0.58464
 Alpha  occ. eigenvalues --   -0.55545  -0.52115  -0.49221  -0.46122  -0.44914
 Alpha  occ. eigenvalues --   -0.43875  -0.39617  -0.37350  -0.35837  -0.34401
 Alpha  occ. eigenvalues --   -0.33168  -0.23454  -0.08968
 Alpha virt. eigenvalues --    0.12107   0.13644   0.14787   0.15465   0.16107
 Alpha virt. eigenvalues --    0.18280   0.20065   0.21153   0.21714   0.22401
 Alpha virt. eigenvalues --    0.22885   0.24311   0.25362   0.25710   0.26444

 Mulliken charges:
               1
     1  C    0.217303
     2  C    0.504118
     3  F   -0.495809
     4  H   -0.769163
     5  H    0.256496
     6  H   -0.220713
     7  C    0.453089
     8  H    0.048249
     9  H    0.200075
    10  H   -0.007508
    11  N    0.370002
    12  O   -0.626202
    13  O   -0.629041
    14  N   -0.418406
    15  H    0.065979
    16  H    0.051529
 Sum of Mulliken charges =  -1.00000

 Dipole moment (field-independent basis, Debye):
    X=             -3.3786    Y=              5.8655    Z=              5.6886  Tot=              8.8419

 Test job not archived.
 1\1\GINC-SE253\SP\RHF\Aug-CC-pVDZ\C3H8F1N2O2(1-)\OHZDE\09-Apr-2025\0\\
 #t hf aug-cc-pvdz iop(5/13=1,5/36=2,99/5=2) pseudo=read geom=check gue
 ss=(read,tcheck) scf=(maxcycle=1)\\title\\-1,1\C,0,-0.13978703,-0.0770
 588,-0.29946969\C,0,-0.26349311,-0.14263335,1.16050732\F,0,1.15315164,
 0.28623158,-0.7811635\H,0,-2.44478083,0.6975441,1.87064997\H,0,-1.5193
 2718,0.11235648,1.46380201\H,0,-0.01529183,-1.14786371,1.51925788\C,0,
 -0.53575068,-1.3421293,-1.01618251\H,0,0.17612642,-2.12110066,-0.73711
 504\H,0,-1.54168682,-1.64126281,-0.72595857\H,0,-0.50209205,-1.1978498

 Normal termination of Gaussian 16 at Wed Apr  9 02:27:02 2025.
