 Gaussian 16, Revision C.01,

 ----------------------------------------------------------------------
 #t hf aug-cc-pvdz symm=none int=(grid=ultrafine) guess=(read,tcheck) s
 table=(opt,rrhf)
 ----------------------------------------------------------------------
 -----
 title
 -----
 Symbolic Z-matrix:
 Charge = -1 Multiplicity = 1

 SCF Done:  E(RHF) =  -932.852108848     A.U. after   16 cycles
 Normal termination of Gaussian 16 at Wed Apr  9 02:34:34 2025.
 Gaussian 16:  ES64L-G16RevC.01  3-Jul-2019

 ----------------------------------------------------------------------
 #t hf aug-cc-pvdz iop(5/13=1,5/36=2,99/5=2) pseudo=read geom=check gue
 ss=(read,tcheck) scf=(maxcycle=1)
 ----------------------------------------------------------------------
 -----
 title
 -----
 Structure from the checkpoint file:  "E2SN2_163_mol1.chk"
 Charge = -1 Multiplicity = 1

                         Standard orientation:
 ---------------------------------------------------------------------
 Center     Atomic      Atomic             Coordinates (Angstroms)
 Number     Number       Type             X           Y           Z
 ---------------------------------------------------------------------
      1          6           0        0.353439   -0.160182    0.527728
      2          1           0       -0.333228   -1.752708   -0.739325
      3          9           0       -1.129296    0.873310    1.365538
      4         17           0        2.064077   -1.112467   -0.037856
      5          6           0       -0.678197   -1.193444    0.131861
      6          1           0        0.640774    0.011340    1.543905
      7          1           0       -0.739653   -1.893607    0.969250
      8          7           0        0.461397    1.039266   -0.324809
      9          8           0       -0.096742    0.996471   -1.418150
     10          8           0        1.142919    1.963813    0.096889
     11          6           0       -2.028796   -0.707768   -0.159061
     12          7           0       -3.138771   -0.557379   -0.511361
 ---------------------------------------------------------------------

 SCF Done:  E(RHF) =  -933.009084951     A.U. after    2 cycles

 The electronic state is 1-A.
 Alpha  occ. eigenvalues -- -103.50718 -25.80135 -20.49041 -20.48914 -15.79373
 Alpha  occ. eigenvalues --  -15.49718 -11.27800 -11.18204 -11.16530 -10.54004
 Alpha  occ. eigenvalues --   -8.19677  -8.19469  -8.19461  -1.41886  -1.29956
 Alpha  occ. eigenvalues --   -1.23570  -1.04950  -1.02599  -0.93865  -0.87964
 Alpha  occ. eigenvalues --   -0.71502  -0.65037  -0.61900  -0.60165  -0.56865
 Alpha  occ. eigenvalues --   -0.52722  -0.49950  -0.42845  -0.40673  -0.40296
 Alpha  occ. eigenvalues --   -0.39338  -0.38692  -0.38492  -0.34807  -0.32976
 Alpha  occ. eigenvalues --   -0.32684  -0.31819  -0.30827  -0.30655
 Alpha virt. eigenvalues --    0.13227   0.14350   0.15401   0.17430   0.18672
 Alpha virt. eigenvalues --    0.20190   0.22299   0.23330   0.23403   0.24279
 Alpha virt. eigenvalues --    0.25023   0.25836   0.27327   0.27489   0.28321

 Mulliken charges:
               1
     1  C    0.916748
     2  H    0.125145
     3  F   -0.826979
     4  Cl  -0.439943
     5  C    0.291575
     6  H   -0.237270
     7  H    0.105453
     8  N    0.653120
     9  O   -0.660166
    10  O   -0.664183
    11  C    0.124813
    12  N   -0.388313
 Sum of Mulliken charges =  -1.00000

 Dipole moment (field-independent basis, Debye):
    X=              3.7889    Y=             -4.4247    Z=             -0.1297  Tot=              5.8267

 Test job not archived.
 1\1\GINC-SE364\SP\RHF\Aug-CC-pVDZ\C3H3Cl1F1N2O2(1-)\OHZDE\09-Apr-2025\
 0\\#t hf aug-cc-pvdz iop(5/13=1,5/36=2,99/5=2) pseudo=read geom=check
 guess=(read,tcheck) scf=(maxcycle=1)\\title\\-1,1\C,0,0.82229987,-0.02
 706921,0.02827536\H,0,1.66976759,1.86341413,0.59479524\F,0,-1.16472149
 ,-0.07053156,0.16390066\Cl,0,2.81034212,-0.24027743,-0.36573014\C,0,0.
 73485642,1.47476923,0.18780476\H,0,0.47072314,-0.5381861,-0.84336148\H
 ,0,0.62233918,1.87866758,-0.82186394\N,0,0.74017179,-0.83721275,1.2587
 5205\O,0,0.86675725,-0.24216037,2.32581957\O,0,0.60721585,-2.04591535,

 Normal termination of Gaussian 16 at Wed Apr  9 02:34:41 2025.
