 Gaussian 16, Revision C.01,

 ----------------------------------------------------------------------
 #t hf aug-cc-pvdz symm=none int=(grid=ultrafine) guess=(read,tcheck) s
 table=(opt,rrhf)
 ----------------------------------------------------------------------
 -----
 title
 -----
 Symbolic Z-matrix:
 Charge = -1 Multiplicity = 1

 SCF Done:  E(RHF) =  -583.909879458     A.U. after   16 cycles
 Normal termination of Gaussian 16 at Wed Apr  9 02:43:30 2025.
 Gaussian 16:  ES64L-G16RevC.01  3-Jul-2019

 ----------------------------------------------------------------------
 #t hf aug-cc-pvdz iop(5/13=1,5/36=2,99/5=2) pseudo=read geom=check gue
 ss=(read,tcheck) scf=(maxcycle=1)
 ----------------------------------------------------------------------
 -----
 title
 -----
 Structure from the checkpoint file:  "E2SN2_247_mol1.chk"
 Charge = -1 Multiplicity = 1

                         Standard orientation:
 ---------------------------------------------------------------------
 Center     Atomic      Atomic             Coordinates (Angstroms)
 Number     Number       Type             X           Y           Z
 ---------------------------------------------------------------------
      1          6           0        0.352901    0.378272    0.141278
      2          1           0       -0.725194   -0.225789   -1.589064
      3          9           0        0.106089   -0.619299    1.355839
      4          1           0        0.823395    1.338785   -1.324692
      5          6           0       -0.975209    0.239084   -0.635854
      6          7           0        1.520320   -0.405990   -0.374103
      7          8           0        1.290192   -1.353424   -1.124779
      8          8           0        2.627615   -0.130418    0.087482
      9          7           0        0.581888    1.533729    0.941339
     10          1           0        1.204391    2.151873    0.447151
     11          1           0        1.003357    1.218826    1.806451
     12          7           0       -1.653286    1.504482   -0.899149
     13          1           0       -0.952531    2.025478   -1.427122
     14          1           0       -1.718600    1.979410   -0.002261
     15          6           0       -1.954943   -0.644130    0.031562
     16          7           0       -2.801574   -1.329866    0.469549
 ---------------------------------------------------------------------

 SCF Done:  E(RHF) =  -584.084442395     A.U. after    2 cycles

 The electronic state is 1-A.
 Alpha  occ. eigenvalues --  -25.92463 -20.47144 -20.47093 -15.77612 -15.50572
 Alpha  occ. eigenvalues --  -15.50352 -15.49354 -11.30194 -11.19293 -11.16249
 Alpha  occ. eigenvalues --   -1.44523  -1.39312  -1.21482  -1.09045  -1.05131
 Alpha  occ. eigenvalues --   -1.02546  -0.90602  -0.82441  -0.69218  -0.64629
 Alpha  occ. eigenvalues --   -0.63024  -0.59835  -0.58562  -0.57220  -0.54063
 Alpha  occ. eigenvalues --   -0.50643  -0.49924  -0.47877  -0.46935  -0.44065
 Alpha  occ. eigenvalues --   -0.41041  -0.38847  -0.37328  -0.33644  -0.32744
 Alpha  occ. eigenvalues --   -0.32315  -0.30488  -0.29647  -0.16249
 Alpha virt. eigenvalues --    0.12562   0.13856   0.14838   0.15404   0.17451
 Alpha virt. eigenvalues --    0.18243   0.19432   0.21054   0.22342   0.22891
 Alpha virt. eigenvalues --    0.23980   0.25258   0.25785   0.26824   0.27044

 Mulliken charges:
               1
     1  C    0.692915
     2  H   -0.045687
     3  F   -0.586499
     4  H   -0.231671
     5  C    1.178895
     6  N    0.388831
     7  O   -0.654357
     8  O   -0.648273
     9  N   -0.298782
    10  H    0.102738
    11  H    0.033700
    12  N   -0.427838
    13  H    0.079130
    14  H    0.093633
    15  C   -0.428664
    16  N   -0.248071
 Sum of Mulliken charges =  -1.00000

 Dipole moment (field-independent basis, Debye):
    X=              0.6302    Y=              3.2351    Z=              1.0029  Tot=              3.4451

 Test job not archived.
 1\1\GINC-SE143\SP\RHF\Aug-CC-pVDZ\C3H6F1N4O2(1-)\OHZDE\09-Apr-2025\0\\
 #t hf aug-cc-pvdz iop(5/13=1,5/36=2,99/5=2) pseudo=read geom=check gue
 ss=(read,tcheck) scf=(maxcycle=1)\\title\\-1,1\C,0,0.45474687,-0.00624
 038,-0.08218898\H,0,1.4239341,1.69782717,-0.90565224\F,0,-0.94692884,-
 0.27271954,-0.78611812\H,0,2.16106914,0.16102883,0.51237226\C,0,0.5814
 1844,1.52586212,-0.23645983\N,0,1.20439709,-0.84695003,-1.0695004\O,0,
 1.56623011,-0.31621755,-2.11902617\O,0,1.30010813,-2.04903945,-0.82267
 377\N,0,0.09529156,-0.55871234,1.18002262\H,0,0.92252664,-0.92795964,1

 Normal termination of Gaussian 16 at Wed Apr  9 02:43:39 2025.
