 Gaussian 16, Revision C.01,

 ----------------------------------------------------------------------
 #t hf aug-cc-pvdz symm=none int=(grid=ultrafine) guess=(read,tcheck) s
 table=(opt,rrhf)
 ----------------------------------------------------------------------
 -----
 title
 -----
 Symbolic Z-matrix:
 Charge = -1 Multiplicity = 1

 SCF Done:  E(RHF) =  -987.902665444     A.U. after   17 cycles
 Normal termination of Gaussian 16 at Wed Apr  9 02:43:30 2025.
 Gaussian 16:  ES64L-G16RevC.01  3-Jul-2019

 ----------------------------------------------------------------------
 #t hf aug-cc-pvdz iop(5/13=1,5/36=2,99/5=2) pseudo=read geom=check gue
 ss=(read,tcheck) scf=(maxcycle=1)
 ----------------------------------------------------------------------
 -----
 title
 -----
 Structure from the checkpoint file:  "E2SN2_250_mol1.chk"
 Charge = -1 Multiplicity = 1

                         Standard orientation:
 ---------------------------------------------------------------------
 Center     Atomic      Atomic             Coordinates (Angstroms)
 Number     Number       Type             X           Y           Z
 ---------------------------------------------------------------------
      1          6           0       -0.597999   -0.047931   -0.390866
      2          1           0        0.324405    0.924932    1.318173
      3          9           0        0.459542   -1.472354   -1.138556
      4         17           0       -1.833385    1.647483    0.217398
      5          6           0        0.485486    0.064926    0.668296
      6          1           0       -0.444040    0.403857   -1.351201
      7          6           0       -1.638759   -1.030292   -0.230796
      8          7           0       -2.507594   -1.813347   -0.114416
      9          7           0        1.781424    0.458325   -0.083254
     10          8           0        2.829859   -0.038518    0.318835
     11          8           0        1.699962    1.317442   -0.952664
     12          7           0        0.617329   -1.121185    1.421957
     13          1           0        1.395412   -1.044547    2.061344
     14          1           0        0.786843   -1.858418    0.743726
 ---------------------------------------------------------------------

 SCF Done:  E(RHF) =  -988.073780310     A.U. after    2 cycles

 The electronic state is 1-A.
 Alpha  occ. eigenvalues -- -103.46803 -25.84141 -20.50230 -20.50147 -15.78993
 Alpha  occ. eigenvalues --  -15.51805 -15.51020 -11.26785 -11.24406 -11.18102
 Alpha  occ. eigenvalues --  -10.50077  -8.15727  -8.15565  -8.15551  -1.42492
 Alpha  occ. eigenvalues --   -1.34122  -1.24403  -1.10107  -1.05520  -0.96848
 Alpha  occ. eigenvalues --   -0.90673  -0.85450  -0.72704  -0.66242  -0.63807
 Alpha  occ. eigenvalues --   -0.62302  -0.60083  -0.56980  -0.51263  -0.47562
 Alpha  occ. eigenvalues --   -0.45631  -0.43696  -0.43143  -0.42216  -0.40941
 Alpha  occ. eigenvalues --   -0.39442  -0.35901  -0.34472  -0.33398  -0.31493
 Alpha  occ. eigenvalues --   -0.29177  -0.28909  -0.28151
 Alpha virt. eigenvalues --    0.12449   0.14151   0.15038   0.17704   0.18982
 Alpha virt. eigenvalues --    0.19514   0.20483   0.21203   0.22791   0.23402
 Alpha virt. eigenvalues --    0.24078   0.24684   0.26211   0.26594   0.26891

 Mulliken charges:
               1
     1  C    1.276814
     2  H   -0.149301
     3  F   -0.839334
     4  Cl  -0.527094
     5  C    1.040675
     6  H   -0.193792
     7  C   -0.494658
     8  N   -0.255861
     9  N    0.595035
    10  O   -0.666932
    11  O   -0.638479
    12  N   -0.259382
    13  H    0.016828
    14  H    0.095482
 Sum of Mulliken charges =  -1.00000

 Dipole moment (field-independent basis, Debye):
    X=              2.7806    Y=              1.3786    Z=              3.0103  Tot=              4.3237

 Test job not archived.
 1\1\GINC-SE114\SP\RHF\Aug-CC-pVDZ\C3H4Cl1F1N3O2(1-)\OHZDE\09-Apr-2025\
 0\\#t hf aug-cc-pvdz iop(5/13=1,5/36=2,99/5=2) pseudo=read geom=check
 guess=(read,tcheck) scf=(maxcycle=1)\\title\\-1,1\C,0,0.6499737,-0.011
 25794,-0.04396975\H,0,1.73970664,1.86267817,0.09369761\F,0,-1.26212942
 ,0.2043508,-0.10553266\Cl,0,2.77798222,-0.43969411,0.19812831\C,0,0.72
 045028,1.50644211,-0.05499858\H,0,0.43873395,-0.52145415,0.87534389\C,
 0,0.51679081,-0.718476,-1.29134425\N,0,0.42420653,-1.31876008,-2.29766
 442\N,0,0.01441595,1.97857515,1.24024307\O,0,-0.66055144,3.00150528,1.

 Normal termination of Gaussian 16 at Wed Apr  9 02:43:37 2025.
