 Gaussian 16, Revision C.01,

 ----------------------------------------------------------------------
 #t hf aug-cc-pvdz symm=none int=(grid=ultrafine) guess=(read,tcheck) s
 table=(opt,rrhf)
 ----------------------------------------------------------------------
 -----
 title
 -----
 Symbolic Z-matrix:
 Charge = -1 Multiplicity = 1

 SCF Done:  E(RHF) =  -825.788513856     A.U. after   13 cycles
 Normal termination of Gaussian 16 at Wed Apr  9 02:52:19 2025.
 Gaussian 16:  ES64L-G16RevC.01  3-Jul-2019

 ----------------------------------------------------------------------
 #t hf aug-cc-pvdz iop(5/13=1,5/36=2,99/5=2) pseudo=read geom=check gue
 ss=(read,tcheck) scf=(maxcycle=1)
 ----------------------------------------------------------------------
 -----
 title
 -----
 Structure from the checkpoint file:  "E2SN2_355_mol2.chk"
 Charge = -1 Multiplicity = 1

                         Standard orientation:
 ---------------------------------------------------------------------
 Center     Atomic      Atomic             Coordinates (Angstroms)
 Number     Number       Type             X           Y           Z
 ---------------------------------------------------------------------
      1          6           0       -0.596449    0.323359    0.117073
      2          6           0        0.354278   -0.371977   -0.901087
      3         17           0       -2.180476   -0.605570    0.086761
      4          1           0       -0.278912   -0.653928   -1.754673
      5          6           0       -0.058259    0.304497    1.533248
      6          1           0        1.007945    0.571975    1.510280
      7          1           0       -0.113579   -0.709203    1.929304
      8          1           0       -0.639620    0.974244    2.175723
      9          6           0       -0.949871    1.736839   -0.320501
     10          1           0       -0.078112    2.382442   -0.194646
     11          1           0       -1.270391    1.761659   -1.366720
     12          1           0       -1.760941    2.129891    0.296837
     13          7           0        0.897653   -1.573435   -0.286847
     14          1           0        1.667937   -1.213737    0.303143
     15          1           0        1.356066   -2.081861   -1.037077
     16          7           0        1.445603    0.466501   -1.386434
     17          1           0        2.110064    0.552697   -0.592302
     18          1           0        1.116900    1.375712   -1.687079
     19          9           0        2.783305    0.110781    0.898093
 ---------------------------------------------------------------------

 SCF Done:  E(RHF) =  -825.916288180     A.U. after    2 cycles

 The electronic state is 1-A.
 Alpha  occ. eigenvalues -- -103.50267 -25.75248 -15.43624 -15.43571 -11.16750
 Alpha  occ. eigenvalues --  -11.14690 -11.11421 -11.07220 -10.53631  -8.19331
 Alpha  occ. eigenvalues --   -8.19091  -8.19084  -1.24304  -1.05854  -1.00652
 Alpha  occ. eigenvalues --   -0.92407  -0.88884  -0.80483  -0.73013  -0.60020
 Alpha  occ. eigenvalues --   -0.53702  -0.51512  -0.48591  -0.47169  -0.45146
 Alpha  occ. eigenvalues --   -0.42526  -0.41149  -0.39936  -0.36754  -0.36151
 Alpha  occ. eigenvalues --   -0.35460  -0.33934  -0.32757  -0.31899  -0.30493
 Alpha  occ. eigenvalues --   -0.29854  -0.24299  -0.22522
 Alpha virt. eigenvalues --    0.12355   0.13348   0.14251   0.14705   0.15579
 Alpha virt. eigenvalues --    0.16402   0.16996   0.17594   0.19363   0.19679
 Alpha virt. eigenvalues --    0.20877   0.21369   0.23460   0.24595   0.25358

 Mulliken charges:
               1
     1  C   -1.834915
     2  C    1.438526
     3  Cl  -0.351172
     4  H   -0.163911
     5  C    0.956835
     6  H   -0.029250
     7  H    0.024605
     8  H   -0.095013
     9  C    0.821533
    10  H    0.094881
    11  H   -0.049710
    12  H   -0.109231
    13  N   -0.406777
    14  H    0.135588
    15  H   -0.044737
    16  N   -0.492981
    17  H    0.128610
    18  H   -0.033048
    19  F   -0.989831
 Sum of Mulliken charges =  -1.00000

 Dipole moment (field-independent basis, Debye):
    X=             -6.4080    Y=              2.2738    Z=             -2.2233  Tot=              7.1537

 Test job not archived.
 1\1\GINC-SE460\SP\RHF\Aug-CC-pVDZ\C4H11Cl1F1N2(1-)\OHZDE\09-Apr-2025\0
 \\#t hf aug-cc-pvdz iop(5/13=1,5/36=2,99/5=2) pseudo=read geom=check g
 uess=(read,tcheck) scf=(maxcycle=1)\\title\\-1,1\C,0,-0.009158,-0.0219
 68,0.02285\C,0,-0.572453,0.131293,-1.420492\Cl,0,1.737213,0.544564,-0.
 024054\H,0,0.245381,-0.166964,-2.092225\C,0,-0.756743,0.81702,1.039103
 \H,0,-1.836342,0.711629,0.859599\H,0,-0.519805,1.869583,0.88587\H,0,-0
 .476182,0.529465,2.057884\C,0,0.051921,-1.48102,0.449159\H,0,-0.960852
 ,-1.846771,0.631155\H,0,0.527978,-2.1005,-0.317351\H,0,0.624378,-1.578

 Normal termination of Gaussian 16 at Wed Apr  9 02:52:29 2025.
