 Gaussian 16, Revision C.01,

 ----------------------------------------------------------------------
 #t hf aug-cc-pvdz symm=none int=(grid=ultrafine) guess=(read,tcheck) s
 table=(opt,rrhf)
 ----------------------------------------------------------------------
 -----
 title
 -----
 Symbolic Z-matrix:
 Charge = -1 Multiplicity = 1

 SCF Done:  E(RHF) =  -1295.32603031     A.U. after   15 cycles
 Normal termination of Gaussian 16 at Wed Apr  9 02:58:42 2025.
 Gaussian 16:  ES64L-G16RevC.01  3-Jul-2019

 ----------------------------------------------------------------------
 #t hf aug-cc-pvdz iop(5/13=1,5/36=2,99/5=2) pseudo=read geom=check gue
 ss=(read,tcheck) scf=(maxcycle=1)
 ----------------------------------------------------------------------
 -----
 title
 -----
 Structure from the checkpoint file:  "E2SN2_56_mol2.chk"
 Charge = -1 Multiplicity = 1

                         Standard orientation:
 ---------------------------------------------------------------------
 Center     Atomic      Atomic             Coordinates (Angstroms)
 Number     Number       Type             X           Y           Z
 ---------------------------------------------------------------------
      1          6           0       -0.225237    0.338908    0.094803
      2          6           0       -0.019388   -0.707013   -1.028867
      3         17           0       -0.764432    1.897315   -0.543111
      4          1           0        0.565862   -0.158986   -1.775101
      5          1           0        0.724067    0.488690    0.616164
      6          7           0       -1.231190   -0.193333    1.072578
      7          8           0       -0.797378   -1.073531    1.819042
      8          8           0       -2.400563    0.177364    1.032845
      9          6           0       -1.341416   -1.160649   -1.631137
     10          1           0       -1.903104   -1.767605   -0.913872
     11          1           0       -1.130991   -1.784382   -2.501104
     12          1           0       -1.969426   -0.319319   -1.930173
     13          7           0        0.776886   -1.846711   -0.625370
     14          1           0        0.357305   -2.278822    0.190847
     15          1           0        1.689263   -1.488745   -0.337734
     16         17           0        3.114251    0.333940    0.313501
 ---------------------------------------------------------------------

 SCF Done:  E(RHF) =  -1295.47032772     A.U. after    2 cycles

 The electronic state is 1-A.
 Alpha  occ. eigenvalues -- -103.55999-103.37980 -20.52144 -20.51776 -15.81201
 Alpha  occ. eigenvalues --  -15.47953 -11.24328 -11.17624 -11.12817 -10.59344
 Alpha  occ. eigenvalues --  -10.41063  -8.25078  -8.24776  -8.24762  -8.06661
 Alpha  occ. eigenvalues --   -8.06638  -8.06623  -1.44308  -1.26029  -1.10039
 Alpha  occ. eigenvalues --   -1.04109  -0.93229  -0.87940  -0.83317  -0.76633
 Alpha  occ. eigenvalues --   -0.70833  -0.64570  -0.63629  -0.61792  -0.54769
 Alpha  occ. eigenvalues --   -0.53056  -0.49660  -0.47548  -0.42935  -0.42543
 Alpha  occ. eigenvalues --   -0.41782  -0.40521  -0.38204  -0.38074  -0.36186
 Alpha  occ. eigenvalues --   -0.35324  -0.27675  -0.21296  -0.21168  -0.21025
 Alpha virt. eigenvalues --    0.11781   0.13613   0.13912   0.15816   0.16526
 Alpha virt. eigenvalues --    0.16872   0.17737   0.19099   0.19341   0.21360
 Alpha virt. eigenvalues --    0.23034   0.24195   0.24497   0.25207   0.25896

 Mulliken charges:
               1
     1  C    0.887007
     2  C   -0.081143
     3  Cl  -0.153247
     4  H   -0.159804
     5  H   -0.117217
     6  N    0.487196
     7  O   -0.645083
     8  O   -0.626623
     9  C    0.712370
    10  H   -0.047027
    11  H   -0.041111
    12  H   -0.044742
    13  N   -0.354252
    14  H    0.069026
    15  H    0.056965
    16  Cl  -0.942314
 Sum of Mulliken charges =  -1.00000

 Dipole moment (field-independent basis, Debye):
    X=             -8.8523    Y=             -0.5343    Z=             -2.4106  Tot=              9.1903

 Test job not archived.
 1\1\GINC-SE340\SP\RHF\Aug-CC-pVDZ\C3H7Cl2N2O2(1-)\OHZDE\09-Apr-2025\0\
 \#t hf aug-cc-pvdz iop(5/13=1,5/36=2,99/5=2) pseudo=read geom=check gu
 ess=(read,tcheck) scf=(maxcycle=1)\\title\\-1,1\C,0,-0.142579,-0.27309
 5,-1.360126\C,0,0.040435,-0.230494,0.177291\Cl,0,0.362915,-1.823508,-2
 .043495\H,0,1.056065,-0.615735,0.318006\H,0,0.464326,0.517223,-1.81011
 8\N,0,-1.584712,-0.013582,-1.682884\O,0,-1.927794,1.164621,-1.563376\O
 ,0,-2.344508,-0.940762,-1.946466\C,0,-0.9619,-1.124425,0.89317\H,0,-1.
 971964,-0.709601,0.81539\H,0,-0.699237,-1.163,1.951322\H,0,-0.977589,-

 Normal termination of Gaussian 16 at Wed Apr  9 02:58:49 2025.
