 Gaussian 16, Revision C.01,

 ----------------------------------------------------------------------
 #t hf aug-cc-pvdz symm=none int=(grid=ultrafine) guess=(read,tcheck) s
 table=(opt,rrhf)
 ----------------------------------------------------------------------
 -----
 title
 -----
 Symbolic Z-matrix:
 Charge = -1 Multiplicity = 1

 SCF Done:  E(RHF) =  -971.971652775     A.U. after   16 cycles
 Normal termination of Gaussian 16 at Wed Apr  9 02:45:03 2025.
 Gaussian 16:  ES64L-G16RevC.01  3-Jul-2019

 ----------------------------------------------------------------------
 #t hf aug-cc-pvdz iop(5/13=1,5/36=2,99/5=2) pseudo=read geom=check gue
 ss=(read,tcheck) scf=(maxcycle=1)
 ----------------------------------------------------------------------
 -----
 title
 -----
 Structure from the checkpoint file:  "E2SN2_256_mol2.chk"
 Charge = -1 Multiplicity = 1

                         Standard orientation:
 ---------------------------------------------------------------------
 Center     Atomic      Atomic             Coordinates (Angstroms)
 Number     Number       Type             X           Y           Z
 ---------------------------------------------------------------------
      1          6           0       -0.132103    0.632534    0.621833
      2          6           0        0.148210   -0.628111   -0.186651
      3          9           0        0.357638    0.519398    1.917754
      4          1           0       -0.388221   -0.522263   -1.129766
      5          1           0       -1.225140    0.728335    0.643464
      6          6           0        0.469185    1.828970    0.015678
      7          7           0        0.953191    2.792778   -0.447761
      8          6           0       -0.280639   -1.877589    0.553202
      9          1           0       -1.359920   -1.811741    0.695581
     10          1           0       -0.059288   -2.761151   -0.049924
     11          1           0        0.235885   -1.955136    1.508201
     12          7           0        1.606114   -0.694915   -0.528652
     13          8           0        2.388271   -1.008011    0.368808
     14          8           0        1.932321   -0.414190   -1.682948
     15         17           0       -3.184109   -0.082052   -0.447277
 ---------------------------------------------------------------------

 SCF Done:  E(RHF) =  -972.142709382     A.U. after    2 cycles

 The electronic state is 1-A.
 Alpha  occ. eigenvalues -- -103.38954 -26.03309 -20.52482 -20.52273 -15.81253
 Alpha  occ. eigenvalues --  -15.55970 -11.27507 -11.22082 -11.20354 -11.14128
 Alpha  occ. eigenvalues --  -10.42034  -8.07632  -8.07604  -8.07599  -1.56675
 Alpha  occ. eigenvalues --   -1.44457  -1.26235  -1.09659  -1.04160  -0.91036
 Alpha  occ. eigenvalues --   -0.85618  -0.84106  -0.73647  -0.70406  -0.68462
 Alpha  occ. eigenvalues --   -0.67185  -0.64191  -0.62353  -0.60993  -0.53490
 Alpha  occ. eigenvalues --   -0.51172  -0.47444  -0.47025  -0.44731  -0.43428
 Alpha  occ. eigenvalues --   -0.41483  -0.40076  -0.38012  -0.37281  -0.36090
 Alpha  occ. eigenvalues --   -0.22446  -0.22125  -0.22071
 Alpha virt. eigenvalues --    0.12260   0.13836   0.16037   0.16350   0.16696
 Alpha virt. eigenvalues --    0.17240   0.18678   0.20929   0.21761   0.21921
 Alpha virt. eigenvalues --    0.22693   0.23639   0.23999   0.24356   0.25936

 Mulliken charges:
               1
     1  C    1.431409
     2  C    0.010582
     3  F   -0.456160
     4  H   -0.198072
     5  H   -0.086882
     6  C   -0.427806
     7  N   -0.206430
     8  C    0.628229
     9  H    0.064044
    10  H   -0.035142
    11  H    0.107691
    12  N    0.292038
    13  O   -0.605049
    14  O   -0.583861
    15  Cl  -0.934590
 Sum of Mulliken charges =  -1.00000

 Dipole moment (field-independent basis, Debye):
    X=              6.0411    Y=             -2.7575    Z=              2.2509  Tot=              7.0118

 Test job not archived.
 1\1\GINC-SE102\SP\RHF\Aug-CC-pVDZ\C4H5Cl1F1N2O2(1-)\OHZDE\09-Apr-2025\
 0\\#t hf aug-cc-pvdz iop(5/13=1,5/36=2,99/5=2) pseudo=read geom=check
 guess=(read,tcheck) scf=(maxcycle=1)\\title\\-1,1\C,0,-0.139069,0.0162
 48,0.045966\C,0,-0.505919,0.364212,-1.39132\F,0,1.046164,-0.707696,0.1
 02404\H,0,-1.506907,0.795181,-1.364544\H,0,-0.968935,-0.597676,0.41851
 8\C,0,0.022801,1.211973,0.885292\N,0,0.16848,2.156417,1.567031\C,0,-0.
 453345,-0.849697,-2.294731\H,0,-1.198751,-1.555864,-1.927101\H,0,-0.71
 3971,-0.564224,-3.316503\H,0,0.541375,-1.291635,-2.287173\N,0,0.408611

 Normal termination of Gaussian 16 at Wed Apr  9 02:45:11 2025.
