 Gaussian 16, Revision C.01,

 ----------------------------------------------------------------------
 #t hf aug-cc-pvdz symm=none int=(grid=ultrafine) guess=(read,tcheck) s
 table=(opt,rrhf)
 ----------------------------------------------------------------------
 -----
 title
 -----
 Symbolic Z-matrix:
 Charge = -1 Multiplicity = 1

 SCF Done:  E(RHF) =  -974.322165914     A.U. after   15 cycles
 Normal termination of Gaussian 16 at Wed Apr  9 02:53:30 2025.
 Gaussian 16:  ES64L-G16RevC.01  3-Jul-2019

 ----------------------------------------------------------------------
 #t hf aug-cc-pvdz iop(5/13=1,5/36=2,99/5=2) pseudo=read geom=check gue
 ss=(read,tcheck) scf=(maxcycle=1)
 ----------------------------------------------------------------------
 -----
 title
 -----
 Structure from the checkpoint file:  "E2SN2_350_mol2.chk"
 Charge = -1 Multiplicity = 1

                         Standard orientation:
 ---------------------------------------------------------------------
 Center     Atomic      Atomic             Coordinates (Angstroms)
 Number     Number       Type             X           Y           Z
 ---------------------------------------------------------------------
      1          6           0       -0.490029    1.093031   -0.063417
      2          6           0       -0.756741   -0.127220    0.835665
      3          9           0       -1.729545    1.751349   -0.209547
      4          1           0       -1.507589    0.164049    1.577283
      5          6           0        0.453085    2.051561    0.634474
      6          1           0        1.460402    1.634789    0.664622
      7          1           0        0.113061    2.254425    1.652659
      8          1           0        0.465071    2.987795    0.069700
      9          6           0       -0.001869    0.725502   -1.447420
     10          1           0        0.932319    0.162599   -1.386446
     11          1           0       -0.758024    0.147985   -1.982608
     12          1           0        0.186045    1.645629   -2.006121
     13          7           0        0.414511   -0.631130    1.423636
     14          1           0        0.270285   -1.525013    1.870147
     15          1           0        1.229307   -0.684655    0.805313
     16          7           0       -1.543850   -1.161504   -0.006771
     17          8           0       -0.931589   -2.122475   -0.464621
     18          8           0       -2.744622   -0.943033   -0.169682
     19         17           0        3.250789   -0.466735   -0.234004
 ---------------------------------------------------------------------

 SCF Done:  E(RHF) =  -974.494677451     A.U. after    2 cycles

 The electronic state is 1-A.
 Alpha  occ. eigenvalues -- -103.37726 -25.99385 -20.50764 -20.50459 -15.78854
 Alpha  occ. eigenvalues --  -15.50027 -11.23131 -11.23056 -11.11973 -11.11205
 Alpha  occ. eigenvalues --  -10.40807  -8.06410  -8.06379  -8.06372  -1.52634
 Alpha  occ. eigenvalues --   -1.42525  -1.24480  -1.08996  -0.96387  -0.89249
 Alpha  occ. eigenvalues --   -0.83877  -0.82972  -0.76105  -0.70457  -0.65743
 Alpha  occ. eigenvalues --   -0.64075  -0.62542  -0.61005  -0.60341  -0.57948
 Alpha  occ. eigenvalues --   -0.52758  -0.49978  -0.48000  -0.45362  -0.44515
 Alpha  occ. eigenvalues --   -0.42988  -0.41342  -0.40088  -0.38229  -0.37174
 Alpha  occ. eigenvalues --   -0.36009  -0.29670  -0.21238  -0.20877  -0.20796
 Alpha virt. eigenvalues --    0.11865   0.12553   0.13482   0.14325   0.15174
 Alpha virt. eigenvalues --    0.16097   0.17661   0.18588   0.19464   0.20024
 Alpha virt. eigenvalues --    0.21480   0.22038   0.22957   0.24222   0.24527

 Mulliken charges:
               1
     1  C   -1.235825
     2  C    1.442605
     3  F   -0.511010
     4  H   -0.178114
     5  C    0.581605
     6  H    0.088897
     7  H    0.017181
     8  H    0.004473
     9  C    0.786970
    10  H   -0.014110
    11  H    0.042955
    12  H    0.004509
    13  N   -0.153074
    14  H   -0.032381
    15  H    0.012989
    16  N    0.313061
    17  O   -0.579110
    18  O   -0.652929
    19  Cl  -0.938693
 Sum of Mulliken charges =  -1.00000

 Dipole moment (field-independent basis, Debye):
    X=             -7.7474    Y=              2.8172    Z=              2.4313  Tot=              8.5948

 Test job not archived.
 1\1\GINC-SE112\SP\RHF\Aug-CC-pVDZ\C4H9Cl1F1N2O2(1-)\OHZDE\09-Apr-2025\
 0\\#t hf aug-cc-pvdz iop(5/13=1,5/36=2,99/5=2) pseudo=read geom=check
 guess=(read,tcheck) scf=(maxcycle=1)\\title\\-1,1\C,0,-0.022974,-0.007
 697,-0.016125\C,0,-0.335169,-0.273985,-1.499406\F,0,1.382084,-0.057146
 ,0.104296\H,0,0.454134,0.196167,-2.09486\C,0,-0.461377,1.392935,0.3598
 13\H,0,-1.549742,1.449928,0.398644\H,0,-0.084775,2.121676,-0.361698\H,
 0,-0.051007,1.623879,1.346681\C,0,-0.59852,-1.05061,0.916571\H,0,-1.68
 5925,-1.091031,0.820635\H,0,-0.163566,-2.031255,0.714404\H,0,-0.353353

 Normal termination of Gaussian 16 at Wed Apr  9 02:53:41 2025.
