 Gaussian 16, Revision C.01,

 ----------------------------------------------------------------------
 #t hf aug-cc-pvdz symm=none int=(grid=ultrafine) guess=(read,tcheck) s
 table=(opt,rrhf)
 ----------------------------------------------------------------------
 -----
 title
 -----
 Symbolic Z-matrix:
 Charge = -1 Multiplicity = 1

 SCF Done:  E(RHF) =  -740.479444102     A.U. after   17 cycles
 Normal termination of Gaussian 16 at Wed Apr  9 02:36:46 2025.
 Gaussian 16:  ES64L-G16RevC.01  3-Jul-2019

 ----------------------------------------------------------------------
 #t hf aug-cc-pvdz iop(5/13=1,5/36=2,99/5=2) pseudo=read geom=check gue
 ss=(read,tcheck) scf=(maxcycle=1)
 ----------------------------------------------------------------------
 -----
 title
 -----
 Structure from the checkpoint file:  "E2SN2_182_mol1.chk"
 Charge = -1 Multiplicity = 1

                         Standard orientation:
 ---------------------------------------------------------------------
 Center     Atomic      Atomic             Coordinates (Angstroms)
 Number     Number       Type             X           Y           Z
 ---------------------------------------------------------------------
      1          6           0       -0.336203   -0.069548   -0.747960
      2          1           0        0.602621   -1.988648   -0.600591
      3         17           0        0.162867    1.771948    0.195100
      4          1           0       -1.314061   -1.370332   -1.482908
      5          6           0        0.761019   -0.994861   -0.181263
      6          1           0       -0.198590    0.264216   -1.771378
      7          6           0       -1.697132   -0.495647   -0.432539
      8          7           0       -2.700294   -0.484958    0.223653
      9          7           0        0.692131   -1.149240    1.272749
     10          1           0       -0.207779   -1.566545    1.497669
     11          1           0        0.662986   -0.213398    1.667277
     12          7           0        2.066085   -0.543284   -0.637276
     13          1           0        2.749794   -1.073879   -0.107795
     14          1           0        2.164725    0.428180   -0.362277
 ---------------------------------------------------------------------

 SCF Done:  E(RHF) =  -740.575289966     A.U. after    2 cycles

 The electronic state is 1-A.
 Alpha  occ. eigenvalues -- -103.45594 -15.48550 -15.47819 -15.41148 -11.19209
 Alpha  occ. eigenvalues --  -11.17936 -11.12174 -10.48842  -8.14493  -8.14343
 Alpha  occ. eigenvalues --   -8.14327  -1.08191  -0.98113  -0.96823  -0.92889
 Alpha  occ. eigenvalues --   -0.85056  -0.70304  -0.59071  -0.53639  -0.52500
 Alpha  occ. eigenvalues --   -0.47638  -0.46289  -0.42825  -0.37910  -0.33805
 Alpha  occ. eigenvalues --   -0.29926  -0.28853  -0.28538  -0.27496  -0.26963
 Alpha  occ. eigenvalues --   -0.24960  -0.12107
 Alpha virt. eigenvalues --    0.12524   0.14119   0.14642   0.15427   0.17262
 Alpha virt. eigenvalues --    0.17740   0.18073   0.21053   0.22403   0.22950
 Alpha virt. eigenvalues --    0.24818   0.25614   0.26191   0.26478   0.27406

 Mulliken charges:
               1
     1  C    0.681044
     2  H   -0.232092
     3  Cl  -0.585850
     4  H    0.040441
     5  C    0.909046
     6  H   -0.211724
     7  C   -0.459226
     8  N   -0.517088
     9  N   -0.447893
    10  H    0.035657
    11  H    0.083675
    12  N   -0.335403
    13  H   -0.025708
    14  H    0.065122
 Sum of Mulliken charges =  -1.00000

 Dipole moment (field-independent basis, Debye):
    X=              6.1358    Y=             -0.9921    Z=             -0.1756  Tot=              6.2180

 Test job not archived.
 1\1\GINC-SE402\SP\RHF\Aug-CC-pVDZ\C3H7Cl1N3(1-)\OHZDE\09-Apr-2025\0\\#
 t hf aug-cc-pvdz iop(5/13=1,5/36=2,99/5=2) pseudo=read geom=check gues
 s=(read,tcheck) scf=(maxcycle=1)\\title\\-1,1\C,0,0.51565304,0.0461900
 1,0.02454374\H,0,1.74442804,1.7903905,-0.15965486\Cl,0,-1.59914486,-0.
 1240669,0.19243072\H,0,2.25231835,-0.31238788,0.23384264\C,0,0.6788443
 9,1.57767475,-0.07121255\H,0,0.61951106,-0.50473712,-0.90465601\C,0,1.
 20602208,-0.557157,1.16144378\N,0,1.26357782,-0.97549729,2.28336792\N,
 0,0.21936441,2.28344656,1.12607445\H,0,0.78283231,1.96303936,1.9099201

 Normal termination of Gaussian 16 at Wed Apr  9 02:36:51 2025.
