 Gaussian 16, Revision C.01,

 ----------------------------------------------------------------------
 #t hf aug-cc-pvdz symm=none int=(grid=ultrafine) guess=(read,tcheck) s
 table=(opt,rrhf)
 ----------------------------------------------------------------------
 -----
 title
 -----
 Symbolic Z-matrix:
 Charge = -1 Multiplicity = 1

 SCF Done:  E(RHF) =  -935.213128319     A.U. after   16 cycles
 Normal termination of Gaussian 16 at Wed Apr  9 02:33:20 2025.
 Gaussian 16:  ES64L-G16RevC.01  3-Jul-2019

 ----------------------------------------------------------------------
 #t hf aug-cc-pvdz iop(5/13=1,5/36=2,99/5=2) pseudo=read geom=check gue
 ss=(read,tcheck) scf=(maxcycle=1)
 ----------------------------------------------------------------------
 -----
 title
 -----
 Structure from the checkpoint file:  "E2SN2_134_mol2.chk"
 Charge = -1 Multiplicity = 1

                         Standard orientation:
 ---------------------------------------------------------------------
 Center     Atomic      Atomic             Coordinates (Angstroms)
 Number     Number       Type             X           Y           Z
 ---------------------------------------------------------------------
      1          6           0       -0.083128    0.206884   -0.179722
      2          6           0       -0.486055   -0.188727    1.239132
      3         17           0       -0.235938   -1.214639   -1.260872
      4          1           0       -1.562930   -0.359917    1.145520
      5          1           0       -0.382379    0.730206    1.827946
      6          7           0       -0.801922    1.284068   -0.743613
      7          1           0       -0.567935    2.100314   -0.185691
      8          1           0       -1.833671    1.039769   -0.485983
      9          7           0        1.419043    0.582282   -0.114734
     10          8           0        1.644339    1.683800    0.387465
     11          8           0        2.287162   -0.211989   -0.458438
     12          6           0        0.300137   -1.324275    1.877340
     13          1           0        1.366299   -1.092422    1.965196
     14          1           0       -0.080936   -1.517895    2.884421
     15          1           0        0.205281   -2.244626    1.299043
     16          9           0       -3.032261    0.554579    0.215565
 ---------------------------------------------------------------------

 SCF Done:  E(RHF) =  -935.375533853     A.U. after    2 cycles

 The electronic state is 1-A.
 Alpha  occ. eigenvalues -- -103.52536 -25.76251 -20.50389 -20.49886 -15.78728
 Alpha  occ. eigenvalues --  -15.45472 -11.26439 -11.11549 -11.11002 -10.55940
 Alpha  occ. eigenvalues --   -8.21662  -8.21365  -8.21360  -1.42330  -1.25527
 Alpha  occ. eigenvalues --   -1.24135  -1.09739  -0.98371  -0.91767  -0.85574
 Alpha  occ. eigenvalues --   -0.75495  -0.68738  -0.62003  -0.60525  -0.59885
 Alpha  occ. eigenvalues --   -0.51329  -0.49668  -0.47949  -0.45762  -0.42591
 Alpha  occ. eigenvalues --   -0.41003  -0.40349  -0.38132  -0.37792  -0.35698
 Alpha  occ. eigenvalues --   -0.35295  -0.33461  -0.33194  -0.32592  -0.32385
 Alpha  occ. eigenvalues --   -0.25261
 Alpha virt. eigenvalues --    0.12285   0.14289   0.14792   0.15448   0.16714
 Alpha virt. eigenvalues --    0.18691   0.19351   0.19731   0.20396   0.22617
 Alpha virt. eigenvalues --    0.23224   0.24062   0.24978   0.25737   0.26653

 Mulliken charges:
               1
     1  C    0.983046
     2  C    0.228064
     3  Cl  -0.205310
     4  H   -0.062178
     5  H   -0.060788
     6  N   -0.697378
     7  H    0.033394
     8  H    0.276141
     9  N    0.323549
    10  O   -0.637626
    11  O   -0.623485
    12  C    0.539986
    13  H   -0.068430
    14  H   -0.061778
    15  H   -0.061913
    16  F   -0.905293
 Sum of Mulliken charges =  -1.00000

 Dipole moment (field-independent basis, Debye):
    X=              5.8256    Y=             -2.0745    Z=              1.8932  Tot=              6.4673

 Test job not archived.
 1\1\GINC-SE273\SP\RHF\Aug-CC-pVDZ\C3H7Cl1F1N2O2(1-)\OHZDE\09-Apr-2025\
 0\\#t hf aug-cc-pvdz iop(5/13=1,5/36=2,99/5=2) pseudo=read geom=check
 guess=(read,tcheck) scf=(maxcycle=1)\\title\\-1,1\C,0,0.034153,-0.0434
 06,-1.493319\C,0,0.108629,0.059756,0.028461\Cl,0,0.220295,1.588508,-2.
 211075\H,0,1.15537,0.328388,0.201374\H,0,0.004558,-0.971337,0.3861\N,0
 ,0.970464,-0.912564,-2.095687\H,0,0.733101,-1.84686,-1.774698\H,0,1.89
 7444,-0.65351,-1.581721\N,0,-1.39719,-0.536552,-1.824572\O,0,-1.581476
 ,-1.735377,-1.612062\O,0,-2.271954,0.245793,-2.178626\C,0,-0.914496,0.

 Normal termination of Gaussian 16 at Wed Apr  9 02:33:28 2025.
