 Gaussian 16, Revision C.01,

 ----------------------------------------------------------------------
 #t hf aug-cc-pvdz symm=none int=(grid=ultrafine) guess=(read,tcheck) s
 table=(opt,rrhf)
 ----------------------------------------------------------------------
 -----
 title
 -----
 Symbolic Z-matrix:
 Charge = -1 Multiplicity = 1

 SCF Done:  E(RHF) =  -1042.96807032     A.U. after   16 cycles
 Normal termination of Gaussian 16 at Wed Apr  9 02:58:04 2025.
 Gaussian 16:  ES64L-G16RevC.01  3-Jul-2019

 ----------------------------------------------------------------------
 #t hf aug-cc-pvdz iop(5/13=1,5/36=2,99/5=2) pseudo=read geom=check gue
 ss=(read,tcheck) scf=(maxcycle=1)
 ----------------------------------------------------------------------
 -----
 title
 -----
 Structure from the checkpoint file:  "E2SN2_415_mol2.chk"
 Charge = -1 Multiplicity = 1

                         Standard orientation:
 ---------------------------------------------------------------------
 Center     Atomic      Atomic             Coordinates (Angstroms)
 Number     Number       Type             X           Y           Z
 ---------------------------------------------------------------------
      1          6           0       -0.826405    0.454038   -0.167402
      2          6           0        0.266609   -0.498454    0.408644
      3         17           0       -0.000138    1.968026   -0.743540
      4          1           0       -0.364346   -1.399951    0.630199
      5          7           0       -1.581579   -0.094432   -1.251962
      6          1           0       -1.971851   -0.948631   -0.819737
      7          1           0       -0.966380   -0.372763   -2.007616
      8          7           0       -1.658616    0.743816    0.963628
      9          1           0       -2.427662    1.304230    0.607459
     10          1           0       -2.034408   -0.196042    1.185185
     11          6           0        0.914341    0.028730    1.597237
     12          7           0        1.443674    0.400530    2.577728
     13          7           0        1.301793   -0.849588   -0.608053
     14          8           0        0.919527   -1.505072   -1.577963
     15          8           0        2.459322   -0.471045   -0.436648
     16          9           0       -1.991996   -1.926946    0.706814
 ---------------------------------------------------------------------

 SCF Done:  E(RHF) =  -1043.15619115     A.U. after    2 cycles

 The electronic state is 1-A.
 Alpha  occ. eigenvalues -- -103.53670 -25.80222 -20.52087 -20.51646 -15.81534
 Alpha  occ. eigenvalues --  -15.53505 -15.49049 -15.48832 -11.27264 -11.22268
 Alpha  occ. eigenvalues --  -11.18821 -10.57078  -8.22788  -8.22520  -8.22508
 Alpha  occ. eigenvalues --   -1.44282  -1.29559  -1.25931  -1.14329  -1.07207
 Alpha  occ. eigenvalues --   -1.00843  -0.98929  -0.98859  -0.79327  -0.71043
 Alpha  occ. eigenvalues --   -0.67799  -0.64756  -0.62460  -0.60210  -0.55006
 Alpha  occ. eigenvalues --   -0.53946  -0.51476  -0.48286  -0.44477  -0.42543
 Alpha  occ. eigenvalues --   -0.41878  -0.41340  -0.39266  -0.38733  -0.37972
 Alpha  occ. eigenvalues --   -0.37299  -0.35866  -0.34699  -0.34148  -0.33243
 Alpha  occ. eigenvalues --   -0.30079  -0.28228
 Alpha virt. eigenvalues --    0.13409   0.14298   0.15604   0.16605   0.17771
 Alpha virt. eigenvalues --    0.18588   0.18836   0.19437   0.21510   0.22423
 Alpha virt. eigenvalues --    0.23971   0.24226   0.24504   0.25931   0.26792

 Mulliken charges:
               1
     1  C    0.316229
     2  C    2.062445
     3  Cl  -0.248406
     4  H   -0.043023
     5  N   -0.410488
     6  H    0.119443
     7  H    0.073095
     8  N   -0.466393
     9  H    0.005077
    10  H    0.147104
    11  C   -0.320023
    12  N   -0.264237
    13  N    0.184609
    14  O   -0.594428
    15  O   -0.590901
    16  F   -0.970102
 Sum of Mulliken charges =  -1.00000

 Dipole moment (field-independent basis, Debye):
    X=              0.9050    Y=              2.5927    Z=             -2.8525  Tot=              3.9596

 Test job not archived.
 1\1\GINC-SE247\SP\RHF\Aug-CC-pVDZ\C3H5Cl1F1N4O2(1-)\OHZDE\09-Apr-2025\
 0\\#t hf aug-cc-pvdz iop(5/13=1,5/36=2,99/5=2) pseudo=read geom=check
 guess=(read,tcheck) scf=(maxcycle=1)\\title\\-1,1\C,0,-0.012639,0.0022
 09,0.008005\C,0,-0.511098,0.12381,-1.465257\Cl,0,1.805501,0.028649,-0.
 013873\H,0,-1.617509,0.186966,-1.287061\N,0,-0.473472,1.039471,0.87926
 7\H,0,-1.498848,0.945526,0.786723\H,0,-0.203725,1.948675,0.522144\N,0,
 -0.484204,-1.286426,0.423723\H,0,-0.241154,-1.368271,1.406871\H,0,-1.5
 10424,-1.155217,0.366296\C,0,-0.147671,-1.017708,-2.286896\N,0,0.09675

 Normal termination of Gaussian 16 at Wed Apr  9 02:58:14 2025.
