 Gaussian 16, Revision C.01,

 ----------------------------------------------------------------------
 #t hf aug-cc-pvdz symm=none int=(grid=ultrafine) guess=(read,tcheck) s
 table=(opt,rrhf)
 ----------------------------------------------------------------------
 -----
 title
 -----
 Symbolic Z-matrix:
 Charge = -1 Multiplicity = 1

 SCF Done:  E(RHF) =  -555.069916871     A.U. after   15 cycles
 Normal termination of Gaussian 16 at Wed Apr  9 02:45:30 2025.
 Gaussian 16:  ES64L-G16RevC.01  3-Jul-2019

 ----------------------------------------------------------------------
 #t hf aug-cc-pvdz iop(5/13=1,5/36=2,99/5=2) pseudo=read geom=check gue
 ss=(read,tcheck) scf=(maxcycle=1)
 ----------------------------------------------------------------------
 -----
 title
 -----
 Structure from the checkpoint file:  "E2SN2_273_mol1.chk"
 Charge = -1 Multiplicity = 1

                         Standard orientation:
 ---------------------------------------------------------------------
 Center     Atomic      Atomic             Coordinates (Angstroms)
 Number     Number       Type             X           Y           Z
 ---------------------------------------------------------------------
      1          6           0       -0.285393    0.034280    0.025765
      2          1           0        0.984245   -0.467786    1.626166
      3          9           0        0.130827   -0.239321   -1.662300
      4          9           0       -0.885228    0.471149    1.700155
      5          6           0        1.101610   -0.363614    0.549426
      6          6           0       -1.340001   -0.961592   -0.029326
      7          7           0       -2.195738   -1.763023   -0.099582
      8          6           0       -0.608477    1.413021   -0.299677
      9          7           0       -0.826647    2.529726   -0.592065
     10          6           0        2.108833    0.743769    0.250125
     11          1           0        2.160876    0.909799   -0.827015
     12          1           0        1.827253    1.678190    0.742316
     13          1           0        3.097331    0.446804    0.617222
     14          7           0        1.454753   -1.674484    0.007746
     15          1           0        2.393727   -1.906011    0.311436
     16          1           0        1.440166   -1.588157   -1.001399
 ---------------------------------------------------------------------

 SCF Done:  E(RHF) =  -555.234478957     A.U. after    2 cycles

 The electronic state is 1-A.
 Alpha  occ. eigenvalues --  -25.88136 -25.84646 -15.50923 -15.50892 -15.48680
 Alpha  occ. eigenvalues --  -11.29325 -11.17541 -11.17215 -11.16483 -11.11484
 Alpha  occ. eigenvalues --   -1.38699  -1.34923  -1.06583  -1.04428  -1.04038
 Alpha  occ. eigenvalues --   -0.92982  -0.86020  -0.72567  -0.67748  -0.59795
 Alpha  occ. eigenvalues --   -0.54320  -0.50601  -0.49538  -0.46867  -0.45720
 Alpha  occ. eigenvalues --   -0.45613  -0.44588  -0.43832  -0.43369  -0.41537
 Alpha  occ. eigenvalues --   -0.41201  -0.38346  -0.37806  -0.32981  -0.32382
 Alpha  occ. eigenvalues --   -0.31943  -0.31697  -0.27264
 Alpha virt. eigenvalues --    0.11329   0.13322   0.14170   0.15685   0.16788
 Alpha virt. eigenvalues --    0.17206   0.18266   0.19991   0.21843   0.22290
 Alpha virt. eigenvalues --    0.22617   0.23404   0.24661   0.25173   0.25674

 Mulliken charges:
               1
     1  C    2.625800
     2  H   -0.067139
     3  F   -0.742947
     4  F   -0.775791
     5  C    0.004243
     6  C   -1.087289
     7  N   -0.188032
     8  C   -1.123423
     9  N   -0.225580
    10  C    0.843524
    11  H    0.087034
    12  H   -0.010740
    13  H   -0.102450
    14  N   -0.286544
    15  H   -0.042004
    16  H    0.091341
 Sum of Mulliken charges =  -1.00000

 Dipole moment (field-independent basis, Debye):
    X=              6.6000    Y=             -0.8631    Z=              0.3090  Tot=              6.6633

 Test job not archived.
 1\1\GINC-SE339\SP\RHF\Aug-CC-pVDZ\C5H6F2N3(1-)\OHZDE\09-Apr-2025\0\\#t
  hf aug-cc-pvdz iop(5/13=1,5/36=2,99/5=2) pseudo=read geom=check guess
 =(read,tcheck) scf=(maxcycle=1)\\title\\-1,1\C,0,0.60093498,-0.0095913
 4,-0.03042291\H,0,1.67496989,1.79155982,-0.19666366\F,0,-1.15126915,-0
 .10734534,-0.16415421\F,0,2.41261873,-0.1243453,0.21221253\C,0,0.62990
 088,1.52500639,-0.05252649\C,0,0.77844213,-0.74455356,-1.26950239\N,0,
 0.89893582,-1.35082422,-2.26821725\C,0,0.52557502,-0.75074705,1.217066
 4\N,0,0.42385571,-1.32060573,2.23933577\C,0,0.1424218,2.07457403,1.285

 Normal termination of Gaussian 16 at Wed Apr  9 02:45:38 2025.
