 Gaussian 16, Revision C.01,

 ----------------------------------------------------------------------
 #t hf aug-cc-pvdz symm=none int=(grid=ultrafine) guess=(read,tcheck) s
 table=(opt,rrhf)
 ----------------------------------------------------------------------
 -----
 title
 -----
 Symbolic Z-matrix:
 Charge = -1 Multiplicity = 1

 SCF Done:  E(RHF) =  -839.511055449     A.U. after   14 cycles
 Normal termination of Gaussian 16 at Wed Apr  9 02:36:58 2025.
 Gaussian 16:  ES64L-G16RevC.01  3-Jul-2019

 ----------------------------------------------------------------------
 #t hf aug-cc-pvdz iop(5/13=1,5/36=2,99/5=2) pseudo=read geom=check gue
 ss=(read,tcheck) scf=(maxcycle=1)
 ----------------------------------------------------------------------
 -----
 title
 -----
 Structure from the checkpoint file:  "E2SN2_181_mol2.chk"
 Charge = -1 Multiplicity = 1

                         Standard orientation:
 ---------------------------------------------------------------------
 Center     Atomic      Atomic             Coordinates (Angstroms)
 Number     Number       Type             X           Y           Z
 ---------------------------------------------------------------------
      1          6           0       -0.831090    0.053062   -0.526996
      2          6           0       -0.388906    0.994976    0.603337
      3          9           0       -1.479469    0.753980   -1.538585
      4          1           0       -1.279626    1.554412    0.918557
      5          1           0        0.051701   -0.446494   -0.938138
      6          6           0       -1.783291   -0.945710   -0.011024
      7          7           0       -2.568893   -1.707706    0.413634
      8          7           0        0.574639    1.918388    0.044143
      9          1           0        0.901357    2.495192    0.812200
     10          1           0        1.376102    1.361989   -0.255266
     11          7           0        0.136690    0.277288    1.757946
     12          1           0        0.945623   -0.260452    1.446002
     13          1           0       -0.552189   -0.361811    2.140019
     14         17           0        2.523231   -0.891671   -0.363416
 ---------------------------------------------------------------------

 SCF Done:  E(RHF) =  -839.640897866     A.U. after    2 cycles

 The electronic state is 1-A.
 Alpha  occ. eigenvalues -- -103.38636 -26.01187 -15.54864 -15.48766 -15.48369
 Alpha  occ. eigenvalues --  -11.24429 -11.19547 -11.19450 -10.41726  -8.07322
 Alpha  occ. eigenvalues --   -8.07297  -8.07294  -1.54419  -1.09867  -1.07862
 Alpha  occ. eigenvalues --   -0.97521  -0.91492  -0.84054  -0.74075  -0.67991
 Alpha  occ. eigenvalues --   -0.64984  -0.62380  -0.57373  -0.52945  -0.49787
 Alpha  occ. eigenvalues --   -0.49208  -0.46374  -0.43836  -0.40969  -0.36921
 Alpha  occ. eigenvalues --   -0.35656  -0.29341  -0.28170  -0.21873  -0.21803
 Alpha  occ. eigenvalues --   -0.21773
 Alpha virt. eigenvalues --    0.12543   0.14131   0.14553   0.15974   0.18331
 Alpha virt. eigenvalues --    0.18749   0.19269   0.20908   0.21861   0.23628
 Alpha virt. eigenvalues --    0.24174   0.24840   0.25617   0.26636   0.26675

 Mulliken charges:
               1
     1  C    1.253606
     2  C    0.694103
     3  F   -0.441411
     4  H   -0.174041
     5  H   -0.125027
     6  C   -0.434194
     7  N   -0.239383
     8  N   -0.329878
     9  H   -0.021066
    10  H    0.080856
    11  N   -0.384140
    12  H    0.083862
    13  H   -0.024443
    14  Cl  -0.938843
 Sum of Mulliken charges =  -1.00000

 Dipole moment (field-independent basis, Debye):
    X=             -5.4265    Y=              3.2545    Z=              1.9145  Tot=              6.6109

 Test job not archived.
 1\1\GINC-SE339\SP\RHF\Aug-CC-pVDZ\C3H6Cl1F1N3(1-)\OHZDE\09-Apr-2025\0\
 \#t hf aug-cc-pvdz iop(5/13=1,5/36=2,99/5=2) pseudo=read geom=check gu
 ess=(read,tcheck) scf=(maxcycle=1)\\title\\-1,1\C,0,-0.234065,-0.09501
 7,0.006196\C,0,-0.474297,0.602259,-1.341571\F,0,0.839451,0.476227,0.68
 1649\H,0,0.480864,0.58667,-1.882994\H,0,-1.13768,-0.006454,0.617385\C,
 0,0.093902,-1.515047,-0.209238\N,0,0.390185,-2.6337,-0.406659\N,0,-0.8
 34322,1.975104,-1.059639\H,0,-1.04684,2.407201,-1.952661\H,0,-1.712276
 ,1.948366,-0.539975\N,0,-1.475381,-0.077562,-2.15405\H,0,-2.3497,-0.08

 Normal termination of Gaussian 16 at Wed Apr  9 02:37:04 2025.
