 Gaussian 16, Revision C.01,

 ----------------------------------------------------------------------
 #t hf aug-cc-pvdz symm=none int=(grid=ultrafine) guess=(read,tcheck) s
 table=(opt,rrhf)
 ----------------------------------------------------------------------
 -----
 title
 -----
 Symbolic Z-matrix:
 Charge = -1 Multiplicity = 1

 SCF Done:  E(RHF) =  -932.874208351     A.U. after   16 cycles
 Normal termination of Gaussian 16 at Wed Apr  9 02:35:38 2025.
 Gaussian 16:  ES64L-G16RevC.01  3-Jul-2019

 ----------------------------------------------------------------------
 #t hf aug-cc-pvdz iop(5/13=1,5/36=2,99/5=2) pseudo=read geom=check gue
 ss=(read,tcheck) scf=(maxcycle=1)
 ----------------------------------------------------------------------
 -----
 title
 -----
 Structure from the checkpoint file:  "E2SN2_169_mol2.chk"
 Charge = -1 Multiplicity = 1

                         Standard orientation:
 ---------------------------------------------------------------------
 Center     Atomic      Atomic             Coordinates (Angstroms)
 Number     Number       Type             X           Y           Z
 ---------------------------------------------------------------------
      1          6           0       -0.047442    0.153580   -0.280687
      2          6           0        0.866167   -0.691500    0.564988
      3         17           0        0.303849    1.921224   -0.194130
      4          1           0        0.420029   -1.708010    0.254808
      5          1           0       -0.039251   -0.155437   -1.317536
      6          1           0        0.722217   -0.473686    1.623601
      7          7           0       -1.476061    0.000032    0.167095
      8          8           0       -2.333367    0.192336   -0.683807
      9          8           0       -1.680621   -0.203744    1.358181
     10          6           0        2.254796   -0.541831    0.185677
     11          7           0        3.389920   -0.453418   -0.107786
     12          9           0       -0.666073   -2.286688   -0.654520
 ---------------------------------------------------------------------

 SCF Done:  E(RHF) =  -933.033937871     A.U. after    2 cycles

 The electronic state is 1-A.
 Alpha  occ. eigenvalues -- -103.56094 -25.77096 -20.49471 -20.49440 -15.79380
 Alpha  occ. eigenvalues --  -15.52336 -11.25663 -11.18083 -11.14360 -10.59421
 Alpha  occ. eigenvalues --   -8.25144  -8.24853  -8.24838  -1.42173  -1.26396
 Alpha  occ. eigenvalues --   -1.24004  -1.09187  -1.06142  -0.95534  -0.86652
 Alpha  occ. eigenvalues --   -0.71303  -0.64286  -0.61983  -0.60535  -0.57036
 Alpha  occ. eigenvalues --   -0.53322  -0.48156  -0.44266  -0.43162  -0.40490
 Alpha  occ. eigenvalues --   -0.39226  -0.37324  -0.36788  -0.36105  -0.35796
 Alpha  occ. eigenvalues --   -0.35291  -0.34399  -0.33312  -0.29372
 Alpha virt. eigenvalues --    0.13796   0.15165   0.16966   0.17810   0.18636
 Alpha virt. eigenvalues --    0.19514   0.22291   0.22952   0.24191   0.24527
 Alpha virt. eigenvalues --    0.25642   0.26444   0.26742   0.27445   0.27607

 Mulliken charges:
               1
     1  C    0.547371
     2  C    0.342874
     3  Cl  -0.247559
     4  H    0.357494
     5  H   -0.126029
     6  H    0.058208
     7  N    0.732723
     8  O   -0.673993
     9  O   -0.679740
    10  C   -0.085793
    11  N   -0.295158
    12  F   -0.930398
 Sum of Mulliken charges =  -1.00000

 Dipole moment (field-independent basis, Debye):
    X=              0.9994    Y=              5.7584    Z=              1.8236  Tot=              6.1224

 Test job not archived.
 1\1\GINC-SE322\SP\RHF\Aug-CC-pVDZ\C3H3Cl1F1N2O2(1-)\OHZDE\09-Apr-2025\
 0\\#t hf aug-cc-pvdz iop(5/13=1,5/36=2,99/5=2) pseudo=read geom=check
 guess=(read,tcheck) scf=(maxcycle=1)\\title\\-1,1\C,0,-0.019643,0.0059
 06,-0.009747\C,0,-0.523881,-0.004577,-1.427366\Cl,0,1.778145,0.076621,
 0.125976\H,0,-1.6455,-0.004678,-1.161822\H,0,-0.447101,0.816566,0.5653
 39\H,0,-0.212346,-0.914867,-1.940341\N,0,-0.433032,-1.250315,0.708624\
 O,0,-0.547465,-1.166106,1.92345\O,0,-0.525754,-2.279097,0.04903\C,0,-0
 .114605,1.173861,-2.161085\N,0,0.189264,2.126259,-2.779993\F,0,-2.5636

 Normal termination of Gaussian 16 at Wed Apr  9 02:35:46 2025.
