 Gaussian 16, Revision C.01,

 ----------------------------------------------------------------------
 #t hf aug-cc-pvdz symm=none int=(grid=ultrafine) guess=(read,tcheck) s
 table=(opt,rrhf)
 ----------------------------------------------------------------------
 -----
 title
 -----
 Symbolic Z-matrix:
 Charge = -1 Multiplicity = 1

 SCF Done:  E(RHF) =  -611.858487528     A.U. after   16 cycles
 Normal termination of Gaussian 16 at Wed Apr  9 02:44:36 2025.
 Gaussian 16:  ES64L-G16RevC.01  3-Jul-2019

 ----------------------------------------------------------------------
 #t hf aug-cc-pvdz iop(5/13=1,5/36=2,99/5=2) pseudo=read geom=check gue
 ss=(read,tcheck) scf=(maxcycle=1)
 ----------------------------------------------------------------------
 -----
 title
 -----
 Structure from the checkpoint file:  "E2SN2_255_mol2.chk"
 Charge = -1 Multiplicity = 1

                         Standard orientation:
 ---------------------------------------------------------------------
 Center     Atomic      Atomic             Coordinates (Angstroms)
 Number     Number       Type             X           Y           Z
 ---------------------------------------------------------------------
      1          6           0       -0.734596    0.508471    0.337268
      2          6           0       -0.022701   -0.622228   -0.389075
      3          9           0       -0.620308    0.361876    1.723824
      4          1           0       -0.244691   -0.481451   -1.445673
      5          1           0       -1.806007    0.335954   -0.021377
      6          6           0       -0.209979    1.826916   -0.020927
      7          7           0        0.171061    2.901520   -0.306057
      8          6           0       -0.523959   -1.968562    0.087194
      9          1           0       -1.597551   -1.924968   -0.123346
     10          1           0       -0.046981   -2.777133   -0.473538
     11          1           0       -0.325543   -2.099255    1.149994
     12          7           0        1.463804   -0.502391   -0.252833
     13          8           0        1.974899   -0.846405    0.813105
     14          8           0        2.089419   -0.041122   -1.211294
     15          9           0       -2.823071   -0.496812   -0.843278
 ---------------------------------------------------------------------

 SCF Done:  E(RHF) =  -612.046785302     A.U. after    2 cycles

 The electronic state is 1-A.
 Alpha  occ. eigenvalues --  -26.00256 -25.77216 -20.50761 -20.50676 -15.79494
 Alpha  occ. eigenvalues --  -15.53666 -11.23000 -11.19864 -11.18343 -11.11445
 Alpha  occ. eigenvalues --   -1.53335  -1.42701  -1.26265  -1.24441  -1.07447
 Alpha  occ. eigenvalues --   -1.01795  -0.87860  -0.83389  -0.71465  -0.67457
 Alpha  occ. eigenvalues --   -0.65780  -0.64274  -0.62303  -0.60129  -0.58514
 Alpha  occ. eigenvalues --   -0.51351  -0.48716  -0.45429  -0.45083  -0.42806
 Alpha  occ. eigenvalues --   -0.41095  -0.39794  -0.38643  -0.36897  -0.36265
 Alpha  occ. eigenvalues --   -0.36123  -0.35208  -0.34883  -0.30707
 Alpha virt. eigenvalues --    0.12733   0.14363   0.16082   0.16894   0.17314
 Alpha virt. eigenvalues --    0.18510   0.19612   0.21301   0.22268   0.23097
 Alpha virt. eigenvalues --    0.23271   0.24107   0.25154   0.25326   0.27217

 Mulliken charges:
               1
     1  C    1.174407
     2  C    0.178262
     3  F   -0.472344
     4  H   -0.193030
     5  H    0.066803
     6  C   -0.361279
     7  N   -0.237392
     8  C    0.570790
     9  H    0.107542
    10  H   -0.033328
    11  H    0.089605
    12  N    0.236656
    13  O   -0.602071
    14  O   -0.593720
    15  F   -0.930902
 Sum of Mulliken charges =  -1.00000

 Dipole moment (field-independent basis, Debye):
    X=              4.1386    Y=             -2.3483    Z=              1.3526  Tot=              4.9469

 Test job not archived.
 1\1\GINC-SE044\SP\RHF\Aug-CC-pVDZ\C4H5F2N2O2(1-)\OHZDE\09-Apr-2025\0\\
 #t hf aug-cc-pvdz iop(5/13=1,5/36=2,99/5=2) pseudo=read geom=check gue
 ss=(read,tcheck) scf=(maxcycle=1)\\title\\-1,1\C,0,-0.156833,0.027329,
 0.039471\C,0,-0.512323,0.295921,-1.414604\F,0,1.001619,-0.751084,0.135
 138\H,0,-1.467688,0.817803,-1.394279\H,0,-1.085572,-0.550433,0.371052\
 C,0,0.062495,1.256813,0.802417\N,0,0.220119,2.225229,1.449403\C,0,-0.6
 27632,-0.999201,-2.189246\H,0,-1.404372,-1.547571,-1.646299\H,0,-0.933
 47,-0.804642,-3.220908\H,0,0.320828,-1.534378,-2.187858\N,0,0.466535,1

 Normal termination of Gaussian 16 at Wed Apr  9 02:44:43 2025.
