 Gaussian 16, Revision C.01,

 ----------------------------------------------------------------------
 #t hf aug-cc-pvdz symm=none int=(grid=ultrafine) guess=(read,tcheck) s
 table=(opt,rrhf)
 ----------------------------------------------------------------------
 -----
 title
 -----
 Symbolic Z-matrix:
 Charge = -1 Multiplicity = 1

 SCF Done:  E(RHF) =  -473.856482985     A.U. after   17 cycles
 Normal termination of Gaussian 16 at Wed Apr  9 02:57:45 2025.
 Gaussian 16:  ES64L-G16RevC.01  3-Jul-2019

 ----------------------------------------------------------------------
 #t hf aug-cc-pvdz iop(5/13=1,5/36=2,99/5=2) pseudo=read geom=check gue
 ss=(read,tcheck) scf=(maxcycle=1)
 ----------------------------------------------------------------------
 -----
 title
 -----
 Structure from the checkpoint file:  "E2SN2_4_mol2.chk"
 Charge = -1 Multiplicity = 1

                         Standard orientation:
 ---------------------------------------------------------------------
 Center     Atomic      Atomic             Coordinates (Angstroms)
 Number     Number       Type             X           Y           Z
 ---------------------------------------------------------------------
      1          6           0        0.105519    0.305370    0.314376
      2          6           0       -0.885068   -0.788570    0.033612
      3          9           0       -0.071424    1.419099   -0.482278
      4          1           0       -0.721201   -1.445903    0.891207
      5          1           0        0.108240    0.571718    1.370073
      6          1           0       -0.660118   -1.294843   -0.905229
      7          7           0        1.516046   -0.149057    0.016665
      8          8           0        2.403305    0.529241    0.525230
      9          8           0        1.690493   -1.077833   -0.768137
     10          6           0       -2.243340   -0.269929    0.020387
     11          7           0       -3.350492    0.122013    0.017195
     12          1           0        0.143968   -1.506053    2.480424
 ---------------------------------------------------------------------

 SCF Done:  E(RHF) =  -474.006045389     A.U. after    2 cycles

 The electronic state is 1-A.
 Alpha  occ. eigenvalues --  -26.04137 -20.51787 -20.51605 -15.80737 -15.53542
 Alpha  occ. eigenvalues --  -11.29139 -11.19113 -11.16365  -1.57835  -1.43700
 Alpha  occ. eigenvalues --   -1.25760  -1.07842  -1.01196  -0.89309  -0.76491
 Alpha  occ. eigenvalues --   -0.69764  -0.69213  -0.66707  -0.63022  -0.59749
 Alpha  occ. eigenvalues --   -0.58376  -0.57156  -0.49317  -0.46576  -0.44280
 Alpha  occ. eigenvalues --   -0.41129  -0.40333  -0.36645  -0.34679  -0.34413
 Alpha  occ. eigenvalues --   -0.09956
 Alpha virt. eigenvalues --    0.13266   0.15477   0.17047   0.17821   0.19042
 Alpha virt. eigenvalues --    0.21103   0.21838   0.22058   0.22995   0.23798
 Alpha virt. eigenvalues --    0.24512   0.25990   0.26523   0.27198   0.27531

 Mulliken charges:
               1
     1  C    1.268391
     2  C    0.008743
     3  F   -0.394435
     4  H    0.082898
     5  H   -0.166942
     6  H    0.097743
     7  N    0.333706
     8  O   -0.562490
     9  O   -0.590867
    10  C   -0.045382
    11  N   -0.294371
    12  H   -0.736993
 Sum of Mulliken charges =  -1.00000

 Dipole moment (field-independent basis, Debye):
    X=              0.2376    Y=              3.8491    Z=             -7.8502  Tot=              8.7463

 Test job not archived.
 1\1\GINC-SE177\SP\RHF\Aug-CC-pVDZ\C3H4F1N2O2(1-)\OHZDE\09-Apr-2025\0\\
 #t hf aug-cc-pvdz iop(5/13=1,5/36=2,99/5=2) pseudo=read geom=check gue
 ss=(read,tcheck) scf=(maxcycle=1)\\title\\-1,1\C,0,-0.209902,0.117204,
 -1.383307\C,0,-0.097508,-0.046811,0.10574\F,0,-1.483457,0.448872,-1.80
 0933\H,0,0.987594,-0.074604,0.232976\H,0,0.525543,0.827729,-1.757095\H
 ,0,-0.561569,-0.97565,0.43777\N,0,0.093616,-1.17994,-2.097463\O,0,0.36
 1279,-1.071135,-3.290137\O,0,-0.036019,-2.239823,-1.490163\C,0,-0.6795
 4,1.090429,0.799995\N,0,-1.131768,2.003638,1.383908\H,0,2.525151,0.193

 Normal termination of Gaussian 16 at Wed Apr  9 02:57:51 2025.
