 Gaussian 16, Revision C.01,

 ----------------------------------------------------------------------
 #t hf aug-cc-pvdz symm=none int=(grid=ultrafine) guess=(read,tcheck) s
 table=(opt,rrhf)
 ----------------------------------------------------------------------
 -----
 title
 -----
 Symbolic Z-matrix:
 Charge = -1 Multiplicity = 1

 SCF Done:  E(RHF) =  -931.167154551     A.U. after   16 cycles
 Normal termination of Gaussian 16 at Wed Apr  9 02:57:49 2025.
 Gaussian 16:  ES64L-G16RevC.01  3-Jul-2019

 ----------------------------------------------------------------------
 #t hf aug-cc-pvdz iop(5/13=1,5/36=2,99/5=2) pseudo=read geom=check gue
 ss=(read,tcheck) scf=(maxcycle=1)
 ----------------------------------------------------------------------
 -----
 title
 -----
 Structure from the checkpoint file:  "E2SN2_416_mol1.chk"
 Charge = -1 Multiplicity = 1

                         Standard orientation:
 ---------------------------------------------------------------------
 Center     Atomic      Atomic             Coordinates (Angstroms)
 Number     Number       Type             X           Y           Z
 ---------------------------------------------------------------------
      1          6           0        0.518656   -0.006332    0.471449
      2          1           0       -0.037138    0.009564   -1.618041
      3          9           0       -1.071281   -0.016084    1.654175
      4         17           0        2.313446    0.005871   -0.903680
      5          6           0       -0.543520    0.005658   -0.648828
      6          7           0        0.849838   -1.288361    0.994772
      7          1           0        0.255752   -1.396183    1.809037
      8          1           0        1.832559   -1.330943    1.220414
      9          7           0        0.853181    1.263319    1.021469
     10          1           0        1.834783    1.295925    1.253634
     11          1           0        0.254855    1.357217    1.834443
     12          6           0       -1.382716    1.206848   -0.597887
     13          7           0       -2.057702    2.162798   -0.685740
     14          6           0       -1.393601   -1.188500   -0.613957
     15          7           0       -2.076856   -2.137281   -0.714666
 ---------------------------------------------------------------------

 SCF Done:  E(RHF) =  -931.316942400     A.U. after    2 cycles

 The electronic state is 1-A.
 Alpha  occ. eigenvalues -- -103.45030 -25.83201 -15.52464 -15.52437 -15.50440
 Alpha  occ. eigenvalues --  -15.50432 -11.31731 -11.21791 -11.18442 -11.18426
 Alpha  occ. eigenvalues --  -10.48384  -8.14017  -8.13900  -8.13878  -1.33764
 Alpha  occ. eigenvalues --   -1.11893  -1.07131  -1.05767  -1.01332  -0.95871
 Alpha  occ. eigenvalues --   -0.91526  -0.72396  -0.65374  -0.59920  -0.57329
 Alpha  occ. eigenvalues --   -0.55380  -0.53461  -0.52948  -0.43925  -0.42996
 Alpha  occ. eigenvalues --   -0.42240  -0.42077  -0.41626  -0.35618  -0.34707
 Alpha  occ. eigenvalues --   -0.34592  -0.33517  -0.32178  -0.29339  -0.28502
 Alpha  occ. eigenvalues --   -0.28061  -0.26881
 Alpha virt. eigenvalues --    0.12270   0.13845   0.14057   0.15616   0.17904
 Alpha virt. eigenvalues --    0.18892   0.19217   0.20490   0.21420   0.22812
 Alpha virt. eigenvalues --    0.23411   0.23421   0.24680   0.25035   0.25744

 Mulliken charges:
               1
     1  C   -0.078079
     2  H    0.089868
     3  F   -0.809700
     4  Cl  -0.568663
     5  C    1.354911
     6  N   -0.176994
     7  H    0.129938
     8  H    0.024757
     9  N   -0.176526
    10  H    0.024074
    11  H    0.131277
    12  C   -0.172128
    13  N   -0.300448
    14  C   -0.170547
    15  N   -0.301741
 Sum of Mulliken charges =  -1.00000

 Dipole moment (field-independent basis, Debye):
    X=              3.3444    Y=             -0.0306    Z=              1.7206  Tot=              3.7612

 Test job not archived.
 1\1\GINC-SE322\SP\RHF\Aug-CC-pVDZ\C4H5Cl1F1N4(1-)\OHZDE\09-Apr-2025\0\
 \#t hf aug-cc-pvdz iop(5/13=1,5/36=2,99/5=2) pseudo=read geom=check gu
 ess=(read,tcheck) scf=(maxcycle=1)\\title\\-1,1\C,0,0.78756641,-0.1092
 5879,0.0003822\H,0,1.6425899,1.87649697,-0.02857144\F,0,-1.19320597,-0
 .05563511,0.02275668\Cl,0,3.04830369,-0.13832839,-0.0245772\C,0,0.6454
 6367,1.42797993,-0.0089704\N,0,0.70304184,-0.74501573,-1.27076476\H,0,
 -0.26896281,-1.01915285,-1.35821405\H,0,1.33518535,-1.53062576,-1.3117
 5788\N,0,0.73161134,-0.72871511,1.28084538\H,0,1.36009371,-1.51759848,

 Normal termination of Gaussian 16 at Wed Apr  9 02:57:58 2025.
