 Gaussian 16, Revision C.01,

 ----------------------------------------------------------------------
 #t hf aug-cc-pvdz symm=none int=(grid=ultrafine) guess=(read,tcheck) s
 table=(opt,rrhf)
 ----------------------------------------------------------------------
 -----
 title
 -----
 Symbolic Z-matrix:
 Charge = -1 Multiplicity = 1

 SCF Done:  E(RHF) =  -825.757150940     A.U. after   15 cycles
 Normal termination of Gaussian 16 at Wed Apr  9 02:28:51 2025.
 Gaussian 16:  ES64L-G16RevC.01  3-Jul-2019

 ----------------------------------------------------------------------
 #t hf aug-cc-pvdz iop(5/13=1,5/36=2,99/5=2) pseudo=read geom=check gue
 ss=(read,tcheck) scf=(maxcycle=1)
 ----------------------------------------------------------------------
 -----
 title
 -----
 Structure from the checkpoint file:  "E2SN2_111_mol1.chk"
 Charge = -1 Multiplicity = 1

                         Standard orientation:
 ---------------------------------------------------------------------
 Center     Atomic      Atomic             Coordinates (Angstroms)
 Number     Number       Type             X           Y           Z
 ---------------------------------------------------------------------
      1          6           0       -0.203976   -0.481451    0.100941
      2          6           0        0.644932    0.674042    0.054942
      3         17           0       -2.209976    0.135333   -0.186430
      4          9           0        2.823212   -0.647305   -0.001171
      5          1           0        1.849795   -0.023303    0.132088
      6          6           0       -0.036515   -1.446481   -1.049826
      7          1           0       -0.226007   -0.962467   -2.007490
      8          1           0        1.003238   -1.786606   -1.021736
      9          1           0       -0.717384   -2.293523   -0.949314
     10          6           0       -0.281826   -1.169856    1.442227
     11          1           0       -0.991056   -2.000009    1.415539
     12          1           0        0.722406   -1.550688    1.659358
     13          1           0       -0.560935   -0.464650    2.220598
     14          7           0        0.456164    1.561601    1.187363
     15          1           0       -0.409559    2.080499    1.028634
     16          1           0        1.207477    2.241079    1.150338
     17          7           0        0.736445    1.374898   -1.221662
     18          1           0        1.378367    0.878785   -1.828344
     19          1           0       -0.179611    1.392945   -1.669430
 ---------------------------------------------------------------------

 SCF Done:  E(RHF) =  -825.885335130     A.U. after    2 cycles

 The electronic state is 1-A.
 Alpha  occ. eigenvalues -- -103.44863 -25.82555 -15.45387 -15.45082 -11.16983
 Alpha  occ. eigenvalues --  -11.09649 -11.09308 -11.08834 -10.48121  -8.13773
 Alpha  occ. eigenvalues --   -8.13623  -8.13618  -1.33352  -1.04316  -0.95148
 Alpha  occ. eigenvalues --   -0.93854  -0.88671  -0.80555  -0.73003  -0.58139
 Alpha  occ. eigenvalues --   -0.54232  -0.50603  -0.47948  -0.47360  -0.46875
 Alpha  occ. eigenvalues --   -0.46351  -0.42864  -0.41784  -0.40907  -0.40471
 Alpha  occ. eigenvalues --   -0.38084  -0.36163  -0.31211  -0.27563  -0.27126
 Alpha  occ. eigenvalues --   -0.26428  -0.23914  -0.17728
 Alpha virt. eigenvalues --    0.13230   0.13619   0.13890   0.15527   0.15806
 Alpha virt. eigenvalues --    0.16237   0.17137   0.17465   0.17984   0.19160
 Alpha virt. eigenvalues --    0.19800   0.21992   0.24026   0.24246   0.25573

 Mulliken charges:
               1
     1  C   -1.848835
     2  C    0.615833
     3  Cl  -0.614812
     4  F   -0.569545
     5  H    0.463043
     6  C    0.879186
     7  H   -0.081437
     8  H    0.066505
     9  H   -0.042090
    10  C    0.887551
    11  H   -0.022872
    12  H    0.077219
    13  H    0.021719
    14  N   -0.446423
    15  H    0.023151
    16  H   -0.035517
    17  N   -0.434754
    18  H    0.018376
    19  H    0.043701
 Sum of Mulliken charges =  -1.00000

 Dipole moment (field-independent basis, Debye):
    X=             -2.3863    Y=             -0.7533    Z=             -0.6664  Tot=              2.5896

 Test job not archived.
 1\1\GINC-SE021\SP\RHF\Aug-CC-pVDZ\C4H11Cl1F1N2(1-)\OHZDE\09-Apr-2025\0
 \\#t hf aug-cc-pvdz iop(5/13=1,5/36=2,99/5=2) pseudo=read geom=check g
 uess=(read,tcheck) scf=(maxcycle=1)\\title\\-1,1\C,0,-0.25731699,0.083
 74068,-0.3130914\C,0,-0.19916551,0.11895669,1.11984352\Cl,0,1.71768119
 ,0.14361187,-1.07652958\F,0,-2.66866392,-0.41019742,1.4598255\H,0,-1.5
 6569461,-0.06241033,1.32874621\C,0,-0.74998959,-1.21729202,-0.90315722
 \H,0,-0.12409488,-2.05582871,-0.59916674\H,0,-1.76266704,-1.36999117,-
 0.51750372\H,0,-0.76048039,-1.17055045,-1.99351065\C,0,-0.87609341,1.2

 Normal termination of Gaussian 16 at Wed Apr  9 02:29:01 2025.
