 Gaussian 16, Revision C.01,

 ----------------------------------------------------------------------
 #t hf aug-cc-pvdz symm=none int=(grid=ultrafine) guess=(read,tcheck) s
 table=(opt,rrhf)
 ----------------------------------------------------------------------
 -----
 title
 -----
 Symbolic Z-matrix:
 Charge = -1 Multiplicity = 1

 SCF Done:  E(RHF) =  -1181.18264031     A.U. after   15 cycles
 Normal termination of Gaussian 16 at Wed Apr  9 02:42:32 2025.
 Gaussian 16:  ES64L-G16RevC.01  3-Jul-2019

 ----------------------------------------------------------------------
 #t hf aug-cc-pvdz iop(5/13=1,5/36=2,99/5=2) pseudo=read geom=check gue
 ss=(read,tcheck) scf=(maxcycle=1)
 ----------------------------------------------------------------------
 -----
 title
 -----
 Structure from the checkpoint file:  "E2SN2_252_mol1.chk"
 Charge = -1 Multiplicity = 1

                         Standard orientation:
 ---------------------------------------------------------------------
 Center     Atomic      Atomic             Coordinates (Angstroms)
 Number     Number       Type             X           Y           Z
 ---------------------------------------------------------------------
      1          6           0        0.042411   -0.304876   -0.167116
      2          1           0       -0.950258    0.509058    1.559737
      3         17           0        2.325955    0.018143   -0.427414
      4         17           0       -2.251783   -0.547964   -0.429018
      5          6           0       -0.088751    0.735718    0.931116
      6          1           0        0.011481   -0.056920   -1.209299
      7          1           0        0.811947    0.737423    1.545461
      8          6           0        0.208733   -1.669212    0.243306
      9          7           0        0.344547   -2.771507    0.632863
     10          6           0       -0.269109    2.076086    0.382310
     11          7           0       -0.415090    3.170234   -0.014899
 ---------------------------------------------------------------------

 SCF Done:  E(RHF) =  -1181.28645106     A.U. after    2 cycles

 The electronic state is 1-A.
 Alpha  occ. eigenvalues -- -103.45544-103.45506 -15.54155 -15.54012 -11.28587
 Alpha  occ. eigenvalues --  -11.20168 -11.19986 -11.19453 -10.48784 -10.48746
 Alpha  occ. eigenvalues --   -8.14419  -8.14381  -8.14281  -8.14275  -8.14243
 Alpha  occ. eigenvalues --   -8.14237  -1.08857  -1.07718  -1.00950  -0.91925
 Alpha  occ. eigenvalues --   -0.90770  -0.84319  -0.64948  -0.59248  -0.54725
 Alpha  occ. eigenvalues --   -0.52478  -0.44927  -0.44179  -0.41012  -0.36329
 Alpha  occ. eigenvalues --   -0.35101  -0.34797  -0.31655  -0.28627  -0.28152
 Alpha  occ. eigenvalues --   -0.28143  -0.27408  -0.24972
 Alpha virt. eigenvalues --    0.13273   0.14885   0.15374   0.16489   0.17243
 Alpha virt. eigenvalues --    0.18988   0.20359   0.21510   0.21793   0.23091
 Alpha virt. eigenvalues --    0.24025   0.24542   0.25713   0.26317   0.26805

 Mulliken charges:
               1
     1  C    1.032140
     2  H    0.065466
     3  Cl  -0.621652
     4  Cl  -0.621907
     5  C    0.644571
     6  H   -0.465350
     7  H    0.068363
     8  C   -0.601343
     9  N   -0.216353
    10  C    0.004372
    11  N   -0.288306
 Sum of Mulliken charges =  -1.00000

 Dipole moment (field-independent basis, Debye):
    X=             -0.0737    Y=              0.7966    Z=              2.4205  Tot=              2.5493

 Test job not archived.
 1\1\GINC-SE366\SP\RHF\Aug-CC-pVDZ\C4H3Cl2N2(1-)\OHZDE\09-Apr-2025\0\\#
 t hf aug-cc-pvdz iop(5/13=1,5/36=2,99/5=2) pseudo=read geom=check gues
 s=(read,tcheck) scf=(maxcycle=1)\\title\\-1,1\C,0,0.55996058,-0.054231
 02,-0.03983782\H,0,1.50622452,1.83544764,-0.44431066\Cl,0,-1.74753168,
 -0.23401771,-0.21254202\Cl,0,2.80095154,-0.1884911,0.55256536\C,0,0.55
 193671,1.46405123,-0.06996808\H,0,0.41491925,-0.6183811,0.85976323\H,0
 ,-0.2489053,1.81462905,-0.7214483\C,0,0.77859057,-0.7303796,-1.2858501
 2\N,0,0.96019471,-1.2356422,-2.33321968\C,0,0.33753633,2.02656857,1.25

 Normal termination of Gaussian 16 at Wed Apr  9 02:42:37 2025.
