 Gaussian 16, Revision C.01,

 ----------------------------------------------------------------------
 #t hf aug-cc-pvdz symm=none int=(grid=ultrafine) guess=(read,tcheck) s
 table=(opt,rrhf)
 ----------------------------------------------------------------------
 -----
 title
 -----
 Symbolic Z-matrix:
 Charge = -1 Multiplicity = 1

 SCF Done:  E(RHF) =  -1275.21753751     A.U. after   16 cycles
 Normal termination of Gaussian 16 at Wed Apr  9 02:46:45 2025.
 Gaussian 16:  ES64L-G16RevC.01  3-Jul-2019

 ----------------------------------------------------------------------
 #t hf aug-cc-pvdz iop(5/13=1,5/36=2,99/5=2) pseudo=read geom=check gue
 ss=(read,tcheck) scf=(maxcycle=1)
 ----------------------------------------------------------------------
 -----
 title
 -----
 Structure from the checkpoint file:  "E2SN2_275_mol1.chk"
 Charge = -1 Multiplicity = 1

                         Standard orientation:
 ---------------------------------------------------------------------
 Center     Atomic      Atomic             Coordinates (Angstroms)
 Number     Number       Type             X           Y           Z
 ---------------------------------------------------------------------
      1          6           0        0.085071   -0.182189   -0.022508
      2          1           0        0.771232    1.208210   -1.415094
      3         17           0       -2.293182   -0.526818    0.427797
      4         17           0        2.402569   -0.355460   -0.232369
      5          6           0        0.091156    1.264132   -0.555801
      6          6           0       -0.086568   -1.241361   -0.978685
      7          7           0       -0.185849   -2.039602   -1.839375
      8          6           0        0.204243   -0.470362    1.381700
      9          7           0        0.379015   -0.683421    2.526929
     10          7           0        0.589975    2.126769    0.504298
     11          1           0        0.557993    3.086355    0.180832
     12          1           0        1.558192    1.885145    0.686701
     13          6           0       -1.227876    1.814544   -1.073444
     14          1           0       -1.699189    1.128778   -1.776050
     15          1           0       -1.916751    2.000299   -0.253760
     16          1           0       -1.009207    2.755132   -1.595442
 ---------------------------------------------------------------------

 SCF Done:  E(RHF) =  -1275.34771122     A.U. after    2 cycles

 The electronic state is 1-A.
 Alpha  occ. eigenvalues -- -103.47179-103.44394 -15.53857 -15.52709 -15.51140
 Alpha  occ. eigenvalues --  -11.31470 -11.20115 -11.19766 -11.19284 -11.12726
 Alpha  occ. eigenvalues --  -10.50410 -10.47638  -8.16051  -8.15895  -8.15886
 Alpha  occ. eigenvalues --   -8.13269  -8.13134  -8.13127  -1.10556  -1.06886
 Alpha  occ. eigenvalues --   -1.05832  -0.97776  -0.92639  -0.89149  -0.87666
 Alpha  occ. eigenvalues --   -0.74107  -0.70805  -0.58262  -0.55791  -0.51306
 Alpha  occ. eigenvalues --   -0.46631  -0.44527  -0.43875  -0.43286  -0.42383
 Alpha  occ. eigenvalues --   -0.40976  -0.37579  -0.35296  -0.34143  -0.30560
 Alpha  occ. eigenvalues --   -0.29813  -0.28783  -0.28262  -0.26616  -0.25985
 Alpha  occ. eigenvalues --   -0.25117
 Alpha virt. eigenvalues --    0.10894   0.12719   0.13391   0.14082   0.15254
 Alpha virt. eigenvalues --    0.16628   0.16994   0.18122   0.20394   0.20436
 Alpha virt. eigenvalues --    0.21681   0.22639   0.23245   0.23674   0.24064

 Mulliken charges:
               1
     1  C    1.252284
     2  H   -0.130248
     3  Cl  -0.643099
     4  Cl  -0.523513
     5  C    0.372073
     6  C   -0.719488
     7  N   -0.307718
     8  C   -0.378868
     9  N   -0.334194
    10  N   -0.310738
    11  H   -0.013678
    12  H    0.033579
    13  C    0.789932
    14  H   -0.024015
    15  H    0.056984
    16  H   -0.119294
 Sum of Mulliken charges =  -1.00000

 Dipole moment (field-independent basis, Debye):
    X=              0.9363    Y=              6.1114    Z=             -2.7721  Tot=              6.7757

 Test job not archived.
 1\1\GINC-SE016\SP\RHF\Aug-CC-pVDZ\C5H6Cl2N3(1-)\OHZDE\09-Apr-2025\0\\#
 t hf aug-cc-pvdz iop(5/13=1,5/36=2,99/5=2) pseudo=read geom=check gues
 s=(read,tcheck) scf=(maxcycle=1)\\title\\-1,1\C,0,0.62063048,-0.061226
 79,-0.01451384\H,0,1.65743463,1.63419576,-0.64212906\Cl,0,-1.68252164,
 -0.51966356,-0.69492458\Cl,0,2.82738044,-0.16439895,0.73680011\C,0,0.6
 8530478,1.47207281,-0.15974388\C,0,0.96857247,-0.85190225,-1.16314292\
 N,0,1.31497506,-1.41297993,-2.13937617\C,0,0.18978775,-0.6871188,1.206
 82907\N,0,-0.09360038,-1.17586496,2.24041917\N,0,0.6133971,2.04842638,

 Normal termination of Gaussian 16 at Wed Apr  9 02:46:54 2025.
