 Gaussian 16, Revision C.01,

 ----------------------------------------------------------------------
 #t hf aug-cc-pvdz symm=none int=(grid=ultrafine) guess=(read,tcheck) s
 table=(opt,rrhf)
 ----------------------------------------------------------------------
 -----
 title
 -----
 Symbolic Z-matrix:
 Charge = -1 Multiplicity = 1

 SCF Done:  E(RHF) =  -627.888041730     A.U. after   16 cycles
 Normal termination of Gaussian 16 at Wed Apr  9 02:33:01 2025.
 Gaussian 16:  ES64L-G16RevC.01  3-Jul-2019

 ----------------------------------------------------------------------
 #t hf aug-cc-pvdz iop(5/13=1,5/36=2,99/5=2) pseudo=read geom=check gue
 ss=(read,tcheck) scf=(maxcycle=1)
 ----------------------------------------------------------------------
 -----
 title
 -----
 Structure from the checkpoint file:  "E2SN2_137_mol2.chk"
 Charge = -1 Multiplicity = 1

                         Standard orientation:
 ---------------------------------------------------------------------
 Center     Atomic      Atomic             Coordinates (Angstroms)
 Number     Number       Type             X           Y           Z
 ---------------------------------------------------------------------
      1          6           0       -0.105051   -0.436025    0.130779
      2          6           0       -0.676191    0.816257   -0.502471
      3          9           0       -0.012112   -0.226128    1.517124
      4          1           0       -1.746625    0.745658   -0.285783
      5          1           0       -0.564162    0.746304   -1.584179
      6          7           0       -0.807492   -1.552967   -0.249251
      7          1           0       -1.864915   -1.282340   -0.253251
      8          1           0       -0.560932   -2.340619    0.336260
      9          7           0        1.382216   -0.637718   -0.239702
     10          8           0        1.865516    0.048042   -1.138017
     11          8           0        1.971717   -1.530850    0.362892
     12          6           0       -0.059125    2.040031   -0.013601
     13          7           0        0.410843    3.046979    0.364677
     14          9           0       -3.078776   -0.498558   -0.276054
 ---------------------------------------------------------------------

 SCF Done:  E(RHF) =  -628.081168550     A.U. after    2 cycles

 The electronic state is 1-A.
 Alpha  occ. eigenvalues --  -26.01075 -25.79243 -20.51480 -20.51017 -15.79703
 Alpha  occ. eigenvalues --  -15.52658 -15.48285 -11.31484 -11.18241 -11.15915
 Alpha  occ. eigenvalues --   -1.54795  -1.43095  -1.28777  -1.25212  -1.09292
 Alpha  occ. eigenvalues --   -1.06575  -0.93726  -0.87473  -0.73545  -0.69090
 Alpha  occ. eigenvalues --   -0.65980  -0.64207  -0.62115  -0.60781  -0.58048
 Alpha  occ. eigenvalues --   -0.53834  -0.52506  -0.50350  -0.46990  -0.43210
 Alpha  occ. eigenvalues --   -0.41083  -0.40111  -0.38573  -0.38281  -0.36870
 Alpha  occ. eigenvalues --   -0.35818  -0.33964  -0.32566  -0.29730
 Alpha virt. eigenvalues --    0.13819   0.14233   0.16300   0.17993   0.18624
 Alpha virt. eigenvalues --    0.19598   0.20047   0.21596   0.23335   0.23890
 Alpha virt. eigenvalues --    0.24332   0.25589   0.26316   0.27388   0.27564

 Mulliken charges:
               1
     1  C    1.184043
     2  C    0.612940
     3  F   -0.410167
     4  H   -0.004499
     5  H    0.103524
     6  N   -0.474365
     7  H    0.233054
     8  H    0.005817
     9  N    0.202974
    10  O   -0.566530
    11  O   -0.596377
    12  C   -0.128823
    13  N   -0.280615
    14  F   -0.880974
 Sum of Mulliken charges =  -1.00000

 Dipole moment (field-independent basis, Debye):
    X=              3.8781    Y=             -1.3801    Z=             -0.5019  Tot=              4.1468

 Test job not archived.
 1\1\GINC-SE402\SP\RHF\Aug-CC-pVDZ\C3H4F2N3O2(1-)\OHZDE\09-Apr-2025\0\\
 #t hf aug-cc-pvdz iop(5/13=1,5/36=2,99/5=2) pseudo=read geom=check gue
 ss=(read,tcheck) scf=(maxcycle=1)\\title\\-1,1\C,0,-0.027404,0.023328,
 -1.500071\C,0,0.042015,0.069358,0.0127\F,0,-0.019999,1.343218,-1.98223
 5\H,0,1.097632,0.277571,0.212913\H,0,-0.16716,-0.925503,0.405173\N,0,0
 .942231,-0.798255,-2.019894\H,0,1.852341,-0.627845,-1.441917\H,0,1.026
 445,-0.65635,-3.018284\N,0,-1.407618,-0.466296,-1.995227\O,0,-2.183463
 ,-0.965758,-1.183181\O,0,-1.611148,-0.373893,-3.202849\C,0,-0.86825,1.

 Normal termination of Gaussian 16 at Wed Apr  9 02:33:07 2025.
