 Gaussian 16, Revision C.01,

 ----------------------------------------------------------------------
 #t hf aug-cc-pvdz symm=none int=(grid=ultrafine) guess=(read,tcheck) s
 table=(opt,rrhf)
 ----------------------------------------------------------------------
 -----
 title
 -----
 Symbolic Z-matrix:
 Charge = -1 Multiplicity = 1

 SCF Done:  E(RHF) =  -1220.21719606     A.U. after   16 cycles
 Normal termination of Gaussian 16 at Wed Apr  9 02:51:32 2025.
 Gaussian 16:  ES64L-G16RevC.01  3-Jul-2019

 ----------------------------------------------------------------------
 #t hf aug-cc-pvdz iop(5/13=1,5/36=2,99/5=2) pseudo=read geom=check gue
 ss=(read,tcheck) scf=(maxcycle=1)
 ----------------------------------------------------------------------
 -----
 title
 -----
 Structure from the checkpoint file:  "E2SN2_325_mol1.chk"
 Charge = -1 Multiplicity = 1

                         Standard orientation:
 ---------------------------------------------------------------------
 Center     Atomic      Atomic             Coordinates (Angstroms)
 Number     Number       Type             X           Y           Z
 ---------------------------------------------------------------------
      1          6           0       -0.494772   -0.521081   -0.297272
      2          1           0       -0.724455    0.915251    1.255650
      3         17           0        1.614742   -0.911677   -1.300941
      4         17           0       -2.694398    0.103954    0.001195
      5          6           0        0.069178    0.606521    0.565986
      6          1           0       -0.716521   -0.325582   -1.325877
      7          6           0       -0.638417   -1.875458    0.339976
      8          1           0        0.338518   -2.309303    0.546558
      9          1           0       -1.204792   -1.795009    1.268725
     10          1           0       -1.186285   -2.532552   -0.334431
     11          6           0        0.418749    1.790729   -0.220680
     12          7           0        0.651176    2.785753   -0.797945
     13          6           0        1.195103    0.185665    1.411077
     14          7           0        1.998628   -0.120008    2.210879
 ---------------------------------------------------------------------

 SCF Done:  E(RHF) =  -1220.33205923     A.U. after    2 cycles

 The electronic state is 1-A.
 Alpha  occ. eigenvalues -- -103.45221-103.43397 -15.54869 -15.54739 -11.25991
 Alpha  occ. eigenvalues --  -11.24192 -11.20566 -11.20207 -11.13974 -10.48505
 Alpha  occ. eigenvalues --  -10.46688  -8.14134  -8.14019  -8.14009  -8.12313
 Alpha  occ. eigenvalues --   -8.12208  -8.12199  -1.10374  -1.07919  -1.02360
 Alpha  occ. eigenvalues --   -0.92729  -0.90851  -0.88043  -0.74633  -0.67181
 Alpha  occ. eigenvalues --   -0.60587  -0.55883  -0.48774  -0.48262  -0.45869
 Alpha  occ. eigenvalues --   -0.44778  -0.43993  -0.37417  -0.37249  -0.35509
 Alpha  occ. eigenvalues --   -0.35022  -0.31807  -0.28407  -0.28231  -0.26675
 Alpha  occ. eigenvalues --   -0.26402  -0.24328
 Alpha virt. eigenvalues --    0.12871   0.13534   0.14833   0.15993   0.16411
 Alpha virt. eigenvalues --    0.17949   0.18639   0.19284   0.21256   0.22287
 Alpha virt. eigenvalues --    0.22613   0.23052   0.23932   0.24324   0.24732

 Mulliken charges:
               1
     1  C   -0.049188
     2  H    0.145646
     3  Cl  -0.698687
     4  Cl  -0.665143
     5  C    1.237622
     6  H   -0.492065
     7  C    0.590520
     8  H   -0.011326
     9  H    0.025281
    10  H   -0.017818
    11  C   -0.330096
    12  N   -0.249132
    13  C   -0.180390
    14  N   -0.305225
 Sum of Mulliken charges =  -1.00000

 Dipole moment (field-independent basis, Debye):
    X=             -1.5761    Y=             -1.5027    Z=              2.5890  Tot=              3.3830

 Test job not archived.
 1\1\GINC-SE051\SP\RHF\Aug-CC-pVDZ\C5H5Cl2N2(1-)\OHZDE\09-Apr-2025\0\\#
 t hf aug-cc-pvdz iop(5/13=1,5/36=2,99/5=2) pseudo=read geom=check gues
 s=(read,tcheck) scf=(maxcycle=1)\\title\\-1,1\C,0,0.64521449,-0.065568
 68,-0.05997148\H,0,1.5834601,1.82888454,-0.30103689\Cl,0,-1.70709137,-
 0.24878955,0.14753027\Cl,0,2.89750172,-0.13337577,0.4306472\C,0,0.5737
 3436,1.46049326,-0.08761822\H,0,0.55993008,-0.57190256,0.87905558\C,0,
 0.7600902,-0.77744323,-1.37947704\H,0,-0.1586979,-0.67357639,-1.954229
 38\H,0,1.59560673,-0.37317524,-1.95245713\H,0,0.95266321,-1.83466851,-

 Normal termination of Gaussian 16 at Wed Apr  9 02:51:39 2025.
