 Gaussian 16, Revision C.01,

 ----------------------------------------------------------------------
 #t hf aug-cc-pvdz symm=none int=(grid=ultrafine) guess=(read,tcheck) s
 table=(opt,rrhf)
 ----------------------------------------------------------------------
 -----
 title
 -----
 Symbolic Z-matrix:
 Charge = -1 Multiplicity = 1

 SCF Done:  E(RHF) =  -932.854033203     A.U. after   16 cycles
 Normal termination of Gaussian 16 at Wed Apr  9 02:39:40 2025.
 Gaussian 16:  ES64L-G16RevC.01  3-Jul-2019

 ----------------------------------------------------------------------
 #t hf aug-cc-pvdz iop(5/13=1,5/36=2,99/5=2) pseudo=read geom=check gue
 ss=(read,tcheck) scf=(maxcycle=1)
 ----------------------------------------------------------------------
 -----
 title
 -----
 Structure from the checkpoint file:  "E2SN2_208_mol1.chk"
 Charge = -1 Multiplicity = 1

                         Standard orientation:
 ---------------------------------------------------------------------
 Center     Atomic      Atomic             Coordinates (Angstroms)
 Number     Number       Type             X           Y           Z
 ---------------------------------------------------------------------
      1          6           0        0.413945    0.011289   -0.649665
      2          1           0       -0.296517   -1.965457   -0.663358
      3         17           0       -0.686980    1.804271   -0.382746
      4          9           0        1.620467   -1.423263   -1.059493
      5          6           0       -0.723309   -0.973490   -0.790955
      6          1           0        0.950633    0.426079   -1.476891
      7          1           0       -1.089195   -0.885074   -1.817218
      8          7           0        1.132927    0.043471    0.635818
      9          8           0        0.665871   -0.629177    1.550704
     10          8           0        2.135267    0.742204    0.698610
     11          6           0       -1.862832   -0.826001    0.115229
     12          7           0       -2.825267   -0.845440    0.786672
 ---------------------------------------------------------------------

 SCF Done:  E(RHF) =  -933.010847170     A.U. after    2 cycles

 The electronic state is 1-A.
 Alpha  occ. eigenvalues -- -103.47928 -25.82541 -20.49096 -20.48997 -15.79543
 Alpha  occ. eigenvalues --  -15.51890 -11.28574 -11.18097 -11.17786 -10.51227
 Alpha  occ. eigenvalues --   -8.16886  -8.16700  -8.16694  -1.42046  -1.32339
 Alpha  occ. eigenvalues --   -1.23677  -1.06496  -1.01608  -0.92601  -0.88398
 Alpha  occ. eigenvalues --   -0.71843  -0.65439  -0.61978  -0.60004  -0.56793
 Alpha  occ. eigenvalues --   -0.53317  -0.50950  -0.43301  -0.42705  -0.41966
 Alpha  occ. eigenvalues --   -0.40716  -0.39267  -0.38686  -0.34761  -0.33739
 Alpha  occ. eigenvalues --   -0.32891  -0.30703  -0.30178  -0.29331
 Alpha virt. eigenvalues --    0.13201   0.14758   0.15721   0.17641   0.18336
 Alpha virt. eigenvalues --    0.20571   0.22020   0.22985   0.23813   0.24442
 Alpha virt. eigenvalues --    0.25406   0.26201   0.26730   0.27664   0.28274

 Mulliken charges:
               1
     1  C    0.959179
     2  H    0.160925
     3  Cl  -0.491758
     4  F   -0.812201
     5  C    0.276762
     6  H   -0.258917
     7  H    0.099438
     8  N    0.689015
     9  O   -0.656357
    10  O   -0.674817
    11  C    0.027675
    12  N   -0.318943
 Sum of Mulliken charges =  -1.00000

 Dipole moment (field-independent basis, Debye):
    X=             -1.3608    Y=              0.2558    Z=             -2.4389  Tot=              2.8045

 Test job not archived.
 1\1\GINC-SE164\SP\RHF\Aug-CC-pVDZ\C3H3Cl1F1N2O2(1-)\OHZDE\09-Apr-2025\
 0\\#t hf aug-cc-pvdz iop(5/13=1,5/36=2,99/5=2) pseudo=read geom=check
 guess=(read,tcheck) scf=(maxcycle=1)\\title\\-1,1\C,0,0.48109956,-0.03
 648144,-0.0398757\H,0,1.82892319,1.54352442,-0.35518987\Cl,0,-1.634140
 79,-0.01299461,-0.19243277\F,0,2.34852156,-0.30372245,0.31071031\C,0,0
 .76603847,1.44341512,-0.14858707\H,0,0.44049007,-0.57008567,0.88641007
 \H,0,0.56399663,1.87490269,0.83523351\N,0,0.74209798,-0.87051886,-1.22
 591869\O,0,1.03511662,-0.28402089,-2.26407769\O,0,0.64038865,-2.082237

 Normal termination of Gaussian 16 at Wed Apr  9 02:39:46 2025.
