 Gaussian 16, Revision C.01,

 ----------------------------------------------------------------------
 #t hf aug-cc-pvdz symm=none int=(grid=ultrafine) guess=(read,tcheck) s
 table=(opt,rrhf)
 ----------------------------------------------------------------------
 -----
 title
 -----
 Symbolic Z-matrix:
 Charge = -1 Multiplicity = 1

 SCF Done:  E(RHF) =  -833.907442238     A.U. after   16 cycles
 Normal termination of Gaussian 16 at Wed Apr  9 02:55:34 2025.
 Gaussian 16:  ES64L-G16RevC.01  3-Jul-2019

 ----------------------------------------------------------------------
 #t hf aug-cc-pvdz iop(5/13=1,5/36=2,99/5=2) pseudo=read geom=check gue
 ss=(read,tcheck) scf=(maxcycle=1)
 ----------------------------------------------------------------------
 -----
 title
 -----
 Structure from the checkpoint file:  "E2SN2_3_mol1.chk"
 Charge = -1 Multiplicity = 1

                         Standard orientation:
 ---------------------------------------------------------------------
 Center     Atomic      Atomic             Coordinates (Angstroms)
 Number     Number       Type             X           Y           Z
 ---------------------------------------------------------------------
      1          6           0        0.289848    0.179445    0.659288
      2          6           0       -0.870307   -0.757503    0.850623
      3         17           0       -0.197336    1.750384    0.038744
      4          1           0       -0.687112    0.144079    3.231304
      5          1           0       -1.224091   -0.378176    1.900600
      6          1           0        0.688432    0.323368    1.682918
      7          1           0       -0.478327   -1.754697    1.065002
      8          7           0        1.379077   -0.426656   -0.188381
      9          8           0        1.875510   -1.447057    0.290394
     10          8           0        1.713442    0.086782   -1.251606
     11          6           0       -1.842832   -0.798182   -0.216859
     12          7           0       -2.681370   -0.852123   -1.041202
 ---------------------------------------------------------------------

 SCF Done:  E(RHF) =  -834.038607160     A.U. after    2 cycles

 The electronic state is 1-A.
 Alpha  occ. eigenvalues -- -103.55936 -20.52325 -20.51576 -15.81319 -15.52536
 Alpha  occ. eigenvalues --  -11.25705 -11.18190 -11.15603 -10.59295  -8.25030
 Alpha  occ. eigenvalues --   -8.24714  -8.24700  -1.44287  -1.26066  -1.10159
 Alpha  occ. eigenvalues --   -1.06212  -0.96087  -0.87682  -0.73283  -0.66726
 Alpha  occ. eigenvalues --   -0.63759  -0.62697  -0.57941  -0.50695  -0.47882
 Alpha  occ. eigenvalues --   -0.46612  -0.43034  -0.41684  -0.40406  -0.37610
 Alpha  occ. eigenvalues --   -0.36126  -0.35092  -0.33747  -0.33062  -0.11445
 Alpha virt. eigenvalues --    0.14353   0.15780   0.16678   0.17768   0.18729
 Alpha virt. eigenvalues --    0.18909   0.20819   0.21686   0.23060   0.24542
 Alpha virt. eigenvalues --    0.24711   0.24970   0.26585   0.27043   0.27686

 Mulliken charges:
               1
     1  C    0.362284
     2  C    0.291862
     3  Cl  -0.049215
     4  H   -0.566560
     5  H    0.019295
     6  H    0.075886
     7  H    0.079380
     8  N    0.401871
     9  O   -0.600053
    10  O   -0.586503
    11  C   -0.143842
    12  N   -0.284405
 Sum of Mulliken charges =  -1.00000

 Dipole moment (field-independent basis, Debye):
    X=              2.9772    Y=              0.3156    Z=             -6.0841  Tot=              6.7808

 Test job not archived.
 1\1\GINC-SE128\SP\RHF\Aug-CC-pVDZ\C3H4Cl1N2O2(1-)\OHZDE\09-Apr-2025\0\
 \#t hf aug-cc-pvdz iop(5/13=1,5/36=2,99/5=2) pseudo=read geom=check gu
 ess=(read,tcheck) scf=(maxcycle=1)\\title\\-1,1\C,0,-0.76146881,-0.005
 3317,-0.18295646\C,0,-0.31856115,-0.0428381,1.25331173\Cl,0,-0.3289702
 ,-1.46115049,-1.06828534\H,0,-2.72478559,-0.83830643,1.55557945\H,0,-1
 .2148042,-0.65595968,1.69187103\H,0,-1.86653836,0.04273828,-0.12040852
 \H,0,-0.46096952,0.95055584,1.68562161\N,0,-0.27689417,1.23037004,-0.8
 9748411\O,0,-0.69332457,2.28340001,-0.41312754\O,0,0.46166195,1.148313

 Normal termination of Gaussian 16 at Wed Apr  9 02:55:40 2025.
