 Gaussian 16, Revision C.01,

 ----------------------------------------------------------------------
 #t hf aug-cc-pvdz symm=none int=(grid=ultrafine) guess=(read,tcheck) s
 table=(opt,rrhf)
 ----------------------------------------------------------------------
 -----
 title
 -----
 Symbolic Z-matrix:
 Charge = -1 Multiplicity = 1

 SCF Done:  E(RHF) =  -1183.56279455     A.U. after   15 cycles
 Normal termination of Gaussian 16 at Wed Apr  9 02:51:26 2025.
 Gaussian 16:  ES64L-G16RevC.01  3-Jul-2019

 ----------------------------------------------------------------------
 #t hf aug-cc-pvdz iop(5/13=1,5/36=2,99/5=2) pseudo=read geom=check gue
 ss=(read,tcheck) scf=(maxcycle=1)
 ----------------------------------------------------------------------
 -----
 title
 -----
 Structure from the checkpoint file:  "E2SN2_342_mol2.chk"
 Charge = -1 Multiplicity = 1

                         Standard orientation:
 ---------------------------------------------------------------------
 Center     Atomic      Atomic             Coordinates (Angstroms)
 Number     Number       Type             X           Y           Z
 ---------------------------------------------------------------------
      1          6           0        0.891603   -0.113647   -0.070189
      2          6           0        0.301661    0.041293    1.356260
      3         17           0        2.456956   -1.030103    0.083466
      4          1           0        0.053774   -0.967948    1.699444
      5          1           0        1.103562    0.421653    1.998914
      6          6           0       -0.025807   -0.861514   -1.019059
      7          1           0       -0.176710   -1.873550   -0.638458
      8          1           0       -1.008928   -0.384991   -1.059734
      9          1           0        0.410563   -0.914940   -2.018242
     10          6           0        1.238698    1.210126   -0.590218
     11          7           0        1.502183    2.290349   -0.970732
     12          7           0       -0.860657    0.877669    1.470294
     13          1           0       -1.676698    0.493434    0.990060
     14          1           0       -0.684380    1.810298    1.119236
     15         17           0       -3.453944   -0.288581   -0.298108
 ---------------------------------------------------------------------

 SCF Done:  E(RHF) =  -1183.67157048     A.U. after    2 cycles

 The electronic state is 1-A.
 Alpha  occ. eigenvalues -- -103.56848-103.37453 -15.55520 -15.48304 -11.25028
 Alpha  occ. eigenvalues --  -11.20452 -11.17715 -11.13245 -10.60164 -10.40519
 Alpha  occ. eigenvalues --   -8.25875  -8.25596  -8.25591  -8.06117  -8.06091
 Alpha  occ. eigenvalues --   -8.06082  -1.11790  -1.07537  -1.03630  -0.92982
 Alpha  occ. eigenvalues --   -0.83116  -0.81765  -0.76112  -0.59181  -0.55803
 Alpha  occ. eigenvalues --   -0.53848  -0.50750  -0.46966  -0.46311  -0.43543
 Alpha  occ. eigenvalues --   -0.42604  -0.41032  -0.38200  -0.37370  -0.35951
 Alpha  occ. eigenvalues --   -0.35530  -0.27206  -0.20732  -0.20525  -0.20481
 Alpha virt. eigenvalues --    0.12546   0.12981   0.14460   0.15769   0.15851
 Alpha virt. eigenvalues --    0.16585   0.17746   0.19345   0.19937   0.21728
 Alpha virt. eigenvalues --    0.22398   0.23177   0.23499   0.24246   0.25467

 Mulliken charges:
               1
     1  C   -1.049543
     2  C    1.217759
     3  Cl  -0.161123
     4  H   -0.048727
     5  H   -0.124100
     6  C    1.007547
     7  H   -0.055853
     8  H   -0.005840
     9  H   -0.038880
    10  C   -0.234437
    11  N   -0.258164
    12  N   -0.362150
    13  H    0.042825
    14  H    0.012583
    15  Cl  -0.941898
 Sum of Mulliken charges =  -1.00000

 Dipole moment (field-independent basis, Debye):
    X=             10.5504    Y=             -1.4799    Z=              1.0966  Tot=             10.7100

 Test job not archived.
 1\1\GINC-SE071\SP\RHF\Aug-CC-pVDZ\C4H7Cl2N2(1-)\OHZDE\09-Apr-2025\0\\#
 t hf aug-cc-pvdz iop(5/13=1,5/36=2,99/5=2) pseudo=read geom=check gues
 s=(read,tcheck) scf=(maxcycle=1)\\title\\-1,1\C,0,0.019213,-0.029996,-
 0.025589\C,0,-0.397092,-0.65199,-1.384488\Cl,0,1.800078,0.336292,-0.11
 6051\H,0,-0.26549,0.132178,-2.136521\H,0,0.320095,-1.449456,-1.609023\
 C,0,-0.730286,1.247515,0.302313\H,0,-0.501781,1.995267,-0.459592\H,0,-
 1.810082,1.079108,0.271756\H,0,-0.434388,1.629965,1.280994\C,0,-0.1419
 4,-1.033061,1.028532\N,0,-0.286252,-1.866183,1.84473\N,0,-1.738879,-1.

 Normal termination of Gaussian 16 at Wed Apr  9 02:51:32 2025.
