 Gaussian 16, Revision C.01,

 ----------------------------------------------------------------------
 #t hf aug-cc-pvdz symm=none int=(grid=ultrafine) guess=(read,tcheck) s
 table=(opt,rrhf)
 ----------------------------------------------------------------------
 -----
 title
 -----
 Symbolic Z-matrix:
 Charge = -1 Multiplicity = 1

 SCF Done:  E(RHF) =  -763.521141310     A.U. after   16 cycles
 Normal termination of Gaussian 16 at Wed Apr  9 02:27:49 2025.
 Gaussian 16:  ES64L-G16RevC.01  3-Jul-2019

 ----------------------------------------------------------------------
 #t hf aug-cc-pvdz iop(5/13=1,5/36=2,99/5=2) pseudo=read geom=check gue
 ss=(read,tcheck) scf=(maxcycle=1)
 ----------------------------------------------------------------------
 -----
 title
 -----
 Structure from the checkpoint file:  "E2SN2_105_mol2.chk"
 Charge = -1 Multiplicity = 1

                         Standard orientation:
 ---------------------------------------------------------------------
 Center     Atomic      Atomic             Coordinates (Angstroms)
 Number     Number       Type             X           Y           Z
 ---------------------------------------------------------------------
      1          6           0       -0.300881   -0.143147    0.335239
      2          6           0        1.027462    0.607583    0.096622
      3         17           0       -0.663010   -1.296800   -1.025546
      4          1           0        1.043571    1.355255    0.913867
      5          6           0       -0.238210   -0.931208    1.632972
      6          1           0        0.126030   -0.270793    2.427101
      7          1           0       -1.211428   -1.361465    1.880005
      8          1           0        0.506740   -1.714929    1.503361
      9          6           0       -1.414833    0.809010    0.354658
     10          7           0       -2.293507    1.589439    0.382105
     11          6           0        1.072599    1.318083   -1.246150
     12          1           0        1.164792    0.594146   -2.059876
     13          1           0        1.945082    1.977407   -1.266934
     14          1           0        0.181504    1.927680   -1.421896
     15          7           0        2.125413   -0.312140    0.301519
     16          1           0        2.878381   -0.067132   -0.333358
     17          1           0        2.460826   -0.073557    1.273579
     18          1           0        2.475521    0.775967    2.693015
 ---------------------------------------------------------------------

 SCF Done:  E(RHF) =  -763.630115274     A.U. after    2 cycles

 The electronic state is 1-A.
 Alpha  occ. eigenvalues -- -103.54592 -15.54050 -15.45504 -11.23054 -11.19135
 Alpha  occ. eigenvalues --  -11.15194 -11.12002 -11.11865 -10.57917  -8.23628
 Alpha  occ. eigenvalues --   -8.23354  -8.23349  -1.10139  -1.06122  -1.01654
 Alpha  occ. eigenvalues --   -0.91693  -0.86793  -0.78031  -0.69487  -0.57888
 Alpha  occ. eigenvalues --   -0.53163  -0.51410  -0.48894  -0.47224  -0.45453
 Alpha  occ. eigenvalues --   -0.44196  -0.41465  -0.40947  -0.40048  -0.37248
 Alpha  occ. eigenvalues --   -0.35504  -0.35045  -0.33746  -0.33470  -0.25392
 Alpha  occ. eigenvalues --   -0.09235
 Alpha virt. eigenvalues --    0.12279   0.12947   0.14006   0.14683   0.15905
 Alpha virt. eigenvalues --    0.16797   0.17526   0.18041   0.19225   0.19669
 Alpha virt. eigenvalues --    0.21158   0.21798   0.22057   0.23250   0.24085

 Mulliken charges:
               1
     1  C   -0.807878
     2  C    0.164137
     3  Cl  -0.255917
     4  H   -0.088910
     5  C    1.075667
     6  H    0.110679
     7  H   -0.083821
     8  H    0.073914
     9  C   -0.102190
    10  N   -0.310142
    11  C    0.492594
    12  H    0.023298
    13  H   -0.077143
    14  H   -0.093153
    15  N   -0.429409
    16  H   -0.046180
    17  H    0.124474
    18  H   -0.770019
 Sum of Mulliken charges =  -1.00000

 Dipole moment (field-independent basis, Debye):
    X=             -5.3508    Y=             -3.0494    Z=             -8.6590  Tot=             10.6258

 Test job not archived.
 1\1\GINC-SE115\SP\RHF\Aug-CC-pVDZ\C5H10Cl1N2(1-)\OHZDE\09-Apr-2025\0\\
 #t hf aug-cc-pvdz iop(5/13=1,5/36=2,99/5=2) pseudo=read geom=check gue
 ss=(read,tcheck) scf=(maxcycle=1)\\title\\-1,1\C,0,-0.393996,-0.113397
 ,-1.496793\C,0,0.010812,-0.180765,-0.007961\Cl,0,-2.193921,0.082936,-1
 .685235\H,0,1.087899,-0.435928,-0.051964\C,0,0.293803,1.056567,-2.1803
 1\H,0,1.362154,1.023501,-1.941577\H,0,0.120122,1.040358,-3.258675\H,0,
 -0.10294,1.970586,-1.740842\C,0,-0.061376,-1.376615,-2.161259\N,0,0.22
 6457,-2.391343,-2.680267\C,0,-0.737768,-1.257248,0.760608\H,0,-1.78210

 Normal termination of Gaussian 16 at Wed Apr  9 02:27:58 2025.
