 Gaussian 16, Revision C.01,

 ----------------------------------------------------------------------
 #t hf aug-cc-pvdz symm=none int=(grid=ultrafine) guess=(read,tcheck) s
 table=(opt,rrhf)
 ----------------------------------------------------------------------
 -----
 title
 -----
 Symbolic Z-matrix:
 Charge = -1 Multiplicity = 1

 SCF Done:  E(RHF) =  -1063.61876907     A.U. after   18 cycles
 Normal termination of Gaussian 16 at Wed Apr  9 02:42:37 2025.
 Gaussian 16:  ES64L-G16RevC.01  3-Jul-2019

 ----------------------------------------------------------------------
 #t hf aug-cc-pvdz iop(5/13=1,5/36=2,99/5=2) pseudo=read geom=check gue
 ss=(read,tcheck) scf=(maxcycle=1)
 ----------------------------------------------------------------------
 -----
 title
 -----
 Structure from the checkpoint file:  "E2SN2_226_mol2.chk"
 Charge = -1 Multiplicity = 1

                         Standard orientation:
 ---------------------------------------------------------------------
 Center     Atomic      Atomic             Coordinates (Angstroms)
 Number     Number       Type             X           Y           Z
 ---------------------------------------------------------------------
      1          6           0        0.177366    0.078707    0.188508
      2          6           0       -0.939535   -0.536189   -0.672197
      3         17           0        0.069940   -0.576469    1.891328
      4          1           0       -0.574856   -0.245544   -1.672126
      5          7           0        1.569793   -0.336703   -0.279704
      6          8           0        2.495189    0.336103    0.143064
      7          8           0        1.664282   -1.377281   -0.914682
      8          6           0        0.122514    1.531571    0.280657
      9          7           0       -0.019494    2.645605    0.633686
     10          6           0       -2.187789    0.178187   -0.414883
     11          7           0       -3.239035    0.669433   -0.228608
     12          6           0       -1.191594   -2.037080   -0.506600
     13          1           0       -1.641650   -2.265682    0.460402
     14          1           0       -0.262225   -2.589512   -0.615911
     15          1           0       -1.883346   -2.354611   -1.290903
     16          9           0        0.648078    1.049469   -1.887958
 ---------------------------------------------------------------------

 SCF Done:  E(RHF) =  -1063.81365066     A.U. after    2 cycles

 The electronic state is 1-A.
 Alpha  occ. eigenvalues -- -103.57854 -25.78532 -20.50515 -20.50386 -15.81367
 Alpha  occ. eigenvalues --  -15.53723 -15.52190 -11.31527 -11.19003 -11.18901
 Alpha  occ. eigenvalues --  -11.18700 -11.14638 -10.61138  -8.26855  -8.26557
 Alpha  occ. eigenvalues --   -8.26553  -1.43700  -1.28111  -1.25514  -1.12435
 Alpha  occ. eigenvalues --   -1.07518  -1.04949  -0.98873  -0.92490  -0.81921
 Alpha  occ. eigenvalues --   -0.75470  -0.68493  -0.63735  -0.62390  -0.60451
 Alpha  occ. eigenvalues --   -0.57254  -0.51228  -0.47973  -0.46968  -0.44098
 Alpha  occ. eigenvalues --   -0.44084  -0.42834  -0.42423  -0.40553  -0.39357
 Alpha  occ. eigenvalues --   -0.37978  -0.37647  -0.37554  -0.36767  -0.35595
 Alpha  occ. eigenvalues --   -0.34903  -0.33700  -0.32415  -0.31127
 Alpha virt. eigenvalues --    0.11597   0.13458   0.14227   0.16347   0.17333
 Alpha virt. eigenvalues --    0.17976   0.19000   0.19448   0.20855   0.21452
 Alpha virt. eigenvalues --    0.22734   0.23709   0.24027   0.24803   0.25323

 Mulliken charges:
               1
     1  C    0.588594
     2  C   -0.056251
     3  Cl  -0.209918
     4  H    0.196951
     5  N    0.600186
     6  O   -0.669041
     7  O   -0.641753
     8  C    0.133014
     9  N   -0.342747
    10  C   -0.260368
    11  N   -0.293945
    12  C    0.939640
    13  H   -0.035241
    14  H   -0.043399
    15  H    0.024534
    16  F   -0.930257
 Sum of Mulliken charges =  -1.00000

 Dipole moment (field-independent basis, Debye):
    X=             -1.5169    Y=             -7.1083    Z=              3.7080  Tot=              8.1595

 Test job not archived.
 1\1\GINC-SE250\SP\RHF\Aug-CC-pVDZ\C5H4Cl1F1N3O2(1-)\OHZDE\09-Apr-2025\
 0\\#t hf aug-cc-pvdz iop(5/13=1,5/36=2,99/5=2) pseudo=read geom=check
 guess=(read,tcheck) scf=(maxcycle=1)\\title\\-1,1\C,0,-0.103338,0.0392
 85,0.010704\C,0,-0.594094,0.15581,-1.442554\Cl,0,1.705693,0.293084,0.0
 68888\H,0,-1.679167,0.234379,-1.258798\N,0,-0.660123,1.144667,0.904439
 \O,0,-0.572333,0.951512,2.105581\O,0,-1.014751,2.18232,0.363658\C,0,-0
 .378229,-1.251731,0.627167\N,0,-0.304046,-2.333012,1.086726\C,0,-0.337
 352,-1.104847,-2.135021\N,0,-0.121953,-2.06693,-2.774659\C,0,-0.013329

 Normal termination of Gaussian 16 at Wed Apr  9 02:42:48 2025.
