 Gaussian 16, Revision C.01,

 ----------------------------------------------------------------------
 #t hf aug-cc-pvdz symm=none int=(grid=ultrafine) guess=(read,tcheck) s
 table=(opt,rrhf)
 ----------------------------------------------------------------------
 -----
 title
 -----
 Symbolic Z-matrix:
 Charge = -1 Multiplicity = 1

 SCF Done:  E(RHF) =  -426.628773958     A.U. after   13 cycles
 Normal termination of Gaussian 16 at Wed Apr  9 02:55:27 2025.
 Gaussian 16:  ES64L-G16RevC.01  3-Jul-2019

 ----------------------------------------------------------------------
 #t hf aug-cc-pvdz iop(5/13=1,5/36=2,99/5=2) pseudo=read geom=check gue
 ss=(read,tcheck) scf=(maxcycle=1)
 ----------------------------------------------------------------------
 -----
 title
 -----
 Structure from the checkpoint file:  "E2SN2_399_mol1.chk"
 Charge = -1 Multiplicity = 1

                         Standard orientation:
 ---------------------------------------------------------------------
 Center     Atomic      Atomic             Coordinates (Angstroms)
 Number     Number       Type             X           Y           Z
 ---------------------------------------------------------------------
      1          6           0        0.298295    0.125148    0.007426
      2          1           0       -0.293213   -1.705538   -0.889718
      3          9           0       -0.869981    1.567627    0.008682
      4          9           0        1.558393   -1.302513    0.094220
      5          6           0       -0.741459   -0.732698   -0.699378
      6          1           0       -0.933612   -0.228793   -1.657943
      7          7           0        0.326979    0.182597    1.442710
      8          1           0        0.309903    1.161105    1.691224
      9          1           0        1.193023   -0.267042    1.703517
     10          6           0        1.301298    0.859179   -0.863371
     11          1           0        2.183199    1.093988   -0.265135
     12          1           0        1.624611    0.202757   -1.671204
     13          1           0        0.858750    1.772508   -1.257022
     14          7           0       -1.963701   -0.886078    0.101938
     15          1           0       -2.729105   -1.044720   -0.546298
     16          1           0       -2.101021    0.044294    0.485859
 ---------------------------------------------------------------------

 SCF Done:  E(RHF) =  -426.758758405     A.U. after    2 cycles

 The electronic state is 1-A.
 Alpha  occ. eigenvalues --  -25.80138 -25.77929 -15.43908 -15.43825 -11.20659
 Alpha  occ. eigenvalues --  -11.09529 -11.06978  -1.30515  -1.28091  -1.00839
 Alpha  occ. eigenvalues --   -0.96856  -0.84011  -0.74690  -0.60076  -0.52340
 Alpha  occ. eigenvalues --   -0.50179  -0.48292  -0.46177  -0.43793  -0.41756
 Alpha  occ. eigenvalues --   -0.39492  -0.38674  -0.37489  -0.35991  -0.34838
 Alpha  occ. eigenvalues --   -0.34426  -0.33791  -0.33473  -0.24060  -0.22054
 Alpha virt. eigenvalues --    0.13585   0.14077   0.14729   0.15940   0.16220
 Alpha virt. eigenvalues --    0.17414   0.17558   0.18360   0.19808   0.23284
 Alpha virt. eigenvalues --    0.25012   0.26252   0.27578   0.28138   0.28693

 Mulliken charges:
               1
     1  C   -0.368331
     2  H    0.013322
     3  F   -0.830176
     4  F   -0.829483
     5  C    1.086692
     6  H   -0.044103
     7  N   -0.433749
     8  H    0.028171
     9  H    0.042903
    10  C    0.558214
    11  H   -0.063736
    12  H    0.058488
    13  H    0.069955
    14  N   -0.379594
    15  H   -0.030856
    16  H    0.122282
 Sum of Mulliken charges =  -1.00000

 Dipole moment (field-independent basis, Debye):
    X=             -0.3873    Y=              1.5992    Z=             -1.6991  Tot=              2.3653

 Test job not archived.
 1\1\GINC-SE227\SP\RHF\Aug-CC-pVDZ\C3H9F2N2(1-)\OHZDE\09-Apr-2025\0\\#t
  hf aug-cc-pvdz iop(5/13=1,5/36=2,99/5=2) pseudo=read geom=check guess
 =(read,tcheck) scf=(maxcycle=1)\\title\\-1,1\C,0,0.62742942,-0.0242518
 1,-0.02860505\H,0,1.70644843,1.79809657,0.11605013\F,0,-1.22459645,0.0
 1135589,-0.14838732\F,0,2.52616066,-0.1724239,0.05178774\C,0,0.6676785
 2,1.4970033,-0.0017259\H,0,0.1022251,1.7886581,0.89543057\N,0,0.667577
 32,-0.72199612,-1.28387598\H,0,-0.11764221,-1.35678631,-1.28468457\H,0
 ,1.5546675,-1.20500445,-1.28444266\C,0,0.58876321,-0.74172062,1.308125

 Normal termination of Gaussian 16 at Wed Apr  9 02:55:33 2025.
