 Gaussian 16, Revision C.01,

 ----------------------------------------------------------------------
 #t hf aug-cc-pvdz symm=none int=(grid=ultrafine) guess=(read,tcheck) s
 table=(opt,rrhf)
 ----------------------------------------------------------------------
 -----
 title
 -----
 Symbolic Z-matrix:
 Charge = -1 Multiplicity = 1

 SCF Done:  E(RHF) =  -476.166374714     A.U. after   16 cycles
 Normal termination of Gaussian 16 at Wed Apr  9 02:55:03 2025.
 Gaussian 16:  ES64L-G16RevC.01  3-Jul-2019

 ----------------------------------------------------------------------
 #t hf aug-cc-pvdz iop(5/13=1,5/36=2,99/5=2) pseudo=read geom=check gue
 ss=(read,tcheck) scf=(maxcycle=1)
 ----------------------------------------------------------------------
 -----
 title
 -----
 Structure from the checkpoint file:  "E2SN2_37_mol1.chk"
 Charge = -1 Multiplicity = 1

                         Standard orientation:
 ---------------------------------------------------------------------
 Center     Atomic      Atomic             Coordinates (Angstroms)
 Number     Number       Type             X           Y           Z
 ---------------------------------------------------------------------
      1          6           0       -0.136273   -0.054486    0.301548
      2          6           0       -1.005803   -0.128741   -0.871075
      3          9           0       -0.132286   -1.196954    1.149297
      4          1           0       -1.108701    2.262837   -1.392958
      5          1           0       -0.938664    1.206876   -1.331483
      6          1           0       -0.681261   -0.896364   -1.576296
      7          7           0        1.305142    0.008640   -0.215417
      8          8           0        1.865641    1.100947   -0.237735
      9          8           0        1.787763   -1.042200   -0.636885
     10          6           0       -2.480411   -0.160004   -0.531366
     11          1           0       -2.839453    0.865400   -0.341317
     12          1           0       -3.052278   -0.536404   -1.385839
     13          1           0       -2.739664   -0.783848    0.335295
     14          7           0       -0.337607    1.063645    1.172055
     15          1           0       -1.188645    0.869363    1.686695
     16          1           0       -0.525806    1.868149    0.568084
 ---------------------------------------------------------------------

 SCF Done:  E(RHF) =  -476.317863044     A.U. after    2 cycles

 The electronic state is 1-A.
 Alpha  occ. eigenvalues --  -25.97567 -20.47899 -20.47429 -15.76265 -15.48528
 Alpha  occ. eigenvalues --  -11.27086 -11.09049 -11.04993  -1.50777  -1.39557
 Alpha  occ. eigenvalues --   -1.21568  -1.06188  -0.90239  -0.85300  -0.72882
 Alpha  occ. eigenvalues --   -0.68556  -0.65450  -0.60857  -0.58549  -0.57613
 Alpha  occ. eigenvalues --   -0.55148  -0.53035  -0.49319  -0.46486  -0.44793
 Alpha  occ. eigenvalues --   -0.40109  -0.37537  -0.36909  -0.34459  -0.33688
 Alpha  occ. eigenvalues --   -0.32247  -0.28047  -0.10272
 Alpha virt. eigenvalues --    0.12919   0.13777   0.15447   0.15687   0.17471
 Alpha virt. eigenvalues --    0.18645   0.19838   0.20246   0.20824   0.22135
 Alpha virt. eigenvalues --    0.23526   0.24932   0.25173   0.26685   0.27011

 Mulliken charges:
               1
     1  C    1.479190
     2  C   -0.258326
     3  F   -0.439150
     4  H   -0.843203
     5  H    0.571032
     6  H   -0.230729
     7  N    0.217035
     8  O   -0.564830
     9  O   -0.608400
    10  C    0.352004
    11  H   -0.100309
    12  H   -0.123043
    13  H   -0.095210
    14  N   -0.554424
    15  H    0.064832
    16  H    0.133531
 Sum of Mulliken charges =  -1.00000

 Dipole moment (field-independent basis, Debye):
    X=             -1.1760    Y=             -3.7741    Z=              3.1746  Tot=              5.0700

 Test job not archived.
 1\1\GINC-SE102\SP\RHF\Aug-CC-pVDZ\C3H8F1N2O2(1-)\OHZDE\09-Apr-2025\0\\
 #t hf aug-cc-pvdz iop(5/13=1,5/36=2,99/5=2) pseudo=read geom=check gue
 ss=(read,tcheck) scf=(maxcycle=1)\\title\\-1,1\C,0,-0.08243456,0.01106
 39,-0.33110208\C,0,-0.16120596,-0.10229329,1.12409097\F,0,1.22735991,0
 .02696899,-0.88618074\H,0,-2.46977211,0.66339636,1.41876425\H,0,-1.539
 1996,0.13985619,1.33109656\H,0,0.21679848,-1.06143201,1.48336171\N,0,-
 0.69833131,-1.26653475,-0.91190166\O,0,-1.84698964,-1.21239906,-1.3425
 3479\O,0,-0.01423558,-2.28778432,-0.84955948\C,0,0.37713388,1.10792637

 Normal termination of Gaussian 16 at Wed Apr  9 02:55:09 2025.
