 Gaussian 16, Revision C.01,

 ----------------------------------------------------------------------
 #t hf aug-cc-pvdz symm=none int=(grid=ultrafine) guess=(read,tcheck) s
 table=(opt,rrhf)
 ----------------------------------------------------------------------
 -----
 title
 -----
 Symbolic Z-matrix:
 Charge = -1 Multiplicity = 1

 SCF Done:  E(RHF) =  -891.284299664     A.U. after   16 cycles
 Normal termination of Gaussian 16 at Wed Apr  9 02:58:40 2025.
 Gaussian 16:  ES64L-G16RevC.01  3-Jul-2019

 ----------------------------------------------------------------------
 #t hf aug-cc-pvdz iop(5/13=1,5/36=2,99/5=2) pseudo=read geom=check gue
 ss=(read,tcheck) scf=(maxcycle=1)
 ----------------------------------------------------------------------
 -----
 title
 -----
 Structure from the checkpoint file:  "E2SN2_47_mol2.chk"
 Charge = -1 Multiplicity = 1

                         Standard orientation:
 ---------------------------------------------------------------------
 Center     Atomic      Atomic             Coordinates (Angstroms)
 Number     Number       Type             X           Y           Z
 ---------------------------------------------------------------------
      1          6           0       -0.091806    0.183542    0.284353
      2          6           0        1.203083   -0.369372   -0.339946
      3         17           0       -0.434537    1.849133   -0.414709
      4          1           0        1.201169   -0.127844   -1.407619
      5          7           0       -1.325883   -0.598450   -0.150047
      6          8           0       -1.386961   -0.934366   -1.327643
      7          8           0       -2.190844   -0.815501    0.695677
      8          7           0        0.002701    0.174018    1.676472
      9          1           0        0.910775    0.599551    1.865832
     10          1           0       -0.758011    0.669383    2.120233
     11          6           0        1.285749   -1.884366   -0.160907
     12          1           0        1.293600   -2.140858    0.902275
     13          1           0        0.468036   -2.418416   -0.649712
     14          1           0        2.223808   -2.213447   -0.613748
     15          7           0        2.304914    0.329673    0.298401
     16          1           0        2.904737   -0.358190    0.745031
     17          1           0        2.899896    0.716060   -0.515269
     18          1           0        3.611284    0.921933   -1.816022
 ---------------------------------------------------------------------

 SCF Done:  E(RHF) =  -891.432974400     A.U. after    2 cycles

 The electronic state is 1-A.
 Alpha  occ. eigenvalues -- -103.54852 -20.52405 -20.52118 -15.81380 -15.52803
 Alpha  occ. eigenvalues --  -15.45541 -11.29058 -11.15812 -11.11921 -10.58185
 Alpha  occ. eigenvalues --   -8.23895  -8.23607  -8.23602  -1.44681  -1.26491
 Alpha  occ. eigenvalues --   -1.14315  -1.02283  -1.01669  -0.91501  -0.85644
 Alpha  occ. eigenvalues --   -0.76126  -0.70341  -0.64602  -0.63318  -0.62541
 Alpha  occ. eigenvalues --   -0.56975  -0.53624  -0.50386  -0.48185  -0.47639
 Alpha  occ. eigenvalues --   -0.43582  -0.41904  -0.41605  -0.40823  -0.38018
 Alpha  occ. eigenvalues --   -0.37002  -0.35447  -0.34559  -0.31429  -0.26476
 Alpha  occ. eigenvalues --   -0.08912
 Alpha virt. eigenvalues --    0.11588   0.12702   0.13998   0.15416   0.15680
 Alpha virt. eigenvalues --    0.16750   0.17470   0.17827   0.18754   0.21537
 Alpha virt. eigenvalues --    0.22345   0.22575   0.23027   0.23770   0.24702

 Mulliken charges:
               1
     1  C    0.745475
     2  C    0.238969
     3  Cl  -0.143891
     4  H   -0.133836
     5  N    0.289066
     6  O   -0.609633
     7  O   -0.617801
     8  N   -0.395331
     9  H    0.163303
    10  H    0.015228
    11  C    0.632856
    12  H   -0.000362
    13  H   -0.072131
    14  H   -0.029975
    15  N   -0.436164
    16  H    0.037313
    17  H    0.082386
    18  H   -0.765472
 Sum of Mulliken charges =  -1.00000

 Dipole moment (field-independent basis, Debye):
    X=             -9.4139    Y=             -3.2134    Z=              7.7282  Tot=             12.5965

 Test job not archived.
 1\1\GINC-SE049\SP\RHF\Aug-CC-pVDZ\C3H9Cl1N3O2(1-)\OHZDE\09-Apr-2025\0\
 \#t hf aug-cc-pvdz iop(5/13=1,5/36=2,99/5=2) pseudo=read geom=check gu
 ess=(read,tcheck) scf=(maxcycle=1)\\title\\-1,1\C,0,-0.611699,-0.10303
 ,-1.499735\C,0,0.101372,-0.110845,-0.134572\Cl,0,0.381326,0.882309,-2.
 692779\H,0,1.175033,-0.235825,-0.307481\N,0,-0.619541,-1.477397,-2.158
 684\O,0,0.411221,-2.137159,-2.084222\O,0,-1.642584,-1.823028,-2.745575
 \N,0,-1.92189,0.354928,-1.355883\H,0,-1.827374,1.204263,-0.798003\H,0,
 -2.373913,0.522344,-2.243937\C,0,-0.410733,-1.256748,0.73649\H,0,-1.48

 Normal termination of Gaussian 16 at Wed Apr  9 02:58:51 2025.
