 Gaussian 16, Revision C.01,

 ----------------------------------------------------------------------
 #t hf aug-cc-pvdz symm=none int=(grid=ultrafine) guess=(read,tcheck) s
 table=(opt,rrhf)
 ----------------------------------------------------------------------
 -----
 title
 -----
 Symbolic Z-matrix:
 Charge = -1 Multiplicity = 1

 SCF Done:  E(RHF) =  -1000.68206794     A.U. after   16 cycles
 Normal termination of Gaussian 16 at Wed Apr  9 02:49:28 2025.
 Gaussian 16:  ES64L-G16RevC.01  3-Jul-2019

 ----------------------------------------------------------------------
 #t hf aug-cc-pvdz iop(5/13=1,5/36=2,99/5=2) pseudo=read geom=check gue
 ss=(read,tcheck) scf=(maxcycle=1)
 ----------------------------------------------------------------------
 -----
 title
 -----
 Structure from the checkpoint file:  "E2SN2_30_mol2.chk"
 Charge = -1 Multiplicity = 1

                         Standard orientation:
 ---------------------------------------------------------------------
 Center     Atomic      Atomic             Coordinates (Angstroms)
 Number     Number       Type             X           Y           Z
 ---------------------------------------------------------------------
      1          6           0        0.004878   -0.213894    0.050514
      2          6           0       -0.994142   -1.037649   -0.733013
      3         17           0        0.089165   -0.684890    1.740176
      4          1           0       -0.878344   -0.806030   -1.800803
      5          1           0       -0.723216   -2.091490   -0.593826
      6          7           0        1.434125   -0.299637   -0.480171
      7          8           0        2.194130    0.615049   -0.182052
      8          8           0        1.718927   -1.298408   -1.129836
      9          7           0       -0.356995    1.260878   -0.087586
     10          8           0       -0.704847    1.895225    0.891399
     11          8           0       -0.254345    1.665843   -1.238162
     12          7           0       -2.319821   -0.641830   -0.334680
     13          1           0       -2.896508   -0.774866   -1.235554
     14          1           0       -2.679273   -1.298574    0.349356
     15          1           0       -3.334956   -1.134194   -2.620916
 ---------------------------------------------------------------------

 SCF Done:  E(RHF) =  -1000.86495584     A.U. after    2 cycles

 The electronic state is 1-A.
 Alpha  occ. eigenvalues -- -103.60811 -20.55500 -20.55095 -20.53925 -20.53274
 Alpha  occ. eigenvalues --  -15.84962 -15.83564 -15.46532 -11.34414 -11.17395
 Alpha  occ. eigenvalues --  -10.64146  -8.29885  -8.29549  -8.29540  -1.48288
 Alpha  occ. eigenvalues --   -1.46013  -1.29732  -1.28497  -1.15521  -1.03677
 Alpha  occ. eigenvalues --   -0.98673  -0.86853  -0.81424  -0.73454  -0.71518
 Alpha  occ. eigenvalues --   -0.67060  -0.66626  -0.65047  -0.62491  -0.60992
 Alpha  occ. eigenvalues --   -0.53685  -0.51540  -0.48684  -0.45893  -0.44613
 Alpha  occ. eigenvalues --   -0.43569  -0.42281  -0.41503  -0.40087  -0.39596
 Alpha  occ. eigenvalues --   -0.38347  -0.38117  -0.27611  -0.09499
 Alpha virt. eigenvalues --    0.13021   0.13440   0.14944   0.15840   0.16425
 Alpha virt. eigenvalues --    0.17623   0.19482   0.20828   0.21295   0.22289
 Alpha virt. eigenvalues --    0.22783   0.23957   0.24338   0.25677   0.26065

 Mulliken charges:
               1
     1  C    0.970497
     2  C    0.712192
     3  Cl  -0.080820
     4  H    0.036444
     5  H   -0.004172
     6  N    0.317117
     7  O   -0.596809
     8  O   -0.564732
     9  N    0.391189
    10  O   -0.612582
    11  O   -0.576411
    12  N   -0.324233
    13  H    0.117821
    14  H    0.002027
    15  H   -0.787529
 Sum of Mulliken charges =  -1.00000

 Dipole moment (field-independent basis, Debye):
    X=              9.8934    Y=              0.3635    Z=              9.9937  Tot=             14.0672

 Test job not archived.
 1\1\GINC-SE112\SP\RHF\Aug-CC-pVDZ\C2H5Cl1N3O4(1-)\OHZDE\09-Apr-2025\0\
 \#t hf aug-cc-pvdz iop(5/13=1,5/36=2,99/5=2) pseudo=read geom=check gu
 ess=(read,tcheck) scf=(maxcycle=1)\\title\\-1,1\C,0,-0.475883,0.129846
 ,-1.493725\C,0,0.107592,0.105953,-0.097475\Cl,0,-2.231677,0.162623,-1.
 490051\H,0,1.1943,0.251292,-0.169406\H,0,-0.304817,0.969096,0.439422\N
 ,0,-0.036172,1.328599,-2.331203\O,0,-0.118819,1.216656,-3.549304\O,0,0
 .327292,2.323668,-1.716018\N,0,0.045854,-1.076909,-2.266066\O,0,-0.726
 339,-1.943472,-2.632938\O,0,1.257151,-1.03877,-2.438302\N,0,-0.129028,

 Normal termination of Gaussian 16 at Wed Apr  9 02:49:36 2025.
