 Gaussian 16, Revision C.01,

 ----------------------------------------------------------------------
 #t hf aug-cc-pvdz symm=none int=(grid=ultrafine) guess=(read,tcheck) s
 table=(opt,rrhf)
 ----------------------------------------------------------------------
 -----
 title
 -----
 Symbolic Z-matrix:
 Charge = -1 Multiplicity = 1

 SCF Done:  E(RHF) =  -1000.71536302     A.U. after   18 cycles
 Normal termination of Gaussian 16 at Wed Apr  9 02:39:31 2025.
 Gaussian 16:  ES64L-G16RevC.01  3-Jul-2019

 ----------------------------------------------------------------------
 #t hf aug-cc-pvdz iop(5/13=1,5/36=2,99/5=2) pseudo=read geom=check gue
 ss=(read,tcheck) scf=(maxcycle=1)
 ----------------------------------------------------------------------
 -----
 title
 -----
 Structure from the checkpoint file:  "E2SN2_1_mol2.chk"
 Charge = -1 Multiplicity = 1

                         Standard orientation:
 ---------------------------------------------------------------------
 Center     Atomic      Atomic             Coordinates (Angstroms)
 Number     Number       Type             X           Y           Z
 ---------------------------------------------------------------------
      1          6           0        0.605694   -0.198592   -0.483510
      2          6           0       -0.560125   -0.703843    0.357717
      3         17           0        2.014657   -1.226258   -0.303174
      4          1           0       -0.654118   -1.793321    0.286975
      5          1           0        0.349452   -0.140496   -1.539529
      6          7           0        0.914686    1.225664   -0.068480
      7          8           0        2.009016    1.533358    0.376517
      8          8           0       -0.037089    1.987409   -0.233846
      9          7           0       -1.840490   -0.200325   -0.323598
     10          8           0       -1.956089   -0.437100   -1.526388
     11          8           0       -2.682471    0.364992    0.363428
     12          7           0       -0.458173   -0.411722    1.722121
     13          1           0       -1.012285    0.400409    1.963734
     14          1           0       -0.855243   -1.292433    2.161501
     15          1           0       -1.329478   -2.797744    1.888046
 ---------------------------------------------------------------------

 SCF Done:  E(RHF) =  -1000.89769941     A.U. after    2 cycles

 The electronic state is 1-A.
 Alpha  occ. eigenvalues -- -103.58096 -20.53942 -20.52998 -20.51189 -20.50402
 Alpha  occ. eigenvalues --  -15.82875 -15.79538 -15.48233 -11.28255 -11.22863
 Alpha  occ. eigenvalues --  -10.61431  -8.27170  -8.26843  -8.26831  -1.46085
 Alpha  occ. eigenvalues --   -1.42915  -1.27952  -1.24853  -1.12993  -1.06523
 Alpha  occ. eigenvalues --   -0.95410  -0.88786  -0.77350  -0.72216  -0.67398
 Alpha  occ. eigenvalues --   -0.67172  -0.65397  -0.64224  -0.62486  -0.59828
 Alpha  occ. eigenvalues --   -0.54857  -0.51249  -0.48813  -0.45512  -0.43753
 Alpha  occ. eigenvalues --   -0.42179  -0.40594  -0.39533  -0.38963  -0.37737
 Alpha  occ. eigenvalues --   -0.36966  -0.36098  -0.29471  -0.10902
 Alpha virt. eigenvalues --    0.12581   0.14625   0.16215   0.16903   0.17739
 Alpha virt. eigenvalues --    0.19236   0.19709   0.20457   0.21640   0.21954
 Alpha virt. eigenvalues --    0.23194   0.23695   0.25266   0.25900   0.26386

 Mulliken charges:
               1
     1  C    0.426053
     2  C    1.302037
     3  Cl  -0.028664
     4  H   -0.199899
     5  H   -0.031024
     6  N    0.467235
     7  O   -0.608007
     8  O   -0.622731
     9  N    0.460268
    10  O   -0.680337
    11  O   -0.626656
    12  N   -0.363517
    13  H    0.030454
    14  H    0.153403
    15  H   -0.678615
 Sum of Mulliken charges =  -1.00000

 Dipole moment (field-independent basis, Debye):
    X=              5.4737    Y=              6.4535    Z=             -6.0025  Tot=             10.3750

 Test job not archived.
 1\1\GINC-SE247\SP\RHF\Aug-CC-pVDZ\C2H5Cl1N3O4(1-)\OHZDE\09-Apr-2025\0\
 \#t hf aug-cc-pvdz iop(5/13=1,5/36=2,99/5=2) pseudo=read geom=check gu
 ess=(read,tcheck) scf=(maxcycle=1)\\title\\-1,1\C,0,-0.319972,-0.14787
 1,-1.578375\C,0,0.197519,-0.065726,-0.147455\Cl,0,0.988866,-0.021509,-
 2.738018\H,0,1.109375,-0.660645,-0.023394\H,0,-0.860448,-1.0743,-1.762
 298\N,0,-1.337543,0.955912,-1.784388\O,0,-1.173909,1.819307,-2.631754\
 O,0,-2.299065,0.866034,-1.022237\N,0,-0.822156,-0.807124,0.728699\O,0,
 -1.129135,-1.946133,0.375781\O,0,-1.237877,-0.250045,1.737341\N,0,0.51

 Normal termination of Gaussian 16 at Wed Apr  9 02:39:39 2025.
