 Gaussian 16, Revision C.01,

 ----------------------------------------------------------------------
 #t hf aug-cc-pvdz symm=none int=(grid=ultrafine) guess=(read,tcheck) s
 table=(opt,rrhf)
 ----------------------------------------------------------------------
 -----
 title
 -----
 Symbolic Z-matrix:
 Charge = -1 Multiplicity = 1

 SCF Done:  E(RHF) =  -931.177894892     A.U. after   16 cycles
 Normal termination of Gaussian 16 at Wed Apr  9 02:35:45 2025.
 Gaussian 16:  ES64L-G16RevC.01  3-Jul-2019

 ----------------------------------------------------------------------
 #t hf aug-cc-pvdz iop(5/13=1,5/36=2,99/5=2) pseudo=read geom=check gue
 ss=(read,tcheck) scf=(maxcycle=1)
 ----------------------------------------------------------------------
 -----
 title
 -----
 Structure from the checkpoint file:  "E2SN2_152_mol1.chk"
 Charge = -1 Multiplicity = 1

                         Standard orientation:
 ---------------------------------------------------------------------
 Center     Atomic      Atomic             Coordinates (Angstroms)
 Number     Number       Type             X           Y           Z
 ---------------------------------------------------------------------
      1          6           0        0.384734   -0.190749   -0.345450
      2          6           0       -0.638272    0.430615    0.573697
      3         17           0        0.454565   -2.048559   -0.143783
      4          9           0       -0.072413    2.637147   -0.515218
      5          1           0       -0.436878    1.730428    0.090191
      6          7           0        0.195778    0.067594   -1.755024
      7          1           0        0.127508    1.086847   -1.805026
      8          1           0       -0.713342   -0.311274   -2.006130
      9          6           0        1.724469    0.265916    0.060873
     10          7           0        2.785471    0.622011    0.417185
     11          7           0       -0.404808    0.310879    1.997584
     12          1           0        0.329615    0.951076    2.270300
     13          1           0       -0.117011   -0.632589    2.243692
     14          6           0       -1.964830    0.023930    0.188717
     15          7           0       -3.048211   -0.273568   -0.170999
 ---------------------------------------------------------------------

 SCF Done:  E(RHF) =  -931.332601193     A.U. after    2 cycles

 The electronic state is 1-A.
 Alpha  occ. eigenvalues -- -103.53940 -25.86496 -15.53599 -15.51228 -15.50127
 Alpha  occ. eigenvalues --  -15.49980 -11.26899 -11.18686 -11.15962 -11.13904
 Alpha  occ. eigenvalues --  -10.57256  -8.22956  -8.22691  -8.22687  -1.37572
 Alpha  occ. eigenvalues --   -1.12728  -1.06349  -1.04832  -1.02590  -1.00498
 Alpha  occ. eigenvalues --   -0.85969  -0.78583  -0.60985  -0.58358  -0.56164
 Alpha  occ. eigenvalues --   -0.54353  -0.52375  -0.50319  -0.46590  -0.45901
 Alpha  occ. eigenvalues --   -0.45018  -0.43399  -0.41340  -0.37669  -0.35634
 Alpha  occ. eigenvalues --   -0.35237  -0.34896  -0.33511  -0.33014  -0.31946
 Alpha  occ. eigenvalues --   -0.27835  -0.22668
 Alpha virt. eigenvalues --    0.13197   0.14065   0.15293   0.17069   0.17447
 Alpha virt. eigenvalues --    0.17990   0.19301   0.20044   0.21570   0.22732
 Alpha virt. eigenvalues --    0.23823   0.23833   0.25008   0.25437   0.25791

 Mulliken charges:
               1
     1  C    1.059901
     2  C    0.260571
     3  Cl  -0.284761
     4  F   -0.591793
     5  H    0.458810
     6  N   -0.588000
     7  H    0.119414
     8  H    0.055404
     9  C   -0.478667
    10  N   -0.246939
    11  N   -0.341363
    12  H    0.032651
    13  H   -0.001690
    14  C   -0.093702
    15  N   -0.359836
 Sum of Mulliken charges =  -1.00000

 Dipole moment (field-independent basis, Debye):
    X=              1.3820    Y=             -3.5825    Z=              0.6940  Tot=              3.9020

 Test job not archived.
 1\1\GINC-SE092\SP\RHF\Aug-CC-pVDZ\C4H5Cl1F1N4(1-)\OHZDE\09-Apr-2025\0\
 \#t hf aug-cc-pvdz iop(5/13=1,5/36=2,99/5=2) pseudo=read geom=check gu
 ess=(read,tcheck) scf=(maxcycle=1)\\title\\-1,1\C,0,-0.21718166,0.0175
 3092,-0.28728825\C,0,-0.07486514,-0.02058908,1.21463045\Cl,0,1.4429962
 5,0.17569766,-1.13333461\F,0,-2.57403564,-0.36835097,1.30366601\H,0,-1
 .4450963,-0.20355913,1.44450119\N,0,-0.87918847,-1.12227018,-0.8805374
 9\H,0,-1.75801866,-1.18626348,-0.36130778\H,0,-0.32583935,-1.94165946,
 -0.64495117\C,0,-0.93145718,1.24918081,-0.66329283\N,0,-1.47997848,2.2

 Normal termination of Gaussian 16 at Wed Apr  9 02:35:54 2025.
