 Gaussian 16, Revision C.01,

 ----------------------------------------------------------------------
 #t hf aug-cc-pvdz symm=none int=(grid=ultrafine) guess=(read,tcheck) s
 table=(opt,rrhf)
 ----------------------------------------------------------------------
 -----
 title
 -----
 Symbolic Z-matrix:
 Charge = -1 Multiplicity = 1

 SCF Done:  E(RHF) =  -852.235983276     A.U. after   17 cycles
 Normal termination of Gaussian 16 at Wed Apr  9 02:39:02 2025.
 Gaussian 16:  ES64L-G16RevC.01  3-Jul-2019

 ----------------------------------------------------------------------
 #t hf aug-cc-pvdz iop(5/13=1,5/36=2,99/5=2) pseudo=read geom=check gue
 ss=(read,tcheck) scf=(maxcycle=1)
 ----------------------------------------------------------------------
 -----
 title
 -----
 Structure from the checkpoint file:  "E2SN2_204_mol1.chk"
 Charge = -1 Multiplicity = 1

                         Standard orientation:
 ---------------------------------------------------------------------
 Center     Atomic      Atomic             Coordinates (Angstroms)
 Number     Number       Type             X           Y           Z
 ---------------------------------------------------------------------
      1          6           0        0.937943   -0.305147    0.697596
      2          1           0       -0.511252   -1.850573    0.601381
      3         17           0        0.920178    1.526256   -0.293200
      4          1           0        1.048346   -1.864903    2.054028
      5          6           0       -0.284109   -0.956957    0.026791
      6          1           0        0.799087    0.070862    1.697449
      7          7           0        2.213992   -0.791380    0.209621
      8          1           0        2.541978   -1.416955    0.932555
      9          1           0        2.839851   -0.003269    0.095227
     10          7           0       -0.132278   -1.283345   -1.365101
     11          1           0        0.782132   -1.726066   -1.412535
     12          1           0       -0.038621   -0.407938   -1.870752
     13          7           0       -1.487111   -0.074923    0.221322
     14          8           0       -2.159236    0.255687   -0.751376
     15          8           0       -1.739486    0.228394    1.386353
 ---------------------------------------------------------------------

 SCF Done:  E(RHF) =  -852.369796942     A.U. after    2 cycles

 The electronic state is 1-A.
 Alpha  occ. eigenvalues -- -103.47678 -20.49126 -20.48615 -15.78098 -15.49537
 Alpha  occ. eigenvalues --  -15.49354 -11.23347 -11.20902 -10.50994  -8.16655
 Alpha  occ. eigenvalues --   -8.16487  -8.16468  -1.41260  -1.23010  -1.09099
 Alpha  occ. eigenvalues --   -1.03165  -0.94430  -0.90047  -0.77057  -0.68364
 Alpha  occ. eigenvalues --   -0.63789  -0.60939  -0.58944  -0.55015  -0.53141
 Alpha  occ. eigenvalues --   -0.51320  -0.48761  -0.45047  -0.38576  -0.37706
 Alpha  occ. eigenvalues --   -0.34648  -0.32766  -0.30496  -0.30153  -0.29169
 Alpha  occ. eigenvalues --   -0.28914  -0.11492
 Alpha virt. eigenvalues --    0.12976   0.14451   0.15319   0.16076   0.17116
 Alpha virt. eigenvalues --    0.17891   0.20057   0.21087   0.21425   0.23209
 Alpha virt. eigenvalues --    0.24343   0.24642   0.25838   0.26490   0.27061

 Mulliken charges:
               1
     1  C    0.084954
     2  H   -0.123391
     3  Cl  -0.523535
     4  H   -0.572394
     5  C    1.355910
     6  H   -0.171015
     7  N   -0.286705
     8  H    0.112750
     9  H    0.067596
    10  N   -0.363722
    11  H    0.121418
    12  H    0.081842
    13  N    0.451239
    14  O   -0.615923
    15  O   -0.619025
 Sum of Mulliken charges =  -1.00000

 Dipole moment (field-independent basis, Debye):
    X=              0.9623    Y=              1.9112    Z=             -4.3358  Tot=              4.8350

 Test job not archived.
 1\1\GINC-SE080\SP\RHF\Aug-CC-pVDZ\C2H7Cl1N3O2(1-)\OHZDE\09-Apr-2025\0\
 \#t hf aug-cc-pvdz iop(5/13=1,5/36=2,99/5=2) pseudo=read geom=check gu
 ess=(read,tcheck) scf=(maxcycle=1)\\title\\-1,1\C,0,0.56406877,0.00541
 81,0.08219419\H,0,1.77064232,1.71060919,-0.28423142\Cl,0,-1.51476309,-
 0.09991232,0.14046458\H,0,2.58944849,-0.25699263,-0.25531265\C,0,0.727
 43086,1.53074814,-0.03998194\H,0,0.71224032,-0.57148658,-0.81535573\N,
 0,0.83439487,-0.51733264,1.40752404\H,0,1.75198869,-0.93481019,1.33481
 846\H,0,0.13241235,-1.21204045,1.63225849\N,0,0.34663165,2.29417476,1.

 Normal termination of Gaussian 16 at Wed Apr  9 02:39:09 2025.
