 Gaussian 16, Revision C.01,

 ----------------------------------------------------------------------
 #t hf aug-cc-pvdz symm=none int=(grid=ultrafine) guess=(read,tcheck) s
 table=(opt,rrhf)
 ----------------------------------------------------------------------
 -----
 title
 -----
 Symbolic Z-matrix:
 Charge = -1 Multiplicity = 1

 SCF Done:  E(RHF) =  -515.245721337     A.U. after   16 cycles
 Normal termination of Gaussian 16 at Wed Apr  9 02:51:35 2025.
 Gaussian 16:  ES64L-G16RevC.01  3-Jul-2019

 ----------------------------------------------------------------------
 #t hf aug-cc-pvdz iop(5/13=1,5/36=2,99/5=2) pseudo=read geom=check gue
 ss=(read,tcheck) scf=(maxcycle=1)
 ----------------------------------------------------------------------
 -----
 title
 -----
 Structure from the checkpoint file:  "E2SN2_343_mol2.chk"
 Charge = -1 Multiplicity = 1

                         Standard orientation:
 ---------------------------------------------------------------------
 Center     Atomic      Atomic             Coordinates (Angstroms)
 Number     Number       Type             X           Y           Z
 ---------------------------------------------------------------------
      1          6           0       -0.934963   -0.374057    0.012812
      2          6           0        0.175765    0.508409   -0.565418
      3          9           0       -0.471606   -1.708688   -0.116150
      4          1           0        0.295453    0.247111   -1.624486
      5          6           0       -1.237828   -0.118808    1.471901
      6          1           0       -0.337058   -0.195054    2.078600
      7          1           0       -1.675187    0.878428    1.574976
      8          1           0       -1.966084   -0.865062    1.804211
      9          6           0       -2.177861   -0.232874   -0.839457
     10          1           0       -1.948149   -0.440171   -1.888806
     11          1           0       -2.926975   -0.953286   -0.498079
     12          1           0       -2.574014    0.782665   -0.725114
     13          7           0        1.531772   -0.012340   -0.018979
     14          8           0        2.272340   -0.573673   -0.830927
     15          8           0        1.810633    0.174620    1.160585
     16          7           0        0.013201    1.872941   -0.269670
     17          1           0        0.319782    2.453931   -1.038368
     18          1           0       -0.969115    2.187554   -0.003339
     19          1           0       -2.403462    2.754273    0.270001
 ---------------------------------------------------------------------

 SCF Done:  E(RHF) =  -515.407974463     A.U. after    2 cycles

 The electronic state is 1-A.
 Alpha  occ. eigenvalues --  -25.98620 -20.49113 -20.49085 -15.77288 -15.47435
 Alpha  occ. eigenvalues --  -11.21789 -11.21480 -11.10916 -11.09972  -1.51704
 Alpha  occ. eigenvalues --   -1.40905  -1.22823  -1.06797  -0.94884  -0.87715
 Alpha  occ. eigenvalues --   -0.82687  -0.74384  -0.69321  -0.64278  -0.62084
 Alpha  occ. eigenvalues --   -0.61377  -0.59964  -0.57255  -0.56349  -0.51862
 Alpha  occ. eigenvalues --   -0.49955  -0.46611  -0.43476  -0.43176  -0.41574
 Alpha  occ. eigenvalues --   -0.39990  -0.39095  -0.36641  -0.35421  -0.34605
 Alpha  occ. eigenvalues --   -0.27163  -0.10279
 Alpha virt. eigenvalues --    0.12436   0.12843   0.14079   0.15095   0.15911
 Alpha virt. eigenvalues --    0.16613   0.17886   0.18654   0.20619   0.21011
 Alpha virt. eigenvalues --    0.22129   0.22374   0.22872   0.24578   0.24978

 Mulliken charges:
               1
     1  C   -1.410949
     2  C    1.804858
     3  F   -0.515749
     4  H   -0.200462
     5  C    0.737618
     6  H    0.011124
     7  H    0.058010
     8  H   -0.012573
     9  C    0.683421
    10  H    0.022234
    11  H    0.015128
    12  H   -0.054322
    13  N    0.380555
    14  O   -0.660188
    15  O   -0.629210
    16  N   -0.440011
    17  H   -0.014016
    18  H   -0.083403
    19  H   -0.692065
 Sum of Mulliken charges =  -1.00000

 Dipole moment (field-independent basis, Debye):
    X=              3.2416    Y=             -6.7602    Z=             -2.5032  Tot=              7.9041

 Test job not archived.
 1\1\GINC-SE459\SP\RHF\Aug-CC-pVDZ\C4H10F1N2O2(1-)\OHZDE\09-Apr-2025\0\
 \#t hf aug-cc-pvdz iop(5/13=1,5/36=2,99/5=2) pseudo=read geom=check gu
 ess=(read,tcheck) scf=(maxcycle=1)\\title\\-1,1\C,0,-0.022463,0.017072
 ,-0.009254\C,0,-0.366918,-0.067508,-1.49956\F,0,1.394195,0.054196,0.05
 6113\H,0,0.057292,-1.001222,-1.890008\C,0,-0.559136,1.247897,0.685636\
 H,0,-0.247972,2.155652,0.171396\H,0,-1.651003,1.190898,0.716691\H,0,-0
 .172012,1.257184,1.709223\C,0,-0.483094,-1.24875,0.681111\H,0,-0.07094
 4,-2.129741,0.180251\H,0,-0.128501,-1.238752,1.715938\H,0,-1.578708,-1

 Normal termination of Gaussian 16 at Wed Apr  9 02:51:44 2025.
