 Gaussian 16, Revision C.01,

 ----------------------------------------------------------------------
 #t hf aug-cc-pvdz symm=none int=(grid=ultrafine) guess=(read,tcheck) s
 table=(opt,rrhf)
 ----------------------------------------------------------------------
 -----
 title
 -----
 Symbolic Z-matrix:
 Charge = -1 Multiplicity = 1

 SCF Done:  E(RHF) =  -832.217067916     A.U. after   16 cycles
 Normal termination of Gaussian 16 at Wed Apr  9 02:33:11 2025.
 Gaussian 16:  ES64L-G16RevC.01  3-Jul-2019

 ----------------------------------------------------------------------
 #t hf aug-cc-pvdz iop(5/13=1,5/36=2,99/5=2) pseudo=read geom=check gue
 ss=(read,tcheck) scf=(maxcycle=1)
 ----------------------------------------------------------------------
 -----
 title
 -----
 Structure from the checkpoint file:  "E2SN2_138_mol1.chk"
 Charge = -1 Multiplicity = 1

                         Standard orientation:
 ---------------------------------------------------------------------
 Center     Atomic      Atomic             Coordinates (Angstroms)
 Number     Number       Type             X           Y           Z
 ---------------------------------------------------------------------
      1          6           0        0.395520    0.172799    0.385594
      2          6           0       -0.618302   -0.893337   -0.020818
      3         17           0        0.350489    1.604057   -0.779046
      4          1           0        0.038619   -2.153742    2.109083
      5          1           0       -0.444212   -1.628233    0.929615
      6          7           0        0.221438    0.648171    1.728862
      7          1           0        0.226512   -0.226859    2.286580
      8          1           0       -0.717067    1.035216    1.793367
      9          6           0        1.748549   -0.390226    0.236660
     10          7           0        2.823790   -0.831613    0.066609
     11          6           0       -1.961520   -0.359422    0.064196
     12          7           0       -3.051861    0.068459    0.190122
     13          7           0       -0.382391   -1.620057   -1.246067
     14          1           0       -0.048847   -1.004869   -1.980616
     15          1           0        0.324356   -2.324079   -1.064728
 ---------------------------------------------------------------------

 SCF Done:  E(RHF) =  -832.341578869     A.U. after    2 cycles

 The electronic state is 1-A.
 Alpha  occ. eigenvalues -- -103.55459 -15.54213 -15.52219 -15.51442 -15.51421
 Alpha  occ. eigenvalues --  -11.27808 -11.19216 -11.17617 -11.17508 -10.58783
 Alpha  occ. eigenvalues --   -8.24487  -8.24210  -8.24207  -1.14108  -1.07213
 Alpha  occ. eigenvalues --   -1.06306  -1.04413  -1.01899  -0.87100  -0.80123
 Alpha  occ. eigenvalues --   -0.61518  -0.59399  -0.56810  -0.54893  -0.51885
 Alpha  occ. eigenvalues --   -0.47068  -0.44662  -0.43543  -0.41927  -0.37616
 Alpha  occ. eigenvalues --   -0.36491  -0.36125  -0.34562  -0.34193  -0.33528
 Alpha  occ. eigenvalues --   -0.32712  -0.28580  -0.12278
 Alpha virt. eigenvalues --    0.12852   0.14072   0.15467   0.16882   0.17725
 Alpha virt. eigenvalues --    0.18199   0.19133   0.20081   0.20380   0.22192
 Alpha virt. eigenvalues --    0.23067   0.23783   0.24528   0.24617   0.25419

 Mulliken charges:
               1
     1  C    0.883993
     2  C    1.335366
     3  Cl  -0.241644
     4  H   -0.496425
     5  H   -0.221711
     6  N   -0.604710
     7  H    0.120354
     8  H    0.020782
     9  C   -0.441562
    10  N   -0.210848
    11  C   -0.468073
    12  N   -0.297298
    13  N   -0.438551
    14  H    0.013787
    15  H    0.046540
 Sum of Mulliken charges =  -1.00000

 Dipole moment (field-independent basis, Debye):
    X=              0.7734    Y=              4.9211    Z=             -5.2252  Tot=              7.2193

 Test job not archived.
 1\1\GINC-SE404\SP\RHF\Aug-CC-pVDZ\C4H6Cl1N4(1-)\OHZDE\09-Apr-2025\0\\#
 t hf aug-cc-pvdz iop(5/13=1,5/36=2,99/5=2) pseudo=read geom=check gues
 s=(read,tcheck) scf=(maxcycle=1)\\title\\-1,1\C,0,-0.15879028,-0.05857
 612,-0.35018537\C,0,-0.11295737,0.0077404,1.17400415\Cl,0,1.54332183,-
 0.15264609,-1.05791368\H,0,-2.67086497,-0.10192383,1.13244235\H,0,-1.3
 122637,-0.0364058,1.35680957\N,0,-0.94336714,-1.15002646,-0.85399619\H
 ,0,-1.85352639,-1.02264029,-0.37219254\H,0,-0.53440447,-2.0084642,-0.4
 926218\C,0,-0.70596718,1.21231163,-0.85546514\N,0,-1.09598937,2.247772

 Normal termination of Gaussian 16 at Wed Apr  9 02:33:18 2025.
