 Gaussian 16, Revision C.01,

 ----------------------------------------------------------------------
 #t hf aug-cc-pvdz symm=none int=(grid=ultrafine) guess=(read,tcheck) s
 table=(opt,rrhf)
 ----------------------------------------------------------------------
 -----
 title
 -----
 Symbolic Z-matrix:
 Charge = -1 Multiplicity = 1

 SCF Done:  E(RHF) =  -931.188349185     A.U. after   16 cycles
 Normal termination of Gaussian 16 at Wed Apr  9 02:35:38 2025.
 Gaussian 16:  ES64L-G16RevC.01  3-Jul-2019

 ----------------------------------------------------------------------
 #t hf aug-cc-pvdz iop(5/13=1,5/36=2,99/5=2) pseudo=read geom=check gue
 ss=(read,tcheck) scf=(maxcycle=1)
 ----------------------------------------------------------------------
 -----
 title
 -----
 Structure from the checkpoint file:  "E2SN2_152_mol2.chk"
 Charge = -1 Multiplicity = 1

                         Standard orientation:
 ---------------------------------------------------------------------
 Center     Atomic      Atomic             Coordinates (Angstroms)
 Number     Number       Type             X           Y           Z
 ---------------------------------------------------------------------
      1          6           0        0.406465   -0.189925   -0.341515
      2          6           0       -0.570897    0.459301    0.659323
      3         17           0       -0.018024   -1.970672   -0.471431
      4          1           0       -0.216251    1.503370    0.609901
      5          7           0        0.414583    0.409934   -1.634649
      6          1           0       -0.524409    0.334283   -2.017174
      7          1           0        0.586411    1.428493   -1.375577
      8          6           0        1.759793   -0.131007    0.233823
      9          7           0        2.849649   -0.133525    0.669271
     10          7           0       -0.457255   -0.104151    1.990888
     11          1           0       -0.812265    0.554141    2.671543
     12          1           0       -0.981826   -0.967246    2.063745
     13          6           0       -1.933799    0.411273    0.106667
     14          7           0       -3.048187    0.364166   -0.266378
     15          9           0        0.663760    2.621731   -0.355757
 ---------------------------------------------------------------------

 SCF Done:  E(RHF) =  -931.341510781     A.U. after    2 cycles

 The electronic state is 1-A.
 Alpha  occ. eigenvalues -- -103.54768 -25.78247 -15.53632 -15.52498 -15.52214
 Alpha  occ. eigenvalues --  -15.48324 -11.26811 -11.19301 -11.18607 -11.17430
 Alpha  occ. eigenvalues --  -10.58116  -8.23822  -8.23549  -8.23542  -1.27647
 Alpha  occ. eigenvalues --   -1.13294  -1.07753  -1.05388  -1.04725  -1.00517
 Alpha  occ. eigenvalues --   -0.87203  -0.79021  -0.62030  -0.59592  -0.56887
 Alpha  occ. eigenvalues --   -0.54492  -0.50961  -0.48342  -0.44729  -0.44159
 Alpha  occ. eigenvalues --   -0.42360  -0.38494  -0.37529  -0.37291  -0.36429
 Alpha  occ. eigenvalues --   -0.35717  -0.34638  -0.33964  -0.32923  -0.32275
 Alpha  occ. eigenvalues --   -0.31267  -0.27595
 Alpha virt. eigenvalues --    0.11865   0.14154   0.14683   0.17076   0.17517
 Alpha virt. eigenvalues --    0.18488   0.19478   0.19723   0.21302   0.22677
 Alpha virt. eigenvalues --    0.23592   0.24151   0.24306   0.24943   0.25812

 Mulliken charges:
               1
     1  C    0.798415
     2  C    1.301293
     3  Cl  -0.254002
     4  H   -0.073102
     5  N   -0.661277
     6  H    0.031995
     7  H    0.232201
     8  C   -0.393489
     9  N   -0.243291
    10  N   -0.382663
    11  H    0.025496
    12  H    0.004114
    13  C   -0.144038
    14  N   -0.304523
    15  F   -0.937129
 Sum of Mulliken charges =  -1.00000

 Dipole moment (field-independent basis, Debye):
    X=             -3.6745    Y=             -5.3820    Z=              2.3586  Tot=              6.9305

 Test job not archived.
 1\1\GINC-SE120\SP\RHF\Aug-CC-pVDZ\C4H5Cl1F1N4(1-)\OHZDE\09-Apr-2025\0\
 \#t hf aug-cc-pvdz iop(5/13=1,5/36=2,99/5=2) pseudo=read geom=check gu
 ess=(read,tcheck) scf=(maxcycle=1)\\title\\-1,1\C,0,-0.012453,0.103843
 ,-1.484725\C,0,0.047762,-0.044668,0.049135\Cl,0,-1.764749,0.375804,-1.
 957617\H,0,1.136708,-0.170846,0.17786\N,0,0.806868,1.14485,-2.011137\H
 ,0,0.498508,2.020964,-1.597504\H,0,1.747201,0.888094,-1.582236\C,0,0.3
 81012,-1.180309,-2.08649\N,0,0.657714,-2.195157,-2.606996\N,0,-0.70485
 2,-1.189137,0.525812\H,0,-0.360122,-1.470136,1.434037\H,0,-1.689854,-0

 Normal termination of Gaussian 16 at Wed Apr  9 02:35:46 2025.
