 Gaussian 16, Revision C.01,

 ----------------------------------------------------------------------
 #t hf aug-cc-pvdz symm=none int=(grid=ultrafine) guess=(read,tcheck) s
 table=(opt,rrhf)
 ----------------------------------------------------------------------
 -----
 title
 -----
 Symbolic Z-matrix:
 Charge = -1 Multiplicity = 1

 SCF Done:  E(RHF) =  -1222.60847020     A.U. after   15 cycles
 Normal termination of Gaussian 16 at Wed Apr  9 02:28:49 2025.
 Gaussian 16:  ES64L-G16RevC.01  3-Jul-2019

 ----------------------------------------------------------------------
 #t hf aug-cc-pvdz iop(5/13=1,5/36=2,99/5=2) pseudo=read geom=check gue
 ss=(read,tcheck) scf=(maxcycle=1)
 ----------------------------------------------------------------------
 -----
 title
 -----
 Structure from the checkpoint file:  "E2SN2_110_mol2.chk"
 Charge = -1 Multiplicity = 1

                         Standard orientation:
 ---------------------------------------------------------------------
 Center     Atomic      Atomic             Coordinates (Angstroms)
 Number     Number       Type             X           Y           Z
 ---------------------------------------------------------------------
      1          6           0        0.768231   -0.611015    0.380330
      2          6           0        0.032961    0.692877   -0.000076
      3         17           0        1.638870   -1.173158   -1.108900
      4          1           0       -0.602021    0.474261   -0.870555
      5          6           0        1.798370   -0.383354    1.469892
      6          1           0        2.260815   -1.331137    1.755750
      7          1           0        1.286446    0.048484    2.332274
      8          1           0        2.582290    0.300933    1.138812
      9          6           0       -0.244857   -1.674045    0.764033
     10          1           0       -1.015681   -1.778680   -0.000065
     11          1           0        0.262326   -2.629441    0.921883
     12          1           0       -0.740130   -1.370436    1.688113
     13          6           0        0.996872    1.734248   -0.374654
     14          7           0        1.753425    2.594421   -0.634923
     15          7           0       -0.775419    1.131026    1.141857
     16          1           0       -1.722672    0.795329    0.931505
     17          1           0       -0.828942    2.143147    1.142576
     18         17           0       -3.311690   -0.078775   -0.422040
 ---------------------------------------------------------------------

 SCF Done:  E(RHF) =  -1222.72803455     A.U. after    2 cycles

 The electronic state is 1-A.
 Alpha  occ. eigenvalues -- -103.53947-103.38088 -15.53745 -15.49528 -11.21189
 Alpha  occ. eigenvalues --  -11.19851 -11.18804 -11.13452 -11.11842 -10.57325
 Alpha  occ. eigenvalues --  -10.41173  -8.23033  -8.22775  -8.22767  -8.06774
 Alpha  occ. eigenvalues --   -8.06742  -8.06737  -1.10415  -1.06682  -1.03709
 Alpha  occ. eigenvalues --   -0.92840  -0.84541  -0.84094  -0.83226  -0.67379
 Alpha  occ. eigenvalues --   -0.60321  -0.56044  -0.52690  -0.50159  -0.49034
 Alpha  occ. eigenvalues --   -0.46293  -0.44692  -0.43363  -0.41958  -0.40251
 Alpha  occ. eigenvalues --   -0.39039  -0.35766  -0.35108  -0.34192  -0.33527
 Alpha  occ. eigenvalues --   -0.28804  -0.21516  -0.21201  -0.21180
 Alpha virt. eigenvalues --    0.11477   0.13041   0.13551   0.14502   0.15310
 Alpha virt. eigenvalues --    0.16311   0.16622   0.18158   0.18455   0.19808
 Alpha virt. eigenvalues --    0.20659   0.22147   0.23047   0.23800   0.24185

 Mulliken charges:
               1
     1  C   -2.110203
     2  C    1.349339
     3  Cl  -0.275682
     4  H   -0.109405
     5  C    0.897894
     6  H   -0.022101
     7  H    0.051828
     8  H   -0.096526
     9  C    1.123923
    10  H    0.025458
    11  H   -0.056354
    12  H    0.054981
    13  C   -0.346507
    14  N   -0.288791
    15  N   -0.384461
    16  H    0.147370
    17  H   -0.027033
    18  Cl  -0.933731
 Sum of Mulliken charges =  -1.00000

 Dipole moment (field-independent basis, Debye):
    X=              8.2759    Y=             -1.7113    Z=              3.4842  Tot=              9.1411

 Test job not archived.
 1\1\GINC-SE435\SP\RHF\Aug-CC-pVDZ\C5H9Cl2N2(1-)\OHZDE\09-Apr-2025\0\\#
 t hf aug-cc-pvdz iop(5/13=1,5/36=2,99/5=2) pseudo=read geom=check gues
 s=(read,tcheck) scf=(maxcycle=1)\\title\\-1,1\C,0,-0.525642,-0.022334,
 -1.473989\C,0,-0.054594,-0.204899,-0.014451\Cl,0,-0.20654,-1.592083,-2
 .325978\H,0,0.995876,-0.528096,-0.042446\C,0,-2.012496,0.264733,-1.557
 764\H,0,-2.304189,0.443912,-2.595393\H,0,-2.217419,1.156028,-0.961229\
 H,0,-2.600694,-0.569367,-1.169573\C,0,0.303982,1.056353,-2.146125\H,0,
 1.370848,0.869808,-2.019785\H,0,0.053138,1.108452,-3.208808\H,0,0.0820

 Normal termination of Gaussian 16 at Wed Apr  9 02:28:58 2025.
