 Gaussian 16, Revision C.01,

 ----------------------------------------------------------------------
 #t hf aug-cc-pvdz symm=none int=(grid=ultrafine) guess=(read,tcheck) s
 table=(opt,rrhf)
 ----------------------------------------------------------------------
 -----
 title
 -----
 Symbolic Z-matrix:
 Charge = -1 Multiplicity = 1

 SCF Done:  E(RHF) =  -465.669456116     A.U. after   13 cycles
 Normal termination of Gaussian 16 at Wed Apr  9 02:52:21 2025.
 Gaussian 16:  ES64L-G16RevC.01  3-Jul-2019

 ----------------------------------------------------------------------
 #t hf aug-cc-pvdz iop(5/13=1,5/36=2,99/5=2) pseudo=read geom=check gue
 ss=(read,tcheck) scf=(maxcycle=1)
 ----------------------------------------------------------------------
 -----
 title
 -----
 Structure from the checkpoint file:  "E2SN2_353_mol1.chk"
 Charge = -1 Multiplicity = 1

                         Standard orientation:
 ---------------------------------------------------------------------
 Center     Atomic      Atomic             Coordinates (Angstroms)
 Number     Number       Type             X           Y           Z
 ---------------------------------------------------------------------
      1          6           0       -0.534686   -0.004858    0.017512
      2          1           0        0.872022   -0.420769   -1.502541
      3          9           0       -0.531691    1.925064    0.237480
      4          9           0       -0.642490   -1.881699   -0.291206
      5          6           0        0.949597   -0.094050   -0.455288
      6          6           0       -1.655433    0.147677   -0.987196
      7          1           0       -2.095514    1.136725   -0.899679
      8          1           0       -1.266239    0.006417   -1.998835
      9          1           0       -2.397275   -0.630030   -0.810664
     10          6           0       -0.857357   -0.114292    1.485742
     11          1           0       -1.031043   -1.156911    1.744617
     12          1           0       -0.025736    0.275763    2.070989
     13          1           0       -1.739773    0.487261    1.703511
     14          7           0        1.662759   -1.068720    0.368338
     15          1           0        2.578976   -1.183803   -0.051751
     16          1           0        1.128888   -1.925365    0.266521
     17          7           0        1.765298    1.117102   -0.427076
     18          1           0        2.042196    1.202612    0.548005
     19          1           0        1.092005    1.872278   -0.540083
 ---------------------------------------------------------------------

 SCF Done:  E(RHF) =  -465.810215157     A.U. after    2 cycles

 The electronic state is 1-A.
 Alpha  occ. eigenvalues --  -25.80012 -25.79041 -15.44497 -15.43643 -11.18592
 Alpha  occ. eigenvalues --  -11.14081 -11.07007 -11.06961  -1.30293  -1.29175
 Alpha  occ. eigenvalues --   -1.03962  -0.92795  -0.89451  -0.78941  -0.71584
 Alpha  occ. eigenvalues --   -0.58678  -0.53108  -0.51157  -0.48426  -0.46470
 Alpha  occ. eigenvalues --   -0.44899  -0.43335  -0.40591  -0.39146  -0.38690
 Alpha  occ. eigenvalues --   -0.37210  -0.36733  -0.35469  -0.34887  -0.34435
 Alpha  occ. eigenvalues --   -0.34102  -0.33227  -0.24718  -0.23276
 Alpha virt. eigenvalues --    0.13552   0.14031   0.14220   0.15340   0.15953
 Alpha virt. eigenvalues --    0.16304   0.16758   0.17707   0.18578   0.19280
 Alpha virt. eigenvalues --    0.19781   0.23768   0.24700   0.25612   0.25836

 Mulliken charges:
               1
     1  C   -0.799181
     2  H   -0.199244
     3  F   -0.843375
     4  F   -0.826860
     5  C    0.961517
     6  C    0.382539
     7  H    0.084638
     8  H   -0.029439
     9  H    0.071581
    10  C    0.734570
    11  H    0.075108
    12  H    0.049100
    13  H   -0.012884
    14  N   -0.313337
    15  H   -0.063436
    16  H    0.106281
    17  N   -0.528660
    18  H    0.037498
    19  H    0.113585
 Sum of Mulliken charges =  -1.00000

 Dipole moment (field-independent basis, Debye):
    X=              0.4122    Y=             -0.7590    Z=              0.0577  Tot=              0.8656

 Test job not archived.
 1\1\GINC-SE453\SP\RHF\Aug-CC-pVDZ\C4H11F2N2(1-)\OHZDE\09-Apr-2025\0\\#
 t hf aug-cc-pvdz iop(5/13=1,5/36=2,99/5=2) pseudo=read geom=check gues
 s=(read,tcheck) scf=(maxcycle=1)\\title\\-1,1\C,0,0.5608743,0.0068444,
 -0.05923148\H,0,1.35753756,1.73913337,-0.96855928\F,0,-1.25948735,-0.1
 5534098,-0.717237\F,0,2.38677395,0.08361704,0.47896904\C,0,0.61435379,
 1.56175096,-0.17753746\C,0,1.01499985,-0.86912289,-1.20606719\H,0,0.15
 947551,-1.376332,-1.64237284\H,0,1.50661544,-0.2566491,-1.96634993\H,0
 ,1.74945282,-1.58347777,-0.83647607\C,0,0.09223999,-0.62749212,1.22520

 Normal termination of Gaussian 16 at Wed Apr  9 02:52:29 2025.
