 Gaussian 16, Revision C.01,

 ----------------------------------------------------------------------
 #t hf aug-cc-pvdz symm=none int=(grid=ultrafine) guess=(read,tcheck) s
 table=(opt,rrhf)
 ----------------------------------------------------------------------
 -----
 title
 -----
 Symbolic Z-matrix:
 Charge = -1 Multiplicity = 1

 SCF Done:  E(RHF) =  -567.935770778     A.U. after   16 cycles
 Normal termination of Gaussian 16 at Wed Apr  9 02:32:28 2025.
 Gaussian 16:  ES64L-G16RevC.01  3-Jul-2019

 ----------------------------------------------------------------------
 #t hf aug-cc-pvdz iop(5/13=1,5/36=2,99/5=2) pseudo=read geom=check gue
 ss=(read,tcheck) scf=(maxcycle=1)
 ----------------------------------------------------------------------
 -----
 title
 -----
 Structure from the checkpoint file:  "E2SN2_125_mol1.chk"
 Charge = -1 Multiplicity = 1

                         Standard orientation:
 ---------------------------------------------------------------------
 Center     Atomic      Atomic             Coordinates (Angstroms)
 Number     Number       Type             X           Y           Z
 ---------------------------------------------------------------------
      1          6           0       -0.160468   -0.531501   -0.133211
      2          6           0        0.786053    0.490296    0.464521
      3          9           0        0.038526   -0.713701   -1.483929
      4          1           0        0.589738   -0.404611    2.840775
      5          1           0        0.709860    0.208184    1.670753
      6          7           0       -0.163560   -1.799067    0.506994
      7          1           0       -0.029051   -1.607266    1.515372
      8          1           0        0.662649   -2.290931    0.183015
      9          7           0       -1.576279    0.049622   -0.013207
     10          8           0       -2.046497    0.618121   -0.995106
     11          8           0       -2.111730   -0.052129    1.082990
     12          6           0        0.465012    1.957033    0.209935
     13          1           0       -0.465977    2.223850    0.717754
     14          1           0        1.256464    2.578709    0.636175
     15          1           0        0.364417    2.197942   -0.852945
     16          6           0        2.130447    0.136937    0.086030
     17          7           0        3.240514   -0.154426   -0.182681
 ---------------------------------------------------------------------

 SCF Done:  E(RHF) =  -568.111424001     A.U. after    2 cycles

 The electronic state is 1-A.
 Alpha  occ. eigenvalues --  -26.02544 -20.50958 -20.50775 -15.79558 -15.51558
 Alpha  occ. eigenvalues --  -15.50604 -11.31667 -11.17160 -11.14167 -11.13208
 Alpha  occ. eigenvalues --   -1.56750  -1.43048  -1.25082  -1.09732  -1.05414
 Alpha  occ. eigenvalues --   -0.96074  -0.89208  -0.80071  -0.74073  -0.69767
 Alpha  occ. eigenvalues --   -0.66660  -0.64630  -0.61597  -0.59947  -0.57432
 Alpha  occ. eigenvalues --   -0.52647  -0.51928  -0.49617  -0.47216  -0.44374
 Alpha  occ. eigenvalues --   -0.42387  -0.40678  -0.40574  -0.39047  -0.36077
 Alpha  occ. eigenvalues --   -0.33358  -0.32023  -0.30339  -0.11811
 Alpha virt. eigenvalues --    0.12607   0.13999   0.14832   0.15430   0.18062
 Alpha virt. eigenvalues --    0.18466   0.18822   0.19699   0.20112   0.21295
 Alpha virt. eigenvalues --    0.22152   0.22921   0.23906   0.24460   0.25551

 Mulliken charges:
               1
     1  C    1.299804
     2  C    0.008899
     3  F   -0.350282
     4  H   -0.491385
     5  H   -0.057142
     6  N   -0.485553
     7  H    0.166722
     8  H    0.022017
     9  N    0.262623
    10  O   -0.605402
    11  O   -0.574578
    12  C    0.664873
    13  H    0.018528
    14  H   -0.048361
    15  H   -0.005974
    16  C   -0.516074
    17  N   -0.308715
 Sum of Mulliken charges =  -1.00000

 Dipole moment (field-independent basis, Debye):
    X=             -1.9386    Y=              1.5872    Z=             -5.7749  Tot=              6.2950

 Test job not archived.
 1\1\GINC-SE398\SP\RHF\Aug-CC-pVDZ\C4H7F1N3O2(1-)\OHZDE\09-Apr-2025\0\\
 #t hf aug-cc-pvdz iop(5/13=1,5/36=2,99/5=2) pseudo=read geom=check gue
 ss=(read,tcheck) scf=(maxcycle=1)\\title\\-1,1\C,0,-0.05721212,-0.1199
 0265,-0.35711479\C,0,-0.09296099,-0.01699322,1.15463484\F,0,1.21496166
 ,-0.31919796,-0.84608276\H,0,-2.5452254,-0.67498532,1.35319926\H,0,-1.
 29326767,-0.23819031,1.37985574\N,0,-0.92385986,-1.09578222,-0.9167356
 \H,0,-1.77289215,-1.09342039,-0.32441391\H,0,-0.47160664,-1.99490994,-
 0.78808741\N,0,-0.48624525,1.24781044,-0.90658518\O,0,0.39725428,2.034

 Normal termination of Gaussian 16 at Wed Apr  9 02:32:36 2025.
