 Gaussian 16, Revision C.01,

 ----------------------------------------------------------------------
 #t hf aug-cc-pvdz symm=none int=(grid=ultrafine) guess=(read,tcheck) s
 table=(opt,rrhf)
 ----------------------------------------------------------------------
 -----
 title
 -----
 Symbolic Z-matrix:
 Charge = -1 Multiplicity = 1

 SCF Done:  E(RHF) =  -682.913654614     A.U. after   16 cycles
 Normal termination of Gaussian 16 at Wed Apr  9 02:50:53 2025.
 Gaussian 16:  ES64L-G16RevC.01  3-Jul-2019

 ----------------------------------------------------------------------
 #t hf aug-cc-pvdz iop(5/13=1,5/36=2,99/5=2) pseudo=read geom=check gue
 ss=(read,tcheck) scf=(maxcycle=1)
 ----------------------------------------------------------------------
 -----
 title
 -----
 Structure from the checkpoint file:  "E2SN2_320_mol2.chk"
 Charge = -1 Multiplicity = 1

                         Standard orientation:
 ---------------------------------------------------------------------
 Center     Atomic      Atomic             Coordinates (Angstroms)
 Number     Number       Type             X           Y           Z
 ---------------------------------------------------------------------
      1          6           0       -0.735184   -0.477723   -0.306918
      2          6           0        0.290848   -0.230322    0.809916
      3          9           0       -0.678415   -1.842623   -0.657330
      4          1           0        0.223125   -1.066940    1.511783
      5          6           0       -2.101144   -0.340475    0.286921
      6          7           0       -3.209898   -0.275725    0.671758
      7          7           0       -0.479531    0.312564   -1.432145
      8          1           0       -1.275891    0.290868   -2.057292
      9          1           0       -0.259158    1.332517   -1.173665
     10          7           0        0.103622    1.020834    1.406103
     11          1           0        0.101882    1.802880    0.697810
     12          1           0        0.784749    1.184270    2.133957
     13          7           0        1.693306   -0.466447    0.178314
     14          8           0        2.369141    0.516493   -0.101368
     15          8           0        2.046408   -1.638277    0.045163
     16          9           0       -0.030331    2.685203   -0.583857
 ---------------------------------------------------------------------

 SCF Done:  E(RHF) =  -683.120267104     A.U. after    2 cycles

 The electronic state is 1-A.
 Alpha  occ. eigenvalues --  -26.00679 -25.79542 -20.49664 -20.49199 -15.77958
 Alpha  occ. eigenvalues --  -15.54136 -15.48671 -15.48118 -11.29804 -11.23407
 Alpha  occ. eigenvalues --  -11.18793  -1.54114  -1.41416  -1.29350  -1.23403
 Alpha  occ. eigenvalues --   -1.11114  -1.06875  -1.03675  -0.89922  -0.83912
 Alpha  occ. eigenvalues --   -0.72372  -0.68582  -0.66059  -0.63518  -0.62264
 Alpha  occ. eigenvalues --   -0.60873  -0.57939  -0.56445  -0.53089  -0.51428
 Alpha  occ. eigenvalues --   -0.49496  -0.44990  -0.43901  -0.40575  -0.39434
 Alpha  occ. eigenvalues --   -0.38512  -0.37264  -0.36224  -0.35912  -0.35066
 Alpha  occ. eigenvalues --   -0.34623  -0.28749  -0.28359
 Alpha virt. eigenvalues --    0.12411   0.13904   0.14198   0.17383   0.19211
 Alpha virt. eigenvalues --    0.19441   0.20007   0.20726   0.21447   0.22380
 Alpha virt. eigenvalues --    0.22591   0.23516   0.25299   0.25747   0.26187

 Mulliken charges:
               1
     1  C    1.121836
     2  C    1.392281
     3  F   -0.437690
     4  H   -0.173054
     5  C   -0.279646
     6  N   -0.271549
     7  N   -0.604006
     8  H   -0.005493
     9  H    0.211604
    10  N   -0.351791
    11  H    0.157565
    12  H   -0.008443
    13  N    0.351587
    14  O   -0.581413
    15  O   -0.633686
    16  F   -0.888102
 Sum of Mulliken charges =  -1.00000

 Dipole moment (field-independent basis, Debye):
    X=              0.2448    Y=             -4.2679    Z=              2.4476  Tot=              4.9260

 Test job not archived.
 1\1\GINC-SE188\SP\RHF\Aug-CC-pVDZ\C3H5F2N4O2(1-)\OHZDE\09-Apr-2025\0\\
 #t hf aug-cc-pvdz iop(5/13=1,5/36=2,99/5=2) pseudo=read geom=check gue
 ss=(read,tcheck) scf=(maxcycle=1)\\title\\-1,1\C,0,0.021791,-0.00312,-
 0.001046\C,0,-0.314347,0.23487,-1.481465\F,0,1.372837,-0.3991,0.081637
 \H,0,0.529526,0.767462,-1.930195\C,0,0.018482,1.324051,0.688833\N,0,0.
 0616,2.322919,1.306919\N,0,-0.796551,-0.98507,0.566528\H,0,-0.703621,-
 0.971287,1.574815\H,0,-1.831071,-0.856793,0.303861\N,0,-1.538186,0.896
 002,-1.626395\H,0,-2.321195,0.398501,-1.123733\H,0,-1.760623,1.043429,

 Normal termination of Gaussian 16 at Wed Apr  9 02:51:02 2025.
