 Gaussian 16, Revision C.01,

 ----------------------------------------------------------------------
 #t hf aug-cc-pvdz symm=none int=(grid=ultrafine) guess=(read,tcheck) s
 table=(opt,rrhf)
 ----------------------------------------------------------------------
 -----
 title
 -----
 Symbolic Z-matrix:
 Charge = -1 Multiplicity = 1

 SCF Done:  E(RHF) =  -472.181388806     A.U. after   16 cycles
 Normal termination of Gaussian 16 at Wed Apr  9 02:49:10 2025.
 Gaussian 16:  ES64L-G16RevC.01  3-Jul-2019

 ----------------------------------------------------------------------
 #t hf aug-cc-pvdz iop(5/13=1,5/36=2,99/5=2) pseudo=read geom=check gue
 ss=(read,tcheck) scf=(maxcycle=1)
 ----------------------------------------------------------------------
 -----
 title
 -----
 Structure from the checkpoint file:  "E2SN2_311_mol2.chk"
 Charge = -1 Multiplicity = 1

                         Standard orientation:
 ---------------------------------------------------------------------
 Center     Atomic      Atomic             Coordinates (Angstroms)
 Number     Number       Type             X           Y           Z
 ---------------------------------------------------------------------
      1          6           0       -0.662333   -0.040472   -0.430623
      2          6           0        0.584271    0.814177   -0.086090
      3          9           0       -0.313944   -0.814876   -1.575307
      4          1           0        0.639772    1.544755   -0.902699
      5          6           0       -0.893217   -1.049462    0.634456
      6          7           0       -1.115329   -1.803179    1.508650
      7          7           0       -1.757665    0.777654   -0.673925
      8          1           0       -1.641500    1.799008   -0.390242
      9          1           0       -2.640070    0.397479   -0.364989
     10          6           0        1.794240   -0.023216   -0.134348
     11          7           0        2.766107   -0.682103   -0.141893
     12          7           0        0.516422    1.551792    1.152265
     13          1           0        0.195667    0.948029    1.901738
     14          1           0       -0.176141    2.309259    0.993372
     15          1           0       -1.356740    3.220040    0.124531
 ---------------------------------------------------------------------

 SCF Done:  E(RHF) =  -472.324447415     A.U. after    2 cycles

 The electronic state is 1-A.
 Alpha  occ. eigenvalues --  -26.00760 -15.55888 -15.53594 -15.49714 -15.49478
 Alpha  occ. eigenvalues --  -11.30162 -11.21432 -11.20251 -11.18617  -1.53869
 Alpha  occ. eigenvalues --   -1.12175  -1.08491  -1.06849  -1.03520  -0.89078
 Alpha  occ. eigenvalues --   -0.80948  -0.69363  -0.65089  -0.63498  -0.60651
 Alpha  occ. eigenvalues --   -0.55938  -0.52630  -0.51020  -0.48671  -0.47134
 Alpha  occ. eigenvalues --   -0.44614  -0.43496  -0.38621  -0.37538  -0.35027
 Alpha  occ. eigenvalues --   -0.34702  -0.30214  -0.29254  -0.12925
 Alpha virt. eigenvalues --    0.13610   0.14250   0.14786   0.17165   0.18294
 Alpha virt. eigenvalues --    0.18912   0.19349   0.20717   0.21177   0.21715
 Alpha virt. eigenvalues --    0.23109   0.23424   0.24420   0.24800   0.24825

 Mulliken charges:
               1
     1  C    1.307179
     2  C    0.808793
     3  F   -0.458794
     4  H   -0.042510
     5  C   -0.428281
     6  N   -0.211260
     7  N   -0.525371
     8  H    0.066968
     9  H    0.005088
    10  C   -0.301245
    11  N   -0.265033
    12  N   -0.414971
    13  H   -0.006397
    14  H    0.132337
    15  H   -0.666503
 Sum of Mulliken charges =  -1.00000

 Dipole moment (field-independent basis, Debye):
    X=              0.1865    Y=             -5.6370    Z=             -0.3125  Tot=              5.6487

 Test job not archived.
 1\1\GINC-SE228\SP\RHF\Aug-CC-pVDZ\C4H6F1N4(1-)\OHZDE\09-Apr-2025\0\\#t
  hf aug-cc-pvdz iop(5/13=1,5/36=2,99/5=2) pseudo=read geom=check guess
 =(read,tcheck) scf=(maxcycle=1)\\title\\-1,1\C,0,0.027673,0.05833,0.02
 5698\C,0,-0.456454,0.452287,-1.393305\F,0,1.348235,-0.455026,-0.129086
 \H,0,-0.595882,-0.509112,-1.903153\C,0,0.20631,1.277313,0.855113\N,0,0
 .283705,2.235478,1.531551\N,0,-0.829146,-0.879763,0.586162\H,0,-1.7565
 28,-1.017756,0.07817\H,0,-0.954318,-0.788238,1.583442\C,0,0.602639,1.1
 96304,-2.094976\N,0,1.426081,1.814405,-2.65943\N,0,-1.711688,1.16149,-

 Normal termination of Gaussian 16 at Wed Apr  9 02:49:17 2025.
