 Gaussian 16, Revision C.01,

 ----------------------------------------------------------------------
 #t hf aug-cc-pvdz symm=none int=(grid=ultrafine) guess=(read,tcheck) s
 table=(opt,rrhf)
 ----------------------------------------------------------------------
 -----
 title
 -----
 Symbolic Z-matrix:
 Charge = -1 Multiplicity = 1

 SCF Done:  E(RHF) =  -479.357217335     A.U. after   15 cycles
 Normal termination of Gaussian 16 at Wed Apr  9 02:39:28 2025.
 Gaussian 16:  ES64L-G16RevC.01  3-Jul-2019

 ----------------------------------------------------------------------
 #t hf aug-cc-pvdz iop(5/13=1,5/36=2,99/5=2) pseudo=read geom=check gue
 ss=(read,tcheck) scf=(maxcycle=1)
 ----------------------------------------------------------------------
 -----
 title
 -----
 Structure from the checkpoint file:  "E2SN2_206_mol1.chk"
 Charge = -1 Multiplicity = 1

                         Standard orientation:
 ---------------------------------------------------------------------
 Center     Atomic      Atomic             Coordinates (Angstroms)
 Number     Number       Type             X           Y           Z
 ---------------------------------------------------------------------
      1          6           0        0.707587    0.164603   -0.397948
      2          1           0       -0.240733    0.925512    1.330240
      3          9           0        0.229295   -1.387200   -1.133356
      4          9           0        1.174500    1.864100    0.103346
      5          6           0       -0.428358    0.113112    0.629053
      6          1           0        0.559441    0.602109   -1.370757
      7          7           0        1.967514   -0.349684    0.059008
      8          1           0        2.604355    0.433326    0.028593
      9          1           0        2.235569   -1.075566   -0.589624
     10          7           0       -0.523389   -1.143524    1.370826
     11          1           0        0.382156   -1.230609    1.823640
     12          1           0       -0.507359   -1.846787    0.636198
     13          6           0       -1.709913    0.388222   -0.032847
     14          7           0       -2.741766    0.622393   -0.540942
 ---------------------------------------------------------------------

 SCF Done:  E(RHF) =  -479.500490521     A.U. after    2 cycles

 The electronic state is 1-A.
 Alpha  occ. eigenvalues --  -25.83623 -25.81318 -15.49863 -15.47389 -15.47336
 Alpha  occ. eigenvalues --  -11.22527 -11.16334 -11.15254  -1.34170  -1.31569
 Alpha  occ. eigenvalues --   -1.06060  -1.02883  -1.00307  -0.84186  -0.70267
 Alpha  occ. eigenvalues --   -0.59140  -0.55194  -0.53967  -0.49308  -0.47342
 Alpha  occ. eigenvalues --   -0.46152  -0.42743  -0.41804  -0.41040  -0.40302
 Alpha  occ. eigenvalues --   -0.39345  -0.38196  -0.35487  -0.31662  -0.31100
 Alpha  occ. eigenvalues --   -0.28242  -0.26837
 Alpha virt. eigenvalues --    0.13136   0.14515   0.14973   0.16165   0.17054
 Alpha virt. eigenvalues --    0.17740   0.19937   0.23406   0.23709   0.24871
 Alpha virt. eigenvalues --    0.25747   0.26538   0.27306   0.27951   0.29254

 Mulliken charges:
               1
     1  C    1.076617
     2  H    0.003089
     3  F   -0.811436
     4  F   -0.822718
     5  C    0.957277
     6  H   -0.257979
     7  N   -0.593524
     8  H    0.102347
     9  H    0.091047
    10  N   -0.441441
    11  H    0.096434
    12  H    0.097809
    13  C   -0.219366
    14  N   -0.278157
 Sum of Mulliken charges =  -1.00000

 Dipole moment (field-independent basis, Debye):
    X=              2.9606    Y=             -1.8147    Z=              1.3325  Tot=              3.7194

 Test job not archived.
 1\1\GINC-SE041\SP\RHF\Aug-CC-pVDZ\C3H6F2N3(1-)\OHZDE\09-Apr-2025\0\\#t
  hf aug-cc-pvdz iop(5/13=1,5/36=2,99/5=2) pseudo=read geom=check guess
 =(read,tcheck) scf=(maxcycle=1)\\title\\-1,1\C,0,0.6859667,0.02502293,
 0.07026225\H,0,1.73793621,1.85501702,-0.02675414\F,0,-1.07266338,-0.04
 086181,0.35409108\F,0,2.44424843,-0.07445751,-0.43584293\C,0,0.6907206
 2,1.55513241,-0.01033542\H,0,0.50648418,-0.57813555,-0.80363868\N,0,0.
 99480956,-0.51923402,1.36220441\H,0,1.84544314,-1.04814718,1.23464947\
 H,0,0.21953523,-1.11327357,1.61823165\N,0,0.02068273,2.22654974,1.1026

 Normal termination of Gaussian 16 at Wed Apr  9 02:39:34 2025.
