 Gaussian 16, Revision C.01,

 ----------------------------------------------------------------------
 #t hf aug-cc-pvdz symm=none int=(grid=ultrafine) guess=(read,tcheck) s
 table=(opt,rrhf)
 ----------------------------------------------------------------------
 -----
 title
 -----
 Symbolic Z-matrix:
 Charge = -1 Multiplicity = 1

 SCF Done:  E(RHF) =  -823.421418528     A.U. after   16 cycles
 Normal termination of Gaussian 16 at Wed Apr  9 02:48:10 2025.
 Gaussian 16:  ES64L-G16RevC.01  3-Jul-2019

 ----------------------------------------------------------------------
 #t hf aug-cc-pvdz iop(5/13=1,5/36=2,99/5=2) pseudo=read geom=check gue
 ss=(read,tcheck) scf=(maxcycle=1)
 ----------------------------------------------------------------------
 -----
 title
 -----
 Structure from the checkpoint file:  "E2SN2_299_mol1.chk"
 Charge = -1 Multiplicity = 1

                         Standard orientation:
 ---------------------------------------------------------------------
 Center     Atomic      Atomic             Coordinates (Angstroms)
 Number     Number       Type             X           Y           Z
 ---------------------------------------------------------------------
      1          6           0        0.114386   -0.222471   -0.376341
      2          1           0       -0.338297    1.678512   -1.210721
      3          9           0        2.044572   -0.697332   -0.435055
      4         17           0       -2.064876    0.180217    0.023974
      5          6           0        0.501829    1.201434   -0.705566
      6          1           0        1.329528    1.110848   -1.407940
      7          6           0        0.272202   -0.750921    0.970473
      8          7           0        0.351388   -1.197106    2.056568
      9          7           0       -0.114374   -1.105459   -1.477397
     10          1           0       -0.829722   -1.774804   -1.226624
     11          1           0        0.784948   -1.565418   -1.583778
     12          6           0        0.936396    1.991779    0.516115
     13          1           0        0.133032    2.043301    1.254715
     14          1           0        1.803444    1.505264    0.964352
     15          1           0        1.210842    3.013622    0.235655
 ---------------------------------------------------------------------

 SCF Done:  E(RHF) =  -823.544123578     A.U. after    2 cycles

 The electronic state is 1-A.
 Alpha  occ. eigenvalues -- -103.43957 -25.81076 -15.49500 -15.49424 -11.27768
 Alpha  occ. eigenvalues --  -11.16080 -11.11110 -11.09902 -10.47249  -8.12889
 Alpha  occ. eigenvalues --   -8.12746  -8.12738  -1.31013  -1.07403  -1.02549
 Alpha  occ. eigenvalues --   -0.93058  -0.89607  -0.79591  -0.72496  -0.56855
 Alpha  occ. eigenvalues --   -0.55110  -0.50565  -0.50097  -0.42830  -0.41494
 Alpha  occ. eigenvalues --   -0.40965  -0.40382  -0.39459  -0.38136  -0.35933
 Alpha  occ. eigenvalues --   -0.31952  -0.31853  -0.29279  -0.26779  -0.26460
 Alpha  occ. eigenvalues --   -0.25445
 Alpha virt. eigenvalues --    0.12534   0.13849   0.14879   0.15578   0.16746
 Alpha virt. eigenvalues --    0.17691   0.17910   0.19745   0.21173   0.23364
 Alpha virt. eigenvalues --    0.23587   0.24063   0.25176   0.25813   0.26296

 Mulliken charges:
               1
     1  C    0.561121
     2  H   -0.103118
     3  F   -0.814187
     4  Cl  -0.599806
     5  C    0.519323
     6  H    0.067230
     7  C   -0.278890
     8  N   -0.349873
     9  N   -0.505255
    10  H    0.048375
    11  H    0.136507
    12  C    0.425542
    13  H   -0.009005
    14  H    0.028685
    15  H   -0.126647
 Sum of Mulliken charges =  -1.00000

 Dipole moment (field-independent basis, Debye):
    X=             -0.2267    Y=              2.0506    Z=             -2.2865  Tot=              3.0797

 Test job not archived.
 1\1\GINC-SE128\SP\RHF\Aug-CC-pVDZ\C4H7Cl1F1N2(1-)\OHZDE\09-Apr-2025\0\
 \#t hf aug-cc-pvdz iop(5/13=1,5/36=2,99/5=2) pseudo=read geom=check gu
 ess=(read,tcheck) scf=(maxcycle=1)\\title\\-1,1\C,0,0.72413781,-0.0323
 3162,0.02922078\H,0,1.51321932,1.90618131,0.39578425\F,0,-1.24804132,-
 0.16219674,0.24876881\Cl,0,2.90911141,-0.08764005,-0.51338984\C,0,0.57
 968166,1.47268997,0.03635387\H,0,-0.20543779,1.67490233,0.76389545\C,0
 ,0.40180896,-0.81160617,-1.15691127\N,0,0.1862498,-1.46711368,-2.11022
 038\N,0,0.88600936,-0.67622707,1.29552193\H,0,1.47367022,-1.49157364,1

 Normal termination of Gaussian 16 at Wed Apr  9 02:48:17 2025.
