 Gaussian 16, Revision C.01,

 ----------------------------------------------------------------------
 #t hf aug-cc-pvdz symm=none int=(grid=ultrafine) guess=(read,tcheck) s
 table=(opt,rrhf)
 ----------------------------------------------------------------------
 -----
 title
 -----
 Symbolic Z-matrix:
 Charge = -1 Multiplicity = 1

 SCF Done:  E(RHF) =  -419.471567222     A.U. after   15 cycles
 Normal termination of Gaussian 16 at Wed Apr  9 02:47:15 2025.
 Gaussian 16:  ES64L-G16RevC.01  3-Jul-2019

 ----------------------------------------------------------------------
 #t hf aug-cc-pvdz iop(5/13=1,5/36=2,99/5=2) pseudo=read geom=check gue
 ss=(read,tcheck) scf=(maxcycle=1)
 ----------------------------------------------------------------------
 -----
 title
 -----
 Structure from the checkpoint file:  "E2SN2_287_mol2.chk"
 Charge = -1 Multiplicity = 1

                         Standard orientation:
 ---------------------------------------------------------------------
 Center     Atomic      Atomic             Coordinates (Angstroms)
 Number     Number       Type             X           Y           Z
 ---------------------------------------------------------------------
      1          6           0        0.348705   -0.457302   -0.006278
      2          6           0       -0.831273    0.374169   -0.577501
      3          9           0        0.638040   -1.491069   -0.914986
      4          1           0       -0.622248    0.422632   -1.656531
      5          6           0        1.563482    0.385265    0.017613
      6          7           0        2.535655    1.044521    0.013675
      7          6           0        0.074080   -1.063577    1.350464
      8          1           0       -0.644751   -1.868653    1.197283
      9          1           0        0.990845   -1.464873    1.789610
     10          1           0       -0.403349   -0.328526    2.010191
     11          7           0       -0.954063    1.719102   -0.044662
     12          1           0       -0.066982    2.210075   -0.028269
     13          1           0       -1.337515    1.642457    0.911019
     14          7           0       -2.049974   -0.384445   -0.359408
     15          1           0       -2.327926   -0.179579    0.612247
     16          1           0       -2.763142    0.055010   -0.932958
     17          1           0       -2.218579    0.845508    2.359267
 ---------------------------------------------------------------------

 SCF Done:  E(RHF) =  -419.602081804     A.U. after    2 cycles

 The electronic state is 1-A.
 Alpha  occ. eigenvalues --  -26.00561 -15.54491 -15.47208 -15.46674 -11.24965
 Alpha  occ. eigenvalues --  -11.19098 -11.18333 -11.11170  -1.53686  -1.09210
 Alpha  occ. eigenvalues --   -1.07055  -0.95608  -0.94507  -0.80954  -0.72670
 Alpha  occ. eigenvalues --   -0.66825  -0.61813  -0.60913  -0.56790  -0.52184
 Alpha  occ. eigenvalues --   -0.48611  -0.47063  -0.45148  -0.44304  -0.42956
 Alpha  occ. eigenvalues --   -0.40811  -0.39701  -0.36285  -0.35102  -0.27975
 Alpha  occ. eigenvalues --   -0.26118  -0.09639
 Alpha virt. eigenvalues --    0.12787   0.13148   0.14560   0.15181   0.16024
 Alpha virt. eigenvalues --    0.18055   0.18829   0.19871   0.21014   0.21684
 Alpha virt. eigenvalues --    0.22978   0.23041   0.23333   0.24405   0.25464

 Mulliken charges:
               1
     1  C    0.530870
     2  C    0.688142
     3  F   -0.507866
     4  H   -0.134814
     5  C   -0.667895
     6  N   -0.218008
     7  C    0.646658
     8  H    0.106214
     9  H   -0.135000
    10  H   -0.012160
    11  N   -0.323886
    12  H   -0.048724
    13  H    0.108575
    14  N   -0.321843
    15  H    0.116501
    16  H   -0.035377
    17  H   -0.791388
 Sum of Mulliken charges =  -1.00000

 Dipole moment (field-independent basis, Debye):
    X=              5.1810    Y=             -3.0596    Z=             -6.4164  Tot=              8.7962

 Test job not archived.
 1\1\GINC-SE228\SP\RHF\Aug-CC-pVDZ\C4H9F1N3(1-)\OHZDE\09-Apr-2025\0\\#t
  hf aug-cc-pvdz iop(5/13=1,5/36=2,99/5=2) pseudo=read geom=check guess
 =(read,tcheck) scf=(maxcycle=1)\\title\\-1,1\C,0,0.074569,0.039895,-0.
 010566\C,0,-0.450728,-0.061486,-1.467883\F,0,1.442234,-0.288172,-0.012
 823\H,0,0.371038,0.348083,-2.073936\C,0,0.018297,1.452132,0.423707\N,0
 ,-0.001388,2.576808,0.762042\C,0,-0.641908,-0.863919,0.965916\H,0,-0.3
 28634,-1.883569,0.74119\H,0,-0.374598,-0.613286,1.995515\H,0,-1.72634,
 -0.819022,0.806321\N,0,-1.670213,0.678704,-1.737722\H,0,-1.637332,1.62

 Normal termination of Gaussian 16 at Wed Apr  9 02:47:22 2025.
