 Gaussian 16, Revision C.01,

 ----------------------------------------------------------------------
 #t hf aug-cc-pvdz symm=none int=(grid=ultrafine) guess=(read,tcheck) s
 table=(opt,rrhf)
 ----------------------------------------------------------------------
 -----
 title
 -----
 Symbolic Z-matrix:
 Charge = -1 Multiplicity = 1

 SCF Done:  E(RHF) =  -971.889321027     A.U. after   16 cycles
 Normal termination of Gaussian 16 at Wed Apr  9 02:38:31 2025.
 Gaussian 16:  ES64L-G16RevC.01  3-Jul-2019

 ----------------------------------------------------------------------
 #t hf aug-cc-pvdz iop(5/13=1,5/36=2,99/5=2) pseudo=read geom=check gue
 ss=(read,tcheck) scf=(maxcycle=1)
 ----------------------------------------------------------------------
 -----
 title
 -----
 Structure from the checkpoint file:  "E2SN2_187_mol1.chk"
 Charge = -1 Multiplicity = 1

                         Standard orientation:
 ---------------------------------------------------------------------
 Center     Atomic      Atomic             Coordinates (Angstroms)
 Number     Number       Type             X           Y           Z
 ---------------------------------------------------------------------
      1          6           0       -0.971963    0.546214    0.170928
      2          1           0        0.359092    1.007165   -1.392523
      3         17           0       -0.892653   -1.252629    1.424048
      4          9           0       -0.911931    2.365448   -0.512029
      5          6           0        0.419850    0.486399   -0.437674
      6          1           0       -1.081656    1.110149    1.074332
      7          6           0       -2.164249    0.173817   -0.665018
      8          1           0       -2.220498    0.866935   -1.501929
      9          1           0       -2.096977   -0.852322   -1.020263
     10          1           0       -3.063451    0.272347   -0.055798
     11          7           0        0.919900   -0.899302   -0.795394
     12          8           0        1.940932   -1.327260   -0.272104
     13          8           0        0.271200   -1.467943   -1.668811
     14          6           0        1.393530    1.163414    0.409465
     15          7           0        2.183801    1.719868    1.074927
 ---------------------------------------------------------------------

 SCF Done:  E(RHF) =  -972.056771067     A.U. after    2 cycles

 The electronic state is 1-A.
 Alpha  occ. eigenvalues -- -103.45013 -25.82027 -20.51543 -20.50926 -15.80963
 Alpha  occ. eigenvalues --  -15.53694 -11.24475 -11.24052 -11.18967 -11.11841
 Alpha  occ. eigenvalues --  -10.48337  -8.13984  -8.13843  -8.13831  -1.43783
 Alpha  occ. eigenvalues --   -1.31923  -1.25659  -1.08108  -1.02210  -0.93610
 Alpha  occ. eigenvalues --   -0.88289  -0.79577  -0.71974  -0.67350  -0.64336
 Alpha  occ. eigenvalues --   -0.61917  -0.59734  -0.51235  -0.48347  -0.47286
 Alpha  occ. eigenvalues --   -0.44949  -0.43033  -0.42421  -0.41073  -0.40456
 Alpha  occ. eigenvalues --   -0.39158  -0.38265  -0.36639  -0.34701  -0.34539
 Alpha  occ. eigenvalues --   -0.28528  -0.27714  -0.27560
 Alpha virt. eigenvalues --    0.13150   0.13973   0.15210   0.16034   0.16637
 Alpha virt. eigenvalues --    0.18331   0.19071   0.20380   0.21863   0.22198
 Alpha virt. eigenvalues --    0.23247   0.23889   0.25016   0.25108   0.26641

 Mulliken charges:
               1
     1  C   -0.098146
     2  H    0.066918
     3  Cl  -0.647647
     4  F   -0.830738
     5  C    1.487643
     6  H   -0.410642
     7  C    0.605184
     8  H    0.034131
     9  H    0.077964
    10  H   -0.005633
    11  N    0.432023
    12  O   -0.608534
    13  O   -0.623973
    14  C   -0.223717
    15  N   -0.254832
 Sum of Mulliken charges =  -1.00000

 Dipole moment (field-independent basis, Debye):
    X=             -1.0448    Y=             -1.4269    Z=             -2.7948  Tot=              3.3073

 Test job not archived.
 1\1\GINC-SE105\SP\RHF\Aug-CC-pVDZ\C4H5Cl1F1N2O2(1-)\OHZDE\09-Apr-2025\
 0\\#t hf aug-cc-pvdz iop(5/13=1,5/36=2,99/5=2) pseudo=read geom=check
 guess=(read,tcheck) scf=(maxcycle=1)\\title\\-1,1\C,0,0.38857577,-0.06
 452282,0.10022482\H,0,1.71032778,1.52301015,0.5018123\Cl,0,-1.78628148
 ,-0.01524547,0.38307503\F,0,2.1877425,-0.12561671,-0.6338846\C,0,0.680
 56406,1.42621195,0.15999162\H,0,0.20314088,-0.48326626,-0.86748512\C,0
 ,0.73845665,-0.93701745,1.27298478\H,0,1.8159104,-0.89253568,1.4182772
 4\H,0,0.21627259,-0.6218461,2.17391594\H,0,0.44875206,-1.96331894,1.04

 Normal termination of Gaussian 16 at Wed Apr  9 02:38:39 2025.
