 Gaussian 16, Revision C.01,

 ----------------------------------------------------------------------
 #t hf aug-cc-pvdz symm=none int=(grid=ultrafine) guess=(read,tcheck) s
 table=(opt,rrhf)
 ----------------------------------------------------------------------
 -----
 title
 -----
 Symbolic Z-matrix:
 Charge = -1 Multiplicity = 1

 SCF Done:  E(RHF) =  -987.885572568     A.U. after   16 cycles
 Normal termination of Gaussian 16 at Wed Apr  9 02:40:09 2025.
 Gaussian 16:  ES64L-G16RevC.01  3-Jul-2019

 ----------------------------------------------------------------------
 #t hf aug-cc-pvdz iop(5/13=1,5/36=2,99/5=2) pseudo=read geom=check gue
 ss=(read,tcheck) scf=(maxcycle=1)
 ----------------------------------------------------------------------
 -----
 title
 -----
 Structure from the checkpoint file:  "E2SN2_219_mol1.chk"
 Charge = -1 Multiplicity = 1

                         Standard orientation:
 ---------------------------------------------------------------------
 Center     Atomic      Atomic             Coordinates (Angstroms)
 Number     Number       Type             X           Y           Z
 ---------------------------------------------------------------------
      1          6           0       -0.187835    0.050711   -0.364923
      2          1           0        0.842664    0.347715    1.478469
      3          9           0       -0.129226   -1.691086   -1.192157
      4         17           0       -0.359559    2.114379    0.124776
      5          6           0        0.968638   -0.268629    0.587799
      6          1           0       -0.063788    0.281004   -1.402640
      7          7           0       -1.559376   -0.309369    0.042664
      8          8           0       -1.727121   -0.659961    1.206330
      9          8           0       -2.432302   -0.200592   -0.808757
     10          6           0        2.191736    0.202463   -0.101629
     11          7           0        3.220473    0.497508   -0.587203
     12          7           0        1.063743   -1.664298    0.995258
     13          1           0        2.007041   -1.844223    1.316319
     14          1           0        0.855876   -2.198899    0.152994
 ---------------------------------------------------------------------

 SCF Done:  E(RHF) =  -988.057060855     A.U. after    2 cycles

 The electronic state is 1-A.
 Alpha  occ. eigenvalues -- -103.48294 -25.83744 -20.49361 -20.49130 -15.79810
 Alpha  occ. eigenvalues --  -15.53569 -15.49398 -11.28963 -11.21985 -11.18640
 Alpha  occ. eigenvalues --  -10.51597  -8.17257  -8.17074  -8.17064  -1.42238
 Alpha  occ. eigenvalues --   -1.33745  -1.23839  -1.09415  -1.05195  -0.99630
 Alpha  occ. eigenvalues --   -0.91503  -0.85070  -0.71447  -0.65265  -0.62856
 Alpha  occ. eigenvalues --   -0.60204  -0.59585  -0.57177  -0.51383  -0.46889
 Alpha  occ. eigenvalues --   -0.44511  -0.43517  -0.43224  -0.42002  -0.39643
 Alpha  occ. eigenvalues --   -0.38999  -0.35889  -0.34778  -0.34434  -0.30915
 Alpha  occ. eigenvalues --   -0.30752  -0.30203  -0.28577
 Alpha virt. eigenvalues --    0.12684   0.14331   0.15484   0.17249   0.17584
 Alpha virt. eigenvalues --    0.18083   0.20311   0.22042   0.22755   0.23233
 Alpha virt. eigenvalues --    0.24172   0.25364   0.26658   0.26987   0.27825

 Mulliken charges:
               1
     1  C    1.087714
     2  H   -0.013537
     3  F   -0.834948
     4  Cl  -0.504140
     5  C    1.178096
     6  H   -0.344115
     7  N    0.624232
     8  O   -0.648125
     9  O   -0.671891
    10  C   -0.270032
    11  N   -0.273741
    12  N   -0.446299
    13  H   -0.019650
    14  H    0.136435
 Sum of Mulliken charges =  -1.00000

 Dipole moment (field-independent basis, Debye):
    X=              1.6973    Y=              0.2655    Z=              2.3317  Tot=              2.8963

 Test job not archived.
 1\1\GINC-SE460\SP\RHF\Aug-CC-pVDZ\C3H4Cl1F1N3O2(1-)\OHZDE\09-Apr-2025\
 0\\#t hf aug-cc-pvdz iop(5/13=1,5/36=2,99/5=2) pseudo=read geom=check
 guess=(read,tcheck) scf=(maxcycle=1)\\title\\-1,1\C,0,0.53586074,-0.00
 267822,-0.06620779\H,0,1.74709248,1.72718928,-0.36405029\F,0,-1.320016
 21,0.06111865,-0.58894976\Cl,0,2.44466243,-0.42025265,0.77648258\C,0,0
 .69917669,1.51849944,-0.14641771\H,0,0.04221267,-0.51137062,0.73555533
 \N,0,0.74018702,-0.80099434,-1.29007466\O,0,1.22797468,-0.22962512,-2.
 26000853\O,0,0.43325769,-1.98470012,-1.23189794\C,0,0.42751164,2.01892

 Normal termination of Gaussian 16 at Wed Apr  9 02:40:15 2025.
