 Gaussian 16, Revision C.01,

 ----------------------------------------------------------------------
 #t hf aug-cc-pvdz symm=none int=(grid=ultrafine) guess=(read,tcheck) s
 table=(opt,rrhf)
 ----------------------------------------------------------------------
 -----
 title
 -----
 Symbolic Z-matrix:
 Charge = -1 Multiplicity = 1

 SCF Done:  E(RHF) =  -862.453708890     A.U. after   16 cycles
 Normal termination of Gaussian 16 at Wed Apr  9 02:49:48 2025.
 Gaussian 16:  ES64L-G16RevC.01  3-Jul-2019

 ----------------------------------------------------------------------
 #t hf aug-cc-pvdz iop(5/13=1,5/36=2,99/5=2) pseudo=read geom=check gue
 ss=(read,tcheck) scf=(maxcycle=1)
 ----------------------------------------------------------------------
 -----
 title
 -----
 Structure from the checkpoint file:  "E2SN2_316_mol1.chk"
 Charge = -1 Multiplicity = 1

                         Standard orientation:
 ---------------------------------------------------------------------
 Center     Atomic      Atomic             Coordinates (Angstroms)
 Number     Number       Type             X           Y           Z
 ---------------------------------------------------------------------
      1          6           0        0.093909    0.086666   -0.365176
      2          1           0       -0.346919   -1.770469    0.531379
      3          9           0       -1.376733    1.409380   -0.669947
      4         17           0        1.990852   -1.047024    0.084324
      5          6           0       -0.861806   -0.814839    0.420139
      6          6           0        0.669577    1.271738    0.254483
      7          7           0        1.182975    2.212314    0.741635
      8          7           0        0.181152   -0.095697   -1.780712
      9          1           0        1.124738    0.108966   -2.082028
     10          1           0       -0.464041    0.605407   -2.134793
     11          6           0       -2.157926   -1.102587   -0.334269
     12          1           0       -2.776630   -0.210990   -0.379007
     13          1           0       -1.936704   -1.427975   -1.352204
     14          1           0       -2.690186   -1.912635    0.178730
     15          6           0       -1.129428   -0.240532    1.803974
     16          1           0       -0.201555   -0.119098    2.368618
     17          1           0       -1.609965    0.732815    1.696178
     18          1           0       -1.787474   -0.910025    2.367775
 ---------------------------------------------------------------------

 SCF Done:  E(RHF) =  -862.587888945     A.U. after    2 cycles

 The electronic state is 1-A.
 Alpha  occ. eigenvalues -- -103.44046 -25.81282 -15.49483 -15.49384 -11.27953
 Alpha  occ. eigenvalues --  -11.16074 -11.12222 -11.09702 -11.09192 -10.47348
 Alpha  occ. eigenvalues --   -8.12987  -8.12847  -8.12837  -1.31319  -1.07611
 Alpha  occ. eigenvalues --   -1.02520  -0.94746  -0.90487  -0.81103  -0.79362
 Alpha  occ. eigenvalues --   -0.68569  -0.57728  -0.54979  -0.52203  -0.49238
 Alpha  occ. eigenvalues --   -0.44569  -0.42644  -0.41607  -0.40791  -0.40259
 Alpha  occ. eigenvalues --   -0.39237  -0.38816  -0.35901  -0.35550  -0.31952
 Alpha  occ. eigenvalues --   -0.31655  -0.29310  -0.26847  -0.26190  -0.25407
 Alpha virt. eigenvalues --    0.12204   0.13251   0.14082   0.14981   0.15808
 Alpha virt. eigenvalues --    0.16843   0.17007   0.17711   0.17780   0.20247
 Alpha virt. eigenvalues --    0.20907   0.22886   0.24093   0.24439   0.24859

 Mulliken charges:
               1
     1  C    1.296391
     2  H   -0.149669
     3  F   -0.829269
     4  Cl  -0.594468
     5  C   -0.984779
     6  C   -0.437896
     7  N   -0.348575
     8  N   -0.573523
     9  H    0.017775
    10  H    0.161637
    11  C    0.834138
    12  H    0.043474
    13  H   -0.043234
    14  H   -0.058585
    15  C    0.649759
    16  H   -0.027509
    17  H    0.129609
    18  H   -0.085277
 Sum of Mulliken charges =  -1.00000

 Dipole moment (field-independent basis, Debye):
    X=             -2.5648    Y=             -3.1562    Z=             -0.4897  Tot=              4.0963

 Test job not archived.
 1\1\GINC-SE071\SP\RHF\Aug-CC-pVDZ\C5H9Cl1F1N2(1-)\OHZDE\09-Apr-2025\0\
 \#t hf aug-cc-pvdz iop(5/13=1,5/36=2,99/5=2) pseudo=read geom=check gu
 ess=(read,tcheck) scf=(maxcycle=1)\\title\\-1,1\C,0,0.77984515,-0.0177
 1309,0.04710492\H,0,1.67744577,1.88709255,0.16163807\F,0,-1.20355808,-
 0.18815428,0.25279472\Cl,0,2.96549623,-0.13715356,-0.49544269\C,0,0.66
 127973,1.50830191,0.04065548\C,0,0.45445142,-0.78975985,-1.14362139\N,
 0,0.23886345,-1.43705153,-2.10284728\N,0,0.93583558,-0.67563518,1.3070
 3226\H,0,1.51027713,-1.49845768,1.18048628\H,0,-0.0177486,-0.94107423,

 Normal termination of Gaussian 16 at Wed Apr  9 02:49:57 2025.
