 Gaussian 16, Revision C.01,

 ----------------------------------------------------------------------
 #t hf aug-cc-pvdz symm=none int=(grid=ultrafine) guess=(read,tcheck) s
 table=(opt,rrhf)
 ----------------------------------------------------------------------
 -----
 title
 -----
 Symbolic Z-matrix:
 Charge = -1 Multiplicity = 1

 SCF Done:  E(RHF) =  -987.932327644     A.U. after   16 cycles
 Normal termination of Gaussian 16 at Wed Apr  9 02:42:15 2025.
 Gaussian 16:  ES64L-G16RevC.01  3-Jul-2019

 ----------------------------------------------------------------------
 #t hf aug-cc-pvdz iop(5/13=1,5/36=2,99/5=2) pseudo=read geom=check gue
 ss=(read,tcheck) scf=(maxcycle=1)
 ----------------------------------------------------------------------
 -----
 title
 -----
 Structure from the checkpoint file:  "E2SN2_239_mol2.chk"
 Charge = -1 Multiplicity = 1

                         Standard orientation:
 ---------------------------------------------------------------------
 Center     Atomic      Atomic             Coordinates (Angstroms)
 Number     Number       Type             X           Y           Z
 ---------------------------------------------------------------------
      1          6           0       -0.077873   -0.140924   -0.232656
      2          6           0        0.874189    0.442072    0.796422
      3         17           0        0.132196   -1.952935   -0.382256
      4          1           0        0.642228    1.528803    0.744247
      5          1           0        0.671391    0.033380    1.785017
      6          7           0       -1.531036   -0.069722    0.396872
      7          8           0       -1.655651   -0.146719    1.614534
      8          8           0       -2.452228    0.031912   -0.404149
      9          7           0        0.017897    0.506808   -1.438169
     10          1           0       -0.055122    1.559040   -1.163700
     11          1           0       -0.728209    0.214789   -2.057302
     12          6           0        2.261947    0.200429    0.433328
     13          7           0        3.399281    0.016962    0.206518
     14          9           0       -0.163017    2.732727   -0.292456
 ---------------------------------------------------------------------

 SCF Done:  E(RHF) =  -988.106930771     A.U. after    2 cycles

 The electronic state is 1-A.
 Alpha  occ. eigenvalues -- -103.55522 -25.79334 -20.50713 -20.50672 -15.79282
 Alpha  occ. eigenvalues --  -15.52420 -15.48331 -11.29775 -11.18123 -11.16145
 Alpha  occ. eigenvalues --  -10.58874  -8.24587  -8.24301  -8.24293  -1.42807
 Alpha  occ. eigenvalues --   -1.28913  -1.24866  -1.12730  -1.06325  -1.01672
 Alpha  occ. eigenvalues --   -0.92676  -0.85298  -0.70463  -0.64653  -0.62771
 Alpha  occ. eigenvalues --   -0.61759  -0.57699  -0.55628  -0.52402  -0.47503
 Alpha  occ. eigenvalues --   -0.44963  -0.43296  -0.42211  -0.40424  -0.38714
 Alpha  occ. eigenvalues --   -0.38473  -0.37174  -0.36404  -0.35498  -0.34756
 Alpha  occ. eigenvalues --   -0.33421  -0.32205  -0.28537
 Alpha virt. eigenvalues --    0.13686   0.14085   0.16860   0.17380   0.18297
 Alpha virt. eigenvalues --    0.18817   0.19511   0.21912   0.22381   0.24031
 Alpha virt. eigenvalues --    0.24460   0.25877   0.26509   0.26627   0.27138

 Mulliken charges:
               1
     1  C    0.744765
     2  C    0.714566
     3  Cl  -0.243765
     4  H    0.108967
     5  H    0.046038
     6  N    0.547952
     7  O   -0.659175
     8  O   -0.642187
     9  N   -0.578958
    10  H    0.225594
    11  H    0.052831
    12  C   -0.109545
    13  N   -0.300138
    14  F   -0.906944
 Sum of Mulliken charges =  -1.00000

 Dipole moment (field-independent basis, Debye):
    X=             -1.2252    Y=             -5.6895    Z=              0.6332  Tot=              5.8543

 Test job not archived.
 1\1\GINC-SE227\SP\RHF\Aug-CC-pVDZ\C3H4Cl1F1N3O2(1-)\OHZDE\09-Apr-2025\
 0\\#t hf aug-cc-pvdz iop(5/13=1,5/36=2,99/5=2) pseudo=read geom=check
 guess=(read,tcheck) scf=(maxcycle=1)\\title\\-1,1\C,0,-0.003995,-0.000
 298,0.009693\C,0,-0.541544,0.476525,-1.327838\Cl,0,1.824023,-0.090369,
 -0.001709\H,0,-1.64153,0.448012,-1.164347\H,0,-0.192354,1.484239,-1.54
 7052\N,0,-0.228357,1.182865,1.040638\O,0,-0.211595,2.338905,0.631434\O
 ,0,-0.378644,0.847485,2.209181\N,0,-0.591837,-1.175431,0.404022\H,0,-1
 .656573,-0.975047,0.285532\H,0,-0.342176,-1.39257,1.360993\C,0,-0.1640

 Normal termination of Gaussian 16 at Wed Apr  9 02:42:23 2025.
