 Gaussian 16, Revision C.01,

 ----------------------------------------------------------------------
 #t hf aug-cc-pvdz symm=none int=(grid=ultrafine) guess=(read,tcheck) s
 table=(opt,rrhf)
 ----------------------------------------------------------------------
 -----
 title
 -----
 Symbolic Z-matrix:
 Charge = -1 Multiplicity = 1

 SCF Done:  E(RHF) =  -679.697348251     A.U. after   16 cycles
 Normal termination of Gaussian 16 at Wed Apr  9 02:34:01 2025.
 Gaussian 16:  ES64L-G16RevC.01  3-Jul-2019

 ----------------------------------------------------------------------
 #t hf aug-cc-pvdz iop(5/13=1,5/36=2,99/5=2) pseudo=read geom=check gue
 ss=(read,tcheck) scf=(maxcycle=1)
 ----------------------------------------------------------------------
 -----
 title
 -----
 Structure from the checkpoint file:  "E2SN2_13_mol1.chk"
 Charge = -1 Multiplicity = 1

                         Standard orientation:
 ---------------------------------------------------------------------
 Center     Atomic      Atomic             Coordinates (Angstroms)
 Number     Number       Type             X           Y           Z
 ---------------------------------------------------------------------
      1          6           0       -0.590960    0.565643   -0.190812
      2          6           0        0.836396    0.516283    0.290895
      3          9           0       -0.668777    0.560881   -1.570302
      4          1           0        1.020645    1.671590    2.472476
      5          1           0        0.841725    0.678627    1.470340
      6          6           0       -1.297601    1.790817    0.343347
      7          1           0       -2.369053    1.711910    0.143040
      8          1           0       -1.090075    1.884622    1.412343
      9          1           0       -0.906811    2.675193   -0.158689
     10          7           0        1.623266    1.621987   -0.118094
     11          1           0        1.689982    2.233582    0.706576
     12          1           0        1.261000    2.099508   -0.930541
     13          7           0        1.493742   -0.770140   -0.046627
     14          8           0        0.783415   -1.711232   -0.433137
     15          8           0        2.704690   -0.859236    0.146103
     16          7           0       -1.413681   -0.621019    0.288575
     17          8           0       -2.178791   -1.149849   -0.507155
     18          8           0       -1.314153   -0.886583    1.480390
 ---------------------------------------------------------------------

 SCF Done:  E(RHF) =  -679.908110531     A.U. after    2 cycles

 The electronic state is 1-A.
 Alpha  occ. eigenvalues --  -26.03069 -20.50717 -20.50543 -20.48413 -20.48191
 Alpha  occ. eigenvalues --  -15.80179 -15.77564 -15.49710 -11.29608 -11.19500
 Alpha  occ. eigenvalues --  -11.14448  -1.56945  -1.43225  -1.40389  -1.25163
 Alpha  occ. eigenvalues --   -1.22073  -1.08620  -0.99401  -0.89672  -0.84965
 Alpha  occ. eigenvalues --   -0.76379  -0.71609  -0.69597  -0.66137  -0.65388
 Alpha  occ. eigenvalues --   -0.62360  -0.61246  -0.60746  -0.60173  -0.58603
 Alpha  occ. eigenvalues --   -0.55608  -0.51511  -0.48153  -0.46484  -0.45679
 Alpha  occ. eigenvalues --   -0.41416  -0.40179  -0.38926  -0.37818  -0.37308
 Alpha  occ. eigenvalues --   -0.36236  -0.33974  -0.29274  -0.12558
 Alpha virt. eigenvalues --    0.11707   0.13190   0.14952   0.16008   0.17664
 Alpha virt. eigenvalues --    0.18921   0.19249   0.19687   0.20506   0.21576
 Alpha virt. eigenvalues --    0.22250   0.22791   0.24226   0.24911   0.25530

 Mulliken charges:
               1
     1  C    0.263763
     2  C    0.902724
     3  F   -0.402950
     4  H   -0.452214
     5  H   -0.025402
     6  C    0.549785
     7  H   -0.018328
     8  H    0.131691
     9  H   -0.002079
    10  N   -0.327142
    11  H    0.108182
    12  H    0.021688
    13  N    0.308314
    14  O   -0.684314
    15  O   -0.608275
    16  N    0.512664
    17  O   -0.660489
    18  O   -0.617619
 Sum of Mulliken charges =  -1.00000

 Dipole moment (field-independent basis, Debye):
    X=             -4.2651    Y=              1.9386    Z=             -5.9007  Tot=              7.5345

 Test job not archived.
 1\1\GINC-SE074\SP\RHF\Aug-CC-pVDZ\C3H7F1N3O4(1-)\OHZDE\09-Apr-2025\0\\
 #t hf aug-cc-pvdz iop(5/13=1,5/36=2,99/5=2) pseudo=read geom=check gue
 ss=(read,tcheck) scf=(maxcycle=1)\\title\\-1,1\C,0,-0.06647796,-0.0174
 2964,-0.37467225\C,0,-0.15147577,-0.0889816,1.1284831\F,0,1.23154568,0
 .17344476,-0.8080019\H,0,-2.35733942,0.7464161,1.87965354\H,0,-1.30032
 436,-0.09762173,1.44080714\C,0,-0.93891856,1.09467639,-0.9111291\H,0,-
 1.01207738,1.01052842,-1.99829316\H,0,-1.92011146,1.04068763,-0.432626
 33\H,0,-0.48892834,2.05422933,-0.65885002\N,0,0.27913994,1.08901315,1.

 Normal termination of Gaussian 16 at Wed Apr  9 02:34:12 2025.
