 Gaussian 16, Revision C.01,

 ----------------------------------------------------------------------
 #t hf aug-cc-pvdz symm=none int=(grid=ultrafine) guess=(read,tcheck) s
 table=(opt,rrhf)
 ----------------------------------------------------------------------
 -----
 title
 -----
 Symbolic Z-matrix:
 Charge = -1 Multiplicity = 1

 SCF Done:  E(RHF) =  -536.079924823     A.U. after   16 cycles
 Normal termination of Gaussian 16 at Wed Apr  9 02:37:46 2025.
 Gaussian 16:  ES64L-G16RevC.01  3-Jul-2019

 ----------------------------------------------------------------------
 #t hf aug-cc-pvdz iop(5/13=1,5/36=2,99/5=2) pseudo=read geom=check gue
 ss=(read,tcheck) scf=(maxcycle=1)
 ----------------------------------------------------------------------
 -----
 title
 -----
 Structure from the checkpoint file:  "E2SN2_195_mol1.chk"
 Charge = -1 Multiplicity = 1

                         Standard orientation:
 ---------------------------------------------------------------------
 Center     Atomic      Atomic             Coordinates (Angstroms)
 Number     Number       Type             X           Y           Z
 ---------------------------------------------------------------------
      1          6           0       -1.038102    0.104901   -0.345232
      2          1           0       -0.217184   -1.272923    1.025244
      3          9           0        0.118041    1.403498   -0.889503
      4          9           0       -2.210314   -1.166731   -0.063016
      5          6           0        0.047345   -0.875884    0.049633
      6          1           0       -1.368674    0.133749   -1.370310
      7          1           0        0.122671   -1.668210   -0.689876
      8          7           0       -1.571707    0.952342    0.679727
      9          1           0       -2.566939    0.784233    0.706835
     10          1           0       -1.360650    1.896328    0.392342
     11          7           0        1.416693   -0.305384    0.190529
     12          8           0        2.231078   -0.538237   -0.702577
     13          8           0        1.675280    0.299876    1.226357
 ---------------------------------------------------------------------

 SCF Done:  E(RHF) =  -536.244650602     A.U. after    2 cycles

 The electronic state is 1-A.
 Alpha  occ. eigenvalues --  -25.83801 -25.80666 -20.46185 -20.46171 -15.75717
 Alpha  occ. eigenvalues --  -15.46172 -11.22632 -11.15488  -1.38586  -1.34317
 Alpha  occ. eigenvalues --   -1.31065  -1.20224  -1.01726  -0.93354  -0.75965
 Alpha  occ. eigenvalues --   -0.67350  -0.59784  -0.59077  -0.57218  -0.54203
 Alpha  occ. eigenvalues --   -0.53573  -0.45494  -0.44486  -0.43487  -0.42758
 Alpha  occ. eigenvalues --   -0.40908  -0.38946  -0.38407  -0.35435  -0.35038
 Alpha  occ. eigenvalues --   -0.34314  -0.31768  -0.26038
 Alpha virt. eigenvalues --    0.14066   0.14762   0.15015   0.16596   0.17162
 Alpha virt. eigenvalues --    0.22456   0.23546   0.24040   0.25451   0.25983
 Alpha virt. eigenvalues --    0.27129   0.27596   0.27952   0.29453   0.30438

 Mulliken charges:
               1
     1  C    1.120288
     2  H   -0.058013
     3  F   -0.844013
     4  F   -0.768417
     5  C    0.835902
     6  H   -0.175664
     7  H   -0.093655
     8  N   -0.492379
     9  H    0.049836
    10  H    0.077716
    11  N    0.708888
    12  O   -0.690782
    13  O   -0.669709
 Sum of Mulliken charges =  -1.00000

 Dipole moment (field-independent basis, Debye):
    X=             -1.0416    Y=             -1.3324    Z=              0.4962  Tot=              1.7625

 Test job not archived.
 1\1\GINC-SE074\SP\RHF\Aug-CC-pVDZ\C2H5F2N2O2(1-)\OHZDE\09-Apr-2025\0\\
 #t hf aug-cc-pvdz iop(5/13=1,5/36=2,99/5=2) pseudo=read geom=check gue
 ss=(read,tcheck) scf=(maxcycle=1)\\title\\-1,1\C,0,0.66948276,-0.05034
 722,0.06188545\H,0,1.78594366,1.51547943,0.92918887\F,0,-1.11462192,0.
 00687528,0.42650388\F,0,2.31764844,-0.14896375,-0.52513969\C,0,0.89843
 31,1.42690799,0.30958217\H,0,0.34055689,-0.37205739,-0.91238553\H,0,1.
 02453108,1.94939915,-0.63457427\N,0,0.90500972,-0.95034906,1.15181803\
 H,0,1.59442839,-1.61646004,0.83483051\H,0,0.01749429,-1.39262179,1.338

 Normal termination of Gaussian 16 at Wed Apr  9 02:37:50 2025.
