 Gaussian 16, Revision C.01,

 ----------------------------------------------------------------------
 #t hf aug-cc-pvdz symm=none int=(grid=ultrafine) guess=(read,tcheck) s
 table=(opt,rrhf)
 ----------------------------------------------------------------------
 -----
 title
 -----
 Symbolic Z-matrix:
 Charge = -1 Multiplicity = 1

 SCF Done:  E(RHF) =  -685.447556985     A.U. after   16 cycles
 Normal termination of Gaussian 16 at Wed Apr  9 02:39:56 2025.
 Gaussian 16:  ES64L-G16RevC.01  3-Jul-2019

 ----------------------------------------------------------------------
 #t hf aug-cc-pvdz iop(5/13=1,5/36=2,99/5=2) pseudo=read geom=check gue
 ss=(read,tcheck) scf=(maxcycle=1)
 ----------------------------------------------------------------------
 -----
 title
 -----
 Structure from the checkpoint file:  "E2SN2_21_mol1.chk"
 Charge = -1 Multiplicity = 1

                         Standard orientation:
 ---------------------------------------------------------------------
 Center     Atomic      Atomic             Coordinates (Angstroms)
 Number     Number       Type             X           Y           Z
 ---------------------------------------------------------------------
      1          6           0        0.540360    0.394290   -0.337944
      2          6           0       -0.700989    0.763662    0.417684
      3         17           0        1.141982   -1.309687    0.050750
      4          1           0       -0.547797    3.169205   -0.292338
      5          1           0       -0.790573    1.998165    0.066164
      6          7           0        1.632306    1.314407   -0.121719
      7          1           0        1.828860    1.317170    0.875880
      8          1           0        1.212557    2.233726   -0.320508
      9          6           0       -1.877923    0.009281    0.094918
     10          7           0       -2.873995   -0.543756   -0.210953
     11          1           0        0.326311    0.356361   -1.407859
     12          1           0       -0.519924    0.792097    1.496673
 ---------------------------------------------------------------------

 SCF Done:  E(RHF) =  -685.532774476     A.U. after    2 cycles

 The electronic state is 1-A.
 Alpha  occ. eigenvalues -- -103.51514 -15.49462 -15.48777 -11.21273 -11.15439
 Alpha  occ. eigenvalues --  -11.10904 -10.54876  -8.20575  -8.20319  -8.20314
 Alpha  occ. eigenvalues --   -1.07710  -1.03423  -0.98157  -0.87994  -0.71050
 Alpha  occ. eigenvalues --   -0.57133  -0.54576  -0.49686  -0.44906  -0.43791
 Alpha  occ. eigenvalues --   -0.40417  -0.38022  -0.32678  -0.32627  -0.31609
 Alpha  occ. eigenvalues --   -0.30465  -0.27835  -0.11308
 Alpha virt. eigenvalues --    0.13423   0.15023   0.15443   0.17891   0.18829
 Alpha virt. eigenvalues --    0.18917   0.20413   0.21363   0.23558   0.24914
 Alpha virt. eigenvalues --    0.25646   0.25920   0.26790   0.27543   0.28050

 Mulliken charges:
               1
     1  C    0.295861
     2  C    0.756008
     3  Cl  -0.255481
     4  H   -0.713070
     5  H    0.147545
     6  N   -0.450451
     7  H    0.065443
     8  H    0.070133
     9  C   -0.396667
    10  N   -0.311336
    11  H   -0.110506
    12  H   -0.097480
 Sum of Mulliken charges =  -1.00000

 Dipole moment (field-independent basis, Debye):
    X=              3.9940    Y=             -5.1294    Z=              2.0567  Tot=              6.8186

 Test job not archived.
 1\1\GINC-SE114\SP\RHF\Aug-CC-pVDZ\C3H6Cl1N2(1-)\OHZDE\09-Apr-2025\0\\#
 t hf aug-cc-pvdz iop(5/13=1,5/36=2,99/5=2) pseudo=read geom=check gues
 s=(read,tcheck) scf=(maxcycle=1)\\title\\-1,1\C,0,-0.14954625,0.006324
 74,-0.39732038\C,0,-0.08781467,-0.02602674,1.10051115\Cl,0,1.51877598,
 -0.06095112,-1.190254\H,0,-2.52746592,0.53399891,1.32121936\H,0,-1.332
 73995,0.17328442,1.35746711\N,0,-0.84348304,1.16327736,-0.91271155\H,0
 ,-0.34902553,1.98475783,-0.57429248\H,0,-1.73774176,1.1523145,-0.40179
 641\C,0,0.40967204,-1.24042947,1.68031579\N,0,0.74036445,-2.25678055,2

 Normal termination of Gaussian 16 at Wed Apr  9 02:40:01 2025.
