 Gaussian 16, Revision C.01,

 ----------------------------------------------------------------------
 #t hf aug-cc-pvdz symm=none int=(grid=ultrafine) guess=(read,tcheck) s
 table=(opt,rrhf)
 ----------------------------------------------------------------------
 -----
 title
 -----
 Symbolic Z-matrix:
 Charge = -1 Multiplicity = 1

 SCF Done:  E(RHF) =  -1295.33808967     A.U. after   16 cycles
 Normal termination of Gaussian 16 at Wed Apr  9 02:57:46 2025.
 Gaussian 16:  ES64L-G16RevC.01  3-Jul-2019

 ----------------------------------------------------------------------
 #t hf aug-cc-pvdz iop(5/13=1,5/36=2,99/5=2) pseudo=read geom=check gue
 ss=(read,tcheck) scf=(maxcycle=1)
 ----------------------------------------------------------------------
 -----
 title
 -----
 Structure from the checkpoint file:  "E2SN2_41_mol2.chk"
 Charge = -1 Multiplicity = 1

                         Standard orientation:
 ---------------------------------------------------------------------
 Center     Atomic      Atomic             Coordinates (Angstroms)
 Number     Number       Type             X           Y           Z
 ---------------------------------------------------------------------
      1          6           0        0.430984   -0.107232    0.015117
      2          6           0       -0.144909    0.770493   -1.070382
      3         17           0        0.916264   -1.748796   -0.819298
      4          1           0       -1.042451    0.252343   -1.422119
      5          1           0        0.572718    0.824783   -1.888559
      6          7           0        1.828687    0.357247    0.466691
      7          8           0        2.211262   -0.036370    1.563006
      8          8           0        2.472845    1.072372   -0.294115
      9          7           0       -0.371302   -0.223358    1.111337
     10          1           0       -0.049514   -0.877365    1.808160
     11          1           0       -1.379074   -0.289278    0.892330
     12          6           0       -0.531302    2.155973   -0.562185
     13          1           0       -1.351169    2.077433    0.150224
     14          1           0       -0.872812    2.766058   -1.402973
     15          1           0        0.315582    2.665724   -0.096909
     16         17           0       -3.410174   -0.225342    0.258546
 ---------------------------------------------------------------------

 SCF Done:  E(RHF) =  -1295.48271074     A.U. after    2 cycles

 The electronic state is 1-A.
 Alpha  occ. eigenvalues -- -103.53930-103.38347 -20.52213 -20.52073 -15.81146
 Alpha  occ. eigenvalues --  -15.50945 -11.29991 -11.13785 -11.11729 -10.57251
 Alpha  occ. eigenvalues --  -10.41448  -8.22947  -8.22685  -8.22679  -8.07056
 Alpha  occ. eigenvalues --   -8.07014  -8.07005  -1.44536  -1.26425  -1.12791
 Alpha  occ. eigenvalues --   -1.01138  -0.93791  -0.88379  -0.83778  -0.77419
 Alpha  occ. eigenvalues --   -0.70979  -0.64600  -0.63766  -0.62204  -0.56226
 Alpha  occ. eigenvalues --   -0.52216  -0.50146  -0.48471  -0.43056  -0.42076
 Alpha  occ. eigenvalues --   -0.41662  -0.39683  -0.38603  -0.37406  -0.35219
 Alpha  occ. eigenvalues --   -0.34478  -0.29213  -0.21990  -0.21549  -0.21419
 Alpha virt. eigenvalues --    0.12360   0.13672   0.14276   0.14963   0.16358
 Alpha virt. eigenvalues --    0.17647   0.17955   0.18410   0.20179   0.22177
 Alpha virt. eigenvalues --    0.22219   0.24402   0.24882   0.25516   0.25940

 Mulliken charges:
               1
     1  C    0.740358
     2  C    0.357402
     3  Cl  -0.217356
     4  H   -0.011257
     5  H   -0.059075
     6  N    0.335085
     7  O   -0.612800
     8  O   -0.608718
     9  N   -0.327924
    10  H    0.025781
    11  H    0.010140
    12  C    0.429835
    13  H   -0.001257
    14  H   -0.063685
    15  H   -0.071583
    16  Cl  -0.924947
 Sum of Mulliken charges =  -1.00000

 Dipole moment (field-independent basis, Debye):
    X=              7.7733    Y=              1.3256    Z=             -1.2255  Tot=              7.9801

 Test job not archived.
 1\1\GINC-SE455\SP\RHF\Aug-CC-pVDZ\C3H7Cl2N2O2(1-)\OHZDE\09-Apr-2025\0\
 \#t hf aug-cc-pvdz iop(5/13=1,5/36=2,99/5=2) pseudo=read geom=check gu
 ess=(read,tcheck) scf=(maxcycle=1)\\title\\-1,1\C,0,-0.352826,0.158254
 ,-1.399246\C,0,-0.138132,-0.150845,0.063193\Cl,0,-0.208186,-1.498182,-
 2.327565\H,0,0.885884,-0.5301,0.136241\H,0,-0.827636,-0.942794,0.35431
 4\N,0,-1.822909,0.488232,-1.720499\O,0,-2.033908,1.10264,-2.7603\O,0,-
 2.684632,0.108899,-0.933918\N,0,0.438526,1.163562,-1.870377\H,0,0.3783
 06,1.323838,-2.864117\H,0,1.400682,1.1559,-1.4934\C,0,-0.282137,1.0811

 Normal termination of Gaussian 16 at Wed Apr  9 02:57:54 2025.
