 Gaussian 16, Revision C.01,

 ----------------------------------------------------------------------
 #t hf aug-cc-pvdz symm=none int=(grid=ultrafine) guess=(read,tcheck) s
 table=(opt,rrhf)
 ----------------------------------------------------------------------
 -----
 title
 -----
 Symbolic Z-matrix:
 Charge = -1 Multiplicity = 1

 SCF Done:  E(RHF) =  -534.451200404     A.U. after   15 cycles
 Normal termination of Gaussian 16 at Wed Apr  9 02:50:16 2025.
 Gaussian 16:  ES64L-G16RevC.01  3-Jul-2019

 ----------------------------------------------------------------------
 #t hf aug-cc-pvdz iop(5/13=1,5/36=2,99/5=2) pseudo=read geom=check gue
 ss=(read,tcheck) scf=(maxcycle=1)
 ----------------------------------------------------------------------
 -----
 title
 -----
 Structure from the checkpoint file:  "E2SN2_322_mol2.chk"
 Charge = -1 Multiplicity = 1

                         Standard orientation:
 ---------------------------------------------------------------------
 Center     Atomic      Atomic             Coordinates (Angstroms)
 Number     Number       Type             X           Y           Z
 ---------------------------------------------------------------------
      1          6           0       -0.628934    0.378399    0.261396
      2          6           0        0.323625    0.310896   -0.959204
      3          9           0       -1.235629    1.664215    0.258725
      4          1           0       -0.264053    0.714628   -1.793832
      5          6           0       -1.784373   -0.531882    0.010343
      6          7           0       -2.680064   -1.270215   -0.174556
      7          7           0        0.004232    0.110052    1.474987
      8          1           0        0.968777   -0.294463    1.381761
      9          1           0       -0.572839   -0.377140    2.141280
     10          7           0        0.764153   -1.040168   -1.285893
     11          1           0        1.400917   -1.308314   -0.523668
     12          1           0       -0.019783   -1.682948   -1.324911
     13          7           0        1.452773    1.187021   -0.711295
     14          1           0        2.042756    0.670143   -0.046825
     15          1           0        1.973904    1.208990   -1.582105
     16          9           0        2.371268   -0.862238    0.935763
 ---------------------------------------------------------------------

 SCF Done:  E(RHF) =  -534.613380954     A.U. after    2 cycles

 The electronic state is 1-A.
 Alpha  occ. eigenvalues --  -25.97667 -25.78569 -15.53575 -15.46908 -15.45989
 Alpha  occ. eigenvalues --  -15.45703 -11.26278 -11.18225 -11.17127  -1.50780
 Alpha  occ. eigenvalues --   -1.27998  -1.09529  -1.06309  -1.02159  -0.94671
 Alpha  occ. eigenvalues --   -0.84176  -0.71557  -0.65463  -0.60452  -0.59992
 Alpha  occ. eigenvalues --   -0.56313  -0.52384  -0.50460  -0.48333  -0.46844
 Alpha  occ. eigenvalues --   -0.44959  -0.41669  -0.40921  -0.37452  -0.36709
 Alpha  occ. eigenvalues --   -0.35813  -0.35113  -0.34754  -0.27393  -0.26127
 Alpha  occ. eigenvalues --   -0.25497
 Alpha virt. eigenvalues --    0.13266   0.14198   0.14687   0.15067   0.18390
 Alpha virt. eigenvalues --    0.18993   0.19842   0.20053   0.20725   0.22643
 Alpha virt. eigenvalues --    0.24023   0.24176   0.25277   0.26346   0.26498

 Mulliken charges:
               1
     1  C    1.398731
     2  C    1.016960
     3  F   -0.459619
     4  H   -0.204317
     5  C   -0.522239
     6  N   -0.226842
     7  N   -0.574383
     8  H    0.157266
     9  H   -0.006067
    10  N   -0.442189
    11  H    0.109071
    12  H   -0.020981
    13  N   -0.390356
    14  H    0.117205
    15  H   -0.001293
    16  F   -0.950948
 Sum of Mulliken charges =  -1.00000

 Dipole moment (field-independent basis, Debye):
    X=             -3.3219    Y=              0.5614    Z=             -1.7256  Tot=              3.7852

 Test job not archived.
 1\1\GINC-SE367\SP\RHF\Aug-CC-pVDZ\C3H7F2N4(1-)\OHZDE\09-Apr-2025\0\\#t
  hf aug-cc-pvdz iop(5/13=1,5/36=2,99/5=2) pseudo=read geom=check guess
 =(read,tcheck) scf=(maxcycle=1)\\title\\-1,1\C,0,0.082881,0.080554,0.0
 05287\C,0,-0.362161,-0.055595,-1.472952\F,0,1.429319,-0.368389,0.08873
 1\H,0,0.467223,0.368413,-2.053734\C,0,0.198338,1.531847,0.332545\N,0,0
 .261829,2.674909,0.598935\N,0,-0.743666,-0.600865,0.898708\H,0,-1.6497
 12,-0.933597,0.485139\H,0,-0.852819,-0.143232,1.789197\N,0,-1.59042,0.
 665669,-1.784918\H,0,-2.337811,0.146345,-1.305264\H,0,-1.554433,1.6190

 Normal termination of Gaussian 16 at Wed Apr  9 02:50:23 2025.
