 Gaussian 16, Revision C.01,

 ----------------------------------------------------------------------
 #t hf aug-cc-pvdz symm=none int=(grid=ultrafine) guess=(read,tcheck) s
 table=(opt,rrhf)
 ----------------------------------------------------------------------
 -----
 title
 -----
 Symbolic Z-matrix:
 Charge = -1 Multiplicity = 1

 SCF Done:  E(RHF) =  -531.255459055     A.U. after   16 cycles
 Normal termination of Gaussian 16 at Wed Apr  9 02:53:32 2025.
 Gaussian 16:  ES64L-G16RevC.01  3-Jul-2019

 ----------------------------------------------------------------------
 #t hf aug-cc-pvdz iop(5/13=1,5/36=2,99/5=2) pseudo=read geom=check gue
 ss=(read,tcheck) scf=(maxcycle=1)
 ----------------------------------------------------------------------
 -----
 title
 -----
 Structure from the checkpoint file:  "E2SN2_360_mol2.chk"
 Charge = -1 Multiplicity = 1

                         Standard orientation:
 ---------------------------------------------------------------------
 Center     Atomic      Atomic             Coordinates (Angstroms)
 Number     Number       Type             X           Y           Z
 ---------------------------------------------------------------------
      1          6           0       -0.945834   -0.367431   -0.042165
      2          6           0        0.185420    0.551728   -0.520912
      3          9           0       -0.512954   -1.683731   -0.312259
      4          1           0        0.282249    0.384562   -1.597640
      5          6           0       -1.238599   -0.297105    1.443557
      6          1           0       -0.349874   -0.488822    2.043236
      7          1           0       -1.644634    0.689126    1.674171
      8          1           0       -1.999916   -1.051837    1.665595
      9          7           0       -2.075408   -0.103465   -0.889261
     10          1           0       -2.828016   -0.713595   -0.579013
     11          1           0       -2.396611    0.864550   -0.672623
     12          7           0        1.521657   -0.009533   -0.010486
     13          8           0        2.269490   -0.501465   -0.859376
     14          8           0        1.788312    0.072643    1.184310
     15          7           0        0.023551    1.891495   -0.089703
     16          1           0       -0.984478    2.150619    0.049565
     17          1           0        0.392533    2.526849   -0.785986
     18          1           0       -2.611610    2.450077    0.056840
 ---------------------------------------------------------------------

 SCF Done:  E(RHF) =  -531.421468617     A.U. after    2 cycles

 The electronic state is 1-A.
 Alpha  occ. eigenvalues --  -25.98491 -20.49419 -20.49398 -15.77791 -15.48194
 Alpha  occ. eigenvalues --  -15.47628 -11.24181 -11.21171 -11.10426  -1.51887
 Alpha  occ. eigenvalues --   -1.41318  -1.23159  -1.08571  -1.02325  -0.89956
 Alpha  occ. eigenvalues --   -0.86218  -0.76060  -0.69909  -0.65166  -0.62629
 Alpha  occ. eigenvalues --   -0.61735  -0.60107  -0.57516  -0.56410  -0.52554
 Alpha  occ. eigenvalues --   -0.50458  -0.47486  -0.45740  -0.44620  -0.42383
 Alpha  occ. eigenvalues --   -0.40235  -0.38354  -0.36301  -0.34854  -0.28524
 Alpha  occ. eigenvalues --   -0.27594  -0.11437
 Alpha virt. eigenvalues --    0.12691   0.13510   0.14236   0.15527   0.16476
 Alpha virt. eigenvalues --    0.17891   0.19109   0.20161   0.20707   0.21169
 Alpha virt. eigenvalues --    0.22110   0.23030   0.24343   0.25171   0.25276

 Mulliken charges:
               1
     1  C   -0.552162
     2  C    1.831443
     3  F   -0.448454
     4  H   -0.136117
     5  C    0.724812
     6  H    0.011680
     7  H    0.089830
     8  H   -0.075984
     9  N   -0.421217
    10  H    0.004980
    11  H    0.067241
    12  N    0.320569
    13  O   -0.645456
    14  O   -0.618990
    15  N   -0.436135
    16  H   -0.040078
    17  H   -0.016019
    18  H   -0.659941
 Sum of Mulliken charges =  -1.00000

 Dipole moment (field-independent basis, Debye):
    X=              3.9111    Y=             -5.0816    Z=             -0.2356  Tot=              6.4167

 Test job not archived.
 1\1\GINC-SE094\SP\RHF\Aug-CC-pVDZ\C3H9F1N3O2(1-)\OHZDE\09-Apr-2025\0\\
 #t hf aug-cc-pvdz iop(5/13=1,5/36=2,99/5=2) pseudo=read geom=check gue
 ss=(read,tcheck) scf=(maxcycle=1)\\title\\-1,1\C,0,-0.028059,-0.001289
 ,-0.029315\C,0,-0.344783,0.114002,-1.526039\F,0,1.373412,-0.147219,0.0
 57663\H,0,-0.019906,-0.825743,-1.982106\C,0,-0.395264,1.216437,0.79550
 7\H,0,0.062477,2.124906,0.406458\H,0,-1.481813,1.316193,0.808113\H,0,-
 0.046221,1.039496,1.817949\N,0,-0.617655,-1.231089,0.421414\H,0,-0.407
 159,-1.315136,1.41316\H,0,-1.651706,-1.108772,0.367247\N,0,0.63968,1.1

 Normal termination of Gaussian 16 at Wed Apr  9 02:53:40 2025.
