 Gaussian 16, Revision C.01,

 ----------------------------------------------------------------------
 #t hf aug-cc-pvdz symm=none int=(grid=ultrafine) guess=(read,tcheck) s
 table=(opt,rrhf)
 ----------------------------------------------------------------------
 -----
 title
 -----
 Symbolic Z-matrix:
 Charge = -1 Multiplicity = 1

 SCF Done:  E(RHF) =  -876.152913086     A.U. after   16 cycles
 Normal termination of Gaussian 16 at Wed Apr  9 02:44:18 2025.
 Gaussian 16:  ES64L-G16RevC.01  3-Jul-2019

 ----------------------------------------------------------------------
 #t hf aug-cc-pvdz iop(5/13=1,5/36=2,99/5=2) pseudo=read geom=check gue
 ss=(read,tcheck) scf=(maxcycle=1)
 ----------------------------------------------------------------------
 -----
 title
 -----
 Structure from the checkpoint file:  "E2SN2_261_mol2.chk"
 Charge = -1 Multiplicity = 1

                         Standard orientation:
 ---------------------------------------------------------------------
 Center     Atomic      Atomic             Coordinates (Angstroms)
 Number     Number       Type             X           Y           Z
 ---------------------------------------------------------------------
      1          6           0       -0.547787    0.114202    0.207171
      2          6           0        0.512841   -0.326803   -0.831713
      3         17           0       -0.702791    1.903917    0.303604
      4          1           0        0.206807    0.014385   -1.829412
      5          1           0       -0.158475   -0.335604    1.169391
      6          6           0       -1.834110   -0.449953   -0.165000
      7          7           0       -2.860618   -0.924518   -0.487618
      8          7           0        0.712282   -1.763416   -0.817686
      9          1           0       -0.139623   -2.204844   -1.148159
     10          1           0        0.827202   -1.970352    0.200698
     11          6           0        1.792289    0.337123   -0.531825
     12          7           0        2.816806    0.883446   -0.362595
     13          9           0        0.776982   -1.476241    1.783300
 ---------------------------------------------------------------------

 SCF Done:  E(RHF) =  -876.291503283     A.U. after    2 cycles

 The electronic state is 1-A.
 Alpha  occ. eigenvalues -- -103.55519 -25.78413 -15.54228 -15.51945 -15.48349
 Alpha  occ. eigenvalues --  -11.21201 -11.21113 -11.19520 -11.17162 -10.58810
 Alpha  occ. eigenvalues --   -8.24532  -8.24244  -8.24228  -1.27798  -1.10739
 Alpha  occ. eigenvalues --   -1.07198  -1.05223  -1.03455  -0.88443  -0.80483
 Alpha  occ. eigenvalues --   -0.62976  -0.57637  -0.52632  -0.51988  -0.48490
 Alpha  occ. eigenvalues --   -0.45277  -0.44833  -0.42218  -0.39188  -0.37684
 Alpha  occ. eigenvalues --   -0.37311  -0.36657  -0.35993  -0.35022  -0.33374
 Alpha  occ. eigenvalues --   -0.33078  -0.31267  -0.27355
 Alpha virt. eigenvalues --    0.12743   0.14584   0.15602   0.17469   0.18397
 Alpha virt. eigenvalues --    0.19086   0.19653   0.21310   0.22927   0.23010
 Alpha virt. eigenvalues --    0.24373   0.24427   0.25618   0.25993   0.26373

 Mulliken charges:
               1
     1  C    0.387879
     2  C    0.892786
     3  Cl  -0.122428
     4  H   -0.171736
     5  H    0.086820
     6  C   -0.128379
     7  N   -0.257174
     8  N   -0.466634
     9  H    0.010025
    10  H    0.202016
    11  C   -0.259209
    12  N   -0.254886
    13  F   -0.919079
 Sum of Mulliken charges =  -1.00000

 Dipole moment (field-independent basis, Debye):
    X=             -3.2893    Y=              2.9951    Z=             -4.2836  Tot=              6.1757

 Test job not archived.
 1\1\GINC-SE250\SP\RHF\Aug-CC-pVDZ\C4H4Cl1F1N3(1-)\OHZDE\09-Apr-2025\0\
 \#t hf aug-cc-pvdz iop(5/13=1,5/36=2,99/5=2) pseudo=read geom=check gu
 ess=(read,tcheck) scf=(maxcycle=1)\\title\\-1,1\C,0,-0.129099,0.12082,
 0.006222\C,0,-0.401913,0.221628,-1.514997\Cl,0,1.28736,-0.924914,0.375
 668\H,0,0.463724,0.682414,-2.008777\H,0,-1.096067,-0.308758,0.406461\C
 ,0,0.12101,1.453394,0.528811\N,0,0.31377,2.544005,0.924316\N,0,-1.6125
 4,0.97012,-1.794236\H,0,-1.459852,1.934417,-1.51741\H,0,-2.306639,0.53
 7285,-1.143072\C,0,-0.536684,-1.133183,-2.075392\N,0,-0.599256,-2.1931

 Normal termination of Gaussian 16 at Wed Apr  9 02:44:24 2025.
