 Gaussian 16, Revision C.01,

 ----------------------------------------------------------------------
 #t hf aug-cc-pvdz symm=none int=(grid=ultrafine) guess=(read,tcheck) s
 table=(opt,rrhf)
 ----------------------------------------------------------------------
 -----
 title
 -----
 Symbolic Z-matrix:
 Charge = -1 Multiplicity = 1

 SCF Done:  E(RHF) =  -479.412334087     A.U. after   14 cycles
 Normal termination of Gaussian 16 at Wed Apr  9 02:39:52 2025.
 Gaussian 16:  ES64L-G16RevC.01  3-Jul-2019

 ----------------------------------------------------------------------
 #t hf aug-cc-pvdz iop(5/13=1,5/36=2,99/5=2) pseudo=read geom=check gue
 ss=(read,tcheck) scf=(maxcycle=1)
 ----------------------------------------------------------------------
 -----
 title
 -----
 Structure from the checkpoint file:  "E2SN2_206_mol2.chk"
 Charge = -1 Multiplicity = 1

                         Standard orientation:
 ---------------------------------------------------------------------
 Center     Atomic      Atomic             Coordinates (Angstroms)
 Number     Number       Type             X           Y           Z
 ---------------------------------------------------------------------
      1          6           0       -0.055916    0.987633   -0.383782
      2          6           0        0.298985   -0.486580   -0.152898
      3          9           0        0.648204    1.720909    0.629452
      4          1           0       -0.211193   -1.056533   -0.935237
      5          1           0        0.400618    1.357960   -1.312445
      6          7           0       -1.436558    1.194965   -0.284675
      7          1           0       -1.975519    0.290385   -0.288841
      8          1           0       -1.773102    1.846561   -0.975530
      9          7           0       -0.182753   -1.030513    1.107957
     10          1           0       -1.171508   -1.236702    0.889759
     11          1           0       -0.140123   -0.290081    1.799337
     12          6           0        1.756229   -0.664177   -0.292188
     13          7           0        2.913593   -0.801997   -0.435733
     14          9           0       -2.446530   -1.217579   -0.286860
 ---------------------------------------------------------------------

 SCF Done:  E(RHF) =  -479.559453118     A.U. after    2 cycles

 The electronic state is 1-A.
 Alpha  occ. eigenvalues --  -25.96061 -25.77517 -15.51280 -15.45987 -15.45881
 Alpha  occ. eigenvalues --  -11.22502 -11.17081 -11.16480  -1.48958  -1.26763
 Alpha  occ. eigenvalues --   -1.07024  -1.04102  -0.99710  -0.84640  -0.73467
 Alpha  occ. eigenvalues --   -0.62047  -0.60396  -0.59567  -0.54869  -0.51711
 Alpha  occ. eigenvalues --   -0.48662  -0.46664  -0.42994  -0.42064  -0.41617
 Alpha  occ. eigenvalues --   -0.36714  -0.35786  -0.34679  -0.32709  -0.32129
 Alpha  occ. eigenvalues --   -0.27433  -0.25226
 Alpha virt. eigenvalues --    0.12739   0.14423   0.15418   0.15538   0.18733
 Alpha virt. eigenvalues --    0.19228   0.19454   0.21726   0.22936   0.24348
 Alpha virt. eigenvalues --    0.25004   0.25731   0.26430   0.26954   0.29199

 Mulliken charges:
               1
     1  C    1.144887
     2  C    0.876114
     3  F   -0.479854
     4  H   -0.065632
     5  H   -0.306154
     6  N   -0.416766
     7  H    0.152039
     8  H   -0.013714
     9  N   -0.477015
    10  H    0.143662
    11  H    0.049203
    12  C   -0.421546
    13  N   -0.253617
    14  F   -0.931609
 Sum of Mulliken charges =  -1.00000

 Dipole moment (field-independent basis, Debye):
    X=              1.6861    Y=              3.9047    Z=             -1.5449  Tot=              4.5251

 Test job not archived.
 1\1\GINC-SE059\SP\RHF\Aug-CC-pVDZ\C3H6F2N3(1-)\OHZDE\09-Apr-2025\0\\#t
  hf aug-cc-pvdz iop(5/13=1,5/36=2,99/5=2) pseudo=read geom=check guess
 =(read,tcheck) scf=(maxcycle=1)\\title\\-1,1\C,0,0.143134,0.094281,0.0
 43101\C,0,-0.487164,0.250094,-1.346508\F,0,1.526576,-0.209783,-0.18875
 2\H,0,-1.53823,0.50784,-1.185236\H,0,0.191198,1.062785,0.56047\N,0,-0.
 480435,-0.928242,0.767386\H,0,-1.380893,-1.240252,0.319517\H,0,-0.5968
 17,-0.688579,1.739053\N,0,-0.498325,-0.968668,-2.141608\H,0,-1.316208,
 -1.469372,-1.75674\H,0,0.344931,-1.487292,-1.922493\C,0,0.180527,1.352

 Normal termination of Gaussian 16 at Wed Apr  9 02:39:58 2025.
