 Gaussian 16, Revision C.01,

 ----------------------------------------------------------------------
 #t hf aug-cc-pvdz symm=none int=(grid=ultrafine) guess=(read,tcheck) s
 table=(opt,rrhf)
 ----------------------------------------------------------------------
 -----
 title
 -----
 Symbolic Z-matrix:
 Charge = -1 Multiplicity = 1

 SCF Done:  E(RHF) =  -630.224270949     A.U. after   16 cycles
 Normal termination of Gaussian 16 at Wed Apr  9 02:54:01 2025.
 Gaussian 16:  ES64L-G16RevC.01  3-Jul-2019

 ----------------------------------------------------------------------
 #t hf aug-cc-pvdz iop(5/13=1,5/36=2,99/5=2) pseudo=read geom=check gue
 ss=(read,tcheck) scf=(maxcycle=1)
 ----------------------------------------------------------------------
 -----
 title
 -----
 Structure from the checkpoint file:  "E2SN2_361_mol2.chk"
 Charge = -1 Multiplicity = 1

                         Standard orientation:
 ---------------------------------------------------------------------
 Center     Atomic      Atomic             Coordinates (Angstroms)
 Number     Number       Type             X           Y           Z
 ---------------------------------------------------------------------
      1          6           0        0.439482    0.798307   -0.027124
      2          6           0       -0.326844   -0.401689   -0.599884
      3          9           0       -0.431513    1.901233   -0.149266
      4          1           0       -0.552898   -0.148871   -1.639529
      5          6           0        0.823273    0.675009    1.434395
      6          1           0       -0.026111    0.418287    2.066041
      7          1           0        1.232141    1.641300    1.747938
      8          1           0        1.608497   -0.080051    1.492745
      9          7           0        1.555819    1.025629   -0.908411
     10          1           0        1.991968    1.889045   -0.595029
     11          1           0        2.227828    0.260215   -0.679821
     12          7           0       -1.742736   -0.410176    0.013880
     13          8           0       -1.889660   -0.775099    1.176204
     14          8           0       -2.665516   -0.065033   -0.728914
     15          7           0        0.318069   -1.637608   -0.373580
     16          1           0        1.338381   -1.529826   -0.156103
     17          1           0        0.210952   -2.240776   -1.176406
     18          9           0        2.862304   -1.097116    0.081966
 ---------------------------------------------------------------------

 SCF Done:  E(RHF) =  -630.418198881     A.U. after    2 cycles

 The electronic state is 1-A.
 Alpha  occ. eigenvalues --  -25.97747 -25.78203 -20.48626 -20.48603 -15.76862
 Alpha  occ. eigenvalues --  -15.46934 -15.46380 -11.23106 -11.20315 -11.08908
 Alpha  occ. eigenvalues --   -1.51152  -1.40465  -1.27548  -1.22320  -1.07460
 Alpha  occ. eigenvalues --   -1.01302  -0.88890  -0.84968  -0.75076  -0.69054
 Alpha  occ. eigenvalues --   -0.64278  -0.61750  -0.60875  -0.59269  -0.56967
 Alpha  occ. eigenvalues --   -0.55843  -0.51797  -0.49812  -0.47965  -0.45361
 Alpha  occ. eigenvalues --   -0.43764  -0.41949  -0.39240  -0.37982  -0.37075
 Alpha  occ. eigenvalues --   -0.36286  -0.35767  -0.34157  -0.33991  -0.27007
 Alpha  occ. eigenvalues --   -0.26322
 Alpha virt. eigenvalues --    0.12935   0.13456   0.14422   0.15569   0.16627
 Alpha virt. eigenvalues --    0.18060   0.18817   0.19680   0.21031   0.21608
 Alpha virt. eigenvalues --    0.22660   0.24151   0.24978   0.25414   0.25876

 Mulliken charges:
               1
     1  C   -0.356386
     2  C    1.591967
     3  F   -0.448107
     4  H   -0.136809
     5  C    0.784973
     6  H    0.011523
     7  H   -0.072622
     8  H    0.043546
     9  N   -0.462118
    10  H   -0.005950
    11  H    0.194698
    12  N    0.335415
    13  O   -0.618023
    14  O   -0.647483
    15  N   -0.386966
    16  H    0.137530
    17  H   -0.022358
    18  F   -0.942830
 Sum of Mulliken charges =  -1.00000

 Dipole moment (field-independent basis, Debye):
    X=             -2.5893    Y=              2.0610    Z=             -0.6670  Tot=              3.3760

 Test job not archived.
 1\1\GINC-SE040\SP\RHF\Aug-CC-pVDZ\C3H8F2N3O2(1-)\OHZDE\09-Apr-2025\0\\
 #t hf aug-cc-pvdz iop(5/13=1,5/36=2,99/5=2) pseudo=read geom=check gue
 ss=(read,tcheck) scf=(maxcycle=1)\\title\\-1,1\C,0,-0.046428,-0.0844,-
 0.035553\C,0,-0.318956,-0.403542,-1.511756\F,0,1.301322,-0.435587,0.18
 8577\H,0,-0.131079,-1.474318,-1.630162\C,0,-0.21128,1.373676,0.345726\
 H,0,0.352256,2.039284,-0.306753\H,0,0.144566,1.484849,1.375393\H,0,-1.
 279911,1.590537,0.312608\N,0,-0.864882,-0.986652,0.732969\H,0,-0.59567
 5,-0.854364,1.70454\H,0,-1.831086,-0.601751,0.643477\N,0,0.828556,0.19

 Normal termination of Gaussian 16 at Wed Apr  9 02:54:10 2025.
