 Gaussian 16, Revision C.01,

 ----------------------------------------------------------------------
 #t hf aug-cc-pvdz symm=none int=(grid=ultrafine) guess=(read,tcheck) s
 table=(opt,rrhf)
 ----------------------------------------------------------------------
 -----
 title
 -----
 Symbolic Z-matrix:
 Charge = -1 Multiplicity = 1

 SCF Done:  E(RHF) =  -364.421148677     A.U. after   17 cycles
 Normal termination of Gaussian 16 at Wed Apr  9 03:00:01 2025.
 Gaussian 16:  ES64L-G16RevC.01  3-Jul-2019

 ----------------------------------------------------------------------
 #t hf aug-cc-pvdz iop(5/13=1,5/36=2,99/5=2) pseudo=read geom=check gue
 ss=(read,tcheck) scf=(maxcycle=1)
 ----------------------------------------------------------------------
 -----
 title
 -----
 Structure from the checkpoint file:  "E2SN2_97_mol1.chk"
 Charge = -1 Multiplicity = 1

                         Standard orientation:
 ---------------------------------------------------------------------
 Center     Atomic      Atomic             Coordinates (Angstroms)
 Number     Number       Type             X           Y           Z
 ---------------------------------------------------------------------
      1          6           0       -0.727166   -0.512532   -0.367055
      2          6           0        0.356347    0.508748   -0.174427
      3          9           0       -0.812893   -1.399822    0.752155
      4          1           0       -0.269608    2.371188   -1.656569
      5          1           0        0.183894    1.340965   -1.114421
      6          1           0       -0.476809   -1.154897   -1.219060
      7          6           0       -2.091863    0.109255   -0.546316
      8          1           0       -2.035168    0.881283   -1.319230
      9          1           0       -2.830896   -0.652197   -0.809115
     10          1           0       -2.405286    0.587920    0.383407
     11          6           0        1.671320   -0.090373   -0.213305
     12          7           0        2.744604   -0.571524   -0.301993
     13          7           0        0.191866    1.414033    0.948456
     14          1           0       -0.280189    2.241118    0.573324
     15          1           0       -0.377017    0.994856    1.673638
 ---------------------------------------------------------------------

 SCF Done:  E(RHF) =  -364.536149485     A.U. after    2 cycles

 The electronic state is 1-A.
 Alpha  occ. eigenvalues --  -25.96716 -15.48331 -15.47216 -11.19519 -11.14074
 Alpha  occ. eigenvalues --  -11.12409 -11.10632  -1.49380  -1.04373  -1.00842
 Alpha  occ. eigenvalues --   -0.91357  -0.81109  -0.71130  -0.61409  -0.59465
 Alpha  occ. eigenvalues --   -0.58133  -0.53915  -0.49945  -0.46808  -0.42779
 Alpha  occ. eigenvalues --   -0.41684  -0.39413  -0.38784  -0.37519  -0.30224
 Alpha  occ. eigenvalues --   -0.29521  -0.26360  -0.10780
 Alpha virt. eigenvalues --    0.12174   0.13602   0.14959   0.16182   0.16528
 Alpha virt. eigenvalues --    0.17873   0.18549   0.20130   0.20457   0.22650
 Alpha virt. eigenvalues --    0.24293   0.24790   0.25342   0.26280   0.26589

 Mulliken charges:
               1
     1  C    0.582478
     2  C    0.580167
     3  F   -0.538292
     4  H   -0.576073
     5  H    0.072169
     6  H   -0.271705
     7  C    0.501776
     8  H    0.027726
     9  H   -0.010230
    10  H   -0.059334
    11  C   -0.747915
    12  N   -0.274714
    13  N   -0.365138
    14  H    0.049298
    15  H    0.029788
 Sum of Mulliken charges =  -1.00000

 Dipole moment (field-independent basis, Debye):
    X=             -4.9372    Y=             -4.5787    Z=              3.1473  Tot=              7.4327

 Test job not archived.
 1\1\GINC-SE456\SP\RHF\Aug-CC-pVDZ\C4H8F1N2(1-)\OHZDE\09-Apr-2025\0\\#t
  hf aug-cc-pvdz iop(5/13=1,5/36=2,99/5=2) pseudo=read geom=check guess
 =(read,tcheck) scf=(maxcycle=1)\\title\\-1,1\C,0,-0.14531334,0.1689947
 1,-0.46186315\C,0,-0.0093688,0.14956397,1.03321577\F,0,1.12736491,0.31
 272003,-1.09974712\H,0,-2.04086319,-0.98805895,1.83076924\H,0,-1.15452
 147,-0.19158549,1.45530121\H,0,-0.71580272,1.05414973,-0.76561676\C,0,
 -0.77622431,-1.08980647,-1.00823568\H,0,-1.69899306,-1.29602866,-0.458
 13713\H,0,-0.97455573,-0.98837903,-2.07847837\H,0,-0.10187415,-1.93555

 Normal termination of Gaussian 16 at Wed Apr  9 03:00:06 2025.
