 Gaussian 16, Revision C.01,

 ----------------------------------------------------------------------
 #t hf aug-cc-pvdz symm=none int=(grid=ultrafine) guess=(read,tcheck) s
 table=(opt,rrhf)
 ----------------------------------------------------------------------
 -----
 title
 -----
 Symbolic Z-matrix:
 Charge = -1 Multiplicity = 1

 SCF Done:  E(RHF) =  -763.537588163     A.U. after   16 cycles
 Normal termination of Gaussian 16 at Wed Apr  9 02:40:25 2025.
 Gaussian 16:  ES64L-G16RevC.01  3-Jul-2019

 ----------------------------------------------------------------------
 #t hf aug-cc-pvdz iop(5/13=1,5/36=2,99/5=2) pseudo=read geom=check gue
 ss=(read,tcheck) scf=(maxcycle=1)
 ----------------------------------------------------------------------
 -----
 title
 -----
 Structure from the checkpoint file:  "E2SN2_20_mol2.chk"
 Charge = -1 Multiplicity = 1

                         Standard orientation:
 ---------------------------------------------------------------------
 Center     Atomic      Atomic             Coordinates (Angstroms)
 Number     Number       Type             X           Y           Z
 ---------------------------------------------------------------------
      1          6           0        0.675076    0.079858    0.329472
      2          6           0       -0.672176    0.787299    0.069631
      3         17           0        0.842554   -1.319133   -0.861861
      4          1           0       -0.687847    1.503247    0.903378
      5          6           0        1.833005    1.030062    0.110667
      6          1           0        1.673886    1.872770    0.794864
      7          1           0        2.754205    0.513419    0.382640
      8          1           0        1.899833    1.371365   -0.923194
      9          7           0        0.765039   -0.434563    1.664754
     10          1           0       -0.034250   -1.039021    1.839562
     11          1           0        0.630109    0.419387    2.257082
     12          6           0       -1.783425   -0.138538    0.268623
     13          7           0       -2.699939   -0.859970    0.415651
     14          6           0       -0.815937    1.511387   -1.268174
     15          1           0       -0.631448    0.834494   -2.105765
     16          1           0       -0.111556    2.342961   -1.317115
     17          1           0       -1.824012    1.921824   -1.367941
     18          1           0        0.132708    2.126137    2.563977
 ---------------------------------------------------------------------

 SCF Done:  E(RHF) =  -763.646200341     A.U. after    2 cycles

 The electronic state is 1-A.
 Alpha  occ. eigenvalues -- -103.52011 -15.51986 -15.47438 -11.22391 -11.17297
 Alpha  occ. eigenvalues --  -11.15377 -11.13440 -11.10969 -10.55397  -8.21095
 Alpha  occ. eigenvalues --   -8.20848  -8.20845  -1.09542  -1.05629  -0.98470
 Alpha  occ. eigenvalues --   -0.94603  -0.86020  -0.79310  -0.66208  -0.58640
 Alpha  occ. eigenvalues --   -0.55576  -0.51323  -0.49107  -0.46054  -0.44650
 Alpha  occ. eigenvalues --   -0.43762  -0.42215  -0.41398  -0.40211  -0.37685
 Alpha  occ. eigenvalues --   -0.33915  -0.32831  -0.32664  -0.32189  -0.27235
 Alpha  occ. eigenvalues --   -0.10084
 Alpha virt. eigenvalues --    0.12020   0.13013   0.14378   0.14698   0.15759
 Alpha virt. eigenvalues --    0.16694   0.17847   0.18509   0.19275   0.20061
 Alpha virt. eigenvalues --    0.20960   0.21980   0.23027   0.23398   0.25122

 Mulliken charges:
               1
     1  C   -0.807895
     2  C    0.604742
     3  Cl  -0.333338
     4  H   -0.045613
     5  C    1.049096
     6  H    0.041142
     7  H   -0.003882
     8  H   -0.078765
     9  N   -0.551436
    10  H   -0.035328
    11  H    0.147633
    12  C   -0.555613
    13  N   -0.293059
    14  C    0.692952
    15  H    0.018535
    16  H   -0.045891
    17  H   -0.087300
    18  H   -0.715980
 Sum of Mulliken charges =  -1.00000

 Dipole moment (field-independent basis, Debye):
    X=              1.4709    Y=             -2.7163    Z=             -8.7073  Tot=              9.2389

 Test job not archived.
 1\1\GINC-SE109\SP\RHF\Aug-CC-pVDZ\C5H10Cl1N2(1-)\OHZDE\09-Apr-2025\0\\
 #t hf aug-cc-pvdz iop(5/13=1,5/36=2,99/5=2) pseudo=read geom=check gue
 ss=(read,tcheck) scf=(maxcycle=1)\\title\\-1,1\C,0,-0.173267,0.000347,
 -1.481226\C,0,-0.012739,0.00751,0.05411\Cl,0,-1.968595,-0.141171,-1.88
 2811\H,0,1.082415,-0.021226,0.142276\C,0,0.347005,1.288339,-2.082853\H
 ,0,1.398843,1.366843,-1.781065\H,0,0.288379,1.205609,-3.168771\H,0,-0.
 221545,2.159171,-1.753878\N,0,0.526135,-1.092565,-2.091211\H,0,0.21810
 8,-1.96171,-1.661679\H,0,1.516503,-0.940975,-1.783835\C,0,-0.529369,-1

 Normal termination of Gaussian 16 at Wed Apr  9 02:40:34 2025.
