 Gaussian 16, Revision C.01,

 ----------------------------------------------------------------------
 #t hf aug-cc-pvdz symm=none int=(grid=ultrafine) guess=(read,tcheck) s
 table=(opt,rrhf)
 ----------------------------------------------------------------------
 -----
 title
 -----
 Symbolic Z-matrix:
 Charge = -1 Multiplicity = 1

 SCF Done:  E(RHF) =  -684.582574749     A.U. after   15 cycles
 Normal termination of Gaussian 16 at Wed Apr  9 02:40:09 2025.
 Gaussian 16:  ES64L-G16RevC.01  3-Jul-2019

 ----------------------------------------------------------------------
 #t hf aug-cc-pvdz iop(5/13=1,5/36=2,99/5=2) pseudo=read geom=check gue
 ss=(read,tcheck) scf=(maxcycle=1)
 ----------------------------------------------------------------------
 -----
 title
 -----
 Structure from the checkpoint file:  "E2SN2_211_mol2.chk"
 Charge = -1 Multiplicity = 1

                         Standard orientation:
 ---------------------------------------------------------------------
 Center     Atomic      Atomic             Coordinates (Angstroms)
 Number     Number       Type             X           Y           Z
 ---------------------------------------------------------------------
      1          6           0        0.472888    0.564900   -0.165237
      2          6           0       -0.632431    0.172310    0.775796
      3          9           0        0.882307    1.882184    0.122802
      4          1           0       -0.788338    0.955258    1.527019
      5          1           0        0.221058    0.491433   -1.208665
      6          1           0       -0.439669   -0.791277    1.220461
      7          7           0        1.713084   -0.233500    0.060237
      8          8           0        2.516259   -0.262314   -0.865589
      9          8           0        1.928815   -0.655322    1.194971
     10          7           0       -1.930523    0.049799    0.061660
     11          8           0       -2.767592   -0.689752    0.568885
     12          8           0       -2.135676    0.774823   -0.908151
     13          9           0       -0.087658   -1.563545   -0.786843
 ---------------------------------------------------------------------

 SCF Done:  E(RHF) =  -684.795129838     A.U. after    2 cycles

 The electronic state is 1-A.
 Alpha  occ. eigenvalues --  -26.01302 -25.75695 -20.49000 -20.48990 -20.48706
 Alpha  occ. eigenvalues --  -20.48606 -15.78785 -15.78453 -11.26867 -11.18734
 Alpha  occ. eigenvalues --   -1.54557  -1.41593  -1.40986  -1.24983  -1.23257
 Alpha  occ. eigenvalues --   -1.22891  -1.00789  -0.91475  -0.76265  -0.72059
 Alpha  occ. eigenvalues --   -0.67132  -0.66815  -0.64882  -0.61633  -0.60859
 Alpha  occ. eigenvalues --   -0.60154  -0.59356  -0.56117  -0.54670  -0.47658
 Alpha  occ. eigenvalues --   -0.45031  -0.39195  -0.39123  -0.37759  -0.37246
 Alpha  occ. eigenvalues --   -0.35221  -0.34704  -0.34485  -0.34341  -0.33551
 Alpha virt. eigenvalues --    0.13027   0.15575   0.16770   0.19935   0.20791
 Alpha virt. eigenvalues --    0.21245   0.22182   0.22847   0.23655   0.24764
 Alpha virt. eigenvalues --    0.26003   0.27087   0.27639   0.27986   0.28613

 Mulliken charges:
               1
     1  C    1.167616
     2  C    0.865670
     3  F   -0.426738
     4  H   -0.031933
     5  H   -0.101665
     6  H   -0.022375
     7  N    0.550769
     8  O   -0.639164
     9  O   -0.662479
    10  N    0.596974
    11  O   -0.642993
    12  O   -0.666817
    13  F   -0.986867
 Sum of Mulliken charges =  -1.00000

 Dipole moment (field-independent basis, Debye):
    X=             -0.2131    Y=              4.9995    Z=              3.2741  Tot=              5.9800

 Test job not archived.
 1\1\GINC-SE129\SP\RHF\Aug-CC-pVDZ\C2H3F2N2O4(1-)\OHZDE\09-Apr-2025\0\\
 #t hf aug-cc-pvdz iop(5/13=1,5/36=2,99/5=2) pseudo=read geom=check gue
 ss=(read,tcheck) scf=(maxcycle=1)\\title\\-1,1\C,0,-0.042192,-0.010516
 ,-0.003372\C,0,-0.475953,0.420187,-1.377325\F,0,1.364839,-0.074901,0.0
 40728\H,0,0.396595,0.682907,-1.98666\H,0,-0.451088,-0.951004,0.321965\
 H,0,-1.195974,1.22148,-1.323641\N,0,-0.368461,1.010329,1.034795\O,0,-0
 .405766,0.61323,2.194103\O,0,-0.403544,2.190649,0.691705\N,0,-1.142602
 ,-0.691311,-2.105469\O,0,-1.932455,-0.372459,-2.988284\O,0,-0.78198,-1

 Normal termination of Gaussian 16 at Wed Apr  9 02:40:15 2025.
