 Gaussian 16, Revision C.01,

 ----------------------------------------------------------------------
 #t hf aug-cc-pvdz symm=none int=(grid=ultrafine) guess=(read,tcheck) s
 table=(opt,rrhf)
 ----------------------------------------------------------------------
 -----
 title
 -----
 Symbolic Z-matrix:
 Charge = -1 Multiplicity = 1

 SCF Done:  E(RHF) =  -611.823294990     A.U. after   16 cycles
 Normal termination of Gaussian 16 at Wed Apr  9 02:41:19 2025.
 Gaussian 16:  ES64L-G16RevC.01  3-Jul-2019

 ----------------------------------------------------------------------
 #t hf aug-cc-pvdz iop(5/13=1,5/36=2,99/5=2) pseudo=read geom=check gue
 ss=(read,tcheck) scf=(maxcycle=1)
 ----------------------------------------------------------------------
 -----
 title
 -----
 Structure from the checkpoint file:  "E2SN2_231_mol1.chk"
 Charge = -1 Multiplicity = 1

                         Standard orientation:
 ---------------------------------------------------------------------
 Center     Atomic      Atomic             Coordinates (Angstroms)
 Number     Number       Type             X           Y           Z
 ---------------------------------------------------------------------
      1          6           0        0.109624    0.290606    0.055281
      2          1           0       -1.004909    0.645086   -1.734181
      3          9           0       -0.340384   -1.081405    1.095407
      4          9           0        0.834951    1.457508   -1.048448
      5          6           0       -0.964316   -0.099190   -0.940184
      6          1           0       -0.676817   -1.059247   -1.367626
      7          7           0        1.433531   -0.416698   -0.038132
      8          8           0        1.578434   -1.236693   -0.936901
      9          8           0        2.293300   -0.124172    0.781749
     10          6           0       -0.126394    1.322385    1.119461
     11          1           0        0.824479    1.526941    1.607853
     12          1           0       -0.482299    2.238984    0.651420
     13          1           0       -0.840839    0.948391    1.848513
     14          6           0       -2.284880   -0.217054   -0.324657
     15          7           0       -3.383360   -0.237395    0.088589
 ---------------------------------------------------------------------

 SCF Done:  E(RHF) =  -612.008293494     A.U. after    2 cycles

 The electronic state is 1-A.
 Alpha  occ. eigenvalues --  -25.85988 -25.85067 -20.47362 -20.47245 -15.77850
 Alpha  occ. eigenvalues --  -15.51522 -11.28790 -11.17481 -11.16222 -11.10809
 Alpha  occ. eigenvalues --   -1.41029  -1.36254  -1.35414  -1.21935  -1.05978
 Alpha  occ. eigenvalues --   -0.98467  -0.87942  -0.83316  -0.68038  -0.61847
 Alpha  occ. eigenvalues --   -0.59828  -0.59663  -0.57362  -0.53726  -0.50750
 Alpha  occ. eigenvalues --   -0.48387  -0.45576  -0.44977  -0.43968  -0.43285
 Alpha  occ. eigenvalues --   -0.41832  -0.40871  -0.39500  -0.39225  -0.36849
 Alpha  occ. eigenvalues --   -0.35456  -0.33186  -0.32984  -0.32455
 Alpha virt. eigenvalues --    0.13492   0.13838   0.15235   0.16328   0.16701
 Alpha virt. eigenvalues --    0.18516   0.20536   0.22192   0.22802   0.23732
 Alpha virt. eigenvalues --    0.24279   0.25450   0.25812   0.26193   0.26926

 Mulliken charges:
               1
     1  C   -0.044929
     2  H    0.113952
     3  F   -0.737200
     4  F   -0.733170
     5  C    0.510693
     6  H    0.208474
     7  N    0.642953
     8  O   -0.694936
     9  O   -0.690634
    10  C    0.412512
    11  H    0.091945
    12  H    0.105852
    13  H    0.072243
    14  C    0.092535
    15  N   -0.350291
 Sum of Mulliken charges =  -1.00000

 Dipole moment (field-independent basis, Debye):
    X=             -0.6140    Y=              1.6752    Z=             -0.9664  Tot=              2.0290

 Test job not archived.
 1\1\GINC-SE080\SP\RHF\Aug-CC-pVDZ\C4H5F2N2O2(1-)\OHZDE\09-Apr-2025\0\\
 #t hf aug-cc-pvdz iop(5/13=1,5/36=2,99/5=2) pseudo=read geom=check gue
 ss=(read,tcheck) scf=(maxcycle=1)\\title\\-1,1\C,0,0.70229918,-0.04711
 777,0.08288416\H,0,1.74499251,1.80469836,0.31435824\F,0,-1.05831145,-0
 .02048412,-0.17464965\F,0,2.45848501,-0.17292176,0.00566266\C,0,0.7341
 6941,1.46786927,0.0889494\H,0,0.46352291,1.8016487,-0.9122563\N,0,0.72
 963745,-0.73746854,-1.25293135\O,0,0.81568966,-0.03644909,-2.2541007\O
 ,0,0.67585659,-1.95976189,-1.2622295\C,0,0.61991353,-0.84786876,1.3496

 Normal termination of Gaussian 16 at Wed Apr  9 02:41:26 2025.
