 Gaussian 16, Revision C.01,

 ----------------------------------------------------------------------
 #t hf aug-cc-pvdz symm=none int=(grid=ultrafine) guess=(read,tcheck) s
 table=(opt,rrhf)
 ----------------------------------------------------------------------
 -----
 title
 -----
 Symbolic Z-matrix:
 Charge = -1 Multiplicity = 1

 SCF Done:  E(RHF) =  -1024.59185108     A.U. after   16 cycles
 Normal termination of Gaussian 16 at Wed Apr  9 02:40:25 2025.
 Gaussian 16:  ES64L-G16RevC.01  3-Jul-2019

 ----------------------------------------------------------------------
 #t hf aug-cc-pvdz iop(5/13=1,5/36=2,99/5=2) pseudo=read geom=check gue
 ss=(read,tcheck) scf=(maxcycle=1)
 ----------------------------------------------------------------------
 -----
 title
 -----
 Structure from the checkpoint file:  "E2SN2_215_mol2.chk"
 Charge = -1 Multiplicity = 1

                         Standard orientation:
 ---------------------------------------------------------------------
 Center     Atomic      Atomic             Coordinates (Angstroms)
 Number     Number       Type             X           Y           Z
 ---------------------------------------------------------------------
      1          6           0        0.438756   -0.308249    0.246102
      2          6           0       -0.729391    0.156709   -0.625787
      3         17           0        0.884286   -1.976652   -0.165800
      4          1           0       -0.451051    0.079514   -1.683965
      5          1           0        0.032594   -0.184294    1.298162
      6          7           0        1.641557    0.543123   -0.018399
      7          8           0        1.721210    1.130792   -1.098995
      8          8           0        2.486650    0.579539    0.871206
      9          6           0       -1.058804    1.560361   -0.351060
     10          7           0       -1.289068    2.711116   -0.325778
     11          6           0       -1.901069   -0.695595   -0.398927
     12          7           0       -2.831110   -1.411144   -0.424340
     13          9           0       -1.269320    0.316022    1.909375
 ---------------------------------------------------------------------

 SCF Done:  E(RHF) =  -1024.77546472     A.U. after    2 cycles

 The electronic state is 1-A.
 Alpha  occ. eigenvalues -- -103.58108 -25.78138 -20.52834 -20.52809 -15.82141
 Alpha  occ. eigenvalues --  -15.53516 -15.53298 -11.25621 -11.23963 -11.19551
 Alpha  occ. eigenvalues --  -11.19237 -10.61416  -8.27149  -8.26844  -8.26822
 Alpha  occ. eigenvalues --   -1.45030  -1.27621  -1.26836  -1.12137  -1.07853
 Alpha  occ. eigenvalues --   -1.06607  -0.99043  -0.91278  -0.74262  -0.68402
 Alpha  occ. eigenvalues --   -0.65891  -0.65098  -0.61754  -0.60614  -0.51648
 Alpha  occ. eigenvalues --   -0.49270  -0.44514  -0.44185  -0.43190  -0.42302
 Alpha  occ. eigenvalues --   -0.39833  -0.38990  -0.38698  -0.38271  -0.37291
 Alpha  occ. eigenvalues --   -0.35643  -0.34464  -0.33581  -0.33530  -0.31999
 Alpha virt. eigenvalues --    0.12369   0.15154   0.16255   0.17350   0.18071
 Alpha virt. eigenvalues --    0.19189   0.21170   0.22425   0.22953   0.23413
 Alpha virt. eigenvalues --    0.23633   0.24414   0.24801   0.25608   0.26183

 Mulliken charges:
               1
     1  C    0.491544
     2  C    1.005951
     3  Cl  -0.112124
     4  H    0.152512
     5  H    0.088720
     6  N    0.464320
     7  O   -0.605944
     8  O   -0.602851
     9  C   -0.049905
    10  N   -0.335880
    11  C   -0.260881
    12  N   -0.295444
    13  F   -0.940019
 Sum of Mulliken charges =  -1.00000

 Dipole moment (field-independent basis, Debye):
    X=              4.6105    Y=             -3.1367    Z=             -5.3070  Tot=              7.6981

 Test job not archived.
 1\1\GINC-SE334\SP\RHF\Aug-CC-pVDZ\C4H2Cl1F1N3O2(1-)\OHZDE\09-Apr-2025\
 0\\#t hf aug-cc-pvdz iop(5/13=1,5/36=2,99/5=2) pseudo=read geom=check
 guess=(read,tcheck) scf=(maxcycle=1)\\title\\-1,1\C,0,-0.092816,0.1138
 34,0.042489\C,0,-0.365189,0.427947,-1.429954\Cl,0,1.609458,-0.336959,0
 .267827\H,0,0.297441,1.236811,-1.761367\H,0,-0.825965,-0.723971,0.2609
 78\N,0,-0.33589,1.333298,0.876366\O,0,-0.265229,2.439418,0.337021\O,0,
 -0.574392,1.13913,2.064777\C,0,-1.749438,0.877387,-1.619914\N,0,-2.774
 616,1.40095,-1.849671\C,0,-0.094238,-0.751852,-2.257829\N,0,0.254558,-

 Normal termination of Gaussian 16 at Wed Apr  9 02:40:32 2025.
