 Gaussian 16, Revision C.01,

 ----------------------------------------------------------------------
 #t hf aug-cc-pvdz symm=none int=(grid=ultrafine) guess=(read,tcheck) s
 table=(opt,rrhf)
 ----------------------------------------------------------------------
 -----
 title
 -----
 Symbolic Z-matrix:
 Charge = -1 Multiplicity = 1

 SCF Done:  E(RHF) =  -832.220283025     A.U. after   16 cycles
 Normal termination of Gaussian 16 at Wed Apr  9 02:33:02 2025.
 Gaussian 16:  ES64L-G16RevC.01  3-Jul-2019

 ----------------------------------------------------------------------
 #t hf aug-cc-pvdz iop(5/13=1,5/36=2,99/5=2) pseudo=read geom=check gue
 ss=(read,tcheck) scf=(maxcycle=1)
 ----------------------------------------------------------------------
 -----
 title
 -----
 Structure from the checkpoint file:  "E2SN2_138_mol2.chk"
 Charge = -1 Multiplicity = 1

                         Standard orientation:
 ---------------------------------------------------------------------
 Center     Atomic      Atomic             Coordinates (Angstroms)
 Number     Number       Type             X           Y           Z
 ---------------------------------------------------------------------
      1          6           0        0.457606    0.133433    0.396994
      2          6           0       -0.606111   -0.896187   -0.019215
      3         17           0        0.328461    1.579862   -0.745914
      4          1           0       -0.467593   -1.666406    0.759674
      5          7           0        0.354644    0.544613    1.751115
      6          1           0       -0.554722    0.985582    1.874846
      7          1           0        0.300969   -0.395339    2.287552
      8          6           0        1.789726   -0.442984    0.151313
      9          7           0        2.867175   -0.867368   -0.042617
     10          7           0       -0.383979   -1.432311   -1.347673
     11          1           0       -0.885050   -2.305300   -1.452077
     12          1           0       -0.712467   -0.781727   -2.050963
     13          6           0       -1.947579   -0.324936    0.179345
     14          7           0       -3.043405    0.092421    0.267998
     15          1           0        0.012124   -1.871902    2.609125
 ---------------------------------------------------------------------

 SCF Done:  E(RHF) =  -832.344684330     A.U. after    2 cycles

 The electronic state is 1-A.
 Alpha  occ. eigenvalues -- -103.55383 -15.54231 -15.53345 -15.53345 -15.49160
 Alpha  occ. eigenvalues --  -11.27803 -11.20852 -11.19120 -11.18393 -10.58717
 Alpha  occ. eigenvalues --   -8.24419  -8.24147  -8.24140  -1.14187  -1.08415
 Alpha  occ. eigenvalues --   -1.06149  -1.05653  -1.01206  -0.88034  -0.80037
 Alpha  occ. eigenvalues --   -0.62850  -0.60637  -0.57209  -0.54984  -0.51812
 Alpha  occ. eigenvalues --   -0.47511  -0.45155  -0.44657  -0.42418  -0.37669
 Alpha  occ. eigenvalues --   -0.37040  -0.36035  -0.35676  -0.34442  -0.33393
 Alpha  occ. eigenvalues --   -0.32220  -0.29263  -0.11512
 Alpha virt. eigenvalues --    0.11616   0.13936   0.14901   0.16980   0.17405
 Alpha virt. eigenvalues --    0.18634   0.19243   0.20329   0.20896   0.22181
 Alpha virt. eigenvalues --    0.22710   0.23237   0.23988   0.24336   0.24986

 Mulliken charges:
               1
     1  C    0.969640
     2  C    1.062735
     3  Cl  -0.232594
     4  H   -0.143640
     5  N   -0.659408
     6  H    0.029563
     7  H    0.071777
     8  C   -0.533518
     9  N   -0.194738
    10  N   -0.393987
    11  H    0.017997
    12  H    0.028640
    13  C   -0.166624
    14  N   -0.288667
    15  H   -0.567176
 Sum of Mulliken charges =  -1.00000

 Dipole moment (field-independent basis, Debye):
    X=             -2.1238    Y=              3.9544    Z=             -8.2804  Tot=              9.4188

 Test job not archived.
 1\1\GINC-SE435\SP\RHF\Aug-CC-pVDZ\C4H6Cl1N4(1-)\OHZDE\09-Apr-2025\0\\#
 t hf aug-cc-pvdz iop(5/13=1,5/36=2,99/5=2) pseudo=read geom=check gues
 s=(read,tcheck) scf=(maxcycle=1)\\title\\-1,1\C,0,-0.194493,0.022035,-
 1.454717\C,0,0.039249,-0.064684,0.062743\Cl,0,-2.008868,0.224817,-1.74
 107\H,0,1.141174,-0.12253,0.101575\N,0,0.539032,1.059295,-2.086655\H,0
 ,0.236278,1.944629,-1.685115\H,0,1.547332,0.900982,-1.722752\C,0,0.155
 407,-1.274411,-2.058005\N,0,0.414711,-2.29843,-2.570601\N,0,-0.579448,
 -1.229762,0.66389\H,0,-0.147688,-1.422636,1.558577\H,0,-1.569269,-1.07

 Normal termination of Gaussian 16 at Wed Apr  9 02:33:10 2025.
