 Gaussian 16, Revision C.01,

 ----------------------------------------------------------------------
 #t hf aug-cc-pvdz symm=none int=(grid=ultrafine) guess=(read,tcheck) s
 table=(opt,rrhf)
 ----------------------------------------------------------------------
 -----
 title
 -----
 Symbolic Z-matrix:
 Charge = -1 Multiplicity = 1

 SCF Done:  E(RHF) =  -463.407270795     A.U. after   14 cycles
 Normal termination of Gaussian 16 at Wed Apr  9 02:54:05 2025.
 Gaussian 16:  ES64L-G16RevC.01  3-Jul-2019

 ----------------------------------------------------------------------
 #t hf aug-cc-pvdz iop(5/13=1,5/36=2,99/5=2) pseudo=read geom=check gue
 ss=(read,tcheck) scf=(maxcycle=1)
 ----------------------------------------------------------------------
 -----
 title
 -----
 Structure from the checkpoint file:  "E2SN2_372_mol2.chk"
 Charge = -1 Multiplicity = 1

                         Standard orientation:
 ---------------------------------------------------------------------
 Center     Atomic      Atomic             Coordinates (Angstroms)
 Number     Number       Type             X           Y           Z
 ---------------------------------------------------------------------
      1          6           0       -0.491766    0.775968    0.346469
      2          6           0        0.291744   -0.540858    0.288849
      3          9           0        0.406752    1.819834    0.642059
      4          1           0       -0.538398   -1.237492    0.030562
      5          1           0       -1.186022    0.692014    1.184957
      6          7           0       -1.250569    1.076000   -0.819810
      7          1           0       -1.894857    0.250962   -0.828715
      8          1           0       -0.639073    0.997702   -1.628331
      9          6           0        0.945952   -0.899539    1.621330
     10          1           0        1.661073   -0.132054    1.927781
     11          1           0        1.464403   -1.860152    1.564997
     12          1           0        0.168002   -0.979923    2.385257
     13          6           0        1.278035   -0.499327   -0.784356
     14          7           0        2.082716   -0.468316   -1.641092
     15          9           0       -2.296079   -1.264536   -0.224720
 ---------------------------------------------------------------------

 SCF Done:  E(RHF) =  -463.551256266     A.U. after    2 cycles

 The electronic state is 1-A.
 Alpha  occ. eigenvalues --  -25.96566 -25.75898 -15.51016 -15.44995 -11.21101
 Alpha  occ. eigenvalues --  -11.16455 -11.12909 -11.12384  -1.49794  -1.24856
 Alpha  occ. eigenvalues --   -1.05744  -1.02310  -0.93200  -0.78792  -0.73861
 Alpha  occ. eigenvalues --   -0.62763  -0.60142  -0.57691  -0.52501  -0.48833
 Alpha  occ. eigenvalues --   -0.46978  -0.45006  -0.43748  -0.41298  -0.40686
 Alpha  occ. eigenvalues --   -0.38929  -0.35101  -0.34752  -0.33616  -0.32396
 Alpha  occ. eigenvalues --   -0.30004  -0.25096
 Alpha virt. eigenvalues --    0.12455   0.14290   0.14804   0.15674   0.16554
 Alpha virt. eigenvalues --    0.18051   0.18833   0.20038   0.22224   0.23500
 Alpha virt. eigenvalues --    0.24134   0.24809   0.25603   0.26400   0.27245

 Mulliken charges:
               1
     1  C    1.242227
     2  C   -0.100683
     3  F   -0.496590
     4  H    0.071319
     5  H   -0.161655
     6  N   -0.623368
     7  H    0.217823
     8  H    0.002924
     9  C    0.702533
    10  H    0.019876
    11  H   -0.061950
    12  H   -0.041645
    13  C   -0.532150
    14  N   -0.272533
    15  F   -0.966126
 Sum of Mulliken charges =  -1.00000

 Dipole moment (field-independent basis, Debye):
    X=              4.1855    Y=              0.9887    Z=              3.4387  Tot=              5.5064

 Test job not archived.
 1\1\GINC-SE322\SP\RHF\Aug-CC-pVDZ\C4H7F2N2(1-)\OHZDE\09-Apr-2025\0\\#t
  hf aug-cc-pvdz iop(5/13=1,5/36=2,99/5=2) pseudo=read geom=check guess
 =(read,tcheck) scf=(maxcycle=1)\\title\\-1,1\C,0,0.013127,0.016069,-0.
 001217\C,0,-0.462829,0.045742,-1.458552\F,0,1.42138,0.048168,0.011347\
 H,0,-1.564398,0.038326,-1.292307\H,0,-0.297823,-0.945826,0.411299\N,0,
 -0.52417,1.040571,0.82807\H,0,-1.542783,0.809935,0.756592\H,0,-0.37803
 1,1.934938,0.367075\C,0,0.003213,-1.168686,-2.258623\H,0,1.094222,-1.2
 20924,-2.294871\H,0,-0.38132,-1.143581,-3.281485\H,0,-0.376041,-2.0741

 Normal termination of Gaussian 16 at Wed Apr  9 02:54:11 2025.
