 Gaussian 16, Revision C.01,

 ----------------------------------------------------------------------
 #t hf aug-cc-pvdz symm=none int=(grid=ultrafine) guess=(read,tcheck) s
 table=(opt,rrhf)
 ----------------------------------------------------------------------
 -----
 title
 -----
 Symbolic Z-matrix:
 Charge = -1 Multiplicity = 1

 SCF Done:  E(RHF) =  -463.392175122     A.U. after   14 cycles
 Normal termination of Gaussian 16 at Wed Apr  9 02:44:09 2025.
 Gaussian 16:  ES64L-G16RevC.01  3-Jul-2019

 ----------------------------------------------------------------------
 #t hf aug-cc-pvdz iop(5/13=1,5/36=2,99/5=2) pseudo=read geom=check gue
 ss=(read,tcheck) scf=(maxcycle=1)
 ----------------------------------------------------------------------
 -----
 title
 -----
 Structure from the checkpoint file:  "E2SN2_258_mol2.chk"
 Charge = -1 Multiplicity = 1

                         Standard orientation:
 ---------------------------------------------------------------------
 Center     Atomic      Atomic             Coordinates (Angstroms)
 Number     Number       Type             X           Y           Z
 ---------------------------------------------------------------------
      1          6           0        0.464434   -0.445827    0.128610
      2          6           0       -0.418234    0.275124   -0.895850
      3          9           0        0.664482   -1.776194   -0.295259
      4          1           0        0.075309    0.221262   -1.877467
      5          1           0       -0.130275   -0.440588    1.066233
      6          6           0        1.795162    0.155331    0.270830
      7          7           0        2.856272    0.651313    0.366852
      8          6           0       -0.615424    1.717474   -0.449362
      9          1           0       -1.085235    1.660979    0.536142
     10          1           0        0.324442    2.274864   -0.397626
     11          1           0       -1.290310    2.216263   -1.148703
     12          7           0       -1.727592   -0.366518   -0.962496
     13          1           0       -2.036680   -0.340493    0.030288
     14          1           0       -1.575659   -1.344789   -1.189350
     15          9           0       -1.724257   -0.051991    1.720217
 ---------------------------------------------------------------------

 SCF Done:  E(RHF) =  -463.535394131     A.U. after    2 cycles

 The electronic state is 1-A.
 Alpha  occ. eigenvalues --  -25.98730 -25.75582 -15.52786 -15.44704 -11.20597
 Alpha  occ. eigenvalues --  -11.17661 -11.13981 -11.08488  -1.51573  -1.24532
 Alpha  occ. eigenvalues --   -1.06698  -1.02235  -0.89463  -0.82439  -0.68811
 Alpha  occ. eigenvalues --   -0.64908  -0.61853  -0.59238  -0.54153  -0.49174
 Alpha  occ. eigenvalues --   -0.46597  -0.43653  -0.42530  -0.39265  -0.38078
 Alpha  occ. eigenvalues --   -0.37193  -0.35526  -0.35045  -0.33842  -0.32584
 Alpha  occ. eigenvalues --   -0.31098  -0.24473
 Alpha virt. eigenvalues --    0.13021   0.14032   0.14997   0.15812   0.17097
 Alpha virt. eigenvalues --    0.18583   0.19145   0.19829   0.21473   0.23735
 Alpha virt. eigenvalues --    0.24494   0.25067   0.25666   0.25955   0.26591

 Mulliken charges:
               1
     1  C    1.325439
     2  C   -0.264784
     3  F   -0.480376
     4  H   -0.227892
     5  H   -0.054554
     6  C   -0.447503
     7  N   -0.266526
     8  C    0.736515
     9  H   -0.002095
    10  H   -0.103280
    11  H   -0.030286
    12  N   -0.388081
    13  H    0.169687
    14  H    0.017718
    15  F   -0.983980
 Sum of Mulliken charges =  -1.00000

 Dipole moment (field-independent basis, Debye):
    X=              2.6431    Y=              0.1082    Z=             -4.3755  Tot=              5.1130

 Test job not archived.
 1\1\GINC-SE229\SP\RHF\Aug-CC-pVDZ\C4H7F2N2(1-)\OHZDE\09-Apr-2025\0\\#t
  hf aug-cc-pvdz iop(5/13=1,5/36=2,99/5=2) pseudo=read geom=check guess
 =(read,tcheck) scf=(maxcycle=1)\\title\\-1,1\C,0,-0.248567,0.105152,0.
 068765\C,0,-0.304146,0.397339,-1.434541\F,0,0.589841,-1.007743,0.28808
 \H,0,0.72141,0.572588,-1.791724\H,0,-1.292012,-0.156465,0.343761\C,0,0
 .308147,1.21278,0.853421\N,0,0.759257,2.11129,1.461987\C,0,-1.191382,1
 .612472,-1.668791\H,0,-2.170559,1.347374,-1.261278\H,0,-0.804673,2.515
 669,-1.187751\H,0,-1.277215,1.787192,-2.743707\N,0,-0.888405,-0.738942

 Normal termination of Gaussian 16 at Wed Apr  9 02:44:15 2025.
