 Gaussian 16, Revision C.01,

 ----------------------------------------------------------------------
 #t hf aug-cc-pvdz symm=none int=(grid=ultrafine) guess=(read,tcheck) s
 table=(opt,rrhf)
 ----------------------------------------------------------------------
 -----
 title
 -----
 Symbolic Z-matrix:
 Charge = -1 Multiplicity = 1

 SCF Done:  E(RHF) =  -1331.96601751     A.U. after   17 cycles
 Normal termination of Gaussian 16 at Wed Apr  9 02:46:49 2025.
 Gaussian 16:  ES64L-G16RevC.01  3-Jul-2019

 ----------------------------------------------------------------------
 #t hf aug-cc-pvdz iop(5/13=1,5/36=2,99/5=2) pseudo=read geom=check gue
 ss=(read,tcheck) scf=(maxcycle=1)
 ----------------------------------------------------------------------
 -----
 title
 -----
 Structure from the checkpoint file:  "E2SN2_277_mol1.chk"
 Charge = -1 Multiplicity = 1

                         Standard orientation:
 ---------------------------------------------------------------------
 Center     Atomic      Atomic             Coordinates (Angstroms)
 Number     Number       Type             X           Y           Z
 ---------------------------------------------------------------------
      1          6           0       -0.480290    0.438140   -0.302665
      2          1           0        0.982343   -0.246343   -1.707513
      3         17           0       -2.402755   -0.951259   -0.198778
      4         17           0        1.494258    1.774697   -0.111545
      5          6           0        0.379999   -0.656617   -0.902955
      6          1           0       -0.242345   -1.472826   -1.267228
      7          6           0       -0.670811    0.674624    1.101702
      8          7           0       -0.896315    0.967075    2.220670
      9          6           0       -1.169362    1.348588   -1.305008
     10          1           0       -0.476479    2.091001   -1.694131
     11          1           0       -1.566447    0.746567   -2.122194
     12          1           0       -2.011022    1.842982   -0.823024
     13          7           0        1.348151   -1.303394    0.024209
     14          8           0        2.375724   -1.735996   -0.494361
     15          8           0        1.029069   -1.443252    1.197982
 ---------------------------------------------------------------------

 SCF Done:  E(RHF) =  -1332.11628637     A.U. after    2 cycles

 The electronic state is 1-A.
 Alpha  occ. eigenvalues -- -103.45200-103.44767 -20.51245 -20.50782 -15.80726
 Alpha  occ. eigenvalues --  -15.51947 -11.30084 -11.22161 -11.18526 -11.15208
 Alpha  occ. eigenvalues --  -10.48471 -10.48055  -8.14102  -8.13975  -8.13965
 Alpha  occ. eigenvalues --   -8.13686  -8.13561  -8.13555  -1.43584  -1.25394
 Alpha  occ. eigenvalues --   -1.07410  -1.02932  -0.94499  -0.91665  -0.89097
 Alpha  occ. eigenvalues --   -0.80711  -0.75696  -0.67136  -0.63420  -0.63199
 Alpha  occ. eigenvalues --   -0.55097  -0.53380  -0.51238  -0.48361  -0.46145
 Alpha  occ. eigenvalues --   -0.42482  -0.40658  -0.40360  -0.39241  -0.36437
 Alpha  occ. eigenvalues --   -0.32814  -0.28748  -0.28382  -0.28192  -0.27608
 Alpha  occ. eigenvalues --   -0.26162  -0.25727
 Alpha virt. eigenvalues --    0.12196   0.13715   0.14577   0.15516   0.15569
 Alpha virt. eigenvalues --    0.16200   0.19061   0.19286   0.19581   0.21347
 Alpha virt. eigenvalues --    0.21786   0.23256   0.24674   0.24916   0.25147

 Mulliken charges:
               1
     1  C   -0.159070
     2  H   -0.050767
     3  Cl  -0.624245
     4  Cl  -0.641467
     5  C    1.305345
     6  H    0.028177
     7  C   -0.560470
     8  N   -0.339575
     9  C    0.786496
    10  H    0.012393
    11  H    0.027318
    12  H   -0.033011
    13  N    0.478887
    14  O   -0.632121
    15  O   -0.597891
 Sum of Mulliken charges =  -1.00000

 Dipole moment (field-independent basis, Debye):
    X=             -0.4691    Y=             -0.2415    Z=             -5.4246  Tot=              5.4502

 Test job not archived.
 1\1\GINC-SE120\SP\RHF\Aug-CC-pVDZ\C4H5Cl2N2O2(1-)\OHZDE\09-Apr-2025\0\
 \#t hf aug-cc-pvdz iop(5/13=1,5/36=2,99/5=2) pseudo=read geom=check gu
 ess=(read,tcheck) scf=(maxcycle=1)\\title\\-1,1\C,0,0.49591288,-0.0858
 6159,-0.00689475\H,0,1.26075518,1.8132116,0.61756365\Cl,0,-1.8350807,-
 0.32879975,0.37329432\Cl,0,2.78112078,0.11432575,-0.68475936\C,0,0.428
 8414,1.42827165,0.03601566\H,0,-0.51962878,1.75520266,0.45995408\C,0,0
 .31060228,-0.89687499,-1.17838422\N,0,0.183757,-1.6605148,-2.06677198\
 C,0,0.80167294,-0.76228873,1.31876881\H,0,1.86432477,-0.71043756,1.544

 Normal termination of Gaussian 16 at Wed Apr  9 02:46:58 2025.
