 Gaussian 16, Revision C.01,

 ----------------------------------------------------------------------
 #t hf aug-cc-pvdz symm=none int=(grid=ultrafine) guess=(read,tcheck) s
 table=(opt,rrhf)
 ----------------------------------------------------------------------
 -----
 title
 -----
 Symbolic Z-matrix:
 Charge = -1 Multiplicity = 1

 SCF Done:  E(RHF) =  -777.166559324     A.U. after   17 cycles
 Normal termination of Gaussian 16 at Wed Apr  9 02:44:03 2025.
 Gaussian 16:  ES64L-G16RevC.01  3-Jul-2019

 ----------------------------------------------------------------------
 #t hf aug-cc-pvdz iop(5/13=1,5/36=2,99/5=2) pseudo=read geom=check gue
 ss=(read,tcheck) scf=(maxcycle=1)
 ----------------------------------------------------------------------
 -----
 title
 -----
 Structure from the checkpoint file:  "E2SN2_260_mol1.chk"
 Charge = -1 Multiplicity = 1

                         Standard orientation:
 ---------------------------------------------------------------------
 Center     Atomic      Atomic             Coordinates (Angstroms)
 Number     Number       Type             X           Y           Z
 ---------------------------------------------------------------------
      1          6           0        0.605509   -0.411323   -0.466676
      2          1           0       -0.554767   -1.553636    0.903640
      3         17           0        0.592486    1.546965   -0.700314
      4          1           0        0.806305   -2.535585   -0.507504
      5          6           0       -0.763125   -0.829902    0.109031
      6          1           0        0.740276   -0.711229   -1.492907
      7          6           0        1.738809   -0.693325    0.389303
      8          7           0        2.650952   -0.672882    1.137276
      9          7           0       -1.547393   -1.399058   -0.988110
     10          1           0       -2.441275   -1.709993   -0.618178
     11          1           0       -0.995971   -2.228495   -1.229493
     12          6           0       -1.535928    0.258509    0.730563
     13          7           0       -2.231904    1.000053    1.318898
 ---------------------------------------------------------------------

 SCF Done:  E(RHF) =  -777.274343646     A.U. after    2 cycles

 The electronic state is 1-A.
 Alpha  occ. eigenvalues -- -103.51048 -15.52897 -15.50820 -15.50484 -11.23698
 Alpha  occ. eigenvalues --  -11.21182 -11.18169 -11.17283 -10.54292  -8.19973
 Alpha  occ. eigenvalues --   -8.19739  -8.19726  -1.09620  -1.05571  -1.04348
 Alpha  occ. eigenvalues --   -0.99819  -0.89247  -0.80218  -0.62653  -0.59566
 Alpha  occ. eigenvalues --   -0.52362  -0.50135  -0.49389  -0.43533  -0.42080
 Alpha  occ. eigenvalues --   -0.41019  -0.35702  -0.34958  -0.33023  -0.31861
 Alpha  occ. eigenvalues --   -0.31777  -0.30777  -0.29735  -0.12796
 Alpha virt. eigenvalues --    0.12681   0.14601   0.15271   0.16680   0.18404
 Alpha virt. eigenvalues --    0.18689   0.19796   0.20150   0.22961   0.23281
 Alpha virt. eigenvalues --    0.24059   0.24525   0.25305   0.25624   0.26494

 Mulliken charges:
               1
     1  C    0.566463
     2  H   -0.173131
     3  Cl  -0.270158
     4  H   -0.516124
     5  C    0.937765
     6  H   -0.113577
     7  C   -0.138271
     8  N   -0.297948
     9  N   -0.360437
    10  H   -0.046885
    11  H    0.178808
    12  C   -0.513676
    13  N   -0.252829
 Sum of Mulliken charges =  -1.00000

 Dipole moment (field-independent basis, Debye):
    X=             -3.6795    Y=              1.6914    Z=             -1.1353  Tot=              4.2057

 Test job not archived.
 1\1\GINC-SE339\SP\RHF\Aug-CC-pVDZ\C4H5Cl1N3(1-)\OHZDE\09-Apr-2025\0\\#
 t hf aug-cc-pvdz iop(5/13=1,5/36=2,99/5=2) pseudo=read geom=check gues
 s=(read,tcheck) scf=(maxcycle=1)\\title\\-1,1\C,0,0.23658281,-0.048491
 25,-0.10931924\H,0,1.48829379,1.58304729,-0.65721047\Cl,0,-1.63161118,
 -0.35828393,-0.66025426\H,0,2.20381322,0.02906225,0.71436906\C,0,0.508
 089,1.46828912,-0.1832523\H,0,0.18684218,-0.41867305,0.90149613\C,0,1.
 04365272,-0.85624908,-0.9996894\N,0,1.4880633,-1.522809,-1.86576253\N,
 0,0.47232738,1.98964504,1.18409723\H,0,0.68178805,2.98357018,1.1559026

 Normal termination of Gaussian 16 at Wed Apr  9 02:44:08 2025.
