 Gaussian 16, Revision C.01,

 ----------------------------------------------------------------------
 #t hf aug-cc-pvdz symm=none int=(grid=ultrafine) guess=(read,tcheck) s
 table=(opt,rrhf)
 ----------------------------------------------------------------------
 -----
 title
 -----
 Symbolic Z-matrix:
 Charge = -1 Multiplicity = 1

 SCF Done:  E(RHF) =  -1010.94592399     A.U. after   16 cycles
 Normal termination of Gaussian 16 at Wed Apr  9 02:47:14 2025.
 Gaussian 16:  ES64L-G16RevC.01  3-Jul-2019

 ----------------------------------------------------------------------
 #t hf aug-cc-pvdz iop(5/13=1,5/36=2,99/5=2) pseudo=read geom=check gue
 ss=(read,tcheck) scf=(maxcycle=1)
 ----------------------------------------------------------------------
 -----
 title
 -----
 Structure from the checkpoint file:  "E2SN2_281_mol2.chk"
 Charge = -1 Multiplicity = 1

                         Standard orientation:
 ---------------------------------------------------------------------
 Center     Atomic      Atomic             Coordinates (Angstroms)
 Number     Number       Type             X           Y           Z
 ---------------------------------------------------------------------
      1          6           0       -0.591709   -0.305366   -0.322896
      2          6           0        0.389426    0.628201    0.405669
      3         17           0       -0.071373   -2.051100   -0.112295
      4          1           0        0.026487    1.643729    0.013085
      5          6           0       -1.899446   -0.207912    0.334065
      6          7           0       -2.953928   -0.239300    0.851098
      7          6           0       -0.776426   -0.007183   -1.804419
      8          1           0        0.149115   -0.186971   -2.345590
      9          1           0       -1.049488    1.054101   -1.823068
     10          1           0       -1.572452   -0.637436   -2.207629
     11          7           0        1.778557    0.345413   -0.039033
     12          8           0        2.613785   -0.003960    0.800478
     13          8           0        2.044261    0.502339   -1.233128
     14          6           0        0.277704    0.580673    1.912009
     15          1           0        1.060322    1.193420    2.360192
     16          1           0        0.363434   -0.432095    2.313916
     17          1           0       -0.686965    1.010734    2.183072
     18          9           0       -1.167909    2.484770   -0.439421
 ---------------------------------------------------------------------

 SCF Done:  E(RHF) =  -1011.12748667     A.U. after    2 cycles

 The electronic state is 1-A.
 Alpha  occ. eigenvalues -- -103.55097 -25.77066 -20.49960 -20.49574 -15.79076
 Alpha  occ. eigenvalues --  -15.52792 -11.24828 -11.18271 -11.17249 -11.11996
 Alpha  occ. eigenvalues --  -11.11331 -10.58417  -8.24126  -8.23855  -8.23846
 Alpha  occ. eigenvalues --   -1.41937  -1.26289  -1.23496  -1.09960  -1.05123
 Alpha  occ. eigenvalues --   -0.98741  -0.90730  -0.83516  -0.77718  -0.70463
 Alpha  occ. eigenvalues --   -0.62997  -0.62258  -0.61279  -0.54827  -0.51271
 Alpha  occ. eigenvalues --   -0.49943  -0.47131  -0.44472  -0.43584  -0.42777
 Alpha  occ. eigenvalues --   -0.41898  -0.40506  -0.40023  -0.37884  -0.36752
 Alpha  occ. eigenvalues --   -0.36160  -0.36030  -0.35216  -0.34343  -0.33054
 Alpha  occ. eigenvalues --   -0.32704  -0.30415
 Alpha virt. eigenvalues --    0.12824   0.13314   0.14796   0.15304   0.16208
 Alpha virt. eigenvalues --    0.17537   0.17693   0.18810   0.19536   0.19874
 Alpha virt. eigenvalues --    0.21790   0.22835   0.23811   0.24105   0.25003

 Mulliken charges:
               1
     1  C   -1.007330
     2  C    0.740671
     3  Cl  -0.238931
     4  H    0.002202
     5  C    0.030907
     6  N   -0.365635
     7  C    0.914604
     8  H   -0.007595
     9  H    0.104210
    10  H   -0.015619
    11  N    0.344893
    12  O   -0.643172
    13  O   -0.643824
    14  C    0.626879
    15  H    0.017454
    16  H    0.043475
    17  H    0.021920
    18  F   -0.925108
 Sum of Mulliken charges =  -1.00000

 Dipole moment (field-independent basis, Debye):
    X=              2.6855    Y=             -5.1923    Z=              0.6473  Tot=              5.8814

 Test job not archived.
 1\1\GINC-SE455\SP\RHF\Aug-CC-pVDZ\C5H7Cl1F1N2O2(1-)\OHZDE\09-Apr-2025\
 0\\#t hf aug-cc-pvdz iop(5/13=1,5/36=2,99/5=2) pseudo=read geom=check
 guess=(read,tcheck) scf=(maxcycle=1)\\title\\-1,1\C,0,0.000278,-0.0270
 65,0.011252\C,0,-0.58264,-0.108032,-1.409533\Cl,0,1.832463,-0.056199,-
 0.059026\H,0,-1.691462,-0.26861,-1.160794\C,0,-0.34583,1.279429,0.5809
 5\N,0,-0.520252,2.330356,1.076297\C,0,-0.487246,-1.109634,0.964304\H,0
 ,-0.143452,-2.087122,0.63546\H,0,-1.579041,-1.031455,0.908571\H,0,-0.1
 17245,-0.903721,1.971356\N,0,-0.015759,-1.282967,-2.120579\O,0,0.61360

 Normal termination of Gaussian 16 at Wed Apr  9 02:47:25 2025.
