 Gaussian 16, Revision C.01,

 ----------------------------------------------------------------------
 #t hf aug-cc-pvdz symm=none int=(grid=ultrafine) guess=(read,tcheck) s
 table=(opt,rrhf)
 ----------------------------------------------------------------------
 -----
 title
 -----
 Symbolic Z-matrix:
 Charge = -1 Multiplicity = 1

 SCF Done:  E(RHF) =  -403.429434248     A.U. after   16 cycles
 Normal termination of Gaussian 16 at Wed Apr  9 02:34:03 2025.
 Gaussian 16:  ES64L-G16RevC.01  3-Jul-2019

 ----------------------------------------------------------------------
 #t hf aug-cc-pvdz iop(5/13=1,5/36=2,99/5=2) pseudo=read geom=check gue
 ss=(read,tcheck) scf=(maxcycle=1)
 ----------------------------------------------------------------------
 -----
 title
 -----
 Structure from the checkpoint file:  "E2SN2_148_mol1.chk"
 Charge = -1 Multiplicity = 1

                         Standard orientation:
 ---------------------------------------------------------------------
 Center     Atomic      Atomic             Coordinates (Angstroms)
 Number     Number       Type             X           Y           Z
 ---------------------------------------------------------------------
      1          6           0        0.297540   -0.385714    0.092392
      2          6           0       -0.887354    0.397368   -0.281113
      3          9           0        0.410464   -0.661388    1.548268
      4          1           0       -1.234503    0.010909   -2.650386
      5          1           0       -0.923470    0.322150   -1.667146
      6          6           0        1.537223    0.351726   -0.208700
      7          7           0        2.537538    0.916329   -0.460100
      8          6           0       -0.933995    1.825309    0.212352
      9          1           0       -0.004065    2.366022    0.004105
     10          1           0       -1.747663    2.343151   -0.307107
     11          1           0       -1.136201    1.897850    1.291829
     12          7           0       -2.149597   -0.288498   -0.068423
     13          1           0       -2.094337   -0.971544    0.678470
     14          1           0       -2.398348   -0.765107   -0.940518
     15          6           0        0.340460   -1.754012   -0.562030
     16          1           0       -0.466604   -2.365672   -0.158461
     17          1           0        0.179653   -1.636994   -1.639631
     18          1           0        1.292531   -2.251164   -0.363320
 ---------------------------------------------------------------------

 SCF Done:  E(RHF) =  -403.555435328     A.U. after    2 cycles

 The electronic state is 1-A.
 Alpha  occ. eigenvalues --  -25.95761 -15.51896 -15.45530 -11.22356 -11.16894
 Alpha  occ. eigenvalues --  -11.11339 -11.07835 -11.07770  -1.47552  -1.06005
 Alpha  occ. eigenvalues --   -1.01328  -0.92688  -0.83730  -0.76772  -0.66718
 Alpha  occ. eigenvalues --   -0.62217  -0.57430  -0.55571  -0.50983  -0.49910
 Alpha  occ. eigenvalues --   -0.46905  -0.44011  -0.42807  -0.41534  -0.41136
 Alpha  occ. eigenvalues --   -0.36903  -0.36309  -0.34004  -0.33658  -0.32132
 Alpha  occ. eigenvalues --   -0.24074  -0.09664
 Alpha virt. eigenvalues --    0.12612   0.13447   0.14467   0.15532   0.15831
 Alpha virt. eigenvalues --    0.16679   0.16986   0.18299   0.19680   0.19865
 Alpha virt. eigenvalues --    0.21401   0.22673   0.23580   0.24487   0.25194

 Mulliken charges:
               1
     1  C    0.444048
     2  C   -0.430316
     3  F   -0.621167
     4  H   -0.848970
     5  H    0.555494
     6  C   -0.601229
     7  N   -0.264950
     8  C    0.530070
     9  H   -0.085073
    10  H   -0.055389
    11  H   -0.030396
    12  N   -0.388407
    13  H    0.007512
    14  H    0.023586
    15  C    0.741759
    16  H   -0.022716
    17  H    0.071557
    18  H   -0.025411
 Sum of Mulliken charges =  -1.00000

 Dipole moment (field-independent basis, Debye):
    X=              1.1640    Y=             -2.6213    Z=              4.7989  Tot=              5.5907

 Test job not archived.
 1\1\GINC-SE367\SP\RHF\Aug-CC-pVDZ\C5H10F1N2(1-)\OHZDE\09-Apr-2025\0\\#
 t hf aug-cc-pvdz iop(5/13=1,5/36=2,99/5=2) pseudo=read geom=check gues
 s=(read,tcheck) scf=(maxcycle=1)\\title\\-1,1\C,0,-0.16520471,0.036490
 88,-0.36342531\C,0,-0.14963299,0.09949398,1.10370977\F,0,1.17890301,-0
 .10834113,-0.98045091\H,0,-2.39383819,-0.46676744,1.829112\H,0,-1.4853
 3708,-0.01704194,1.46476963\C,0,-0.66898916,1.29409165,-0.94302017\N,0
 ,-1.08714381,2.2824493,-1.42354624\C,0,0.50159651,1.31701702,1.7187183
 4\H,0,0.13922904,2.25007913,1.27308232\H,0,0.25656811,1.33680585,2.786

 Normal termination of Gaussian 16 at Wed Apr  9 02:34:10 2025.
