 Gaussian 16, Revision C.01,

 ----------------------------------------------------------------------
 #t hf aug-cc-pvdz symm=none int=(grid=ultrafine) guess=(read,tcheck) s
 table=(opt,rrhf)
 ----------------------------------------------------------------------
 -----
 title
 -----
 Symbolic Z-matrix:
 Charge = -1 Multiplicity = 1

 SCF Done:  E(RHF) =  -852.874476962     A.U. after   18 cycles
 Normal termination of Gaussian 16 at Wed Apr  9 02:59:36 2025.
 Gaussian 16:  ES64L-G16RevC.01  3-Jul-2019

 ----------------------------------------------------------------------
 #t hf aug-cc-pvdz iop(5/13=1,5/36=2,99/5=2) pseudo=read geom=check gue
 ss=(read,tcheck) scf=(maxcycle=1)
 ----------------------------------------------------------------------
 -----
 title
 -----
 Structure from the checkpoint file:  "E2SN2_68_mol1.chk"
 Charge = -1 Multiplicity = 1

                         Standard orientation:
 ---------------------------------------------------------------------
 Center     Atomic      Atomic             Coordinates (Angstroms)
 Number     Number       Type             X           Y           Z
 ---------------------------------------------------------------------
      1          6           0       -0.332010    0.117205   -0.055367
      2          6           0        0.906773   -0.591216   -0.433293
      3         17           0       -1.099062   -0.447056    1.489290
      4          1           0       -0.341951   -0.519248   -2.285489
      5          1           0        0.523846   -0.545799   -1.798518
      6          6           0       -0.143032    1.556363    0.045204
      7          7           0        0.003952    2.722318    0.102725
      8          6           0       -1.469679   -0.113057   -1.182070
      9          7           0       -2.652593   -0.025207   -1.301527
     10          6           0        0.873831   -2.091184   -0.223395
     11          1           0       -0.043775   -2.488086   -0.673692
     12          1           0        1.728773   -2.555427   -0.722416
     13          1           0        0.885183   -2.373805    0.833279
     14          6           0        2.151775    0.046088   -0.179593
     15          7           0        3.220932    0.522478   -0.015486
 ---------------------------------------------------------------------

 SCF Done:  E(RHF) =  -853.003768494     A.U. after    2 cycles

 The electronic state is 1-A.
 Alpha  occ. eigenvalues -- -103.55454 -15.53857 -15.50669 -15.47537 -11.26144
 Alpha  occ. eigenvalues --  -11.19003 -11.16830 -11.16592 -11.14391 -11.13378
 Alpha  occ. eigenvalues --  -10.58735  -8.24450  -8.24156  -8.24141  -1.10617
 Alpha  occ. eigenvalues --   -1.05885  -1.04744  -1.01373  -0.96267  -0.86647
 Alpha  occ. eigenvalues --   -0.75938  -0.66874  -0.58603  -0.54319  -0.49154
 Alpha  occ. eigenvalues --   -0.46174  -0.45027  -0.43428  -0.42811  -0.41390
 Alpha  occ. eigenvalues --   -0.40221  -0.37048  -0.36476  -0.35847  -0.33978
 Alpha  occ. eigenvalues --   -0.33654  -0.32237  -0.29915  -0.28762  -0.15415
 Alpha virt. eigenvalues --    0.12186   0.14018   0.14922   0.15794   0.17406
 Alpha virt. eigenvalues --    0.17576   0.18556   0.19142   0.20302   0.21197
 Alpha virt. eigenvalues --    0.22654   0.23015   0.23668   0.23966   0.24825

 Mulliken charges:
               1
     1  C   -0.155021
     2  C   -0.113276
     3  Cl  -0.145007
     4  H   -0.158707
     5  H    0.584421
     6  C   -0.434807
     7  N   -0.229719
     8  C    0.189801
     9  N   -0.502083
    10  C    0.738945
    11  H   -0.071541
    12  H   -0.033385
    13  H   -0.021112
    14  C   -0.323642
    15  N   -0.324866
 Sum of Mulliken charges =  -1.00000

 Dipole moment (field-independent basis, Debye):
    X=              0.6263    Y=             -4.1024    Z=              2.6141  Tot=              4.9047

 Test job not archived.
 1\1\GINC-SE208\SP\RHF\Aug-CC-pVDZ\C6H5Cl1N3(1-)\OHZDE\09-Apr-2025\0\\#
 t hf aug-cc-pvdz iop(5/13=1,5/36=2,99/5=2) pseudo=read geom=check gues
 s=(read,tcheck) scf=(maxcycle=1)\\title\\-1,1\C,0,-0.22709804,0.009192
 34,-0.27057174\C,0,-0.01699194,-0.07721059,1.18807895\Cl,0,1.16899212,
 0.68970616,-1.20895297\H,0,-2.03754494,0.83900568,0.91783289\H,0,-1.36
 739088,0.29588129,1.41114742\C,0,-0.57257151,-1.27478313,-0.86138409\N
 ,0,-0.87574003,-2.30816763,-1.33526994\C,0,-1.45984179,1.00463165,-0.5
 9647284\N,0,-1.89782787,1.62907752,-1.51272111\C,0,0.67007045,1.123098

 Normal termination of Gaussian 16 at Wed Apr  9 02:59:44 2025.
