 Gaussian 16, Revision C.01,

 ----------------------------------------------------------------------
 #t hf aug-cc-pvdz symm=none int=(grid=ultrafine) guess=(read,tcheck) s
 table=(opt,rrhf)
 ----------------------------------------------------------------------
 -----
 title
 -----
 Symbolic Z-matrix:
 Charge = -1 Multiplicity = 1

 SCF Done:  E(RHF) =  -476.152362874     A.U. after   16 cycles
 Normal termination of Gaussian 16 at Wed Apr  9 02:41:04 2025.
 Gaussian 16:  ES64L-G16RevC.01  3-Jul-2019

 ----------------------------------------------------------------------
 #t hf aug-cc-pvdz iop(5/13=1,5/36=2,99/5=2) pseudo=read geom=check gue
 ss=(read,tcheck) scf=(maxcycle=1)
 ----------------------------------------------------------------------
 -----
 title
 -----
 Structure from the checkpoint file:  "E2SN2_230_mol1.chk"
 Charge = -1 Multiplicity = 1

                         Standard orientation:
 ---------------------------------------------------------------------
 Center     Atomic      Atomic             Coordinates (Angstroms)
 Number     Number       Type             X           Y           Z
 ---------------------------------------------------------------------
      1          6           0        0.065255    0.500911   -0.209035
      2          1           0       -1.382987   -0.042616   -1.715118
      3          9           0       -0.245909    0.607466    1.383592
      4          1           0        0.711642    0.120952   -1.867267
      5          6           0       -1.385123    0.336487   -0.696849
      6          1           0       -1.796892    1.352908   -0.715846
      7          7           0        0.883198   -0.705538   -0.158985
      8          8           0        0.288151   -1.803882   -0.226423
      9          8           0        2.062850   -0.609007    0.220264
     10          6           0        0.771763    1.827790   -0.379628
     11          1           0        0.512896    2.293897   -1.328616
     12          1           0        0.485451    2.480917    0.450174
     13          1           0        1.845791    1.655679   -0.349704
     14          7           0       -2.268935   -0.496550    0.113324
     15          1           0       -2.133172   -0.182242    1.067274
     16          1           0       -1.848771   -1.420093    0.088752
 ---------------------------------------------------------------------

 SCF Done:  E(RHF) =  -476.298659148     A.U. after    2 cycles

 The electronic state is 1-A.
 Alpha  occ. eigenvalues --  -25.88912 -20.42283 -20.42046 -15.73939 -15.45732
 Alpha  occ. eigenvalues --  -11.23487 -11.12872 -11.09601  -1.40203  -1.34215
 Alpha  occ. eigenvalues --   -1.15894  -1.01502  -0.93954  -0.80940  -0.76304
 Alpha  occ. eigenvalues --   -0.63833  -0.58996  -0.55891  -0.55160  -0.52701
 Alpha  occ. eigenvalues --   -0.50867  -0.47884  -0.47066  -0.43140  -0.40844
 Alpha  occ. eigenvalues --   -0.40407  -0.39280  -0.38033  -0.33231  -0.32215
 Alpha  occ. eigenvalues --   -0.29958  -0.25781  -0.13416
 Alpha virt. eigenvalues --    0.13196   0.14124   0.14768   0.15361   0.16604
 Alpha virt. eigenvalues --    0.17182   0.18052   0.18831   0.21605   0.24290
 Alpha virt. eigenvalues --    0.24629   0.25183   0.26123   0.27117   0.27622

 Mulliken charges:
               1
     1  C   -0.170358
     2  H   -0.109023
     3  F   -0.707825
     4  H   -0.103126
     5  C    1.167162
     6  H   -0.063305
     7  N    0.384180
     8  O   -0.755994
     9  O   -0.702985
    10  C    0.307212
    11  H   -0.005486
    12  H    0.027709
    13  H    0.067005
    14  N   -0.507305
    15  H    0.072867
    16  H    0.099271
 Sum of Mulliken charges =  -1.00000

 Dipole moment (field-independent basis, Debye):
    X=             -2.0274    Y=              3.2002    Z=              0.3298  Tot=              3.8027

 Test job not archived.
 1\1\GINC-SE344\SP\RHF\Aug-CC-pVDZ\C3H8F1N2O2(1-)\OHZDE\09-Apr-2025\0\\
 #t hf aug-cc-pvdz iop(5/13=1,5/36=2,99/5=2) pseudo=read geom=check gue
 ss=(read,tcheck) scf=(maxcycle=1)\\title\\-1,1\C,0,0.45614912,0.043707
 61,0.04232014\H,0,1.98163473,1.50648807,-0.3984534\F,0,-1.14195472,0.3
 4435333,0.0600109\H,0,2.1376773,-0.58883593,-0.24797441\C,0,0.9432175,
 1.49859783,-0.07872985\H,0,0.90093623,1.89961092,0.94128312\N,0,0.4810
 139,-0.76160621,-1.17337149\O,0,0.60777992,-0.15449578,-2.25980509\O,0
 ,0.10448554,-1.94442824,-1.11104406\C,0,0.55456515,-0.67589286,1.36947

 Normal termination of Gaussian 16 at Wed Apr  9 02:41:10 2025.
