 Gaussian 16, Revision C.01,

 ----------------------------------------------------------------------
 #t hf aug-cc-pvdz symm=none int=(grid=ultrafine) guess=(read,tcheck) s
 table=(opt,rrhf)
 ----------------------------------------------------------------------
 -----
 title
 -----
 Symbolic Z-matrix:
 Charge = -1 Multiplicity = 1

 SCF Done:  E(RHF) =  -1079.68238888     A.U. after   16 cycles
 Normal termination of Gaussian 16 at Wed Apr  9 02:42:21 2025.
 Gaussian 16:  ES64L-G16RevC.01  3-Jul-2019

 ----------------------------------------------------------------------
 #t hf aug-cc-pvdz iop(5/13=1,5/36=2,99/5=2) pseudo=read geom=check gue
 ss=(read,tcheck) scf=(maxcycle=1)
 ----------------------------------------------------------------------
 -----
 title
 -----
 Structure from the checkpoint file:  "E2SN2_228_mol2.chk"
 Charge = -1 Multiplicity = 1

                         Standard orientation:
 ---------------------------------------------------------------------
 Center     Atomic      Atomic             Coordinates (Angstroms)
 Number     Number       Type             X           Y           Z
 ---------------------------------------------------------------------
      1          6           0       -1.096264    0.160143   -0.112057
      2          6           0        0.417360    0.356311   -0.220622
      3          9           0       -1.718155    0.607289   -1.231990
      4          1           0        0.909457   -0.014313    0.687455
      5          7           0       -1.353480   -1.343812   -0.003135
      6          8           0       -1.959172   -1.877886   -0.915098
      7          8           0       -0.915587   -1.856588    1.016329
      8          6           0       -1.702082    0.792520    1.065314
      9          7           0       -2.197476    1.320373    1.990478
     10          6           0        0.661941    1.805640   -0.327442
     11          7           0        0.818747    2.960205   -0.478919
     12          7           0        0.898071   -0.439878   -1.322429
     13          1           0        1.856542   -0.700903   -1.062938
     14          1           0        0.907988    0.094405   -2.181521
     15         17           0        3.408277   -0.654994    0.535409
 ---------------------------------------------------------------------

 SCF Done:  E(RHF) =  -1079.88171080     A.U. after    2 cycles

 The electronic state is 1-A.
 Alpha  occ. eigenvalues -- -103.38995 -26.09909 -20.56102 -20.55674 -15.85571
 Alpha  occ. eigenvalues --  -15.61035 -15.56335 -15.52425 -11.38321 -11.24952
 Alpha  occ. eigenvalues --  -11.24933 -11.21011 -10.42094  -8.07698  -8.07663
 Alpha  occ. eigenvalues --   -8.07649  -1.64294  -1.48520  -1.30818  -1.14916
 Alpha  occ. eigenvalues --   -1.12359  -1.08444  -1.03126  -0.89498  -0.84463
 Alpha  occ. eigenvalues --   -0.83479  -0.77931  -0.75110  -0.72188  -0.67229
 Alpha  occ. eigenvalues --   -0.66622  -0.65084  -0.62781  -0.58884  -0.53397
 Alpha  occ. eigenvalues --   -0.50271  -0.49246  -0.46859  -0.45867  -0.45138
 Alpha  occ. eigenvalues --   -0.42169  -0.41117  -0.40329  -0.38267  -0.37070
 Alpha  occ. eigenvalues --   -0.32648  -0.22632  -0.22193  -0.22049
 Alpha virt. eigenvalues --    0.12873   0.13824   0.14992   0.16522   0.16816
 Alpha virt. eigenvalues --    0.17709   0.18259   0.19600   0.20431   0.21085
 Alpha virt. eigenvalues --    0.21447   0.22000   0.22972   0.23608   0.24046

 Mulliken charges:
               1
     1  C    1.198556
     2  C    0.930639
     3  F   -0.293357
     4  H   -0.038862
     5  N    0.426960
     6  O   -0.563311
     7  O   -0.546463
     8  C   -0.354681
     9  N   -0.173314
    10  C   -0.175724
    11  N   -0.250147
    12  N   -0.365378
    13  H    0.126301
    14  H    0.000674
    15  Cl  -0.921892
 Sum of Mulliken charges =  -1.00000

 Dipole moment (field-independent basis, Debye):
    X=             -9.5374    Y=              1.0191    Z=             -2.9670  Tot=             10.0401

 Test job not archived.
 1\1\GINC-SE329\SP\RHF\Aug-CC-pVDZ\C4H3Cl1F1N4O2(1-)\OHZDE\09-Apr-2025\
 0\\#t hf aug-cc-pvdz iop(5/13=1,5/36=2,99/5=2) pseudo=read geom=check
 guess=(read,tcheck) scf=(maxcycle=1)\\title\\-1,1\C,0,0.185499,-0.1363
 06,0.086138\C,0,-0.665481,0.254773,-1.12391\F,0,1.504816,-0.115196,-0.
 229922\H,0,-1.729148,0.240113,-0.85461\N,0,-0.052769,0.917037,1.169468
 \O,0,0.892156,1.614448,1.492745\O,0,-1.194063,0.940129,1.606402\C,0,-0
 .154615,-1.441277,0.664489\N,0,-0.402778,-2.497521,1.114752\C,0,-0.432
 388,-0.760422,-2.166423\N,0,-0.17345,-1.547253,-2.999731\N,0,-0.335739

 Normal termination of Gaussian 16 at Wed Apr  9 02:42:30 2025.
