 Gaussian 16, Revision C.01,

 ----------------------------------------------------------------------
 #t hf aug-cc-pvdz symm=none int=(grid=ultrafine) guess=(read,tcheck) s
 table=(opt,rrhf)
 ----------------------------------------------------------------------
 -----
 title
 -----
 Symbolic Z-matrix:
 Charge = -1 Multiplicity = 1

 SCF Done:  E(RHF) =  -860.171492839     A.U. after   15 cycles
 Normal termination of Gaussian 16 at Wed Apr  9 02:45:18 2025.
 Gaussian 16:  ES64L-G16RevC.01  3-Jul-2019

 ----------------------------------------------------------------------
 #t hf aug-cc-pvdz iop(5/13=1,5/36=2,99/5=2) pseudo=read geom=check gue
 ss=(read,tcheck) scf=(maxcycle=1)
 ----------------------------------------------------------------------
 -----
 title
 -----
 Structure from the checkpoint file:  "E2SN2_270_mol2.chk"
 Charge = -1 Multiplicity = 1

                         Standard orientation:
 ---------------------------------------------------------------------
 Center     Atomic      Atomic             Coordinates (Angstroms)
 Number     Number       Type             X           Y           Z
 ---------------------------------------------------------------------
      1          6           0        0.646736    0.418437    0.039036
      2          6           0        0.759377   -0.420336   -1.227787
      3          9           0        1.937165    0.928954    0.315554
      4          1           0        1.241849    0.230265   -1.965505
      5          1           0       -0.255506   -0.648711   -1.549690
      6          6           0       -0.206010    1.604087   -0.150198
      7          7           0       -0.672500    2.667543   -0.327879
      8          6           0        0.281746   -0.350871    1.241117
      9          7           0        0.290510   -0.921320    2.269066
     10          6           0        1.564088   -1.692526   -0.999600
     11          1           0        1.741626   -2.196643   -1.952878
     12          1           0        1.011662   -2.377918   -0.354092
     13          1           0        2.531789   -1.478788   -0.539631
     14         17           0       -2.312211   -0.674418   -0.204818
 ---------------------------------------------------------------------

 SCF Done:  E(RHF) =  -860.306882999     A.U. after    2 cycles

 The electronic state is 1-A.
 Alpha  occ. eigenvalues -- -103.37518 -26.03370 -15.54165 -15.53656 -11.30833
 Alpha  occ. eigenvalues --  -11.19341 -11.19082 -11.14604 -11.13404 -10.40639
 Alpha  occ. eigenvalues --   -8.06239  -8.06203  -8.06195  -1.56422  -1.08671
 Alpha  occ. eigenvalues --   -1.06839  -0.99820  -0.89568  -0.83063  -0.76581
 Alpha  occ. eigenvalues --   -0.71856  -0.68775  -0.63603  -0.58366  -0.52237
 Alpha  occ. eigenvalues --   -0.50849  -0.45577  -0.44454  -0.43166  -0.41548
 Alpha  occ. eigenvalues --   -0.40697  -0.36823  -0.35534  -0.34775  -0.34437
 Alpha  occ. eigenvalues --   -0.20902  -0.20672  -0.20505
 Alpha virt. eigenvalues --    0.11264   0.13367   0.13636   0.16204   0.17686
 Alpha virt. eigenvalues --    0.18322   0.19293   0.19738   0.21857   0.22748
 Alpha virt. eigenvalues --    0.23334   0.23725   0.24080   0.25139   0.25365

 Mulliken charges:
               1
     1  C    0.851175
     2  C    0.344307
     3  F   -0.481700
     4  H    0.010118
     5  H   -0.115550
     6  C   -0.211000
     7  N   -0.283863
     8  C   -0.162492
     9  N   -0.329834
    10  C    0.461817
    11  H   -0.083362
    12  H   -0.046895
    13  H   -0.046328
    14  Cl  -0.906391
 Sum of Mulliken charges =  -1.00000

 Dipole moment (field-independent basis, Debye):
    X=              8.4810    Y=             -0.1655    Z=             -2.5701  Tot=              8.8634

 Test job not archived.
 1\1\GINC-SE114\SP\RHF\Aug-CC-pVDZ\C5H5Cl1F1N2(1-)\OHZDE\09-Apr-2025\0\
 \#t hf aug-cc-pvdz iop(5/13=1,5/36=2,99/5=2) pseudo=read geom=check gu
 ess=(read,tcheck) scf=(maxcycle=1)\\title\\-1,1\C,0,-0.072587,0.008731
 ,-0.005938\C,0,-0.459093,0.160734,-1.471741\F,0,1.340979,-0.022863,0.0
 50003\H,0,0.105677,1.027158,-1.833171\H,0,-1.525011,0.38177,-1.498654\
 C,0,-0.46561,1.177416,0.799333\N,0,-0.544184,2.175263,1.414353\C,0,-0.
 500951,-1.262929,0.601874\N,0,-0.540243,-2.344345,1.061399\C,0,-0.1352
 69,-1.088698,-2.279302\H,0,-0.295336,-0.896142,-3.343113\H,0,-0.790895

 Normal termination of Gaussian 16 at Wed Apr  9 02:45:25 2025.
