 Gaussian 16, Revision C.01,

 ----------------------------------------------------------------------
 #t hf aug-cc-pvdz symm=none int=(grid=ultrafine) guess=(read,tcheck) s
 table=(opt,rrhf)
 ----------------------------------------------------------------------
 -----
 title
 -----
 Symbolic Z-matrix:
 Charge = -1 Multiplicity = 1

 SCF Done:  E(RHF) =  -682.852565524     A.U. after   16 cycles
 Normal termination of Gaussian 16 at Wed Apr  9 02:50:50 2025.
 Gaussian 16:  ES64L-G16RevC.01  3-Jul-2019

 ----------------------------------------------------------------------
 #t hf aug-cc-pvdz iop(5/13=1,5/36=2,99/5=2) pseudo=read geom=check gue
 ss=(read,tcheck) scf=(maxcycle=1)
 ----------------------------------------------------------------------
 -----
 title
 -----
 Structure from the checkpoint file:  "E2SN2_320_mol1.chk"
 Charge = -1 Multiplicity = 1

                         Standard orientation:
 ---------------------------------------------------------------------
 Center     Atomic      Atomic             Coordinates (Angstroms)
 Number     Number       Type             X           Y           Z
 ---------------------------------------------------------------------
      1          6           0       -0.820245    0.170197    0.234363
      2          1           0        0.784475    0.793073    1.448534
      3          9           0       -1.198842    1.000598   -1.287533
      4          9           0       -0.509029   -0.874298    1.678355
      5          6           0        0.615760    0.711860    0.381269
      6          6           0       -1.178379   -1.069806   -0.451271
      7          7           0       -1.544760   -2.064781   -0.957750
      8          7           0       -1.789512    0.947976    0.954466
      9          1           0       -2.131122    0.358172    1.700593
     10          1           0       -2.521537    1.188945    0.301828
     11          7           0        0.937522    1.946337   -0.279229
     12          1           0        0.557216    2.684951    0.299787
     13          1           0        0.390638    1.940638   -1.135245
     14          7           0        1.611268   -0.306680   -0.089386
     15          8           0        2.472832   -0.680451    0.703640
     16          8           0        1.538009   -0.649043   -1.268109
 ---------------------------------------------------------------------

 SCF Done:  E(RHF) =  -683.055717048     A.U. after    2 cycles

 The electronic state is 1-A.
 Alpha  occ. eigenvalues --  -25.87416 -25.85374 -20.48832 -20.48691 -15.77699
 Alpha  occ. eigenvalues --  -15.50803 -15.50168 -15.49868 -11.30203 -11.21970
 Alpha  occ. eigenvalues --  -11.16343  -1.41045  -1.38305  -1.36026  -1.22746
 Alpha  occ. eigenvalues --   -1.09128  -1.05416  -1.02988  -0.91146  -0.81858
 Alpha  occ. eigenvalues --   -0.71885  -0.65667  -0.61939  -0.60144  -0.59113
 Alpha  occ. eigenvalues --   -0.58311  -0.54707  -0.51405  -0.50031  -0.47179
 Alpha  occ. eigenvalues --   -0.45594  -0.45127  -0.43253  -0.42171  -0.41831
 Alpha  occ. eigenvalues --   -0.39445  -0.38183  -0.37697  -0.34880  -0.33275
 Alpha  occ. eigenvalues --   -0.30917  -0.30289  -0.29693
 Alpha virt. eigenvalues --    0.12245   0.13355   0.14241   0.16625   0.16995
 Alpha virt. eigenvalues --    0.19282   0.20395   0.22381   0.22478   0.23055
 Alpha virt. eigenvalues --    0.24156   0.25109   0.25423   0.26522   0.27119

 Mulliken charges:
               1
     1  C    1.615416
     2  H   -0.005783
     3  F   -0.760164
     4  F   -0.755575
     5  C    1.590367
     6  C   -0.766018
     7  N   -0.230872
     8  N   -0.635484
     9  H    0.086966
    10  H    0.074813
    11  N   -0.476320
    12  H    0.052390
    13  H    0.094064
    14  N    0.325892
    15  O   -0.624172
    16  O   -0.585519
 Sum of Mulliken charges =  -1.00000

 Dipole moment (field-independent basis, Debye):
    X=             -0.9389    Y=              5.1075    Z=              1.8793  Tot=              5.5227

 Test job not archived.
 1\1\GINC-SE126\SP\RHF\Aug-CC-pVDZ\C3H5F2N4O2(1-)\OHZDE\09-Apr-2025\0\\
 #t hf aug-cc-pvdz iop(5/13=1,5/36=2,99/5=2) pseudo=read geom=check gue
 ss=(read,tcheck) scf=(maxcycle=1)\\title\\-1,1\C,0,0.68778246,0.015289
 37,0.06478266\H,0,1.60802217,1.89069178,0.33559228\F,0,-0.96986302,-0.
 28529728,0.62239153\F,0,2.32840746,0.17224718,-0.68130958\C,0,0.607979
 37,1.55482647,0.08815753\C,0,0.36095113,-0.81988239,-1.08917989\N,0,0.
 14551728,-1.55769355,-1.97797339\N,0,1.24303991,-0.53593682,1.26927639
 \H,0,2.13300047,-0.94088006,1.01380909\H,0,0.59484926,-1.23489064,1.60

 Normal termination of Gaussian 16 at Wed Apr  9 02:51:00 2025.
