 Gaussian 16, Revision C.01,

 ----------------------------------------------------------------------
 #t hf aug-cc-pvdz symm=none int=(grid=ultrafine) guess=(read,tcheck) s
 table=(opt,rrhf)
 ----------------------------------------------------------------------
 -----
 title
 -----
 Symbolic Z-matrix:
 Charge = -1 Multiplicity = 1

 SCF Done:  E(RHF) =  -1295.34087565     A.U. after   15 cycles
 Normal termination of Gaussian 16 at Wed Apr  9 02:38:33 2025.
 Gaussian 16:  ES64L-G16RevC.01  3-Jul-2019

 ----------------------------------------------------------------------
 #t hf aug-cc-pvdz iop(5/13=1,5/36=2,99/5=2) pseudo=read geom=check gue
 ss=(read,tcheck) scf=(maxcycle=1)
 ----------------------------------------------------------------------
 -----
 title
 -----
 Structure from the checkpoint file:  "E2SN2_189_mol2.chk"
 Charge = -1 Multiplicity = 1

                         Standard orientation:
 ---------------------------------------------------------------------
 Center     Atomic      Atomic             Coordinates (Angstroms)
 Number     Number       Type             X           Y           Z
 ---------------------------------------------------------------------
      1          6           0        0.235888    0.939613    0.043327
      2          6           0        0.492276   -0.348476    0.801893
      3         17           0        1.832282    1.558937   -0.534693
      4          1           0        1.304810   -0.224702    1.523094
      5          1           0       -0.356805    0.720010   -0.843873
      6          6           0       -0.445207    1.983312    0.900914
      7          1           0        0.105292    2.146754    1.830946
      8          1           0       -0.507056    2.925287    0.352872
      9          1           0       -1.455504    1.639170    1.118068
     10          7           0        1.086794   -1.398940   -0.159017
     11          8           0        1.822819   -2.236115    0.372072
     12          8           0        0.741697   -1.408684   -1.335097
     13          7           0       -0.687305   -0.816011    1.429195
     14          1           0       -0.557085   -1.732196    1.836335
     15          1           0       -1.499530   -0.789116    0.800638
     16         17           0       -3.129012   -0.115928   -0.540714
 ---------------------------------------------------------------------

 SCF Done:  E(RHF) =  -1295.48513935     A.U. after    2 cycles

 The electronic state is 1-A.
 Alpha  occ. eigenvalues -- -103.54551-103.37887 -20.50893 -20.50352 -15.78886
 Alpha  occ. eigenvalues --  -15.50551 -11.23482 -11.20107 -11.12607 -10.57912
 Alpha  occ. eigenvalues --  -10.40974  -8.23627  -8.23366  -8.23348  -8.06578
 Alpha  occ. eigenvalues --   -8.06545  -8.06534  -1.42473  -1.24454  -1.10332
 Alpha  occ. eigenvalues --   -1.05133  -0.91288  -0.88729  -0.83230  -0.76232
 Alpha  occ. eigenvalues --   -0.69980  -0.65234  -0.62170  -0.60619  -0.57705
 Alpha  occ. eigenvalues --   -0.53374  -0.48445  -0.46944  -0.46428  -0.42372
 Alpha  occ. eigenvalues --   -0.40453  -0.40259  -0.39107  -0.36184  -0.34834
 Alpha  occ. eigenvalues --   -0.34142  -0.29805  -0.21408  -0.21091  -0.20944
 Alpha virt. eigenvalues --    0.12090   0.12939   0.14136   0.14752   0.17021
 Alpha virt. eigenvalues --    0.17780   0.18589   0.19520   0.20251   0.20933
 Alpha virt. eigenvalues --    0.23721   0.24082   0.24707   0.25336   0.25822

 Mulliken charges:
               1
     1  C   -0.476758
     2  C    1.468123
     3  Cl  -0.218062
     4  H   -0.202570
     5  H    0.035277
     6  C    0.575539
     7  H   -0.005825
     8  H   -0.067273
     9  H    0.057504
    10  N    0.259020
    11  O   -0.616351
    12  O   -0.567674
    13  N   -0.285666
    14  H   -0.017915
    15  H   -0.000259
    16  Cl  -0.937109
 Sum of Mulliken charges =  -1.00000

 Dipole moment (field-independent basis, Debye):
    X=              7.8635    Y=              2.1953    Z=              4.1512  Tot=              9.1590

 Test job not archived.
 1\1\GINC-SE023\SP\RHF\Aug-CC-pVDZ\C3H7Cl2N2O2(1-)\OHZDE\09-Apr-2025\0\
 \#t hf aug-cc-pvdz iop(5/13=1,5/36=2,99/5=2) pseudo=read geom=check gu
 ess=(read,tcheck) scf=(maxcycle=1)\\title\\-1,1\C,0,-0.207006,0.012128
 ,0.008181\C,0,-0.465055,0.225011,-1.47115\Cl,0,1.521015,0.434875,0.326
 567\H,0,0.315033,-0.243453,-2.077505\H,0,-0.813415,0.712525,0.581195\C
 ,0,-0.47963,-1.412574,0.43778\H,0,0.065658,-2.122447,-0.189487\H,0,-0.
 174362,-1.547348,1.477078\H,0,-1.551383,-1.591608,0.363062\N,0,-0.2724
 3,1.716618,-1.81507\O,0,0.087837,1.943669,-2.974081\O,0,-0.56322,2.572

 Normal termination of Gaussian 16 at Wed Apr  9 02:38:41 2025.
