 Gaussian 16, Revision C.01,

 ----------------------------------------------------------------------
 #t hf aug-cc-pvdz symm=none int=(grid=ultrafine) guess=(read,tcheck) s
 table=(opt,rrhf)
 ----------------------------------------------------------------------
 -----
 title
 -----
 Symbolic Z-matrix:
 Charge = -1 Multiplicity = 1

 SCF Done:  E(RHF) =  -463.348557717     A.U. after   15 cycles
 Normal termination of Gaussian 16 at Wed Apr  9 02:38:00 2025.
 Gaussian 16:  ES64L-G16RevC.01  3-Jul-2019

 ----------------------------------------------------------------------
 #t hf aug-cc-pvdz iop(5/13=1,5/36=2,99/5=2) pseudo=read geom=check gue
 ss=(read,tcheck) scf=(maxcycle=1)
 ----------------------------------------------------------------------
 -----
 title
 -----
 Structure from the checkpoint file:  "E2SN2_191_mol1.chk"
 Charge = -1 Multiplicity = 1

                         Standard orientation:
 ---------------------------------------------------------------------
 Center     Atomic      Atomic             Coordinates (Angstroms)
 Number     Number       Type             X           Y           Z
 ---------------------------------------------------------------------
      1          6           0       -0.839009    0.074735    0.335123
      2          1           0       -0.031061    0.830848   -1.461855
      3          9           0        0.191522   -0.133066    1.788365
      4          9           0       -2.030961    0.504724   -1.049945
      5          6           0        0.341335    0.589675   -0.467501
      6          1           0       -1.405502    0.804527    0.880718
      7          6           0       -1.258158   -1.366823    0.240320
      8          1           0       -2.294103   -1.457004    0.567226
      9          1           0       -1.219038   -1.690204   -0.799503
     10          1           0       -0.614290   -1.990645    0.858437
     11          6           0        1.365478   -0.472126   -0.608954
     12          7           0        2.205339   -1.269224   -0.809986
     13          7           0        0.883822    1.793078    0.164904
     14          1           0        1.757275    2.043766   -0.285192
     15          1           0        1.079672    1.494040    1.116035
 ---------------------------------------------------------------------

 SCF Done:  E(RHF) =  -463.487866931     A.U. after    2 cycles

 The electronic state is 1-A.
 Alpha  occ. eigenvalues --  -25.82945 -25.79162 -15.50402 -15.48307 -11.19212
 Alpha  occ. eigenvalues --  -11.16795 -11.15698 -11.08366  -1.33308  -1.29079
 Alpha  occ. eigenvalues --   -1.06094  -1.02382  -0.89652  -0.80060  -0.69228
 Alpha  occ. eigenvalues --   -0.57157  -0.54607  -0.50824  -0.49202  -0.44444
 Alpha  occ. eigenvalues --   -0.43207  -0.42402  -0.41779  -0.40593  -0.38039
 Alpha  occ. eigenvalues --   -0.37764  -0.37099  -0.35644  -0.33920  -0.32472
 Alpha  occ. eigenvalues --   -0.31294  -0.27586
 Alpha virt. eigenvalues --    0.13246   0.14330   0.14619   0.15734   0.16729
 Alpha virt. eigenvalues --    0.17355   0.18551   0.19035   0.22812   0.23428
 Alpha virt. eigenvalues --    0.24394   0.25196   0.26451   0.26855   0.28172

 Mulliken charges:
               1
     1  C    0.599091
     2  H    0.001681
     3  F   -0.829839
     4  F   -0.859471
     5  C    0.988069
     6  H   -0.392322
     7  C    0.309990
     8  H   -0.042939
     9  H    0.068183
    10  H    0.075613
    11  C   -0.286361
    12  N   -0.298661
    13  N   -0.414771
    14  H   -0.034967
    15  H    0.116705
 Sum of Mulliken charges =  -1.00000

 Dipole moment (field-independent basis, Debye):
    X=              1.6939    Y=              0.6223    Z=             -0.0110  Tot=              1.8046

 Test job not archived.
 1\1\GINC-SE127\SP\RHF\Aug-CC-pVDZ\C4H7F2N2(1-)\OHZDE\09-Apr-2025\0\\#t
  hf aug-cc-pvdz iop(5/13=1,5/36=2,99/5=2) pseudo=read geom=check guess
 =(read,tcheck) scf=(maxcycle=1)\\title\\-1,1\C,0,0.6663895,-0.00833134
 ,0.03513732\H,0,1.68677384,1.83368987,0.17438355\F,0,-1.1088948,-0.056
 91979,-0.21604958\F,0,2.54331119,-0.04321076,0.03577432\C,0,0.65525895
 ,1.50900425,0.04733691\H,0,0.78224803,-0.48140519,-0.92087675\C,0,0.65
 74318,-0.78389405,1.32400687\H,0,1.03480253,-1.78900597,1.13552978\H,0
 ,1.33432908,-0.31394186,2.03695345\H,0,-0.35155063,-0.83236897,1.73069

 Normal termination of Gaussian 16 at Wed Apr  9 02:38:06 2025.
