 Gaussian 16, Revision C.01,

 ----------------------------------------------------------------------
 #t hf aug-cc-pvdz symm=none int=(grid=ultrafine) guess=(read,tcheck) s
 table=(opt,rrhf)
 ----------------------------------------------------------------------
 -----
 title
 -----
 Symbolic Z-matrix:
 Charge = -1 Multiplicity = 1

 SCF Done:  E(RHF) =  -860.122077482     A.U. after   16 cycles
 Normal termination of Gaussian 16 at Wed Apr  9 02:46:21 2025.
 Gaussian 16:  ES64L-G16RevC.01  3-Jul-2019

 ----------------------------------------------------------------------
 #t hf aug-cc-pvdz iop(5/13=1,5/36=2,99/5=2) pseudo=read geom=check gue
 ss=(read,tcheck) scf=(maxcycle=1)
 ----------------------------------------------------------------------
 -----
 title
 -----
 Structure from the checkpoint file:  "E2SN2_278_mol1.chk"
 Charge = -1 Multiplicity = 1

                         Standard orientation:
 ---------------------------------------------------------------------
 Center     Atomic      Atomic             Coordinates (Angstroms)
 Number     Number       Type             X           Y           Z
 ---------------------------------------------------------------------
      1          6           0       -0.431469    0.349059   -0.251924
      2          1           0        1.011832    0.841083   -1.704905
      3         17           0       -1.100061   -1.732399    0.115572
      4          9           0        0.277498    2.192374   -0.345235
      5          6           0        0.746600   -0.046742   -1.133012
      6          1           0        0.450072   -0.858353   -1.799584
      7          6           0       -0.252575    0.626863    1.152685
      8          7           0       -0.168552    0.795361    2.313946
      9          6           0       -1.707142    0.780840   -0.941612
     10          1           0       -1.572258    1.805239   -1.277574
     11          1           0       -1.917048    0.112895   -1.778465
     12          1           0       -2.542765    0.715381   -0.245338
     13          6           0        1.921208   -0.482109   -0.386703
     14          7           0        2.899123   -0.833116    0.159147
 ---------------------------------------------------------------------

 SCF Done:  E(RHF) =  -860.253874987     A.U. after    2 cycles

 The electronic state is 1-A.
 Alpha  occ. eigenvalues -- -103.46003 -25.82021 -15.52334 -15.50382 -11.27613
 Alpha  occ. eigenvalues --  -11.17824 -11.17755 -11.16960 -11.13154 -10.49296
 Alpha  occ. eigenvalues --   -8.14941  -8.14785  -8.14780  -1.31978  -1.06907
 Alpha  occ. eigenvalues --   -1.04864  -0.99849  -0.91271  -0.88044  -0.77719
 Alpha  occ. eigenvalues --   -0.62556  -0.54460  -0.53077  -0.49693  -0.48719
 Alpha  occ. eigenvalues --   -0.44635  -0.43942  -0.42540  -0.41033  -0.40216
 Alpha  occ. eigenvalues --   -0.39024  -0.33788  -0.33338  -0.32510  -0.31957
 Alpha  occ. eigenvalues --   -0.28749  -0.28417  -0.27201
 Alpha virt. eigenvalues --    0.12420   0.13924   0.14881   0.15602   0.16414
 Alpha virt. eigenvalues --    0.18220   0.19501   0.19961   0.21273   0.22011
 Alpha virt. eigenvalues --    0.22942   0.23653   0.25087   0.25413   0.26199

 Mulliken charges:
               1
     1  C   -0.168104
     2  H    0.172274
     3  Cl  -0.566331
     4  F   -0.807338
     5  C    0.625961
     6  H    0.090426
     7  C   -0.657329
     8  N   -0.272744
     9  C    0.661443
    10  H    0.115216
    11  H    0.046264
    12  H    0.002149
    13  C    0.072638
    14  N   -0.314526
 Sum of Mulliken charges =  -1.00000

 Dipole moment (field-independent basis, Debye):
    X=             -2.7470    Y=             -0.9330    Z=             -5.4482  Tot=              6.1725

 Test job not archived.
 1\1\GINC-SE109\SP\RHF\Aug-CC-pVDZ\C5H5Cl1F1N2(1-)\OHZDE\09-Apr-2025\0\
 \#t hf aug-cc-pvdz iop(5/13=1,5/36=2,99/5=2) pseudo=read geom=check gu
 ess=(read,tcheck) scf=(maxcycle=1)\\title\\-1,1\C,0,0.51372745,-0.0692
 6091,0.02167571\H,0,1.6295124,1.69328492,0.31290655\Cl,0,-1.69697922,-
 0.1268527,0.17657083\F,0,2.4513882,-0.0589049,-0.37140799\C,0,0.605085
 81,1.45136967,0.03421286\H,0,-0.09724267,1.85528917,0.76533744\C,0,0.5
 2826811,-0.80749176,-1.21804556\N,0,0.46691601,-1.44730638,-2.20336324
 \C,0,0.75942268,-0.79583646,1.32596412\H,0,1.83293531,-0.82916052,1.49

 Normal termination of Gaussian 16 at Wed Apr  9 02:46:28 2025.
