 Gaussian 16, Revision C.01,

 ----------------------------------------------------------------------
 #t hf aug-cc-pvdz symm=none int=(grid=ultrafine) guess=(read,tcheck) s
 table=(opt,rrhf)
 ----------------------------------------------------------------------
 -----
 title
 -----
 Symbolic Z-matrix:
 Charge = -1 Multiplicity = 1

 SCF Done:  E(RHF) =  -1000.66384944     A.U. after   17 cycles
 Normal termination of Gaussian 16 at Wed Apr  9 02:43:29 2025.
 Gaussian 16:  ES64L-G16RevC.01  3-Jul-2019

 ----------------------------------------------------------------------
 #t hf aug-cc-pvdz iop(5/13=1,5/36=2,99/5=2) pseudo=read geom=check gue
 ss=(read,tcheck) scf=(maxcycle=1)
 ----------------------------------------------------------------------
 -----
 title
 -----
 Structure from the checkpoint file:  "E2SN2_24_mol1.chk"
 Charge = -1 Multiplicity = 1

                         Standard orientation:
 ---------------------------------------------------------------------
 Center     Atomic      Atomic             Coordinates (Angstroms)
 Number     Number       Type             X           Y           Z
 ---------------------------------------------------------------------
      1          6           0       -0.001077    0.112039   -0.198439
      2          6           0       -0.815072   -0.266475   -1.354075
      3         17           0        0.197288    1.912700    0.095951
      4          1           0       -1.559717   -2.480464   -2.080807
      5          1           0       -0.850732   -1.465813   -1.602750
      6          1           0       -0.404499    0.190847   -2.259147
      7          7           0       -0.571231   -0.525535    1.066379
      8          8           0       -0.470966   -1.745790    1.077167
      9          8           0       -1.089197    0.174300    1.919713
     10          7           0       -2.215029   -0.034644   -1.073177
     11          1           0       -2.681463   -0.867236   -1.457267
     12          1           0       -2.561223    0.787392   -1.549011
     13          7           0        1.438597   -0.378541   -0.292519
     14          8           0        1.892417   -0.547125   -1.417804
     15          8           0        2.047031   -0.529256    0.761939
 ---------------------------------------------------------------------

 SCF Done:  E(RHF) =  -1000.84585601     A.U. after    2 cycles

 The electronic state is 1-A.
 Alpha  occ. eigenvalues -- -103.57848 -20.53292 -20.52892 -20.51985 -20.51596
 Alpha  occ. eigenvalues --  -15.82871 -15.81753 -15.48169 -11.32765 -11.12898
 Alpha  occ. eigenvalues --  -10.61102  -8.26821  -8.26513  -8.26504  -1.46136
 Alpha  occ. eigenvalues --   -1.44090  -1.27520  -1.26480  -1.11629  -1.02938
 Alpha  occ. eigenvalues --   -0.97323  -0.85058  -0.79952  -0.71413  -0.69521
 Alpha  occ. eigenvalues --   -0.64626  -0.64419  -0.63020  -0.60754  -0.58215
 Alpha  occ. eigenvalues --   -0.53131  -0.49222  -0.47656  -0.44146  -0.42399
 Alpha  occ. eigenvalues --   -0.42054  -0.40099  -0.38928  -0.37728  -0.37283
 Alpha  occ. eigenvalues --   -0.36231  -0.35333  -0.27882  -0.10346
 Alpha virt. eigenvalues --    0.12785   0.14423   0.14888   0.16653   0.17879
 Alpha virt. eigenvalues --    0.18212   0.19956   0.21088   0.22151   0.22671
 Alpha virt. eigenvalues --    0.23319   0.24204   0.25397   0.25801   0.26649

 Mulliken charges:
               1
     1  C    0.969637
     2  C    0.420902
     3  Cl  -0.090692
     4  H   -0.701614
     5  H    0.308892
     6  H   -0.060787
     7  N    0.447434
     8  O   -0.568165
     9  O   -0.638071
    10  N   -0.318729
    11  H    0.066741
    12  H   -0.012642
    13  N    0.344980
    14  O   -0.570443
    15  O   -0.597442
 Sum of Mulliken charges =  -1.00000

 Dipole moment (field-independent basis, Debye):
    X=              3.0676    Y=              8.8541    Z=              2.9179  Tot=              9.8142

 Test job not archived.
 1\1\GINC-SE042\SP\RHF\Aug-CC-pVDZ\C2H5Cl1N3O4(1-)\OHZDE\09-Apr-2025\0\
 \#t hf aug-cc-pvdz iop(5/13=1,5/36=2,99/5=2) pseudo=read geom=check gu
 ess=(read,tcheck) scf=(maxcycle=1)\\title\\-1,1\C,0,-0.08329177,0.0573
 4466,-0.40389185\C,0,-0.18735132,0.03166141,1.05551483\Cl,0,1.61568605
 ,-0.01062484,-1.09472141\H,0,-2.1741976,-0.10069736,2.47653746\H,0,-1.
 31652801,0.18631337,1.50558857\H,0,0.39421621,0.85506645,1.48054546\N,
 0,-0.89478979,-1.09039579,-1.00013392\O,0,-2.10107571,-0.96482977,-0.8
 3191402\O,0,-0.32408056,-2.02023247,-1.54413062\N,0,0.09152161,-1.2987

 Normal termination of Gaussian 16 at Wed Apr  9 02:43:37 2025.
