 Gaussian 16, Revision C.01,

 ----------------------------------------------------------------------
 #t hf aug-cc-pvdz symm=none int=(grid=ultrafine) guess=(read,tcheck) s
 table=(opt,rrhf)
 ----------------------------------------------------------------------
 -----
 title
 -----
 Symbolic Z-matrix:
 Charge = -1 Multiplicity = 1

 SCF Done:  E(RHF) =  -987.892204930     A.U. after   17 cycles
 Normal termination of Gaussian 16 at Wed Apr  9 02:42:21 2025.
 Gaussian 16:  ES64L-G16RevC.01  3-Jul-2019

 ----------------------------------------------------------------------
 #t hf aug-cc-pvdz iop(5/13=1,5/36=2,99/5=2) pseudo=read geom=check gue
 ss=(read,tcheck) scf=(maxcycle=1)
 ----------------------------------------------------------------------
 -----
 title
 -----
 Structure from the checkpoint file:  "E2SN2_238_mol1.chk"
 Charge = -1 Multiplicity = 1

                         Standard orientation:
 ---------------------------------------------------------------------
 Center     Atomic      Atomic             Coordinates (Angstroms)
 Number     Number       Type             X           Y           Z
 ---------------------------------------------------------------------
      1          6           0       -0.304372    0.053509    0.513051
      2          1           0        0.585333   -1.888778    0.857369
      3          9           0        0.898427    1.513143    0.932589
      4         17           0       -1.648030   -1.470967   -0.247138
      5          6           0        0.878677   -0.838771    0.861764
      6          1           0        1.133511   -0.550542    1.880989
      7          7           0       -0.361358    0.793658   -0.809870
      8          8           0        0.403950    0.443398   -1.694121
      9          8           0       -1.206731    1.673776   -0.893933
     10          7           0       -1.137191    0.474401    1.567926
     11          1           0       -2.095328    0.515983    1.253365
     12          1           0       -0.792501    1.396567    1.808685
     13          6           0        2.096937   -0.695310    0.070021
     14          7           0        3.140612   -0.716490   -0.466192
 ---------------------------------------------------------------------

 SCF Done:  E(RHF) =  -988.063562800     A.U. after    2 cycles

 The electronic state is 1-A.
 Alpha  occ. eigenvalues -- -103.47519 -25.83424 -20.48811 -20.48590 -15.79296
 Alpha  occ. eigenvalues --  -15.51265 -15.50794 -11.32986 -11.17842 -11.17021
 Alpha  occ. eigenvalues --  -10.50849  -8.16504  -8.16334  -8.16324  -1.41946
 Alpha  occ. eigenvalues --   -1.33623  -1.23658  -1.09933  -1.05081  -0.95923
 Alpha  occ. eigenvalues --   -0.92351  -0.86806  -0.69707  -0.66074  -0.61171
 Alpha  occ. eigenvalues --   -0.60656  -0.57030  -0.54923  -0.52036  -0.51860
 Alpha  occ. eigenvalues --   -0.43546  -0.42375  -0.41759  -0.41267  -0.39911
 Alpha  occ. eigenvalues --   -0.38605  -0.34837  -0.33263  -0.32609  -0.30734
 Alpha  occ. eigenvalues --   -0.30442  -0.29798  -0.29460
 Alpha virt. eigenvalues --    0.13032   0.13808   0.15052   0.16860   0.18055
 Alpha virt. eigenvalues --    0.18629   0.20715   0.22157   0.22750   0.23641
 Alpha virt. eigenvalues --    0.24239   0.24821   0.26003   0.27040   0.28047

 Mulliken charges:
               1
     1  C    0.334580
     2  H    0.019828
     3  F   -0.765428
     4  Cl  -0.490064
     5  C    0.684618
     6  H    0.188606
     7  N    0.740283
     8  O   -0.689144
     9  O   -0.684195
    10  N   -0.233651
    11  H    0.098549
    12  H    0.111917
    13  C    0.015343
    14  N   -0.331242
 Sum of Mulliken charges =  -1.00000

 Dipole moment (field-independent basis, Debye):
    X=             -3.0211    Y=             -1.6009    Z=              3.1647  Tot=              4.6589

 Test job not archived.
 1\1\GINC-SE131\SP\RHF\Aug-CC-pVDZ\C3H4Cl1F1N3O2(1-)\OHZDE\09-Apr-2025\
 0\\#t hf aug-cc-pvdz iop(5/13=1,5/36=2,99/5=2) pseudo=read geom=check
 guess=(read,tcheck) scf=(maxcycle=1)\\title\\-1,1\C,0,0.80846118,-0.06
 273074,0.01451383\H,0,1.66594676,1.91943904,0.14990171\F,0,-1.12258474
 ,-0.03439105,-0.13887263\Cl,0,2.96888868,-0.23137879,-0.09245791\C,0,0
 .69593779,1.45479033,-0.02833798\H,0,0.03523995,1.69271944,0.80455121\
 N,0,0.65988107,-0.89296977,-1.24636442\O,0,0.73384349,-0.31844651,-2.3
 2094806\O,0,0.50857332,-2.09534783,-1.0798614\N,0,0.67115526,-0.691880

 Normal termination of Gaussian 16 at Wed Apr  9 02:42:28 2025.
