 Gaussian 16, Revision C.01,

 ----------------------------------------------------------------------
 #t hf aug-cc-pvdz symm=none int=(grid=ultrafine) guess=(read,tcheck) s
 table=(opt,rrhf)
 ----------------------------------------------------------------------
 -----
 title
 -----
 Symbolic Z-matrix:
 Charge = -1 Multiplicity = 1

 SCF Done:  E(RHF) =  -740.463481664     A.U. after   17 cycles
 Normal termination of Gaussian 16 at Wed Apr  9 02:27:41 2025.
 Gaussian 16:  ES64L-G16RevC.01  3-Jul-2019

 ----------------------------------------------------------------------
 #t hf aug-cc-pvdz iop(5/13=1,5/36=2,99/5=2) pseudo=read geom=check gue
 ss=(read,tcheck) scf=(maxcycle=1)
 ----------------------------------------------------------------------
 -----
 title
 -----
 Structure from the checkpoint file:  "E2SN2_107_mol1.chk"
 Charge = -1 Multiplicity = 1

                         Standard orientation:
 ---------------------------------------------------------------------
 Center     Atomic      Atomic             Coordinates (Angstroms)
 Number     Number       Type             X           Y           Z
 ---------------------------------------------------------------------
      1          6           0       -0.268368   -0.013357   -0.562019
      2          6           0        1.066052   -0.436444   -0.137368
      3         17           0       -0.897514    1.635780    0.228789
      4          1           0        2.352532   -1.989051   -1.516018
      5          1           0        1.437822   -1.345984   -0.886830
      6          7           0        1.085947   -1.001657    1.192705
      7          1           0        1.443627   -0.292373    1.824858
      8          1           0        1.774833   -1.751297    1.173296
      9          7           0        2.100908    0.553552   -0.383742
     10          1           0        1.723664    1.397742   -0.797227
     11          1           0        2.746817    0.112085   -1.046977
     12          6           0       -1.309094   -0.989151   -0.277632
     13          7           0       -2.168312   -1.774359   -0.117058
     14          1           0       -0.282907    0.251582   -1.621737
 ---------------------------------------------------------------------

 SCF Done:  E(RHF) =  -740.564428577     A.U. after    2 cycles

 The electronic state is 1-A.
 Alpha  occ. eigenvalues -- -103.53188 -15.52970 -15.47241 -15.47004 -11.22935
 Alpha  occ. eigenvalues --  -11.18373 -11.13942 -10.56409  -8.22100  -8.21852
 Alpha  occ. eigenvalues --   -8.21841  -1.08814  -1.05724  -1.01315  -0.96056
 Alpha  occ. eigenvalues --   -0.88488  -0.69135  -0.59827  -0.57189  -0.51816
 Alpha  occ. eigenvalues --   -0.47175  -0.46023  -0.44160  -0.43026  -0.37342
 Alpha  occ. eigenvalues --   -0.34850  -0.34446  -0.33094  -0.32558  -0.28783
 Alpha  occ. eigenvalues --   -0.24967  -0.10234
 Alpha virt. eigenvalues --    0.12869   0.13639   0.15045   0.15999   0.17746
 Alpha virt. eigenvalues --    0.18439   0.19241   0.20610   0.21745   0.22544
 Alpha virt. eigenvalues --    0.23356   0.24489   0.24956   0.25653   0.26347

 Mulliken charges:
               1
     1  C    0.630595
     2  C    0.505518
     3  Cl  -0.251837
     4  H   -0.713410
     5  H    0.108807
     6  N   -0.420367
     7  H    0.013096
     8  H    0.026948
     9  N   -0.378822
    10  H    0.037598
    11  H    0.051576
    12  C   -0.356291
    13  N   -0.226223
    14  H   -0.027188
 Sum of Mulliken charges =  -1.00000

 Dipole moment (field-independent basis, Debye):
    X=             -3.4564    Y=              6.7499    Z=              2.1834  Tot=              7.8914

 Test job not archived.
 1\1\GINC-SE041\SP\RHF\Aug-CC-pVDZ\C3H7Cl1N3(1-)\OHZDE\09-Apr-2025\0\\#
 t hf aug-cc-pvdz iop(5/13=1,5/36=2,99/5=2) pseudo=read geom=check gues
 s=(read,tcheck) scf=(maxcycle=1)\\title\\-1,1\C,0,-0.21155323,-0.00342
 872,-0.31975439\C,0,-0.32350287,0.10013551,1.13515122\Cl,0,1.5961923,-
 0.11304821,-0.99864762\H,0,-2.41021894,-0.51238614,2.24723334\H,0,-1.5
 0568098,-0.08477011,1.44407552\N,0,0.00422651,1.41508841,1.63759352\H,
 0,0.94417158,1.37501489,2.0190817\H,0,-0.62323026,1.58499607,2.4213861
 3\N,0,0.31444497,-0.99159023,1.85130596\H,0,0.75809365,-1.6477383,1.21

 Normal termination of Gaussian 16 at Wed Apr  9 02:27:47 2025.
