 Gaussian 16, Revision C.01,

 ----------------------------------------------------------------------
 #t hf aug-cc-pvdz symm=none int=(grid=ultrafine) guess=(read,tcheck) s
 table=(opt,rrhf)
 ----------------------------------------------------------------------
 -----
 title
 -----
 Symbolic Z-matrix:
 Charge = -1 Multiplicity = 1

 SCF Done:  E(RHF) =  -860.135949373     A.U. after   16 cycles
 Normal termination of Gaussian 16 at Wed Apr  9 02:50:51 2025.
 Gaussian 16:  ES64L-G16RevC.01  3-Jul-2019

 ----------------------------------------------------------------------
 #t hf aug-cc-pvdz iop(5/13=1,5/36=2,99/5=2) pseudo=read geom=check gue
 ss=(read,tcheck) scf=(maxcycle=1)
 ----------------------------------------------------------------------
 -----
 title
 -----
 Structure from the checkpoint file:  "E2SN2_324_mol2.chk"
 Charge = -1 Multiplicity = 1

                         Standard orientation:
 ---------------------------------------------------------------------
 Center     Atomic      Atomic             Coordinates (Angstroms)
 Number     Number       Type             X           Y           Z
 ---------------------------------------------------------------------
      1          6           0       -0.724475   -0.396418    0.340893
      2          6           0        0.344369    0.262949   -0.552874
      3         17           0       -2.353661    0.173225   -0.255559
      4          1           0       -0.061271    0.335701   -1.573294
      5          1           0       -0.591870   -0.018861    1.346361
      6          6           0       -0.656088   -1.903781    0.327999
      7          1           0       -0.679601   -2.308510   -0.687717
      8          1           0        0.287099   -2.144018    0.819125
      9          1           0       -1.488864   -2.325044    0.895545
     10          6           0        1.590510   -0.512467   -0.644659
     11          7           0        2.479130   -1.125913   -1.114721
     12          6           0        0.615911    1.629771   -0.100583
     13          7           0        0.757597    2.766251    0.155822
     14          9           0        1.429811   -0.271865    1.559124
 ---------------------------------------------------------------------

 SCF Done:  E(RHF) =  -860.270245225     A.U. after    2 cycles

 The electronic state is 1-A.
 Alpha  occ. eigenvalues -- -103.53687 -25.75995 -15.51713 -15.49507 -11.20649
 Alpha  occ. eigenvalues --  -11.19797 -11.17607 -11.17166 -11.11841 -10.57034
 Alpha  occ. eigenvalues --   -8.22743  -8.22492  -8.22477  -1.25238  -1.07792
 Alpha  occ. eigenvalues --   -1.04908  -1.03807  -0.95077  -0.87391  -0.71452
 Alpha  occ. eigenvalues --   -0.63415  -0.59174  -0.51927  -0.49011  -0.45185
 Alpha  occ. eigenvalues --   -0.42740  -0.41792  -0.41457  -0.39784  -0.36895
 Alpha  occ. eigenvalues --   -0.35868  -0.35597  -0.34729  -0.33188  -0.32571
 Alpha  occ. eigenvalues --   -0.32160  -0.31082  -0.28564
 Alpha virt. eigenvalues --    0.12419   0.13175   0.14763   0.16519   0.17223
 Alpha virt. eigenvalues --    0.18270   0.18833   0.19809   0.22359   0.23493
 Alpha virt. eigenvalues --    0.24402   0.24686   0.25034   0.25250   0.26031

 Mulliken charges:
               1
     1  C   -0.530246
     2  C    1.108646
     3  Cl  -0.270862
     4  H    0.071131
     5  H   -0.049235
     6  C    0.558585
     7  H    0.001947
     8  H    0.159772
     9  H   -0.115387
    10  C   -0.021222
    11  N   -0.430793
    12  C   -0.251886
    13  N   -0.296597
    14  F   -0.933852
 Sum of Mulliken charges =  -1.00000

 Dipole moment (field-independent basis, Debye):
    X=             -6.7071    Y=             -1.8751    Z=             -3.4461  Tot=              7.7703

 Test job not archived.
 1\1\GINC-SE015\SP\RHF\Aug-CC-pVDZ\C5H5Cl1F1N2(1-)\OHZDE\09-Apr-2025\0\
 \#t hf aug-cc-pvdz iop(5/13=1,5/36=2,99/5=2) pseudo=read geom=check gu
 ess=(read,tcheck) scf=(maxcycle=1)\\title\\-1,1\C,0,-0.133487,0.014656
 ,0.068964\C,0,-0.602655,-0.222112,-1.380116\Cl,0,1.610239,-0.5187,0.16
 6153\H,0,0.247071,-0.024187,-2.050851\H,0,-0.712379,-0.634361,0.712983
 \C,0,-0.269917,1.452589,0.505681\H,0,0.216953,2.142209,-0.189602\H,0,-
 1.344632,1.632238,0.540823\H,0,0.162666,1.588745,1.499371\C,0,-1.69149
 3,0.674124,-1.796956\N,0,-2.27666,1.493617,-2.407636\C,0,-0.982723,-1.

 Normal termination of Gaussian 16 at Wed Apr  9 02:50:58 2025.
