 Gaussian 16, Revision C.01,

 ----------------------------------------------------------------------
 #t hf aug-cc-pvdz symm=none int=(grid=ultrafine) guess=(read,tcheck) s
 table=(opt,rrhf)
 ----------------------------------------------------------------------
 -----
 title
 -----
 Symbolic Z-matrix:
 Charge = -1 Multiplicity = 1

 SCF Done:  E(RHF) =  -816.219925082     A.U. after   16 cycles
 Normal termination of Gaussian 16 at Wed Apr  9 03:00:31 2025.
 Gaussian 16:  ES64L-G16RevC.01  3-Jul-2019

 ----------------------------------------------------------------------
 #t hf aug-cc-pvdz iop(5/13=1,5/36=2,99/5=2) pseudo=read geom=check gue
 ss=(read,tcheck) scf=(maxcycle=1)
 ----------------------------------------------------------------------
 -----
 title
 -----
 Structure from the checkpoint file:  "E2SN2_94_mol1.chk"
 Charge = -1 Multiplicity = 1

                         Standard orientation:
 ---------------------------------------------------------------------
 Center     Atomic      Atomic             Coordinates (Angstroms)
 Number     Number       Type             X           Y           Z
 ---------------------------------------------------------------------
      1          6           0        0.418778   -0.186408    0.367489
      2          6           0       -0.644109    0.860122    0.074025
      3         17           0        0.406407   -1.536996   -0.894455
      4          1           0       -0.132937    1.902763    2.374095
      5          1           0       -0.502376    1.514979    1.088021
      6          6           0        1.753481    0.425372    0.249325
      7          7           0        2.816412    0.909273    0.123464
      8          7           0        0.296262   -0.774584    1.674206
      9          1           0       -0.613101   -1.229176    1.713367
     10          1           0        0.236814    0.056637    2.297533
     11          6           0       -0.439486    1.704043   -1.173106
     12          1           0        0.495541    2.263535   -1.087909
     13          1           0       -0.406015    1.097351   -2.083745
     14          1           0       -1.253544    2.427309   -1.266312
     15          6           0       -1.957522    0.266872    0.144995
     16          7           0       -3.044126   -0.181042    0.230089
 ---------------------------------------------------------------------

 SCF Done:  E(RHF) =  -816.340764249     A.U. after    2 cycles

 The electronic state is 1-A.
 Alpha  occ. eigenvalues -- -103.54931 -15.53954 -15.52199 -15.50753 -11.27680
 Alpha  occ. eigenvalues --  -11.18946 -11.17624 -11.15015 -11.13403 -10.58257
 Alpha  occ. eigenvalues --   -8.23961  -8.23686  -8.23680  -1.13098  -1.06727
 Alpha  occ. eigenvalues --   -1.05791  -1.01302  -0.95235  -0.82510  -0.78104
 Alpha  occ. eigenvalues --   -0.59951  -0.58989  -0.54514  -0.51659  -0.47879
 Alpha  occ. eigenvalues --   -0.45327  -0.44920  -0.43600  -0.42627  -0.40894
 Alpha  occ. eigenvalues --   -0.36997  -0.35925  -0.35686  -0.33824  -0.33186
 Alpha  occ. eigenvalues --   -0.32437  -0.30452  -0.11893
 Alpha virt. eigenvalues --    0.12423   0.14086   0.14764   0.15450   0.17535
 Alpha virt. eigenvalues --    0.17759   0.18578   0.19572   0.19794   0.20701
 Alpha virt. eigenvalues --    0.22221   0.23071   0.23438   0.24322   0.24979

 Mulliken charges:
               1
     1  C    0.839216
     2  C    0.301752
     3  Cl  -0.226639
     4  H   -0.494599
     5  H   -0.062292
     6  C   -0.464136
     7  N   -0.230894
     8  N   -0.615073
     9  H    0.024808
    10  H    0.115375
    11  C    0.638653
    12  H   -0.046939
    13  H   -0.005786
    14  H   -0.018901
    15  C   -0.426275
    16  N   -0.328269
 Sum of Mulliken charges =  -1.00000

 Dipole moment (field-independent basis, Debye):
    X=              0.0333    Y=             -3.6089    Z=             -6.4100  Tot=              7.3562

 Test job not archived.
 1\1\GINC-SE462\SP\RHF\Aug-CC-pVDZ\C5H7Cl1N3(1-)\OHZDE\09-Apr-2025\0\\#
 t hf aug-cc-pvdz iop(5/13=1,5/36=2,99/5=2) pseudo=read geom=check gues
 s=(read,tcheck) scf=(maxcycle=1)\\title\\-1,1\C,0,-0.03350599,0.089779
 22,-0.34639364\C,0,-0.15492192,0.00616949,1.16666354\Cl,0,1.7282876,0.
 27038801,-0.87574275\H,0,-2.70894474,0.20189045,0.88849427\H,0,-1.3685
 2384,0.03071897,1.22734308\C,0,-0.47635454,-1.1817356,-0.94372466\N,0,
 -0.80071949,-2.2080932,-1.41404311\N,0,-0.80077629,1.16091007,-0.92297
 487\H,0,-0.44477074,2.02905895,-0.52964877\H,0,-1.74547914,1.01677135,

 Normal termination of Gaussian 16 at Wed Apr  9 03:00:38 2025.
