 Gaussian 16, Revision C.01,

 ----------------------------------------------------------------------
 #t hf aug-cc-pvdz symm=none int=(grid=ultrafine) guess=(read,tcheck) s
 table=(opt,rrhf)
 ----------------------------------------------------------------------
 -----
 title
 -----
 Symbolic Z-matrix:
 Charge = -1 Multiplicity = 1

 SCF Done:  E(RHF) =  -456.167167424     A.U. after   17 cycles
 Normal termination of Gaussian 16 at Wed Apr  9 02:33:08 2025.
 Gaussian 16:  ES64L-G16RevC.01  3-Jul-2019

 ----------------------------------------------------------------------
 #t hf aug-cc-pvdz iop(5/13=1,5/36=2,99/5=2) pseudo=read geom=check gue
 ss=(read,tcheck) scf=(maxcycle=1)
 ----------------------------------------------------------------------
 -----
 title
 -----
 Structure from the checkpoint file:  "E2SN2_136_mol1.chk"
 Charge = -1 Multiplicity = 1

                         Standard orientation:
 ---------------------------------------------------------------------
 Center     Atomic      Atomic             Coordinates (Angstroms)
 Number     Number       Type             X           Y           Z
 ---------------------------------------------------------------------
      1          6           0       -0.433788   -0.475520   -0.096987
      2          6           0        0.559434    0.568252    0.375286
      3          9           0       -0.317042   -0.699766   -1.481272
      4          1           0       -0.106922    0.098224    2.775889
      5          1           0        0.341108    0.472046    1.596824
      6          7           0       -0.308726   -1.741440    0.571293
      7          1           0       -0.360369   -1.499779    1.573285
      8          1           0        0.642601   -2.062407    0.405970
      9          6           0       -1.816258    0.028559    0.102082
     10          7           0       -2.911215    0.440290    0.197081
     11          6           0        1.899486    0.104708    0.130589
     12          7           0        3.005937   -0.276911   -0.016794
     13          6           0        0.308524    1.987133   -0.113454
     14          1           0        1.124804    2.641881    0.202057
     15          1           0        0.219439    2.047368   -1.203449
     16          1           0       -0.613637    2.368189    0.334713
 ---------------------------------------------------------------------

 SCF Done:  E(RHF) =  -456.306426740     A.U. after    2 cycles

 The electronic state is 1-A.
 Alpha  occ. eigenvalues --  -26.00830 -15.53804 -15.51512 -15.50469 -11.28949
 Alpha  occ. eigenvalues --  -11.18360 -11.17128 -11.13582 -11.12909  -1.54186
 Alpha  occ. eigenvalues --   -1.09923  -1.06343  -1.04968  -0.95004  -0.83885
 Alpha  occ. eigenvalues --   -0.78128  -0.68822  -0.64353  -0.62084  -0.55388
 Alpha  occ. eigenvalues --   -0.51875  -0.51356  -0.48897  -0.46728  -0.44200
 Alpha  occ. eigenvalues --   -0.43736  -0.41496  -0.40412  -0.35702  -0.35547
 Alpha  occ. eigenvalues --   -0.32809  -0.32115  -0.30350  -0.11957
 Alpha virt. eigenvalues --    0.12558   0.14195   0.14726   0.15562   0.17524
 Alpha virt. eigenvalues --    0.18420   0.18743   0.19723   0.20169   0.20805
 Alpha virt. eigenvalues --    0.22431   0.23879   0.24319   0.24787   0.25990

 Mulliken charges:
               1
     1  C    0.968146
     2  C    0.246082
     3  F   -0.485741
     4  H   -0.535335
     5  H   -0.051220
     6  N   -0.491996
     7  H    0.154693
     8  H    0.014911
     9  C   -0.386320
    10  N   -0.219694
    11  C   -0.439269
    12  N   -0.323058
    13  C    0.610599
    14  H   -0.056581
    15  H    0.009523
    16  H   -0.014742
 Sum of Mulliken charges =  -1.00000

 Dipole moment (field-independent basis, Debye):
    X=              0.2819    Y=              1.0414    Z=             -5.7919  Tot=              5.8915

 Test job not archived.
 1\1\GINC-SE334\SP\RHF\Aug-CC-pVDZ\C5H7F1N3(1-)\OHZDE\09-Apr-2025\0\\#t
  hf aug-cc-pvdz iop(5/13=1,5/36=2,99/5=2) pseudo=read geom=check guess
 =(read,tcheck) scf=(maxcycle=1)\\title\\-1,1\C,0,-0.0935162,-0.1007155
 7,-0.392877\C,0,-0.05421374,0.00775818,1.11897044\F,0,1.19726155,-0.27
 892722,-0.924191\H,0,-2.58872552,-0.02374416,1.17474636\H,0,-1.2821423
 3,0.01978333,1.32176273\N,0,-0.92579246,-1.16699612,-0.8778024\H,0,-1.
 83561248,-0.99996938,-0.42021733\H,0,-0.55904839,-2.02594153,-0.473962
 49\C,0,-0.58064576,1.17780433,-0.96997336\N,0,-0.9052433,2.2028537,-1.

 Normal termination of Gaussian 16 at Wed Apr  9 02:33:16 2025.
