 Gaussian 16, Revision C.01,

 ----------------------------------------------------------------------
 #t hf aug-cc-pvdz symm=none int=(grid=ultrafine) guess=(read,tcheck) s
 table=(opt,rrhf)
 ----------------------------------------------------------------------
 -----
 title
 -----
 Symbolic Z-matrix:
 Charge = -1 Multiplicity = 1

 SCF Done:  E(RHF) =  -932.860186938     A.U. after   16 cycles
 Normal termination of Gaussian 16 at Wed Apr  9 02:35:36 2025.
 Gaussian 16:  ES64L-G16RevC.01  3-Jul-2019

 ----------------------------------------------------------------------
 #t hf aug-cc-pvdz iop(5/13=1,5/36=2,99/5=2) pseudo=read geom=check gue
 ss=(read,tcheck) scf=(maxcycle=1)
 ----------------------------------------------------------------------
 -----
 title
 -----
 Structure from the checkpoint file:  "E2SN2_169_mol1.chk"
 Charge = -1 Multiplicity = 1

                         Standard orientation:
 ---------------------------------------------------------------------
 Center     Atomic      Atomic             Coordinates (Angstroms)
 Number     Number       Type             X           Y           Z
 ---------------------------------------------------------------------
      1          6           0       -0.046221    0.000094   -0.264399
      2          1           0        0.906513   -1.029840    1.312512
      3         17           0       -0.577096    2.007845   -0.156575
      4          9           0        0.372393   -1.877198   -0.609958
      5          6           0        1.024135   -0.079808    0.798605
      6          1           0        0.155292    0.016142   -1.316492
      7          1           0        0.956823    0.742733    1.511609
      8          7           0       -1.362817   -0.564750    0.092140
      9          8           0       -1.561898   -0.824715    1.275762
     10          8           0       -2.176333   -0.691266   -0.812519
     11          6           0        2.340820   -0.057001    0.170041
     12          7           0        3.424804   -0.009461   -0.276093
 ---------------------------------------------------------------------

 SCF Done:  E(RHF) =  -933.017309249     A.U. after    2 cycles

 The electronic state is 1-A.
 Alpha  occ. eigenvalues -- -103.49298 -25.81196 -20.49208 -20.49177 -15.79761
 Alpha  occ. eigenvalues --  -15.52558 -11.28249 -11.18297 -11.17801 -10.52590
 Alpha  occ. eigenvalues --   -8.18256  -8.18059  -8.18052  -1.42181  -1.30993
 Alpha  occ. eigenvalues --   -1.23801  -1.07065  -1.02327  -0.93510  -0.88508
 Alpha  occ. eigenvalues --   -0.71459  -0.64980  -0.62021  -0.60118  -0.58295
 Alpha  occ. eigenvalues --   -0.53305  -0.49983  -0.43417  -0.42224  -0.41242
 Alpha  occ. eigenvalues --   -0.39688  -0.39151  -0.38963  -0.34975  -0.34270
 Alpha  occ. eigenvalues --   -0.33628  -0.31719  -0.30945  -0.30830
 Alpha virt. eigenvalues --    0.13758   0.15281   0.15779   0.17683   0.18156
 Alpha virt. eigenvalues --    0.20227   0.21898   0.22872   0.23854   0.24012
 Alpha virt. eigenvalues --    0.25029   0.26652   0.26996   0.27936   0.28597

 Mulliken charges:
               1
     1  C    0.719286
     2  H    0.199572
     3  Cl  -0.471919
     4  F   -0.831872
     5  C    0.582789
     6  H   -0.291439
     7  H    0.066000
     8  N    0.787932
     9  O   -0.693357
    10  O   -0.691392
    11  C   -0.073769
    12  N   -0.301831
 Sum of Mulliken charges =  -1.00000

 Dipole moment (field-independent basis, Debye):
    X=             -0.4175    Y=              2.7775    Z=              2.4685  Tot=              3.7393

 Test job not archived.
 1\1\GINC-SE247\SP\RHF\Aug-CC-pVDZ\C3H3Cl1F1N2O2(1-)\OHZDE\09-Apr-2025\
 0\\#t hf aug-cc-pvdz iop(5/13=1,5/36=2,99/5=2) pseudo=read geom=check
 guess=(read,tcheck) scf=(maxcycle=1)\\title\\-1,1\C,0,0.40170211,-0.04
 604263,0.02972318\H,0,1.27845022,1.77977708,0.62369985\Cl,0,-1.6153443
 9,-0.47908021,0.29149322\F,0,2.31179277,0.13620422,-0.34069787\C,0,0.3
 892568,1.4635179,0.08535833\H,0,0.4987497,-0.61070971,-0.87553771\H,0,
 -0.50406542,1.84880413,0.57831817\N,0,0.90326699,-0.73882705,1.2330841
 7\O,0,1.03512966,-0.06928402,2.2541135\O,0,1.10899128,-1.94075327,1.13

 Normal termination of Gaussian 16 at Wed Apr  9 02:35:42 2025.
