 Gaussian 16, Revision C.01,

 ----------------------------------------------------------------------
 #t hf aug-cc-pvdz symm=none int=(grid=ultrafine) guess=(read,tcheck) s
 table=(opt,rrhf)
 ----------------------------------------------------------------------
 -----
 title
 -----
 Symbolic Z-matrix:
 Charge = -1 Multiplicity = 1

 SCF Done:  E(RHF) =  -823.507455941     A.U. after   14 cycles
 Normal termination of Gaussian 16 at Wed Apr  9 02:44:20 2025.
 Gaussian 16:  ES64L-G16RevC.01  3-Jul-2019

 ----------------------------------------------------------------------
 #t hf aug-cc-pvdz iop(5/13=1,5/36=2,99/5=2) pseudo=read geom=check gue
 ss=(read,tcheck) scf=(maxcycle=1)
 ----------------------------------------------------------------------
 -----
 title
 -----
 Structure from the checkpoint file:  "E2SN2_259_mol2.chk"
 Charge = -1 Multiplicity = 1

                         Standard orientation:
 ---------------------------------------------------------------------
 Center     Atomic      Atomic             Coordinates (Angstroms)
 Number     Number       Type             X           Y           Z
 ---------------------------------------------------------------------
      1          6           0       -0.751463   -0.241161    0.426250
      2          6           0       -0.463772    1.170682   -0.096698
      3          9           0       -1.059957   -0.155374    1.791321
      4          1           0       -1.361610    1.771127    0.105729
      5          1           0        0.149875   -0.854855    0.315214
      6          6           0       -1.907512   -0.859001   -0.239575
      7          7           0       -2.842825   -1.319099   -0.780617
      8          6           0       -0.178461    1.134273   -1.590958
      9          1           0        0.684461    0.489475   -1.774983
     10          1           0        0.065388    2.145089   -1.923818
     11          1           0       -1.034318    0.767757   -2.163398
     12          7           0        0.662793    1.777758    0.598146
     13          1           0        1.483413    1.203636    0.396378
     14          1           0        0.502547    1.701195    1.596842
     15         17           0        2.595137   -0.956731   -0.140628
 ---------------------------------------------------------------------

 SCF Done:  E(RHF) =  -823.633585899     A.U. after    2 cycles

 The electronic state is 1-A.
 Alpha  occ. eigenvalues -- -103.37928 -26.01299 -15.54893 -15.48186 -11.24128
 Alpha  occ. eigenvalues --  -11.19559 -11.16806 -11.11264 -10.41001  -8.06597
 Alpha  occ. eigenvalues --   -8.06575  -8.06566  -1.54366  -1.08766  -1.05210
 Alpha  occ. eigenvalues --   -0.92635  -0.85347  -0.83210  -0.71998  -0.67670
 Alpha  occ. eigenvalues --   -0.64620  -0.61978  -0.56178  -0.51906  -0.49682
 Alpha  occ. eigenvalues --   -0.46187  -0.44601  -0.41660  -0.40457  -0.38655
 Alpha  occ. eigenvalues --   -0.36916  -0.35740  -0.27961  -0.21125  -0.21084
 Alpha  occ. eigenvalues --   -0.20984
 Alpha virt. eigenvalues --    0.12158   0.13368   0.14560   0.15209   0.16500
 Alpha virt. eigenvalues --    0.17974   0.18466   0.19678   0.20732   0.22833
 Alpha virt. eigenvalues --    0.23491   0.24307   0.24834   0.25198   0.25675

 Mulliken charges:
               1
     1  C    1.340147
     2  C   -0.395760
     3  F   -0.458062
     4  H   -0.221495
     5  H   -0.109007
     6  C   -0.427354
     7  N   -0.254782
     8  C    0.768325
     9  H   -0.011766
    10  H   -0.024515
    11  H   -0.100362
    12  N   -0.288837
    13  H    0.107328
    14  H    0.015576
    15  Cl  -0.939435
 Sum of Mulliken charges =  -1.00000

 Dipole moment (field-independent basis, Debye):
    X=             -6.2934    Y=              4.0371    Z=              0.3826  Tot=              7.4868

 Test job not archived.
 1\1\GINC-SE113\SP\RHF\Aug-CC-pVDZ\C4H7Cl1F1N2(1-)\OHZDE\09-Apr-2025\0\
 \#t hf aug-cc-pvdz iop(5/13=1,5/36=2,99/5=2) pseudo=read geom=check gu
 ess=(read,tcheck) scf=(maxcycle=1)\\title\\-1,1\C,0,-0.366085,0.128548
 ,0.0621\C,0,-0.430137,-0.076516,-1.455592\F,0,0.417244,-0.89385,0.6162
 16\H,0,0.606998,-0.070326,-1.818825\H,0,-1.377508,0.05028,0.477138\C,0
 ,0.267406,1.403957,0.427502\N,0,0.789784,2.423378,0.686596\C,0,-1.2252
 5,1.044604,-2.108604\H,0,-2.236494,1.054483,-1.694416\H,0,-1.290301,0.
 84706,-3.180403\H,0,-0.760047,2.021479,-1.954285\N,0,-1.029821,-1.3591

 Normal termination of Gaussian 16 at Wed Apr  9 02:44:26 2025.
