 Gaussian 16, Revision C.01,

 ----------------------------------------------------------------------
 #t hf aug-cc-pvdz symm=none int=(grid=ultrafine) guess=(read,tcheck) s
 table=(opt,rrhf)
 ----------------------------------------------------------------------
 -----
 title
 -----
 Symbolic Z-matrix:
 Charge = -1 Multiplicity = 1

 SCF Done:  E(RHF) =  -888.944439361     A.U. after   17 cycles
 Normal termination of Gaussian 16 at Wed Apr  9 02:30:00 2025.
 Gaussian 16:  ES64L-G16RevC.01  3-Jul-2019

 ----------------------------------------------------------------------
 #t hf aug-cc-pvdz iop(5/13=1,5/36=2,99/5=2) pseudo=read geom=check gue
 ss=(read,tcheck) scf=(maxcycle=1)
 ----------------------------------------------------------------------
 -----
 title
 -----
 Structure from the checkpoint file:  "E2SN2_118_mol1.chk"
 Charge = -1 Multiplicity = 1

                         Standard orientation:
 ---------------------------------------------------------------------
 Center     Atomic      Atomic             Coordinates (Angstroms)
 Number     Number       Type             X           Y           Z
 ---------------------------------------------------------------------
      1          6           0        0.679970   -0.156800    0.266608
      2          6           0       -0.477176   -0.877857   -0.385470
      3         17           0        0.640582    1.702490   -0.146668
      4          1           0       -0.421913   -2.750197    1.372909
      5          1           0       -0.531563   -1.893885    0.244433
      6          1           0       -0.338141   -1.025911   -1.452501
      7          7           0        0.701538   -0.361861    1.650475
      8          1           0        1.631512   -0.286804    2.039247
      9          1           0        0.270212   -1.295608    1.845239
     10          7           0       -1.778609   -0.256180   -0.200715
     11          8           0       -2.059819    0.198291    0.908575
     12          8           0       -2.563170   -0.303401   -1.158801
     13          6           0        1.912374   -0.585343   -0.422461
     14          7           0        2.904628   -0.971822   -0.922077
 ---------------------------------------------------------------------

 SCF Done:  E(RHF) =  -889.088965833     A.U. after    2 cycles

 The electronic state is 1-A.
 Alpha  occ. eigenvalues -- -103.53978 -20.48925 -20.48517 -15.78434 -15.55351
 Alpha  occ. eigenvalues --  -15.50608 -11.28902 -11.20261 -11.17511 -10.57274
 Alpha  occ. eigenvalues --   -8.22965  -8.22701  -8.22692  -1.40926  -1.22548
 Alpha  occ. eigenvalues --   -1.13130  -1.07518  -1.00796  -0.96586  -0.83428
 Alpha  occ. eigenvalues --   -0.71732  -0.64088  -0.62727  -0.60949  -0.59588
 Alpha  occ. eigenvalues --   -0.54727  -0.50430  -0.46314  -0.45811  -0.43590
 Alpha  occ. eigenvalues --   -0.39083  -0.38188  -0.37456  -0.36469  -0.35105
 Alpha  occ. eigenvalues --   -0.34656  -0.33390  -0.29353  -0.13240
 Alpha virt. eigenvalues --    0.13370   0.14049   0.17177   0.17615   0.18747
 Alpha virt. eigenvalues --    0.19113   0.19949   0.21131   0.21572   0.22087
 Alpha virt. eigenvalues --    0.23344   0.23714   0.24531   0.25479   0.26182

 Mulliken charges:
               1
     1  C    0.740442
     2  C    0.930012
     3  Cl  -0.250588
     4  H   -0.448632
     5  H   -0.061949
     6  H   -0.256311
     7  N   -0.457558
     8  H   -0.040264
     9  H    0.116826
    10  N    0.432059
    11  O   -0.610038
    12  O   -0.649169
    13  C   -0.161575
    14  N   -0.283253
 Sum of Mulliken charges =  -1.00000

 Dipole moment (field-independent basis, Debye):
    X=              2.7624    Y=              5.1634    Z=             -2.1191  Tot=              6.2275

 Test job not archived.
 1\1\GINC-SE149\SP\RHF\Aug-CC-pVDZ\C3H5Cl1N3O2(1-)\OHZDE\09-Apr-2025\0\
 \#t hf aug-cc-pvdz iop(5/13=1,5/36=2,99/5=2) pseudo=read geom=check gu
 ess=(read,tcheck) scf=(maxcycle=1)\\title\\-1,1\C,0,-0.25820868,-0.098
 35082,-0.33837612\C,0,-0.14984029,-0.02164534,1.16711013\Cl,0,1.459998
 8,-0.31470103,-1.1322682\H,0,-2.56194431,-0.8506003,1.47564716\H,0,-1.
 26894354,-0.26297286,1.51556127\H,0,0.22582276,0.93537877,1.5175213\N,
 0,-1.12807799,-1.11733937,-0.74160582\H,0,-1.55321853,-0.93162618,-1.6
 3960146\H,0,-1.84409249,-1.24718197,0.01093744\N,0,0.66281921,-1.05772

 Normal termination of Gaussian 16 at Wed Apr  9 02:30:07 2025.
