 Gaussian 16, Revision C.01,

 ----------------------------------------------------------------------
 #t hf aug-cc-pvdz symm=none int=(grid=ultrafine) guess=(read,tcheck) s
 table=(opt,rrhf)
 ----------------------------------------------------------------------
 -----
 title
 -----
 Symbolic Z-matrix:
 Charge = -1 Multiplicity = 1

 SCF Done:  E(RHF) =  -1348.02738310     A.U. after   16 cycles
 Normal termination of Gaussian 16 at Wed Apr  9 02:47:38 2025.
 Gaussian 16:  ES64L-G16RevC.01  3-Jul-2019

 ----------------------------------------------------------------------
 #t hf aug-cc-pvdz iop(5/13=1,5/36=2,99/5=2) pseudo=read geom=check gue
 ss=(read,tcheck) scf=(maxcycle=1)
 ----------------------------------------------------------------------
 -----
 title
 -----
 Structure from the checkpoint file:  "E2SN2_294_mol2.chk"
 Charge = -1 Multiplicity = 1

                         Standard orientation:
 ---------------------------------------------------------------------
 Center     Atomic      Atomic             Coordinates (Angstroms)
 Number     Number       Type             X           Y           Z
 ---------------------------------------------------------------------
      1          6           0        0.166419   -0.729511   -0.214292
      2          6           0       -0.041175    0.775418   -0.317184
      3         17           0        1.764402   -1.136070   -1.030071
      4          1           0       -0.951875    1.049325    0.226402
      5          1           0       -0.149293    1.033636   -1.367426
      6          6           0        0.326036   -1.215028    1.169050
      7          7           0        0.381419   -1.719187    2.229681
      8          7           0       -0.899268   -1.347031   -0.919213
      9          1           0       -1.784379   -0.846669   -0.732094
     10          1           0       -0.994181   -2.319929   -0.657450
     11          7           0        1.100220    1.556382    0.216399
     12          8           0        1.607918    2.395490   -0.526439
     13          8           0        1.444614    1.335645    1.375590
     14         17           0       -3.371744    0.478313   -0.074409
 ---------------------------------------------------------------------

 SCF Done:  E(RHF) =  -1348.18380733     A.U. after    2 cycles

 The electronic state is 1-A.
 Alpha  occ. eigenvalues -- -103.57017-103.39892 -20.52914 -20.52722 -15.82190
 Alpha  occ. eigenvalues --  -15.55562 -15.52694 -11.30706 -11.21945 -11.20498
 Alpha  occ. eigenvalues --  -10.60361 -10.43010  -8.26067  -8.25784  -8.25773
 Alpha  occ. eigenvalues --   -8.08615  -8.08580  -8.08561  -1.45143  -1.26923
 Alpha  occ. eigenvalues --   -1.15446  -1.08001  -1.03659  -0.99687  -0.85581
 Alpha  occ. eigenvalues --   -0.84133  -0.76461  -0.68973  -0.65181  -0.64832
 Alpha  occ. eigenvalues --   -0.61010  -0.57027  -0.53415  -0.51262  -0.46840
 Alpha  occ. eigenvalues --   -0.46045  -0.42363  -0.41843  -0.39193  -0.38437
 Alpha  occ. eigenvalues --   -0.37838  -0.36689  -0.35410  -0.31897  -0.23445
 Alpha  occ. eigenvalues --   -0.23185  -0.22986
 Alpha virt. eigenvalues --    0.13040   0.14451   0.16032   0.16056   0.17473
 Alpha virt. eigenvalues --    0.18286   0.18820   0.20209   0.21640   0.21920
 Alpha virt. eigenvalues --    0.22961   0.23590   0.25007   0.25248   0.25777

 Mulliken charges:
               1
     1  C    0.444919
     2  C    1.371795
     3  Cl  -0.201441
     4  H   -0.066529
     5  H   -0.063809
     6  C   -0.157275
     7  N   -0.259438
     8  N   -0.459143
     9  H    0.089542
    10  H    0.007168
    11  N    0.390195
    12  O   -0.598196
    13  O   -0.597569
    14  Cl  -0.900220
 Sum of Mulliken charges =  -1.00000

 Dipole moment (field-independent basis, Debye):
    X=              6.9614    Y=             -2.1036    Z=             -2.4323  Tot=              7.6682

 Test job not archived.
 1\1\GINC-SE460\SP\RHF\Aug-CC-pVDZ\C3H4Cl2N3O2(1-)\OHZDE\09-Apr-2025\0\
 \#t hf aug-cc-pvdz iop(5/13=1,5/36=2,99/5=2) pseudo=read geom=check gu
 ess=(read,tcheck) scf=(maxcycle=1)\\title\\-1,1\C,0,0.028584,0.036674,
 0.021463\C,0,-0.589062,-0.032382,-1.368586\Cl,0,1.838328,-0.245614,-0.
 150221\H,0,-1.656027,0.20548,-1.298629\H,0,-0.462759,-1.043081,-1.7479
 41\C,0,-0.07782,1.364295,0.654662\N,0,-0.17998,2.35233,1.283575\N,0,-0
 .546786,-1.011069,0.786393\H,0,-1.556685,-1.08746,0.578872\H,0,-0.4117
 93,-0.855674,1.777195\N,0,0.054633,0.888156,-2.335884\O,0,0.473941,0.4

 Normal termination of Gaussian 16 at Wed Apr  9 02:47:45 2025.
