 Gaussian 16, Revision C.01,

 ----------------------------------------------------------------------
 #t hf aug-cc-pvdz symm=none int=(grid=ultrafine) guess=(read,tcheck) s
 table=(opt,rrhf)
 ----------------------------------------------------------------------
 -----
 title
 -----
 Symbolic Z-matrix:
 Charge = -1 Multiplicity = 1

 SCF Done:  E(RHF) =  -461.011409290     A.U. after   15 cycles
 Normal termination of Gaussian 16 at Wed Apr  9 02:36:29 2025.
 Gaussian 16:  ES64L-G16RevC.01  3-Jul-2019

 ----------------------------------------------------------------------
 #t hf aug-cc-pvdz iop(5/13=1,5/36=2,99/5=2) pseudo=read geom=check gue
 ss=(read,tcheck) scf=(maxcycle=1)
 ----------------------------------------------------------------------
 -----
 title
 -----
 Structure from the checkpoint file:  "E2SN2_177_mol1.chk"
 Charge = -1 Multiplicity = 1

                         Standard orientation:
 ---------------------------------------------------------------------
 Center     Atomic      Atomic             Coordinates (Angstroms)
 Number     Number       Type             X           Y           Z
 ---------------------------------------------------------------------
      1          6           0        0.634391   -0.357969    0.488405
      2          1           0       -0.386633   -1.803054   -0.729182
      3          9           0       -0.312840    0.618125    1.634984
      4          9           0        1.684931   -1.335435   -0.525607
      5          6           0       -0.625204   -1.095259    0.063060
      6          1           0        1.202644   -0.697830    1.334398
      7          1           0       -0.996005   -1.635183    0.936082
      8          6           0        1.054006    0.841938   -0.209633
      9          7           0        1.400574    1.808010   -0.779762
     10          6           0       -1.698536   -0.210438   -0.389697
     11          7           0       -2.594397    0.409451   -0.825739
 ---------------------------------------------------------------------

 SCF Done:  E(RHF) =  -461.149021795     A.U. after    2 cycles

 The electronic state is 1-A.
 Alpha  occ. eigenvalues --  -25.85242 -25.84271 -15.51051 -15.50025 -11.25303
 Alpha  occ. eigenvalues --  -11.16884 -11.16659 -11.16120  -1.35710  -1.34583
 Alpha  occ. eigenvalues --   -1.05494  -1.03949  -0.95052  -0.81646  -0.63069
 Alpha  occ. eigenvalues --   -0.56427  -0.53649  -0.50863  -0.48919  -0.45470
 Alpha  occ. eigenvalues --   -0.43355  -0.42667  -0.41359  -0.41258  -0.40444
 Alpha  occ. eigenvalues --   -0.36899  -0.32614  -0.32307  -0.31556  -0.31116
 Alpha virt. eigenvalues --    0.13239   0.14711   0.15219   0.18269   0.19473
 Alpha virt. eigenvalues --    0.21906   0.22713   0.23679   0.24535   0.25073
 Alpha virt. eigenvalues --    0.25823   0.26120   0.26777   0.27265   0.29258

 Mulliken charges:
               1
     1  C    1.455482
     2  H    0.083063
     3  F   -0.769805
     4  F   -0.771827
     5  C    0.249851
     6  H   -0.347633
     7  H    0.164660
     8  C   -0.599337
     9  N   -0.223774
    10  C    0.098712
    11  N   -0.339391
 Sum of Mulliken charges =  -1.00000

 Dipole moment (field-independent basis, Debye):
    X=             -0.7604    Y=             -4.1071    Z=              1.1725  Tot=              4.3384

 Test job not archived.
 1\1\GINC-SE159\SP\RHF\Aug-CC-pVDZ\C4H3F2N2(1-)\OHZDE\09-Apr-2025\0\\#t
  hf aug-cc-pvdz iop(5/13=1,5/36=2,99/5=2) pseudo=read geom=check guess
 =(read,tcheck) scf=(maxcycle=1)\\title\\-1,1\C,0,0.66740169,-0.0579786
 7,0.01984362\H,0,1.74054867,1.80152679,0.08209774\F,0,-1.11085349,-0.0
 2208363,0.05402163\F,0,2.41137901,-0.21274465,-0.12810301\C,0,0.706672
 7,1.46142293,0.05099302\H,0,0.58266315,-0.57961049,-0.91548563\H,0,0.2
 3219806,1.8174669,-0.86513175\C,0,0.6907378,-0.81859927,1.25435616\N,0
 ,0.71938348,-1.43629173,2.25239775\C,0,-0.02544062,2.04448215,1.175266

 Normal termination of Gaussian 16 at Wed Apr  9 02:36:35 2025.
