 Gaussian 16, Revision C.01,

 ----------------------------------------------------------------------
 #t hf aug-cc-pvdz symm=none int=(grid=ultrafine) guess=(read,tcheck) s
 table=(opt,rrhf)
 ----------------------------------------------------------------------
 -----
 title
 -----
 Symbolic Z-matrix:
 Charge = -1 Multiplicity = 1

 SCF Done:  E(RHF) =  -891.308677028     A.U. after   16 cycles
 Normal termination of Gaussian 16 at Wed Apr  9 02:53:36 2025.
 Gaussian 16:  ES64L-G16RevC.01  3-Jul-2019

 ----------------------------------------------------------------------
 #t hf aug-cc-pvdz iop(5/13=1,5/36=2,99/5=2) pseudo=read geom=check gue
 ss=(read,tcheck) scf=(maxcycle=1)
 ----------------------------------------------------------------------
 -----
 title
 -----
 Structure from the checkpoint file:  "E2SN2_364_mol2.chk"
 Charge = -1 Multiplicity = 1

                         Standard orientation:
 ---------------------------------------------------------------------
 Center     Atomic      Atomic             Coordinates (Angstroms)
 Number     Number       Type             X           Y           Z
 ---------------------------------------------------------------------
      1          6           0        0.929750    0.066469    0.063212
      2          6           0       -0.362160    0.591651   -0.599695
      3         17           0        0.809435   -1.790817   -0.058097
      4          1           0       -0.413356    0.237272   -1.631615
      5          6           0        2.115239    0.487384   -0.784196
      6          1           0        3.008972    0.002712   -0.389435
      7          1           0        2.231451    1.570718   -0.681107
      8          1           0        1.980560    0.202243   -1.830040
      9          7           0        1.157929    0.448924    1.404525
     10          1           0        0.298518    0.378938    1.936331
     11          1           0        1.455617    1.451407    1.399293
     12          7           0       -0.499942    1.997198   -0.469504
     13          1           0        0.229974    2.454384    0.126829
     14          1           0       -0.513413    2.448661   -1.371947
     15          7           0       -1.594939   -0.075566    0.015201
     16          8           0       -1.762680    0.019094    1.228362
     17          8           0       -2.378463   -0.629119   -0.757144
     18          1           0        1.552131    3.110824    0.932124
 ---------------------------------------------------------------------

 SCF Done:  E(RHF) =  -891.456700655     A.U. after    2 cycles

 The electronic state is 1-A.
 Alpha  occ. eigenvalues -- -103.52187 -20.49993 -20.49771 -15.78331 -15.48975
 Alpha  occ. eigenvalues --  -15.47151 -11.23273 -11.22502 -11.11824 -10.55561
 Alpha  occ. eigenvalues --   -8.21258  -8.21015  -8.21003  -1.41874  -1.23751
 Alpha  occ. eigenvalues --   -1.10995  -1.04283  -0.98709  -0.89475  -0.87067
 Alpha  occ. eigenvalues --   -0.74218  -0.67963  -0.62962  -0.60727  -0.60335
 Alpha  occ. eigenvalues --   -0.57220  -0.54169  -0.52526  -0.47713  -0.45640
 Alpha  occ. eigenvalues --   -0.42834  -0.42252  -0.39792  -0.39107  -0.37450
 Alpha  occ. eigenvalues --   -0.35655  -0.33755  -0.33060  -0.29239  -0.26545
 Alpha  occ. eigenvalues --   -0.11490
 Alpha virt. eigenvalues --    0.12114   0.13426   0.14739   0.15379   0.16286
 Alpha virt. eigenvalues --    0.17843   0.18438   0.19794   0.20339   0.21582
 Alpha virt. eigenvalues --    0.21908   0.22073   0.23807   0.24414   0.25199

 Mulliken charges:
               1
     1  C   -0.940593
     2  C    1.888906
     3  Cl  -0.286644
     4  H   -0.219488
     5  C    0.926484
     6  H   -0.011572
     7  H   -0.069101
     8  H   -0.013802
     9  N   -0.400104
    10  H    0.047096
    11  H    0.073529
    12  N   -0.417563
    13  H   -0.035850
    14  H    0.017792
    15  N    0.373079
    16  O   -0.635313
    17  O   -0.636290
    18  H   -0.660564
 Sum of Mulliken charges =  -1.00000

 Dipole moment (field-independent basis, Debye):
    X=             -1.5473    Y=             -5.8649    Z=             -5.3195  Tot=              8.0678

 Test job not archived.
 1\1\GINC-SE454\SP\RHF\Aug-CC-pVDZ\C3H9Cl1N3O2(1-)\OHZDE\09-Apr-2025\0\
 \#t hf aug-cc-pvdz iop(5/13=1,5/36=2,99/5=2) pseudo=read geom=check gu
 ess=(read,tcheck) scf=(maxcycle=1)\\title\\-1,1\C,0,-0.033595,0.006795
 ,-0.045966\C,0,-0.287577,-0.08172,-1.566477\Cl,0,1.823216,0.018429,0.1
 29589\H,0,0.179429,0.770545,-2.065088\C,0,-0.531515,1.350426,0.45141\H
 ,0,-0.229635,1.464384,1.493228\H,0,-1.624857,1.339635,0.40417\H,0,-0.1
 18737,2.172769,-0.137318\N,0,-0.587662,-1.019046,0.752857\H,0,-0.44900
 8,-1.918533,0.307884\H,0,-1.616694,-0.844871,0.819\N,0,-1.663061,-0.24

 Normal termination of Gaussian 16 at Wed Apr  9 02:53:45 2025.
