 Gaussian 16, Revision C.01,

 ----------------------------------------------------------------------
 #t hf aug-cc-pvdz symm=none int=(grid=ultrafine) guess=(read,tcheck) s
 table=(opt,rrhf)
 ----------------------------------------------------------------------
 -----
 title
 -----
 Symbolic Z-matrix:
 Charge = -1 Multiplicity = 1

 SCF Done:  E(RHF) =  -935.214408613     A.U. after   16 cycles
 Normal termination of Gaussian 16 at Wed Apr  9 02:59:33 2025.
 Gaussian 16:  ES64L-G16RevC.01  3-Jul-2019

 ----------------------------------------------------------------------
 #t hf aug-cc-pvdz iop(5/13=1,5/36=2,99/5=2) pseudo=read geom=check gue
 ss=(read,tcheck) scf=(maxcycle=1)
 ----------------------------------------------------------------------
 -----
 title
 -----
 Structure from the checkpoint file:  "E2SN2_6_mol2.chk"
 Charge = -1 Multiplicity = 1

                         Standard orientation:
 ---------------------------------------------------------------------
 Center     Atomic      Atomic             Coordinates (Angstroms)
 Number     Number       Type             X           Y           Z
 ---------------------------------------------------------------------
      1          6           0        0.060321    0.189314   -0.284266
      2          6           0       -0.756346   -0.124026    0.986633
      3         17           0        0.126647   -1.194588   -1.395689
      4          1           0       -0.706108    0.817888    1.543265
      5          1           0       -0.517117    1.028042   -0.774165
      6          7           0        1.437944    0.620498    0.096928
      7          8           0        2.433945   -0.003273   -0.265785
      8          8           0        1.471919    1.624268    0.812636
      9          6           0       -0.165125   -1.250477    1.817573
     10          1           0       -0.177645   -2.191185    1.260334
     11          1           0        0.867894   -1.043733    2.112860
     12          1           0       -0.769762   -1.378602    2.718070
     13          7           0       -2.155311   -0.349498    0.677278
     14          1           0       -2.217169   -1.183002    0.099486
     15          1           0       -2.393554    0.457683    0.066740
     16          9           0       -1.921998    1.783009   -0.912641
 ---------------------------------------------------------------------

 SCF Done:  E(RHF) =  -935.376017492     A.U. after    2 cycles

 The electronic state is 1-A.
 Alpha  occ. eigenvalues -- -103.53577 -25.76681 -20.49878 -20.49318 -15.79024
 Alpha  occ. eigenvalues --  -15.45254 -11.20450 -11.14883 -11.11188 -10.56928
 Alpha  occ. eigenvalues --   -8.22657  -8.22376  -8.22359  -1.41912  -1.25833
 Alpha  occ. eigenvalues --   -1.23542  -1.07527  -1.00902  -0.91470  -0.85590
 Alpha  occ. eigenvalues --   -0.74179  -0.67234  -0.62109  -0.61417  -0.59654
 Alpha  occ. eigenvalues --   -0.54156  -0.49265  -0.46768  -0.46072  -0.41467
 Alpha  occ. eigenvalues --   -0.39784  -0.39556  -0.39047  -0.37486  -0.36225
 Alpha  occ. eigenvalues --   -0.35501  -0.35037  -0.33762  -0.33475  -0.30209
 Alpha  occ. eigenvalues --   -0.25050
 Alpha virt. eigenvalues --    0.12420   0.14043   0.14584   0.16050   0.16887
 Alpha virt. eigenvalues --    0.17669   0.18959   0.19750   0.20535   0.22320
 Alpha virt. eigenvalues --    0.23746   0.24845   0.25751   0.26250   0.26620

 Mulliken charges:
               1
     1  C    0.834590
     2  C   -0.071710
     3  Cl  -0.185994
     4  H   -0.118963
     5  H    0.058967
     6  N    0.429590
     7  O   -0.652446
     8  O   -0.626406
     9  C    0.690570
    10  H   -0.069762
    11  H   -0.036579
    12  H   -0.050750
    13  N   -0.457305
    14  H    0.041722
    15  H    0.150376
    16  F   -0.935898
 Sum of Mulliken charges =  -1.00000

 Dipole moment (field-independent basis, Debye):
    X=              3.3965    Y=             -5.5827    Z=              2.0124  Tot=              6.8376

 Test job not archived.
 1\1\GINC-SE227\SP\RHF\Aug-CC-pVDZ\C3H7Cl1F1N2O2(1-)\OHZDE\09-Apr-2025\
 0\\#t hf aug-cc-pvdz iop(5/13=1,5/36=2,99/5=2) pseudo=read geom=check
 guess=(read,tcheck) scf=(maxcycle=1)\\title\\-1,1\C,0,-0.103076,-0.026
 257,-1.414494\C,0,0.132537,-0.185721,0.101873\Cl,0,-1.761288,0.492364,
 -1.783561\H,0,1.183063,-0.491524,0.151315\H,0,0.614577,0.794094,-1.712
 652\N,0,0.210489,-1.309756,-2.109748\O,0,-0.640984,-1.92097,-2.75324\O
 ,0,1.371922,-1.695203,-1.956613\C,0,-0.748124,-1.248259,0.737755\H,0,-
 1.803491,-0.971676,0.66492\H,0,-0.619084,-2.225672,0.263332\H,0,-0.489

 Normal termination of Gaussian 16 at Wed Apr  9 02:59:41 2025.
