 Gaussian 16, Revision C.01,

 ----------------------------------------------------------------------
 #t hf aug-cc-pvdz symm=none int=(grid=ultrafine) guess=(read,tcheck) s
 table=(opt,rrhf)
 ----------------------------------------------------------------------
 -----
 title
 -----
 Symbolic Z-matrix:
 Charge = -1 Multiplicity = 1

 SCF Done:  E(RHF) =  -852.230981106     A.U. after   16 cycles
 Normal termination of Gaussian 16 at Wed Apr  9 02:54:09 2025.
 Gaussian 16:  ES64L-G16RevC.01  3-Jul-2019

 ----------------------------------------------------------------------
 #t hf aug-cc-pvdz iop(5/13=1,5/36=2,99/5=2) pseudo=read geom=check gue
 ss=(read,tcheck) scf=(maxcycle=1)
 ----------------------------------------------------------------------
 -----
 title
 -----
 Structure from the checkpoint file:  "E2SN2_374_mol1.chk"
 Charge = -1 Multiplicity = 1

                         Standard orientation:
 ---------------------------------------------------------------------
 Center     Atomic      Atomic             Coordinates (Angstroms)
 Number     Number       Type             X           Y           Z
 ---------------------------------------------------------------------
      1          6           0       -1.000525    0.780371   -0.081097
      2          1           0        0.630587    1.430256    1.110834
      3         17           0       -1.220629   -1.175354   -0.823162
      4          1           0       -0.923419    2.784254    0.153873
      5          6           0        0.501500    0.915857    0.156700
      6          1           0       -1.341499    1.202021   -1.010953
      7          7           0       -1.838569    0.676778    1.084404
      8          1           0       -2.599055    0.042965    0.880014
      9          1           0       -2.184669    1.605407    1.273871
     10          7           0        1.104427    1.527477   -0.995740
     11          1           0        2.099952    1.634648   -0.846013
     12          1           0        0.663867    2.444911   -1.021833
     13          7           0        1.213714   -0.402433    0.439003
     14          8           0        2.079656   -0.799355   -0.337800
     15          8           0        0.925603   -0.944841    1.501134
 ---------------------------------------------------------------------

 SCF Done:  E(RHF) =  -852.365086737     A.U. after    2 cycles

 The electronic state is 1-A.
 Alpha  occ. eigenvalues -- -103.45827 -20.48146 -20.47752 -15.77097 -15.48918
 Alpha  occ. eigenvalues --  -15.48404 -11.22845 -11.20968 -10.49125  -8.14785
 Alpha  occ. eigenvalues --   -8.14615  -8.14591  -1.40324  -1.22083  -1.07832
 Alpha  occ. eigenvalues --   -1.03159  -0.92655  -0.88271  -0.77275  -0.68062
 Alpha  occ. eigenvalues --   -0.61202  -0.59832  -0.58792  -0.54872  -0.53415
 Alpha  occ. eigenvalues --   -0.50809  -0.47906  -0.44290  -0.37787  -0.36876
 Alpha  occ. eigenvalues --   -0.33903  -0.31666  -0.28824  -0.28407  -0.27805
 Alpha  occ. eigenvalues --   -0.27271  -0.12735
 Alpha virt. eigenvalues --    0.13192   0.13853   0.14740   0.16542   0.16954
 Alpha virt. eigenvalues --    0.17948   0.20044   0.20945   0.21919   0.23530
 Alpha virt. eigenvalues --    0.23703   0.25755   0.26012   0.27032   0.27235

 Mulliken charges:
               1
     1  C    0.006715
     2  H   -0.192511
     3  Cl  -0.533583
     4  H   -0.579152
     5  C    1.566008
     6  H   -0.141802
     7  N   -0.181704
     8  H    0.024915
     9  H    0.096270
    10  N   -0.334840
    11  H   -0.028399
    12  H    0.148867
    13  N    0.429804
    14  O   -0.635222
    15  O   -0.645365
 Sum of Mulliken charges =  -1.00000

 Dipole moment (field-independent basis, Debye):
    X=              1.2982    Y=             -0.5071    Z=              0.4674  Tot=              1.4700

 Test job not archived.
 1\1\GINC-SE423\SP\RHF\Aug-CC-pVDZ\C2H7Cl1N3O2(1-)\OHZDE\09-Apr-2025\0\
 \#t hf aug-cc-pvdz iop(5/13=1,5/36=2,99/5=2) pseudo=read geom=check gu
 ess=(read,tcheck) scf=(maxcycle=1)\\title\\-1,1\C,0,0.30070267,-0.0478
 6202,-0.07743832\H,0,1.58417166,1.52064091,-0.70678882\Cl,0,-1.7575886
 7,-0.13673032,-0.50111771\H,0,2.1196294,-0.09608083,0.79771002\C,0,0.6
 3239357,1.43899827,-0.17849421\H,0,0.13793591,-0.39800493,0.92734583\N
 ,0,0.78670963,-0.89761881,-1.13249845\H,0,0.09755337,-1.61482211,-1.31
 281888\H,0,1.64979562,-1.30240015,-0.8019388\N,0,0.56732993,2.02315133

 Normal termination of Gaussian 16 at Wed Apr  9 02:54:16 2025.
