 Gaussian 16, Revision C.01,

 ----------------------------------------------------------------------
 #t hf aug-cc-pvdz symm=none int=(grid=ultrafine) guess=(read,tcheck) s
 table=(opt,rrhf)
 ----------------------------------------------------------------------
 -----
 title
 -----
 Symbolic Z-matrix:
 Charge = -1 Multiplicity = 1

 SCF Done:  E(RHF) =  -1099.64295270     A.U. after   16 cycles
 Normal termination of Gaussian 16 at Wed Apr  9 02:53:58 2025.
 Gaussian 16:  ES64L-G16RevC.01  3-Jul-2019

 ----------------------------------------------------------------------
 #t hf aug-cc-pvdz iop(5/13=1,5/36=2,99/5=2) pseudo=read geom=check gue
 ss=(read,tcheck) scf=(maxcycle=1)
 ----------------------------------------------------------------------
 -----
 title
 -----
 Structure from the checkpoint file:  "E2SN2_366_mol1.chk"
 Charge = -1 Multiplicity = 1

                         Standard orientation:
 ---------------------------------------------------------------------
 Center     Atomic      Atomic             Coordinates (Angstroms)
 Number     Number       Type             X           Y           Z
 ---------------------------------------------------------------------
      1          6           0        1.029721   -0.546022    0.356955
      2          1           0        0.156657    1.087900    1.357085
      3         17           0        0.033025   -1.948465   -1.030055
      4          9           0        1.938805    0.375966    1.777609
      5          6           0       -0.089615    0.472788    0.496691
      6          1           0        1.039536   -1.340470    1.079768
      7          7           0        2.091441   -0.181187   -0.521550
      8          1           0        2.324799   -0.956392   -1.122465
      9          1           0        2.852685    0.076545    0.091756
     10          7           0       -1.432602   -0.116311    0.785301
     11          8           0       -2.418876    0.353097    0.229270
     12          8           0       -1.439200   -0.964313    1.669469
     13          7           0       -0.157999    1.406943   -0.666756
     14          8           0        0.228247    2.552805   -0.426641
     15          8           0       -0.561527    1.001650   -1.746413
 ---------------------------------------------------------------------

 SCF Done:  E(RHF) =  -1099.84940923     A.U. after    2 cycles

 The electronic state is 1-A.
 Alpha  occ. eigenvalues -- -103.44841 -25.83202 -20.52102 -20.51745 -20.51086
 Alpha  occ. eigenvalues --  -20.50741 -15.82031 -15.80689 -15.50361 -11.27720
 Alpha  occ. eigenvalues --  -11.26285 -10.48182  -8.13829  -8.13693  -8.13666
 Alpha  occ. eigenvalues --   -1.45094  -1.43031  -1.33329  -1.26521  -1.25058
 Alpha  occ. eigenvalues --   -1.08547  -1.02113  -0.91857  -0.84667  -0.80080
 Alpha  occ. eigenvalues --   -0.71415  -0.68638  -0.65781  -0.63756  -0.61939
 Alpha  occ. eigenvalues --   -0.61281  -0.57993  -0.56609  -0.55166  -0.49279
 Alpha  occ. eigenvalues --   -0.44491  -0.42926  -0.42182  -0.41276  -0.40906
 Alpha  occ. eigenvalues --   -0.39430  -0.39163  -0.37148  -0.35411  -0.30562
 Alpha  occ. eigenvalues --   -0.28449  -0.28015  -0.27300
 Alpha virt. eigenvalues --    0.13387   0.14534   0.15342   0.16518   0.18278
 Alpha virt. eigenvalues --    0.18355   0.20274   0.22150   0.22165   0.23125
 Alpha virt. eigenvalues --    0.23673   0.25422   0.26055   0.26678   0.27571

 Mulliken charges:
               1
     1  C    0.387620
     2  H    0.041007
     3  Cl  -0.615806
     4  F   -0.852676
     5  C    2.000423
     6  H   -0.079054
     7  N   -0.402420
     8  H    0.067899
     9  H    0.103228
    10  N    0.363839
    11  O   -0.575584
    12  O   -0.609930
    13  N    0.373151
    14  O   -0.622294
    15  O   -0.579403
 Sum of Mulliken charges =  -1.00000

 Dipole moment (field-independent basis, Debye):
    X=              0.2341    Y=              0.4920    Z=              0.0843  Tot=              0.5514

 Test job not archived.
 1\1\GINC-SE080\SP\RHF\Aug-CC-pVDZ\C2H4Cl1F1N3O4(1-)\OHZDE\09-Apr-2025\
 0\\#t hf aug-cc-pvdz iop(5/13=1,5/36=2,99/5=2) pseudo=read geom=check
 guess=(read,tcheck) scf=(maxcycle=1)\\title\\-1,1\C,0,0.53267517,-0.10
 333336,-0.02762686\H,0,1.65005389,1.66849145,0.18285505\Cl,0,-1.644301
 66,-0.34996407,0.26218484\F,0,2.45443409,-0.11559773,0.01040584\C,0,0.
 6034924,1.41325641,0.0455406\H,0,0.66881255,-0.62874445,0.89925589\N,0
 ,0.58289381,-0.66192114,-1.33819281\H,0,-0.12540206,-1.3723688,-1.4385
 8302\H,0,1.51930147,-1.03384293,-1.42112535\N,0,-0.12024833,2.01304323

 Normal termination of Gaussian 16 at Wed Apr  9 02:54:07 2025.
