 Gaussian 16, Revision C.01,

 ----------------------------------------------------------------------
 #t hf aug-cc-pvdz symm=none int=(grid=ultrafine) guess=(read,tcheck) s
 table=(opt,rrhf)
 ----------------------------------------------------------------------
 -----
 title
 -----
 Symbolic Z-matrix:
 Charge = -1 Multiplicity = 1

 SCF Done:  E(RHF) =  -722.136296959     A.U. after   16 cycles
 Normal termination of Gaussian 16 at Wed Apr  9 02:59:27 2025.
 Gaussian 16:  ES64L-G16RevC.01  3-Jul-2019

 ----------------------------------------------------------------------
 #t hf aug-cc-pvdz iop(5/13=1,5/36=2,99/5=2) pseudo=read geom=check gue
 ss=(read,tcheck) scf=(maxcycle=1)
 ----------------------------------------------------------------------
 -----
 title
 -----
 Structure from the checkpoint file:  "E2SN2_85_mol2.chk"
 Charge = -1 Multiplicity = 1

                         Standard orientation:
 ---------------------------------------------------------------------
 Center     Atomic      Atomic             Coordinates (Angstroms)
 Number     Number       Type             X           Y           Z
 ---------------------------------------------------------------------
      1          6           0        0.399045   -0.119375   -0.388557
      2          6           0       -0.626668   -0.991039    0.326489
      3         17           0        0.264148    1.593467    0.125204
      4          1           0       -0.428605   -0.948654    1.400221
      5          1           0        0.232914   -0.107328   -1.468525
      6          1           0       -0.454097   -2.036209    0.047501
      7          6           0        1.768585   -0.595057   -0.176616
      8          7           0        2.882133   -0.968466   -0.164495
      9          6           0       -1.980679   -0.615407   -0.039324
     10          7           0       -3.087006   -0.318549   -0.306491
     11          1           0        0.231678   -1.062369    2.857285
 ---------------------------------------------------------------------

 SCF Done:  E(RHF) =  -722.231721638     A.U. after    2 cycles

 The electronic state is 1-A.
 Alpha  occ. eigenvalues -- -103.56562 -15.54954 -15.53319 -11.26086 -11.20134
 Alpha  occ. eigenvalues --  -11.18786 -11.16078 -10.59864  -8.25589  -8.25278
 Alpha  occ. eigenvalues --   -8.25261  -1.11114  -1.07556  -1.06528  -0.95432
 Alpha  occ. eigenvalues --   -0.83326  -0.63576  -0.57896  -0.55807  -0.49834
 Alpha  occ. eigenvalues --   -0.46131  -0.45230  -0.43786  -0.37665  -0.37236
 Alpha  occ. eigenvalues --   -0.36140  -0.35092  -0.34025  -0.33722  -0.08615
 Alpha virt. eigenvalues --    0.11837   0.13807   0.16733   0.16954   0.18666
 Alpha virt. eigenvalues --    0.20345   0.21238   0.21903   0.22649   0.23213
 Alpha virt. eigenvalues --    0.23364   0.23964   0.25369   0.25757   0.26299

 Mulliken charges:
               1
     1  C    0.171498
     2  C    1.100833
     3  Cl  -0.082216
     4  H   -0.483866
     5  H    0.019555
     6  H   -0.030147
     7  C   -0.267808
     8  N   -0.193606
     9  C   -0.258961
    10  N   -0.286592
    11  H   -0.688692
 Sum of Mulliken charges =  -1.00000

 Dipole moment (field-independent basis, Debye):
    X=             -0.1873    Y=              3.0356    Z=            -10.7221  Tot=             11.1451

 Test job not archived.
 1\1\GINC-SE222\SP\RHF\Aug-CC-pVDZ\C4H4Cl1N2(1-)\OHZDE\09-Apr-2025\0\\#
 t hf aug-cc-pvdz iop(5/13=1,5/36=2,99/5=2) pseudo=read geom=check gues
 s=(read,tcheck) scf=(maxcycle=1)\\title\\-1,1\C,0,-0.507546,-0.013322,
 -1.40144\C,0,-0.002098,0.056328,0.034822\Cl,0,-0.00003,1.429706,-2.337
 428\H,0,1.090271,0.07459,0.0169\H,0,-1.599468,-0.01131,-1.443603\H,0,-
 0.261615,-0.878411,0.543654\C,0,-0.060206,-1.230382,-2.083705\N,0,0.14
 615,-2.226644,-2.670603\C,0,-0.599537,1.171166,0.747891\N,0,-1.056635,
 2.077758,1.341704\H,0,2.64037,-0.281726,-0.188458\\Version=ES64L-G16Re

 Normal termination of Gaussian 16 at Wed Apr  9 02:59:32 2025.
