 Gaussian 16, Revision C.01,

 ----------------------------------------------------------------------
 #t hf aug-cc-pvdz symm=none int=(grid=ultrafine) guess=(read,tcheck) s
 table=(opt,rrhf)
 ----------------------------------------------------------------------
 -----
 title
 -----
 Symbolic Z-matrix:
 Charge = -1 Multiplicity = 1

 SCF Done:  E(RHF) =  -528.849050459     A.U. after   18 cycles
 Normal termination of Gaussian 16 at Wed Apr  9 02:58:11 2025.
 Gaussian 16:  ES64L-G16RevC.01  3-Jul-2019

 ----------------------------------------------------------------------
 #t hf aug-cc-pvdz iop(5/13=1,5/36=2,99/5=2) pseudo=read geom=check gue
 ss=(read,tcheck) scf=(maxcycle=1)
 ----------------------------------------------------------------------
 -----
 title
 -----
 Structure from the checkpoint file:  "E2SN2_61_mol1.chk"
 Charge = -1 Multiplicity = 1

                         Standard orientation:
 ---------------------------------------------------------------------
 Center     Atomic      Atomic             Coordinates (Angstroms)
 Number     Number       Type             X           Y           Z
 ---------------------------------------------------------------------
      1          6           0        0.072425   -0.090652    0.255432
      2          6           0        0.786983   -1.053093   -0.594445
      3          9           0        0.002930   -0.421238    1.625420
      4          1           0        1.507486   -0.070832   -2.727335
      5          1           0        0.868956   -0.571971   -1.757972
      6          1           0        0.249906   -2.006863   -0.583279
      7          6           0        0.633419    1.266073    0.204736
      8          7           0        1.133260    2.328650    0.228366
      9          7           0       -1.379959   -0.038139   -0.200184
     10          8           0       -2.091284   -0.969486    0.163561
     11          8           0       -1.712307    0.880806   -0.944523
     12          7           0        2.201822   -1.167473   -0.322566
     13          1           0        2.462413   -0.838114    0.597394
     14          1           0        2.670781   -0.606867   -1.043542
 ---------------------------------------------------------------------

 SCF Done:  E(RHF) =  -529.012709307     A.U. after    2 cycles

 The electronic state is 1-A.
 Alpha  occ. eigenvalues --  -26.03789 -20.52655 -20.52435 -15.81816 -15.55597
 Alpha  occ. eigenvalues --  -15.47975 -11.32643 -11.20090 -11.12049  -1.56954
 Alpha  occ. eigenvalues --   -1.44609  -1.26709  -1.09427  -1.04528  -0.98266
 Alpha  occ. eigenvalues --   -0.81138  -0.77483  -0.70953  -0.69812  -0.64406
 Alpha  occ. eigenvalues --   -0.63151  -0.61314  -0.59704  -0.54318  -0.50219
 Alpha  occ. eigenvalues --   -0.45712  -0.44821  -0.42888  -0.40872  -0.38178
 Alpha  occ. eigenvalues --   -0.37267  -0.36538  -0.35986  -0.26401  -0.10666
 Alpha virt. eigenvalues --    0.13624   0.14492   0.16877   0.17219   0.17852
 Alpha virt. eigenvalues --    0.19446   0.20599   0.21103   0.22037   0.22514
 Alpha virt. eigenvalues --    0.23294   0.24732   0.25013   0.25552   0.26133

 Mulliken charges:
               1
     1  C    1.614680
     2  C    0.403314
     3  F   -0.431722
     4  H   -0.661067
     5  H    0.160970
     6  H   -0.148528
     7  C   -0.527446
     8  N   -0.189074
     9  N    0.183098
    10  O   -0.556023
    11  O   -0.538171
    12  N   -0.371663
    13  H    0.003079
    14  H    0.058553
 Sum of Mulliken charges =  -1.00000

 Dipole moment (field-independent basis, Debye):
    X=             -3.1686    Y=             -0.6885    Z=              7.5637  Tot=              8.2294

 Test job not archived.
 1\1\GINC-SE460\SP\RHF\Aug-CC-pVDZ\C3H5F1N3O2(1-)\OHZDE\09-Apr-2025\0\\
 #t hf aug-cc-pvdz iop(5/13=1,5/36=2,99/5=2) pseudo=read geom=check gue
 ss=(read,tcheck) scf=(maxcycle=1)\\title\\-1,1\C,0,-0.10732083,-0.0202
 5566,-0.3241171\C,0,-0.18718396,0.13905229,1.13445029\F,0,1.19410961,-
 0.15576087,-0.85222861\H,0,-2.41709135,-0.39045786,2.01780542\H,0,-1.4
 0359165,0.1298402,1.46950429\H,0,0.30833401,1.07262164,1.41934241\C,0,
 -0.86085916,-1.17531499,-0.83008713\N,0,-1.39317785,-2.14562116,-1.223
 29486\N,0,-0.65430871,1.24451159,-0.97290948\O,0,0.09976116,2.21248446

 Normal termination of Gaussian 16 at Wed Apr  9 02:58:16 2025.
