 Gaussian 16, Revision C.01,

 ----------------------------------------------------------------------
 #t hf aug-cc-pvdz symm=none int=(grid=ultrafine) guess=(read,tcheck) s
 table=(opt,rrhf)
 ----------------------------------------------------------------------
 -----
 title
 -----
 Symbolic Z-matrix:
 Charge = -1 Multiplicity = 1

 SCF Done:  E(RHF) =  -417.141357035     A.U. after   16 cycles
 Normal termination of Gaussian 16 at Wed Apr  9 02:34:44 2025.
 Gaussian 16:  ES64L-G16RevC.01  3-Jul-2019

 ----------------------------------------------------------------------
 #t hf aug-cc-pvdz iop(5/13=1,5/36=2,99/5=2) pseudo=read geom=check gue
 ss=(read,tcheck) scf=(maxcycle=1)
 ----------------------------------------------------------------------
 -----
 title
 -----
 Structure from the checkpoint file:  "E2SN2_164_mol2.chk"
 Charge = -1 Multiplicity = 1

                         Standard orientation:
 ---------------------------------------------------------------------
 Center     Atomic      Atomic             Coordinates (Angstroms)
 Number     Number       Type             X           Y           Z
 ---------------------------------------------------------------------
      1          6           0        0.628936   -0.290037    0.161387
      2          6           0       -0.581435   -0.922605   -0.516351
      3          9           0        0.397416   -0.313138    1.564944
      4          1           0       -0.622034   -1.955293   -0.161787
      5          1           0       -0.357469   -0.973306   -1.597126
      6          7           0        1.756661   -1.035890   -0.188626
      7          1           0        1.683198   -1.308225   -1.255401
      8          1           0        2.606375   -0.502405   -0.040395
      9          6           0        0.716259    1.166892   -0.144404
     10          7           0        0.845878    2.307228   -0.397992
     11          6           0       -1.835826   -0.246540   -0.219848
     12          7           0       -2.862185    0.279680    0.001039
     13          1           0        1.363112   -1.545916   -2.615441
 ---------------------------------------------------------------------

 SCF Done:  E(RHF) =  -417.268527797     A.U. after    2 cycles

 The electronic state is 1-A.
 Alpha  occ. eigenvalues --  -26.00424 -15.54407 -15.53695 -15.48434 -11.29618
 Alpha  occ. eigenvalues --  -11.19055 -11.18792 -11.17263  -1.53557  -1.09927
 Alpha  occ. eigenvalues --   -1.07525  -1.05765  -0.93393  -0.81206  -0.68790
 Alpha  occ. eigenvalues --   -0.64558  -0.62860  -0.58407  -0.52316  -0.51240
 Alpha  occ. eigenvalues --   -0.48281  -0.46780  -0.44341  -0.43691  -0.37035
 Alpha  occ. eigenvalues --   -0.36138  -0.34548  -0.34477  -0.29221  -0.12105
 Alpha virt. eigenvalues --    0.13535   0.14176   0.16417   0.17949   0.18395
 Alpha virt. eigenvalues --    0.19363   0.20635   0.20951   0.22592   0.23281
 Alpha virt. eigenvalues --    0.24113   0.24573   0.24967   0.25554   0.26844

 Mulliken charges:
               1
     1  C    0.866050
     2  C    0.505485
     3  F   -0.471005
     4  H    0.066628
     5  H   -0.043046
     6  N   -0.510682
     7  H    0.131809
     8  H    0.004644
     9  C   -0.336908
    10  N   -0.216206
    11  C   -0.043699
    12  N   -0.300527
    13  H   -0.652543
 Sum of Mulliken charges =  -1.00000

 Dipole moment (field-independent basis, Debye):
    X=             -1.4163    Y=              1.1434    Z=              6.0796  Tot=              6.3462

 Test job not archived.
 1\1\GINC-SE071\SP\RHF\Aug-CC-pVDZ\C4H5F1N3(1-)\OHZDE\09-Apr-2025\0\\#t
  hf aug-cc-pvdz iop(5/13=1,5/36=2,99/5=2) pseudo=read geom=check guess
 =(read,tcheck) scf=(maxcycle=1)\\title\\-1,1\C,0,0.011474,-0.042142,0.
 027984\C,0,-0.563288,-0.263334,-1.366718\F,0,1.411024,0.171763,-0.1120
 57\H,0,-0.380575,0.660998,-1.919922\H,0,-1.659318,-0.347858,-1.255453\
 N,0,-0.627567,1.067442,0.585674\H,0,-1.699803,1.023931,0.328789\H,0,-0
 .52851,1.075442,1.594989\C,0,-0.061595,-1.288344,0.843715\N,0,-0.14222
 7,-2.2364,1.53376\C,0,0.031982,-1.389212,-2.071365\N,0,0.493476,-2.292

 Normal termination of Gaussian 16 at Wed Apr  9 02:34:49 2025.
