 Gaussian 16, Revision C.01,

 ----------------------------------------------------------------------
 #t hf aug-cc-pvdz symm=none int=(grid=ultrafine) guess=(read,tcheck) s
 table=(opt,rrhf)
 ----------------------------------------------------------------------
 -----
 title
 -----
 Symbolic Z-matrix:
 Charge = -1 Multiplicity = 1

 SCF Done:  E(RHF) =  -627.854866258     A.U. after   16 cycles
 Normal termination of Gaussian 16 at Wed Apr  9 02:43:17 2025.
 Gaussian 16:  ES64L-G16RevC.01  3-Jul-2019

 ----------------------------------------------------------------------
 #t hf aug-cc-pvdz iop(5/13=1,5/36=2,99/5=2) pseudo=read geom=check gue
 ss=(read,tcheck) scf=(maxcycle=1)
 ----------------------------------------------------------------------
 -----
 title
 -----
 Structure from the checkpoint file:  "E2SN2_249_mol2.chk"
 Charge = -1 Multiplicity = 1

                         Standard orientation:
 ---------------------------------------------------------------------
 Center     Atomic      Atomic             Coordinates (Angstroms)
 Number     Number       Type             X           Y           Z
 ---------------------------------------------------------------------
      1          6           0        0.918719   -0.157273    0.671063
      2          6           0       -0.518302    0.372574    0.847514
      3          9           0        1.097279   -1.237264    1.551397
      4          1           0       -0.898638   -0.072942    1.774502
      5          1           0        1.611133    0.639827    0.922127
      6          6           0        1.241950   -0.635544   -0.677749
      7          7           0        1.504754   -1.197932   -1.674216
      8          7           0       -1.430517   -0.339073   -0.193749
      9          8           0       -1.481149   -1.565514   -0.118121
     10          8           0       -2.076820    0.349768   -0.977638
     11          7           0       -0.568756    1.771380    0.818005
     12          1           0       -1.506214    2.092795    0.620740
     13          1           0        0.144008    2.075618    0.092766
     14          9           0        1.427265    1.889653   -0.700210
 ---------------------------------------------------------------------

 SCF Done:  E(RHF) =  -628.045993903     A.U. after    2 cycles

 The electronic state is 1-A.
 Alpha  occ. eigenvalues --  -26.00700 -25.77582 -20.50279 -20.49661 -15.78277
 Alpha  occ. eigenvalues --  -15.51026 -15.47438 -11.25047 -11.23078 -11.16562
 Alpha  occ. eigenvalues --   -1.53801  -1.41920  -1.27077  -1.23931  -1.07634
 Alpha  occ. eigenvalues --   -1.04551  -0.92230  -0.85628  -0.72962  -0.68004
 Alpha  occ. eigenvalues --   -0.65056  -0.64236  -0.61752  -0.61485  -0.58416
 Alpha  occ. eigenvalues --   -0.55128  -0.49353  -0.48215  -0.45024  -0.41318
 Alpha  occ. eigenvalues --   -0.40447  -0.38896  -0.37902  -0.36547  -0.35853
 Alpha  occ. eigenvalues --   -0.34533  -0.32195  -0.31335  -0.27492
 Alpha virt. eigenvalues --    0.12595   0.14151   0.15509   0.18895   0.19133
 Alpha virt. eigenvalues --    0.19998   0.20406   0.21761   0.22739   0.23794
 Alpha virt. eigenvalues --    0.24624   0.25655   0.26310   0.26970   0.27131

 Mulliken charges:
               1
     1  C    0.885656
     2  C    1.087507
     3  F   -0.449190
     4  H   -0.099408
     5  H    0.027117
     6  C   -0.253357
     7  N   -0.319046
     8  N    0.468702
     9  O   -0.635193
    10  O   -0.621365
    11  N   -0.401597
    12  H    0.033578
    13  H    0.219703
    14  F   -0.943105
 Sum of Mulliken charges =  -1.00000

 Dipole moment (field-independent basis, Debye):
    X=             -3.6997    Y=             -1.2990    Z=              5.1985  Tot=              6.5115

 Test job not archived.
 1\1\GINC-SE023\SP\RHF\Aug-CC-pVDZ\C3H4F2N3O2(1-)\OHZDE\09-Apr-2025\0\\
 #t hf aug-cc-pvdz iop(5/13=1,5/36=2,99/5=2) pseudo=read geom=check gue
 ss=(read,tcheck) scf=(maxcycle=1)\\title\\-1,1\C,0,-0.02018,0.031938,-
 0.050297\C,0,-0.390545,0.038037,-1.546858\F,0,1.362608,0.254042,0.0584
 24\H,0,0.55434,-0.040206,-2.097783\H,0,-0.269483,-0.94117,0.360491\C,0
 ,-0.69158,1.055248,0.75876\N,0,-1.049598,1.956859,1.419982\N,0,-0.8169
 39,1.483395,-1.936644\O,0,0.028265,2.360208,-1.765561\O,0,-1.926056,1.
 65567,-2.433507\N,0,-1.323827,-0.957405,-1.860154\H,0,-1.785295,-0.754

 Normal termination of Gaussian 16 at Wed Apr  9 02:43:27 2025.
