 Gaussian 16, Revision C.01,

 ----------------------------------------------------------------------
 #t hf aug-cc-pvdz symm=none int=(grid=ultrafine) guess=(read,tcheck) s
 table=(opt,rrhf)
 ----------------------------------------------------------------------
 -----
 title
 -----
 Symbolic Z-matrix:
 Charge = -1 Multiplicity = 1

 SCF Done:  E(RHF) =  -1259.29994724     A.U. after   16 cycles
 Normal termination of Gaussian 16 at Wed Apr  9 02:48:16 2025.
 Gaussian 16:  ES64L-G16RevC.01  3-Jul-2019

 ----------------------------------------------------------------------
 #t hf aug-cc-pvdz iop(5/13=1,5/36=2,99/5=2) pseudo=read geom=check gue
 ss=(read,tcheck) scf=(maxcycle=1)
 ----------------------------------------------------------------------
 -----
 title
 -----
 Structure from the checkpoint file:  "E2SN2_284_mol2.chk"
 Charge = -1 Multiplicity = 1

                         Standard orientation:
 ---------------------------------------------------------------------
 Center     Atomic      Atomic             Coordinates (Angstroms)
 Number     Number       Type             X           Y           Z
 ---------------------------------------------------------------------
      1          6           0        0.553425   -0.601992   -0.139657
      2          6           0       -0.123058    0.781256   -0.047855
      3         17           0        2.149307   -0.459243   -0.998917
      4          1           0       -1.055732    0.617149    0.519397
      5          6           0        0.865800   -1.084662    1.208467
      6          7           0        1.111840   -1.496040    2.281380
      7          6           0       -0.314036   -1.614696   -0.873455
      8          1           0       -1.320296   -1.590903   -0.444118
      9          1           0        0.125767   -2.610178   -0.791930
     10          1           0       -0.378867   -1.343628   -1.927463
     11          6           0       -0.545713    1.348111   -1.403405
     12          1           0       -0.926880    2.360166   -1.257967
     13          1           0       -1.369524    0.750200   -1.790141
     14          1           0        0.289529    1.379943   -2.106439
     15          6           0        0.735204    1.719274    0.674853
     16          7           0        1.412604    2.500119    1.233395
     17         17           0       -3.329590   -0.121643    0.215479
 ---------------------------------------------------------------------

 SCF Done:  E(RHF) =  -1259.42915860     A.U. after    2 cycles

 The electronic state is 1-A.
 Alpha  occ. eigenvalues -- -103.57439-103.38503 -15.55819 -15.54175 -11.27195
 Alpha  occ. eigenvalues --  -11.20580 -11.19274 -11.19204 -11.14785 -11.14050
 Alpha  occ. eigenvalues --  -10.60772 -10.41584  -8.26483  -8.26200  -8.26193
 Alpha  occ. eigenvalues --   -8.07184  -8.07158  -8.07150  -1.12818  -1.08299
 Alpha  occ. eigenvalues --   -1.07445  -0.99110  -0.91927  -0.83998  -0.83244
 Alpha  occ. eigenvalues --   -0.75920  -0.63764  -0.59964  -0.54375  -0.50430
 Alpha  occ. eigenvalues --   -0.48376  -0.47235  -0.46359  -0.45474  -0.44100
 Alpha  occ. eigenvalues --   -0.42982  -0.42471  -0.38863  -0.37787  -0.35929
 Alpha  occ. eigenvalues --   -0.35728  -0.34896  -0.34643  -0.21818  -0.21688
 Alpha  occ. eigenvalues --   -0.21630
 Alpha virt. eigenvalues --    0.11749   0.12686   0.14270   0.14769   0.16277
 Alpha virt. eigenvalues --    0.16954   0.17575   0.18054   0.18717   0.19136
 Alpha virt. eigenvalues --    0.20935   0.21698   0.22689   0.23743   0.24037

 Mulliken charges:
               1
     1  C   -0.628326
     2  C    0.208643
     3  Cl  -0.200189
     4  H   -0.119027
     5  C   -0.329553
     6  N   -0.238636
     7  C    1.170024
     8  H    0.076562
     9  H   -0.047450
    10  H   -0.045197
    11  C    0.811313
    12  H   -0.081374
    13  H    0.015931
    14  H    0.010307
    15  C   -0.411448
    16  N   -0.258829
    17  Cl  -0.932753
 Sum of Mulliken charges =  -1.00000

 Dipole moment (field-independent basis, Debye):
    X=              7.4744    Y=             -1.1112    Z=             -5.5826  Tot=              9.3950

 Test job not archived.
 1\1\GINC-SE083\SP\RHF\Aug-CC-pVDZ\C6H7Cl2N2(1-)\OHZDE\09-Apr-2025\0\\#
 t hf aug-cc-pvdz iop(5/13=1,5/36=2,99/5=2) pseudo=read geom=check gues
 s=(read,tcheck) scf=(maxcycle=1)\\title\\-1,1\C,0,0.06234,0.026364,0.0
 31611\C,0,-0.587249,0.250887,-1.349351\Cl,0,1.858571,-0.186634,-0.1520
 46\H,0,-1.660511,0.413038,-1.148351\C,0,-0.116954,1.223758,0.857497\N,
 0,-0.262384,2.168673,1.540795\C,0,-0.50987,-1.192715,0.740793\H,0,-1.6
 02161,-1.130267,0.719443\H,0,-0.137582,-1.236131,1.765768\H,0,-0.20268
 6,-2.097598,0.215969\C,0,-0.50782,-0.967492,-2.269526\H,0,-0.903431,-0

 Normal termination of Gaussian 16 at Wed Apr  9 02:48:29 2025.
