 Gaussian 16, Revision C.01,

 ----------------------------------------------------------------------
 #t hf aug-cc-pvdz symm=none int=(grid=ultrafine) guess=(read,tcheck) s
 table=(opt,rrhf)
 ----------------------------------------------------------------------
 -----
 title
 -----
 Symbolic Z-matrix:
 Charge = -1 Multiplicity = 1

 SCF Done:  E(RHF) =  -860.148553184     A.U. after   16 cycles
 Normal termination of Gaussian 16 at Wed Apr  9 02:46:14 2025.
 Gaussian 16:  ES64L-G16RevC.01  3-Jul-2019

 ----------------------------------------------------------------------
 #t hf aug-cc-pvdz iop(5/13=1,5/36=2,99/5=2) pseudo=read geom=check gue
 ss=(read,tcheck) scf=(maxcycle=1)
 ----------------------------------------------------------------------
 -----
 title
 -----
 Structure from the checkpoint file:  "E2SN2_278_mol2.chk"
 Charge = -1 Multiplicity = 1

                         Standard orientation:
 ---------------------------------------------------------------------
 Center     Atomic      Atomic             Coordinates (Angstroms)
 Number     Number       Type             X           Y           Z
 ---------------------------------------------------------------------
      1          6           0        0.297148   -0.235623    0.140569
      2          6           0       -0.583772    0.602837   -0.777821
      3         17           0       -0.123169   -2.016177    0.020201
      4          1           0       -0.142523    1.668081   -0.546114
      5          1           0       -0.424645    0.327064   -1.823427
      6          6           0        1.687195   -0.130063   -0.315737
      7          7           0        2.806643   -0.139972   -0.670835
      8          6           0        0.179497    0.213826    1.587291
      9          1           0        0.435132    1.279509    1.554066
     10          1           0        0.860739   -0.351662    2.225824
     11          1           0       -0.846703    0.065942    1.930514
     12          6           0       -1.988220    0.498833   -0.442299
     13          7           0       -3.132392    0.446976   -0.174049
     14          9           0        0.771226    2.604243    0.119766
 ---------------------------------------------------------------------

 SCF Done:  E(RHF) =  -860.283487410     A.U. after    2 cycles

 The electronic state is 1-A.
 Alpha  occ. eigenvalues -- -103.54815 -25.77617 -15.52710 -15.51822 -11.24507
 Alpha  occ. eigenvalues --  -11.18041 -11.17562 -11.13989 -11.11924 -10.58140
 Alpha  occ. eigenvalues --   -8.23847  -8.23571  -8.23567  -1.26997  -1.09588
 Alpha  occ. eigenvalues --   -1.05968  -1.04651  -0.95056  -0.86043  -0.76823
 Alpha  occ. eigenvalues --   -0.57917  -0.57116  -0.53731  -0.48681  -0.46264
 Alpha  occ. eigenvalues --   -0.43857  -0.42750  -0.42382  -0.41883  -0.37576
 Alpha  occ. eigenvalues --   -0.36966  -0.36467  -0.35496  -0.34759  -0.34037
 Alpha  occ. eigenvalues --   -0.32620  -0.32171  -0.28365
 Alpha virt. eigenvalues --    0.13176   0.13662   0.15483   0.17014   0.17836
 Alpha virt. eigenvalues --    0.17996   0.18703   0.19418   0.22376   0.22844
 Alpha virt. eigenvalues --    0.22960   0.24156   0.25354   0.25895   0.26195

 Mulliken charges:
               1
     1  C   -0.865136
     2  C    0.815277
     3  Cl  -0.233100
     4  H    0.226251
     5  H   -0.104641
     6  C   -0.054943
     7  N   -0.286084
     8  C    0.835176
     9  H    0.098981
    10  H   -0.039070
    11  H   -0.068382
    12  C   -0.067158
    13  N   -0.349796
    14  F   -0.907375
 Sum of Mulliken charges =  -1.00000

 Dipole moment (field-independent basis, Debye):
    X=             -1.2575    Y=             -6.0081    Z=              0.5791  Tot=              6.1656

 Test job not archived.
 1\1\GINC-SE126\SP\RHF\Aug-CC-pVDZ\C5H5Cl1F1N2(1-)\OHZDE\09-Apr-2025\0\
 \#t hf aug-cc-pvdz iop(5/13=1,5/36=2,99/5=2) pseudo=read geom=check gu
 ess=(read,tcheck) scf=(maxcycle=1)\\title\\-1,1\C,0,-0.00466,-0.000981
 ,0.015609\C,0,-0.617062,-0.189245,-1.36714\Cl,0,1.827004,0.007429,-0.0
 648\H,0,-1.756539,-0.154236,-1.078176\H,0,-0.349469,0.64184,-2.024678\
 C,0,-0.380209,1.324214,0.52\N,0,-0.590158,2.396647,0.950307\C,0,-0.462
 378,-1.083159,0.97906\H,0,-1.556414,-1.017372,0.94923\H,0,-0.067809,-0
 .902941,1.980773\H,0,-0.116883,-2.055859,0.622343\C,0,-0.236551,-1.447

 Normal termination of Gaussian 16 at Wed Apr  9 02:46:21 2025.
