 Gaussian 16, Revision C.01,

 ----------------------------------------------------------------------
 #t hf aug-cc-pvdz symm=none int=(grid=ultrafine) guess=(read,tcheck) s
 table=(opt,rrhf)
 ----------------------------------------------------------------------
 -----
 title
 -----
 Symbolic Z-matrix:
 Charge = -1 Multiplicity = 1

 SCF Done:  E(RHF) =  -515.237281743     A.U. after   17 cycles
 Normal termination of Gaussian 16 at Wed Apr  9 02:55:52 2025.
 Gaussian 16:  ES64L-G16RevC.01  3-Jul-2019

 ----------------------------------------------------------------------
 #t hf aug-cc-pvdz iop(5/13=1,5/36=2,99/5=2) pseudo=read geom=check gue
 ss=(read,tcheck) scf=(maxcycle=1)
 ----------------------------------------------------------------------
 -----
 title
 -----
 Structure from the checkpoint file:  "E2SN2_38_mol2.chk"
 Charge = -1 Multiplicity = 1

                         Standard orientation:
 ---------------------------------------------------------------------
 Center     Atomic      Atomic             Coordinates (Angstroms)
 Number     Number       Type             X           Y           Z
 ---------------------------------------------------------------------
      1          6           0       -0.113182    0.503030   -0.165819
      2          6           0        1.090976   -0.290413    0.335636
      3          9           0       -0.112871    0.537497   -1.540237
      4          1           0        1.046008   -0.302526    1.435648
      5          7           0       -1.380997   -0.240781    0.223592
      6          8           0       -2.060610   -0.761320   -0.656107
      7          8           0       -1.618583   -0.293647    1.429016
      8          6           0       -0.196425    1.911103    0.359992
      9          1           0       -1.036801    2.434597   -0.103787
     10          1           0        0.748015    2.389840    0.107118
     11          1           0       -0.316189    1.898511    1.442395
     12          7           0        2.291462    0.440714   -0.015206
     13          1           0        2.653042    0.070924   -0.889657
     14          1           0        2.976451    0.170822    0.750781
     15          6           0        1.072578   -1.736236   -0.154839
     16          1           0        1.961989   -2.215571    0.257633
     17          1           0        1.114640   -1.771604   -1.247986
     18          1           0        0.189458   -2.293222    0.175966
     19          1           0        3.615827   -0.503947    2.042230
 ---------------------------------------------------------------------

 SCF Done:  E(RHF) =  -515.400019080     A.U. after    2 cycles

 The electronic state is 1-A.
 Alpha  occ. eigenvalues --  -26.02615 -20.52144 -20.51750 -15.80700 -15.45187
 Alpha  occ. eigenvalues --  -11.28191 -11.15080 -11.13970 -11.10802  -1.56714
 Alpha  occ. eigenvalues --   -1.44020  -1.26004  -1.04911  -0.97825  -0.87402
 Alpha  occ. eigenvalues --   -0.84134  -0.76470  -0.71737  -0.70138  -0.65151
 Alpha  occ. eigenvalues --   -0.63890  -0.61233  -0.61015  -0.53965  -0.51535
 Alpha  occ. eigenvalues --   -0.48267  -0.47019  -0.46484  -0.44834  -0.42327
 Alpha  occ. eigenvalues --   -0.41502  -0.39676  -0.38177  -0.37032  -0.36027
 Alpha  occ. eigenvalues --   -0.25658  -0.08696
 Alpha virt. eigenvalues --    0.11612   0.13215   0.14064   0.14674   0.15558
 Alpha virt. eigenvalues --    0.16795   0.17346   0.18130   0.18721   0.19946
 Alpha virt. eigenvalues --    0.20642   0.22094   0.22683   0.22836   0.24497

 Mulliken charges:
               1
     1  C   -0.190127
     2  C   -0.089613
     3  F   -0.356384
     4  H   -0.028747
     5  N    0.341904
     6  O   -0.603413
     7  O   -0.627201
     8  C    0.628283
     9  H   -0.035727
    10  H    0.117533
    11  H    0.103240
    12  N   -0.377556
    13  H    0.035944
    14  H    0.121736
    15  C    0.790931
    16  H    0.026083
    17  H   -0.016510
    18  H   -0.054718
    19  H   -0.785658
 Sum of Mulliken charges =  -1.00000

 Dipole moment (field-independent basis, Debye):
    X=            -10.3458    Y=              2.6248    Z=             -6.9195  Tot=             12.7202

 Test job not archived.
 1\1\GINC-SE059\SP\RHF\Aug-CC-pVDZ\C4H10F1N2O2(1-)\OHZDE\09-Apr-2025\0\
 \#t hf aug-cc-pvdz iop(5/13=1,5/36=2,99/5=2) pseudo=read geom=check gu
 ess=(read,tcheck) scf=(maxcycle=1)\\title\\-1,1\C,0,-0.549224,0.104508
 ,-1.491068\C,0,0.130874,0.061128,-0.124836\F,0,-1.900347,-0.106703,-1.
 349401\H,0,1.204863,0.24523,-0.282468\N,0,-0.412763,1.509304,-2.056911
 \O,0,-1.41438,2.211966,-2.155572\O,0,0.729755,1.856463,-2.350889\C,0,-
 0.001879,-0.87682,-2.492809\H,0,-0.589456,-0.838108,-3.414016\H,0,-0.0
 6931,-1.859328,-2.028878\H,0,1.04161,-0.649254,-2.705986\N,0,0.020111,

 Normal termination of Gaussian 16 at Wed Apr  9 02:56:02 2025.
