 Gaussian 16, Revision C.01,

 ----------------------------------------------------------------------
 #t hf aug-cc-pvdz symm=none int=(grid=ultrafine) guess=(read,tcheck) s
 table=(opt,rrhf)
 ----------------------------------------------------------------------
 -----
 title
 -----
 Symbolic Z-matrix:
 Charge = -1 Multiplicity = 1

 SCF Done:  E(RHF) =  -1334.36432440     A.U. after   16 cycles
 Normal termination of Gaussian 16 at Wed Apr  9 02:43:14 2025.
 Gaussian 16:  ES64L-G16RevC.01  3-Jul-2019

 ----------------------------------------------------------------------
 #t hf aug-cc-pvdz iop(5/13=1,5/36=2,99/5=2) pseudo=read geom=check gue
 ss=(read,tcheck) scf=(maxcycle=1)
 ----------------------------------------------------------------------
 -----
 title
 -----
 Structure from the checkpoint file:  "E2SN2_235_mol2.chk"
 Charge = -1 Multiplicity = 1

                         Standard orientation:
 ---------------------------------------------------------------------
 Center     Atomic      Atomic             Coordinates (Angstroms)
 Number     Number       Type             X           Y           Z
 ---------------------------------------------------------------------
      1          6           0        0.744741    0.125637   -0.262169
      2          6           0        0.097205    0.748896    0.999231
      3         17           0        2.225819    1.058806   -0.706226
      4          1           0        0.925895    0.925345    1.692639
      5          7           0        1.279466   -1.244447    0.159999
      6          8           0        0.968577   -2.223213   -0.511944
      7          8           0        1.971608   -1.278365    1.174430
      8          6           0       -0.150986   -0.004176   -1.461644
      9          1           0       -0.380652    0.993902   -1.834135
     10          1           0        0.340002   -0.574373   -2.249237
     11          1           0       -1.096793   -0.477397   -1.187515
     12          7           0       -0.865542   -0.110272    1.647475
     13          1           0       -1.707550   -0.240947    1.083063
     14          1           0       -0.475716   -1.005521    1.909055
     15          6           0       -0.589772    2.064418    0.656029
     16          1           0       -1.503412    1.865164    0.091648
     17          1           0        0.060971    2.734922    0.090754
     18          1           0       -0.876858    2.551346    1.589729
     19         17           0       -3.538287   -0.287360   -0.395356
 ---------------------------------------------------------------------

 SCF Done:  E(RHF) =  -1334.52020810     A.U. after    2 cycles

 The electronic state is 1-A.
 Alpha  occ. eigenvalues -- -103.57308-103.37527 -20.52897 -20.52132 -15.81585
 Alpha  occ. eigenvalues --  -15.48212 -11.27116 -11.17780 -11.12707 -11.11792
 Alpha  occ. eigenvalues --  -10.60647 -10.40601  -8.26365  -8.26083  -8.26071
 Alpha  occ. eigenvalues --   -8.06201  -8.06174  -8.06168  -1.44878  -1.26671
 Alpha  occ. eigenvalues --   -1.11375  -1.04566  -0.94986  -0.87987  -0.85210
 Alpha  occ. eigenvalues --   -0.82754  -0.75694  -0.69652  -0.64206  -0.63033
 Alpha  occ. eigenvalues --   -0.62383  -0.56611  -0.52978  -0.49960  -0.47730
 Alpha  occ. eigenvalues --   -0.46209  -0.44669  -0.42463  -0.41231  -0.40926
 Alpha  occ. eigenvalues --   -0.40329  -0.38836  -0.37866  -0.37323  -0.36630
 Alpha  occ. eigenvalues --   -0.27271  -0.20848  -0.20653  -0.20602
 Alpha virt. eigenvalues --    0.11997   0.12670   0.13662   0.14506   0.15363
 Alpha virt. eigenvalues --    0.15889   0.16552   0.17620   0.18303   0.19744
 Alpha virt. eigenvalues --    0.20432   0.22028   0.22872   0.23826   0.24357

 Mulliken charges:
               1
     1  C   -0.430015
     2  C    0.173182
     3  Cl  -0.203010
     4  H   -0.171501
     5  N    0.280588
     6  O   -0.585112
     7  O   -0.640546
     8  C    1.068456
     9  H   -0.059721
    10  H   -0.006512
    11  H    0.068381
    12  N   -0.253245
    13  H    0.018383
    14  H    0.012262
    15  C    0.809379
    16  H   -0.026533
    17  H   -0.019672
    18  H   -0.087412
    19  Cl  -0.947353
 Sum of Mulliken charges =  -1.00000

 Dipole moment (field-independent basis, Debye):
    X=             10.4863    Y=              3.1827    Z=             -0.1120  Tot=             10.9592

 Test job not archived.
 1\1\GINC-SE227\SP\RHF\Aug-CC-pVDZ\C4H9Cl2N2O2(1-)\OHZDE\09-Apr-2025\0\
 \#t hf aug-cc-pvdz iop(5/13=1,5/36=2,99/5=2) pseudo=read geom=check gu
 ess=(read,tcheck) scf=(maxcycle=1)\\title\\-1,1\C,0,0.026357,0.032827,
 0.000558\C,0,-0.437835,0.184785,-1.469244\Cl,0,1.798018,-0.315028,0.04
 2964\H,0,0.311409,0.826319,-1.944368\N,0,-0.097202,1.418763,0.637112\O
 ,0,-0.709508,1.520873,1.695789\O,0,0.407881,2.355363,0.023146\C,0,-0.7
 10694,-0.990663,0.817345\H,0,-0.469026,-1.981706,0.433827\H,0,-0.41676
 ,-0.932243,1.864573\H,0,-1.790652,-0.856309,0.721028\N,0,-1.731427,0.8

 Normal termination of Gaussian 16 at Wed Apr  9 02:43:33 2025.
