 Gaussian 16, Revision C.01,

 ----------------------------------------------------------------------
 #t hf aug-cc-pvdz symm=none int=(grid=ultrafine) guess=(read,tcheck) s
 table=(opt,rrhf)
 ----------------------------------------------------------------------
 -----
 title
 -----
 Symbolic Z-matrix:
 Charge = -1 Multiplicity = 1

 SCF Done:  E(RHF) =  -516.052825077     A.U. after   16 cycles
 Normal termination of Gaussian 16 at Wed Apr  9 02:55:08 2025.
 Gaussian 16:  ES64L-G16RevC.01  3-Jul-2019

 ----------------------------------------------------------------------
 #t hf aug-cc-pvdz iop(5/13=1,5/36=2,99/5=2) pseudo=read geom=check gue
 ss=(read,tcheck) scf=(maxcycle=1)
 ----------------------------------------------------------------------
 -----
 title
 -----
 Structure from the checkpoint file:  "E2SN2_382_mol1.chk"
 Charge = -1 Multiplicity = 1

                         Standard orientation:
 ---------------------------------------------------------------------
 Center     Atomic      Atomic             Coordinates (Angstroms)
 Number     Number       Type             X           Y           Z
 ---------------------------------------------------------------------
      1          6           0       -0.558899   -0.280405    0.051594
      2          1           0        0.765923   -1.874814    0.406167
      3          9           0       -1.139922   -0.249490   -1.631322
      4          9           0        0.032920   -0.150461    1.731640
      5          6           0        0.695881   -1.062502   -0.316801
      6          1           0        0.581407   -1.463251   -1.322366
      7          7           0       -1.700999   -1.041646    0.470336
      8          1           0       -2.456812   -0.804424   -0.155286
      9          1           0       -1.897915   -0.772980    1.423690
     10          6           0       -0.585951    1.182218    0.009972
     11          7           0       -0.668505    2.354136   -0.003527
     12          6           0        1.926034   -0.280087   -0.240542
     13          7           0        2.956365    0.281752   -0.221152
 ---------------------------------------------------------------------

 SCF Done:  E(RHF) =  -516.205600063     A.U. after    2 cycles

 The electronic state is 1-A.
 Alpha  occ. eigenvalues --  -25.85406 -25.85114 -15.51241 -15.49821 -15.49628
 Alpha  occ. eigenvalues --  -11.29370 -11.16877 -11.16026 -11.15896  -1.36377
 Alpha  occ. eigenvalues --   -1.35611  -1.06592  -1.05054  -1.02818  -0.92539
 Alpha  occ. eigenvalues --   -0.78731  -0.63347  -0.58440  -0.54102  -0.52120
 Alpha  occ. eigenvalues --   -0.51006  -0.48623  -0.43837  -0.43470  -0.42812
 Alpha  occ. eigenvalues --   -0.41971  -0.41624  -0.41307  -0.38457  -0.33382
 Alpha  occ. eigenvalues --   -0.32393  -0.31933  -0.30840  -0.29239
 Alpha virt. eigenvalues --    0.13115   0.13932   0.15059   0.16750   0.18402
 Alpha virt. eigenvalues --    0.19296   0.21623   0.22756   0.23581   0.24588
 Alpha virt. eigenvalues --    0.25238   0.25658   0.26742   0.27187   0.27567

 Mulliken charges:
               1
     1  C    1.194309
     2  H    0.109904
     3  F   -0.753582
     4  F   -0.732090
     5  C    0.535596
     6  H    0.089561
     7  N   -0.563007
     8  H    0.076082
     9  H    0.079714
    10  C   -0.605481
    11  N   -0.248326
    12  C    0.137860
    13  N   -0.320539
 Sum of Mulliken charges =  -1.00000

 Dipole moment (field-independent basis, Debye):
    X=             -1.9274    Y=             -4.1430    Z=              0.0793  Tot=              4.5701

 Test job not archived.
 1\1\GINC-SE024\SP\RHF\Aug-CC-pVDZ\C4H4F2N3(1-)\OHZDE\09-Apr-2025\0\\#t
  hf aug-cc-pvdz iop(5/13=1,5/36=2,99/5=2) pseudo=read geom=check guess
 =(read,tcheck) scf=(maxcycle=1)\\title\\-1,1\C,0,0.52527289,-0.0727478
 5,-0.01516062\H,0,1.23137016,1.80098558,-0.65824971\F,0,-1.20602757,-0
 .29642997,-0.36632022\F,0,2.23510508,0.07804739,0.47821948\C,0,0.41014
 978,1.44652173,-0.03584195\H,0,-0.54439664,1.72373624,-0.47953003\N,0,
 0.89483666,-0.71441049,-1.24435501\H,0,0.15837475,-1.36789529,-1.46686
 669\H,0,1.77690719,-1.1774276,-1.07880347\C,0,0.29972296,-0.83832659,1

 Normal termination of Gaussian 16 at Wed Apr  9 02:55:13 2025.
