 Gaussian 16, Revision C.01,

 ----------------------------------------------------------------------
 #t hf aug-cc-pvdz symm=none int=(grid=ultrafine) guess=(read,tcheck) s
 table=(opt,rrhf)
 ----------------------------------------------------------------------
 -----
 title
 -----
 Symbolic Z-matrix:
 Charge = -1 Multiplicity = 1

 SCF Done:  E(RHF) =  -832.192790917     A.U. after   17 cycles
 Normal termination of Gaussian 16 at Wed Apr  9 02:55:26 2025.
 Gaussian 16:  ES64L-G16RevC.01  3-Jul-2019

 ----------------------------------------------------------------------
 #t hf aug-cc-pvdz iop(5/13=1,5/36=2,99/5=2) pseudo=read geom=check gue
 ss=(read,tcheck) scf=(maxcycle=1)
 ----------------------------------------------------------------------
 -----
 title
 -----
 Structure from the checkpoint file:  "E2SN2_395_mol1.chk"
 Charge = -1 Multiplicity = 1

                         Standard orientation:
 ---------------------------------------------------------------------
 Center     Atomic      Atomic             Coordinates (Angstroms)
 Number     Number       Type             X           Y           Z
 ---------------------------------------------------------------------
      1          6           0       -0.532088    0.018573    0.506272
      2          1           0        0.886710    1.309349    1.370181
      3         17           0       -0.141249   -1.565472   -0.747062
      4          1           0       -1.185287    1.634230    1.439286
      5          6           0        0.722773    0.902037    0.367928
      6          7           0       -0.581488   -0.706018    1.758552
      7          1           0       -1.068593   -1.579911    1.600655
      8          1           0       -1.099315   -0.130619    2.409601
      9          6           0       -1.757788    0.485741   -0.107520
     10          7           0       -2.759489    0.627800   -0.719179
     11          7           0        0.509386    1.918574   -0.654875
     12          1           0        1.339114    2.499261   -0.711845
     13          1           0       -0.253438    2.491269   -0.296236
     14          6           0        1.954815    0.156346    0.054091
     15          7           0        3.039558   -0.267032   -0.103956
 ---------------------------------------------------------------------

 SCF Done:  E(RHF) =  -832.314624876     A.U. after    2 cycles

 The electronic state is 1-A.
 Alpha  occ. eigenvalues -- -103.48461 -15.52002 -15.50948 -15.50763 -15.48525
 Alpha  occ. eigenvalues --  -11.27289 -11.20552 -11.17482 -11.16219 -10.51741
 Alpha  occ. eigenvalues --   -8.17407  -8.17203  -8.17187  -1.10942  -1.06427
 Alpha  occ. eigenvalues --   -1.04059  -1.02050  -0.95152  -0.86723  -0.78902
 Alpha  occ. eigenvalues --   -0.61867  -0.58660  -0.56405  -0.54095  -0.50485
 Alpha  occ. eigenvalues --   -0.46862  -0.42573  -0.40514  -0.39137  -0.35381
 Alpha  occ. eigenvalues --   -0.34026  -0.32335  -0.31725  -0.30296  -0.29562
 Alpha  occ. eigenvalues --   -0.28964  -0.28098  -0.14044
 Alpha virt. eigenvalues --    0.12631   0.13158   0.14663   0.15723   0.16852
 Alpha virt. eigenvalues --    0.18426   0.18672   0.20138   0.20301   0.22508
 Alpha virt. eigenvalues --    0.23926   0.23992   0.24619   0.25363   0.25787

 Mulliken charges:
               1
     1  C   -0.412151
     2  H   -0.038384
     3  Cl  -0.345916
     4  H   -0.336093
     5  C    1.325613
     6  N   -0.250516
     7  H    0.031396
     8  H    0.095126
     9  C    0.332402
    10  N   -0.428856
    11  N   -0.397921
    12  H   -0.021584
    13  H    0.160182
    14  C   -0.413590
    15  N   -0.299708
 Sum of Mulliken charges =  -1.00000

 Dipole moment (field-independent basis, Debye):
    X=              2.0320    Y=              0.1863    Z=              1.7039  Tot=              2.6583

 Test job not archived.
 1\1\GINC-SE073\SP\RHF\Aug-CC-pVDZ\C4H6Cl1N4(1-)\OHZDE\09-Apr-2025\0\\#
 t hf aug-cc-pvdz iop(5/13=1,5/36=2,99/5=2) pseudo=read geom=check gues
 s=(read,tcheck) scf=(maxcycle=1)\\title\\-1,1\C,0,0.33651512,-0.086143
 55,-0.05808419\H,0,1.54166391,1.55250916,-0.59461206\Cl,0,-1.6784396,-
 0.29250335,-0.41888206\H,0,2.17739026,-0.00665107,0.65773245\C,0,0.558
 2707,1.43705493,-0.12888933\N,0,0.83563754,-0.78761105,-1.22191292\H,0
 ,0.25564438,-1.60403103,-1.37343242\H,0,1.78422775,-1.06788153,-1.0104
 4267\C,0,0.3910517,-0.71659496,1.24456106\N,0,0.20165937,-1.33016429,2

 Normal termination of Gaussian 16 at Wed Apr  9 02:55:34 2025.
