 Gaussian 16, Revision C.01,

 ----------------------------------------------------------------------
 #t hf aug-cc-pvdz symm=none int=(grid=ultrafine) guess=(read,tcheck) s
 table=(opt,rrhf)
 ----------------------------------------------------------------------
 -----
 title
 -----
 Symbolic Z-matrix:
 Charge = -1 Multiplicity = 1

 SCF Done:  E(RHF) =  -987.861386156     A.U. after   16 cycles
 Normal termination of Gaussian 16 at Wed Apr  9 02:44:36 2025.
 Gaussian 16:  ES64L-G16RevC.01  3-Jul-2019

 ----------------------------------------------------------------------
 #t hf aug-cc-pvdz iop(5/13=1,5/36=2,99/5=2) pseudo=read geom=check gue
 ss=(read,tcheck) scf=(maxcycle=1)
 ----------------------------------------------------------------------
 -----
 title
 -----
 Structure from the checkpoint file:  "E2SN2_25_mol1.chk"
 Charge = -1 Multiplicity = 1

                         Standard orientation:
 ---------------------------------------------------------------------
 Center     Atomic      Atomic             Coordinates (Angstroms)
 Number     Number       Type             X           Y           Z
 ---------------------------------------------------------------------
      1          6           0       -0.367660    0.137553   -0.229504
      2          6           0        0.873283   -0.247684   -0.918839
      3         17           0       -1.877771   -0.858817   -0.673202
      4          9           0        3.188771    0.414183   -0.353641
      5          1           0        1.982940    0.359789   -0.536873
      6          1           0        0.760071   -0.005047   -1.985588
      7          7           0       -0.189926   -0.021994    1.292191
      8          8           0        0.384683    0.919424    1.829575
      9          8           0       -0.558139   -1.050039    1.832889
     10          7           0        1.245660   -1.615571   -0.611461
     11          1           0        2.255913   -1.610438   -0.539693
     12          1           0        0.954140   -2.267081   -1.329004
     13          6           0       -0.735260    1.524871   -0.496585
     14          7           0       -1.050650    2.630638   -0.739558
 ---------------------------------------------------------------------

 SCF Done:  E(RHF) =  -988.037067286     A.U. after    2 cycles

 The electronic state is 1-A.
 Alpha  occ. eigenvalues -- -103.55727 -25.81121 -20.51189 -20.50711 -15.80668
 Alpha  occ. eigenvalues --  -15.55319 -15.47322 -11.29553 -11.20420 -11.10700
 Alpha  occ. eigenvalues --  -10.58986  -8.24695  -8.24402  -8.24400  -1.43632
 Alpha  occ. eigenvalues --   -1.31449  -1.25577  -1.10931  -1.06638  -1.01194
 Alpha  occ. eigenvalues --   -0.94365  -0.80269  -0.73060  -0.67956  -0.62767
 Alpha  occ. eigenvalues --   -0.60589  -0.57171  -0.51819  -0.48701  -0.47088
 Alpha  occ. eigenvalues --   -0.46347  -0.44812  -0.41375  -0.40716  -0.40323
 Alpha  occ. eigenvalues --   -0.40091  -0.38062  -0.36982  -0.35677  -0.35250
 Alpha  occ. eigenvalues --   -0.34291  -0.26503  -0.23622
 Alpha virt. eigenvalues --    0.12947   0.14499   0.16175   0.16975   0.18017
 Alpha virt. eigenvalues --    0.19256   0.19691   0.21155   0.21907   0.22787
 Alpha virt. eigenvalues --    0.24706   0.24870   0.25285   0.25688   0.26188

 Mulliken charges:
               1
     1  C    0.829565
     2  C    0.407495
     3  Cl  -0.143197
     4  F   -0.701858
     5  H    0.352973
     6  H   -0.153211
     7  N    0.340754
     8  O   -0.569547
     9  O   -0.582827
    10  N   -0.350349
    11  H    0.023576
    12  H   -0.020929
    13  C   -0.184547
    14  N   -0.247898
 Sum of Mulliken charges =  -1.00000

 Dipole moment (field-independent basis, Debye):
    X=             -5.9933    Y=             -3.0574    Z=             -1.8525  Tot=              6.9785

 Test job not archived.
 1\1\GINC-SE131\SP\RHF\Aug-CC-pVDZ\C3H4Cl1F1N3O2(1-)\OHZDE\09-Apr-2025\
 0\\#t hf aug-cc-pvdz iop(5/13=1,5/36=2,99/5=2) pseudo=read geom=check
 guess=(read,tcheck) scf=(maxcycle=1)\\title\\-1,1\C,0,-0.07616289,0.07
 773684,-0.37258675\C,0,-0.34425148,0.01871585,1.07246485\Cl,0,1.715683
 3,-0.05215886,-0.86499798\F,0,-2.5198652,-0.32933916,2.19699451\H,0,-1
 .61178414,-0.01290461,1.44478466\H,0,0.07293991,0.92574118,1.53387602\
 N,0,-0.79379931,-1.08483542,-1.08393987\O,0,-1.98146344,-0.87566247,-1
 .30960883\O,0,-0.18322612,-2.11422653,-1.31277523\N,0,0.09072051,-1.24

 Normal termination of Gaussian 16 at Wed Apr  9 02:44:43 2025.
