 Gaussian 16, Revision C.01,

 ----------------------------------------------------------------------
 #t hf aug-cc-pvdz symm=none int=(grid=ultrafine) guess=(read,tcheck) s
 table=(opt,rrhf)
 ----------------------------------------------------------------------
 -----
 title
 -----
 Symbolic Z-matrix:
 Charge = -1 Multiplicity = 1

 SCF Done:  E(RHF) =  -591.806905155     A.U. after   16 cycles
 Normal termination of Gaussian 16 at Wed Apr  9 02:45:48 2025.
 Gaussian 16:  ES64L-G16RevC.01  3-Jul-2019

 ----------------------------------------------------------------------
 #t hf aug-cc-pvdz iop(5/13=1,5/36=2,99/5=2) pseudo=read geom=check gue
 ss=(read,tcheck) scf=(maxcycle=1)
 ----------------------------------------------------------------------
 -----
 title
 -----
 Structure from the checkpoint file:  "E2SN2_268_mol2.chk"
 Charge = -1 Multiplicity = 1

                         Standard orientation:
 ---------------------------------------------------------------------
 Center     Atomic      Atomic             Coordinates (Angstroms)
 Number     Number       Type             X           Y           Z
 ---------------------------------------------------------------------
      1          6           0       -0.289217    0.198163   -0.359656
      2          6           0        0.732753   -0.554881    0.517579
      3          9           0        0.206309    0.190885   -1.683501
      4          1           0        0.449979   -0.267809    1.533936
      5          6           0       -1.602383   -0.458547   -0.394439
      6          7           0       -2.529111   -1.045894   -0.826279
      7          6           0       -0.394977    1.608223    0.040106
      8          7           0       -0.362706    2.770737    0.206715
      9          6           0        2.088348   -0.114159    0.187035
     10          7           0        3.197957    0.196990   -0.041669
     11          6           0        0.587194   -2.068297    0.365660
     12          1           0        0.620498   -2.365513   -0.685083
     13          1           0        1.388635   -2.580795    0.902645
     14          1           0       -0.372036   -2.354180    0.797140
     15          9           0       -1.424126    0.081610    1.677088
 ---------------------------------------------------------------------

 SCF Done:  E(RHF) =  -591.982977940     A.U. after    2 cycles

 The electronic state is 1-A.
 Alpha  occ. eigenvalues --  -26.02954 -25.79354 -15.54156 -15.53517 -15.51375
 Alpha  occ. eigenvalues --  -11.30880 -11.19302 -11.19047 -11.18861 -11.18804
 Alpha  occ. eigenvalues --  -11.14479  -1.56042  -1.28833  -1.09001  -1.07444
 Alpha  occ. eigenvalues --   -1.05624  -1.00698  -0.90857  -0.80152  -0.71530
 Alpha  occ. eigenvalues --   -0.69082  -0.65473  -0.59443  -0.57847  -0.52789
 Alpha  occ. eigenvalues --   -0.48237  -0.46070  -0.44302  -0.43881  -0.43403
 Alpha  occ. eigenvalues --   -0.42337  -0.41335  -0.40002  -0.38523  -0.36430
 Alpha  occ. eigenvalues --   -0.34684  -0.34073  -0.33669  -0.32580  -0.30161
 Alpha virt. eigenvalues --    0.11932   0.14002   0.15519   0.15742   0.17909
 Alpha virt. eigenvalues --    0.18202   0.19385   0.19796   0.21411   0.22938
 Alpha virt. eigenvalues --    0.23081   0.23844   0.24240   0.24728   0.25043

 Mulliken charges:
               1
     1  C    1.198781
     2  C   -0.048021
     3  F   -0.525147
     4  H   -0.062744
     5  C    0.125149
     6  N   -0.441726
     7  C   -0.289754
     8  N   -0.279120
     9  C   -0.286409
    10  N   -0.264721
    11  C    0.775997
    12  H    0.056308
    13  H   -0.101330
    14  H    0.051722
    15  F   -0.908986
 Sum of Mulliken charges =  -1.00000

 Dipole moment (field-independent basis, Debye):
    X=              3.4655    Y=             -3.5500    Z=             -1.7191  Tot=              5.2505

 Test job not archived.
 1\1\GINC-SE227\SP\RHF\Aug-CC-pVDZ\C6H4F2N3(1-)\OHZDE\09-Apr-2025\0\\#t
  hf aug-cc-pvdz iop(5/13=1,5/36=2,99/5=2) pseudo=read geom=check guess
 =(read,tcheck) scf=(maxcycle=1)\\title\\-1,1\C,0,-0.03217,-0.012726,-0
 .007729\C,0,-0.429712,-0.082625,-1.497062\F,0,1.379518,0.03244,0.04938
 8\H,0,-1.474737,-0.402136,-1.462579\C,0,-0.522823,1.202159,0.655745\N,
 0,-0.495417,2.251665,1.192469\C,0,-0.441533,-1.228641,0.708677\N,0,-0.
 581969,-2.255524,1.261875\C,0,0.413041,-1.058477,-2.188881\N,0,1.06448
 9,-1.824739,-2.796178\C,0,-0.347721,1.291925,-2.159317\H,0,0.629529,1.

 Normal termination of Gaussian 16 at Wed Apr  9 02:45:56 2025.
