 Gaussian 16, Revision C.01,

 ----------------------------------------------------------------------
 #t hf aug-cc-pvdz symm=none int=(grid=ultrafine) guess=(read,tcheck) s
 table=(opt,rrhf)
 ----------------------------------------------------------------------
 -----
 title
 -----
 Symbolic Z-matrix:
 Charge = -1 Multiplicity = 1

 SCF Done:  E(RHF) =  -604.589587552     A.U. after   18 cycles
 Normal termination of Gaussian 16 at Wed Apr  9 02:59:35 2025.
 Gaussian 16:  ES64L-G16RevC.01  3-Jul-2019

 ----------------------------------------------------------------------
 #t hf aug-cc-pvdz iop(5/13=1,5/36=2,99/5=2) pseudo=read geom=check gue
 ss=(read,tcheck) scf=(maxcycle=1)
 ----------------------------------------------------------------------
 -----
 title
 -----
 Structure from the checkpoint file:  "E2SN2_63_mol1.chk"
 Charge = -1 Multiplicity = 1

                         Standard orientation:
 ---------------------------------------------------------------------
 Center     Atomic      Atomic             Coordinates (Angstroms)
 Number     Number       Type             X           Y           Z
 ---------------------------------------------------------------------
      1          6           0        0.695229    0.377695    0.088388
      2          6           0       -0.739695    0.576195   -0.305010
      3          9           0        1.208799    1.623096    0.472394
      4          1           0        0.478144    0.476837   -2.166676
      5          1           0       -0.402389    0.696240   -1.587136
      6          6           0        0.909553   -0.533109    1.212994
      7          7           0        1.119330   -1.184213    2.168854
      8          6           0        1.576032   -0.050417   -1.147489
      9          7           0        2.660003   -0.500356   -1.360841
     10          7           0       -1.456268   -0.648914   -0.284162
     11          8           0       -0.790770   -1.676202   -0.535553
     12          8           0       -2.692691   -0.645034   -0.136175
     13          6           0       -1.490327    1.775929    0.195774
     14          1           0       -0.906160    2.676849    0.006955
     15          1           0       -2.440753    1.852918   -0.334008
     16          1           0       -1.706551    1.715790    1.268245
 ---------------------------------------------------------------------

 SCF Done:  E(RHF) =  -604.770700853     A.U. after    2 cycles

 The electronic state is 1-A.
 Alpha  occ. eigenvalues --  -26.02317 -20.48265 -20.48247 -15.78096 -15.53634
 Alpha  occ. eigenvalues --  -15.46274 -11.28404 -11.18757 -11.17622 -11.15495
 Alpha  occ. eigenvalues --  -11.13900  -1.55568  -1.40076  -1.21694  -1.07699
 Alpha  occ. eigenvalues --   -1.03287  -1.00339  -0.89687  -0.84745  -0.73096
 Alpha  occ. eigenvalues --   -0.69205  -0.67894  -0.64405  -0.61376  -0.60098
 Alpha  occ. eigenvalues --   -0.57537  -0.55327  -0.48911  -0.46855  -0.45148
 Alpha  occ. eigenvalues --   -0.44877  -0.41191  -0.39211  -0.38724  -0.38398
 Alpha  occ. eigenvalues --   -0.35939  -0.34583  -0.33602  -0.31380  -0.29402
 Alpha  occ. eigenvalues --   -0.15508
 Alpha virt. eigenvalues --    0.11667   0.13867   0.14074   0.15921   0.17798
 Alpha virt. eigenvalues --    0.18120   0.19537   0.20161   0.20824   0.21444
 Alpha virt. eigenvalues --    0.22397   0.23224   0.23922   0.24617   0.24866

 Mulliken charges:
               1
     1  C    1.036134
     2  C   -0.398496
     3  F   -0.521171
     4  H   -0.058908
     5  H    0.364904
     6  C   -0.556481
     7  N   -0.251743
     8  C   -0.039448
     9  N   -0.490932
    10  N    0.424281
    11  O   -0.657205
    12  O   -0.709293
    13  C    0.762204
    14  H    0.040951
    15  H    0.023394
    16  H    0.031809
 Sum of Mulliken charges =  -1.00000

 Dipole moment (field-independent basis, Debye):
    X=             -4.1968    Y=              4.6849    Z=              1.7890  Tot=              6.5393

 Test job not archived.
 1\1\GINC-SE112\SP\RHF\Aug-CC-pVDZ\C5H5F1N3O2(1-)\OHZDE\09-Apr-2025\0\\
 #t hf aug-cc-pvdz iop(5/13=1,5/36=2,99/5=2) pseudo=read geom=check gue
 ss=(read,tcheck) scf=(maxcycle=1)\\title\\-1,1\C,0,-0.22989517,0.03680
 064,-0.29896608\C,0,0.37883837,-0.10231287,1.06604724\F,0,0.53340547,0
 .96878544,-1.0138189\H,0,-1.38748759,1.24345685,1.23277436\H,0,-0.4681
 0393,0.79395374,1.56747253\C,0,-0.25361498,-1.19020001,-1.09529831\N,0
 ,-0.20921237,-2.12881658,-1.80144239\C,0,-1.66897904,0.67703042,-0.223
 94064\N,0,-2.62057935,0.82455968,-0.92796517\N,0,-0.03195733,-1.306328

 Normal termination of Gaussian 16 at Wed Apr  9 02:59:43 2025.
