 Gaussian 16, Revision C.01,

 ----------------------------------------------------------------------
 #t hf aug-cc-pvdz symm=none int=(grid=ultrafine) guess=(read,tcheck) s
 table=(opt,rrhf)
 ----------------------------------------------------------------------
 -----
 title
 -----
 Symbolic Z-matrix:
 Charge = -1 Multiplicity = 1

 SCF Done:  E(RHF) =  -1043.01138322     A.U. after   16 cycles
 Normal termination of Gaussian 16 at Wed Apr  9 02:50:18 2025.
 Gaussian 16:  ES64L-G16RevC.01  3-Jul-2019

 ----------------------------------------------------------------------
 #t hf aug-cc-pvdz iop(5/13=1,5/36=2,99/5=2) pseudo=read geom=check gue
 ss=(read,tcheck) scf=(maxcycle=1)
 ----------------------------------------------------------------------
 -----
 title
 -----
 Structure from the checkpoint file:  "E2SN2_308_mol2.chk"
 Charge = -1 Multiplicity = 1

                         Standard orientation:
 ---------------------------------------------------------------------
 Center     Atomic      Atomic             Coordinates (Angstroms)
 Number     Number       Type             X           Y           Z
 ---------------------------------------------------------------------
      1          6           0       -0.171756    0.848999   -0.494920
      2          6           0       -0.443819   -0.170675    0.615022
      3          9           0       -1.416536    1.332393   -0.942764
      4          1           0        0.498912   -0.679691    0.848375
      5          6           0        0.489076    2.046700    0.089400
      6          7           0        1.032330    3.032633    0.425336
      7          7           0        0.518306    0.260581   -1.574806
      8          1           0        0.923695    0.975047   -2.166385
      9          1           0        1.272065   -0.336668   -1.210917
     10          7           0       -1.363446   -1.238190    0.006377
     11          8           0       -2.569409   -1.131417    0.239951
     12          8           0       -0.845784   -2.128173   -0.655547
     13          7           0       -1.027228    0.462137    1.742797
     14          1           0       -1.033682   -0.166350    2.534151
     15          1           0       -1.978501    0.733759    1.528274
     16         17           0        2.766302   -1.200658    0.283600
 ---------------------------------------------------------------------

 SCF Done:  E(RHF) =  -1043.20075396     A.U. after    2 cycles

 The electronic state is 1-A.
 Alpha  occ. eigenvalues -- -103.38945 -26.03133 -20.51719 -20.51215 -15.80222
 Alpha  occ. eigenvalues --  -15.55238 -15.54121 -15.51734 -11.31750 -11.24325
 Alpha  occ. eigenvalues --  -11.19793 -10.42050  -8.07655  -8.07626  -8.07604
 Alpha  occ. eigenvalues --   -1.56599  -1.43586  -1.25530  -1.13579  -1.09075
 Alpha  occ. eigenvalues --   -1.07117  -0.92806  -0.86543  -0.84441  -0.74784
 Alpha  occ. eigenvalues --   -0.71435  -0.68085  -0.66604  -0.63701  -0.63133
 Alpha  occ. eigenvalues --   -0.59871  -0.58909  -0.57859  -0.52778  -0.49584
 Alpha  occ. eigenvalues --   -0.46436  -0.45300  -0.42884  -0.40916  -0.37925
 Alpha  occ. eigenvalues --   -0.36865  -0.36379  -0.33292  -0.31781  -0.22541
 Alpha  occ. eigenvalues --   -0.22232  -0.21997
 Alpha virt. eigenvalues --    0.11434   0.13190   0.14152   0.17094   0.18187
 Alpha virt. eigenvalues --    0.18361   0.18833   0.20114   0.21383   0.21929
 Alpha virt. eigenvalues --    0.22889   0.23127   0.24623   0.24984   0.25487

 Mulliken charges:
               1
     1  C    1.182681
     2  C    1.559905
     3  F   -0.467349
     4  H   -0.255951
     5  C   -0.417092
     6  N   -0.226746
     7  N   -0.510778
     8  H    0.010763
     9  H    0.130213
    10  N    0.289059
    11  O   -0.639405
    12  O   -0.533483
    13  N   -0.284581
    14  H    0.016327
    15  H    0.070133
    16  Cl  -0.923696
 Sum of Mulliken charges =  -1.00000

 Dipole moment (field-independent basis, Debye):
    X=             -7.3376    Y=              2.8090    Z=              0.4620  Tot=              7.8704

 Test job not archived.
 1\1\GINC-SE109\SP\RHF\Aug-CC-pVDZ\C3H5Cl1F1N4O2(1-)\OHZDE\09-Apr-2025\
 0\\#t hf aug-cc-pvdz iop(5/13=1,5/36=2,99/5=2) pseudo=read geom=check
 guess=(read,tcheck) scf=(maxcycle=1)\\title\\-1,1\C,0,0.019176,-0.0086
 19,0.021186\C,0,-0.493368,-0.067922,-1.420863\F,0,1.413437,-0.20474,-0
 .01464\H,0,-1.5892,-0.092681,-1.392032\C,0,-0.135048,1.376579,0.540858
 \N,0,-0.225614,2.420897,1.071177\N,0,-0.574261,-1.008926,0.818553\H,0,
 -0.444018,-0.801294,1.800741\H,0,-1.581982,-1.049269,0.618192\N,0,-0.0
 52523,-1.426988,-1.981529\O,0,0.966803,-1.437741,-2.675188\O,0,-0.7413

 Normal termination of Gaussian 16 at Wed Apr  9 02:50:28 2025.
