 Gaussian 16, Revision C.01,

 ----------------------------------------------------------------------
 #t hf aug-cc-pvdz symm=none int=(grid=ultrafine) guess=(read,tcheck) s
 table=(opt,rrhf)
 ----------------------------------------------------------------------
 -----
 title
 -----
 Symbolic Z-matrix:
 Charge = -1 Multiplicity = 1

 SCF Done:  E(RHF) =  -380.431499448     A.U. after   16 cycles
 Normal termination of Gaussian 16 at Wed Apr  9 02:34:40 2025.
 Gaussian 16:  ES64L-G16RevC.01  3-Jul-2019

 ----------------------------------------------------------------------
 #t hf aug-cc-pvdz iop(5/13=1,5/36=2,99/5=2) pseudo=read geom=check gue
 ss=(read,tcheck) scf=(maxcycle=1)
 ----------------------------------------------------------------------
 -----
 title
 -----
 Structure from the checkpoint file:  "E2SN2_154_mol2.chk"
 Charge = -1 Multiplicity = 1

                         Standard orientation:
 ---------------------------------------------------------------------
 Center     Atomic      Atomic             Coordinates (Angstroms)
 Number     Number       Type             X           Y           Z
 ---------------------------------------------------------------------
      1          6           0       -0.493545    0.422044   -0.595022
      2          6           0        0.957450    0.182803   -0.229575
      3          9           0       -0.903968    1.699591   -0.198518
      4          1           0        1.553687    0.932121   -0.772934
      5          1           0       -0.602084    0.355538   -1.680083
      6          6           0       -1.396117   -0.557155    0.035376
      7          7           0       -2.148433   -1.331484    0.494990
      8          7           0        1.351944   -1.107647   -0.748642
      9          1           0        2.383043   -1.066249   -0.662573
     10          1           0        1.054275   -1.791828   -0.056000
     11          7           0        1.142808    0.264171    1.211187
     12          1           0        2.162498    0.140358    1.299511
     13          1           0        0.935676    1.213285    1.513439
     14          1           0        3.817650   -0.140979    0.177877
 ---------------------------------------------------------------------

 SCF Done:  E(RHF) =  -380.550500467     A.U. after    2 cycles

 The electronic state is 1-A.
 Alpha  occ. eigenvalues --  -26.02516 -15.54727 -15.47030 -15.46734 -11.25751
 Alpha  occ. eigenvalues --  -11.19477 -11.17517  -1.55619  -1.09363  -1.07149
 Alpha  occ. eigenvalues --   -0.95672  -0.92157  -0.73692  -0.68387  -0.66290
 Alpha  occ. eigenvalues --   -0.62172  -0.55498  -0.53544  -0.50658  -0.45701
 Alpha  occ. eigenvalues --   -0.44997  -0.42255  -0.41055  -0.36725  -0.34957
 Alpha  occ. eigenvalues --   -0.28151  -0.26984  -0.09345
 Alpha virt. eigenvalues --    0.12568   0.14348   0.14959   0.16541   0.17929
 Alpha virt. eigenvalues --    0.19348   0.19588   0.20139   0.21432   0.22689
 Alpha virt. eigenvalues --    0.23490   0.24948   0.25245   0.25523   0.26239

 Mulliken charges:
               1
     1  C    0.868517
     2  C    0.763272
     3  F   -0.446705
     4  H   -0.126399
     5  H   -0.065584
     6  C   -0.362922
     7  N   -0.246141
     8  N   -0.430401
     9  H    0.116295
    10  H    0.034914
    11  N   -0.389537
    12  H    0.108936
    13  H   -0.007449
    14  H   -0.816795
 Sum of Mulliken charges =  -1.00000

 Dipole moment (field-independent basis, Debye):
    X=            -10.5128    Y=              2.2613    Z=             -1.8049  Tot=             10.9037

 Test job not archived.
 1\1\GINC-SE159\SP\RHF\Aug-CC-pVDZ\C3H7F1N3(1-)\OHZDE\09-Apr-2025\0\\#t
  hf aug-cc-pvdz iop(5/13=1,5/36=2,99/5=2) pseudo=read geom=check guess
 =(read,tcheck) scf=(maxcycle=1)\\title\\-1,1\C,0,-0.738479,0.138494,-1
 .612995\C,0,0.097054,0.074274,-0.350484\F,0,-0.633876,1.396153,-2.2172
 63\H,0,1.143939,0.239081,-0.648954\H,0,-0.369366,-0.606804,-2.321408\C
 ,0,-2.165455,-0.118319,-1.350972\N,0,-3.306067,-0.343433,-1.192422\N,0
 ,0.028827,-1.271344,0.173897\H,0,0.798331,-1.269715,0.866823\H,0,-0.82
 5853,-1.31479,0.725349\N,0,-0.364755,1.055223,0.619695\H,0,0.318074,0.

 Normal termination of Gaussian 16 at Wed Apr  9 02:34:47 2025.
