 Gaussian 16, Revision C.01,

 ----------------------------------------------------------------------
 #t hf aug-cc-pvdz symm=none int=(grid=ultrafine) guess=(read,tcheck) s
 table=(opt,rrhf)
 ----------------------------------------------------------------------
 -----
 title
 -----
 Symbolic Z-matrix:
 Charge = -1 Multiplicity = 1

 SCF Done:  E(RHF) =  -990.210019382     A.U. after   16 cycles
 Normal termination of Gaussian 16 at Wed Apr  9 02:34:04 2025.
 Gaussian 16:  ES64L-G16RevC.01  3-Jul-2019

 ----------------------------------------------------------------------
 #t hf aug-cc-pvdz iop(5/13=1,5/36=2,99/5=2) pseudo=read geom=check gue
 ss=(read,tcheck) scf=(maxcycle=1)
 ----------------------------------------------------------------------
 -----
 title
 -----
 Structure from the checkpoint file:  "E2SN2_133_mol1.chk"
 Charge = -1 Multiplicity = 1

                         Standard orientation:
 ---------------------------------------------------------------------
 Center     Atomic      Atomic             Coordinates (Angstroms)
 Number     Number       Type             X           Y           Z
 ---------------------------------------------------------------------
      1          6           0        0.187157   -0.043187   -0.352304
      2          6           0       -0.826935   -0.444344    0.589943
      3         17           0        1.714140   -1.279062   -0.451329
      4          9           0       -2.816558    0.731033   -0.489088
      5          1           0       -1.967291    0.378347    0.101912
      6          7           0       -0.192070    0.124619   -1.725376
      7          1           0       -1.170152    0.404172   -1.725312
      8          1           0       -0.077392   -0.749622   -2.216470
      9          7           0        0.813512    1.282481    0.126450
     10          8           0        1.886860    1.314572    0.709570
     11          8           0        0.107746    2.257910   -0.112621
     12          7           0       -0.392207   -0.256126    1.962113
     13          1           0        0.199024   -1.034651    2.256282
     14          1           0       -1.201071   -0.236060    2.570297
     15          6           0       -1.422620   -1.806827    0.284011
     16          1           0       -0.703449   -2.616985    0.486240
     17          1           0       -2.307778   -1.966825    0.909108
     18          1           0       -1.750354   -1.884152   -0.755472
 ---------------------------------------------------------------------

 SCF Done:  E(RHF) =  -990.388124385     A.U. after    2 cycles

 The electronic state is 1-A.
 Alpha  occ. eigenvalues -- -103.49761 -25.86408 -20.47376 -20.47025 -15.76473
 Alpha  occ. eigenvalues --  -15.49430 -15.46982 -11.26189 -11.09489 -11.08037
 Alpha  occ. eigenvalues --  -10.53040  -8.18725  -8.18500  -8.18495  -1.39744
 Alpha  occ. eigenvalues --   -1.37890  -1.21553  -1.08786  -1.00837  -0.96220
 Alpha  occ. eigenvalues --   -0.87104  -0.84162  -0.72355  -0.65395  -0.59700
 Alpha  occ. eigenvalues --   -0.59260  -0.58007  -0.54713  -0.54191  -0.51168
 Alpha  occ. eigenvalues --   -0.47622  -0.46263  -0.45649  -0.43492  -0.42623
 Alpha  occ. eigenvalues --   -0.40927  -0.39007  -0.36954  -0.35576  -0.33141
 Alpha  occ. eigenvalues --   -0.31394  -0.31007  -0.28830  -0.25548  -0.18005
 Alpha virt. eigenvalues --    0.12523   0.13439   0.14628   0.14647   0.16525
 Alpha virt. eigenvalues --    0.17114   0.18037   0.18595   0.20657   0.21855
 Alpha virt. eigenvalues --    0.22683   0.24829   0.25322   0.25809   0.26578

 Mulliken charges:
               1
     1  C    1.181142
     2  C   -0.991461
     3  Cl  -0.306007
     4  F   -0.464648
     5  H    0.535166
     6  N   -0.457737
     7  H    0.101574
     8  H    0.064339
     9  N    0.274524
    10  O   -0.645529
    11  O   -0.601771
    12  N   -0.242262
    13  H   -0.006701
    14  H   -0.042760
    15  C    0.845069
    16  H   -0.052603
    17  H   -0.069643
    18  H   -0.120693
 Sum of Mulliken charges =  -1.00000

 Dipole moment (field-independent basis, Debye):
    X=              0.6514    Y=             -4.3479    Z=              0.2136  Tot=              4.4016

 Test job not archived.
 1\1\GINC-SE208\SP\RHF\Aug-CC-pVDZ\C3H8Cl1F1N3O2(1-)\OHZDE\09-Apr-2025\
 0\\#t hf aug-cc-pvdz iop(5/13=1,5/36=2,99/5=2) pseudo=read geom=check
 guess=(read,tcheck) scf=(maxcycle=1)\\title\\-1,1\C,0,-0.18050625,-0.0
 2188558,-0.28058972\C,0,-0.29349328,0.09237735,1.15165266\Cl,0,1.67196
 638,-0.18370679,-0.92170424\F,0,-2.65231214,-0.84236845,1.40979942\H,0
 ,-1.72819782,-0.2649727,1.32290998\N,0,-0.85104751,-1.11188297,-0.9283
 387\H,0,-1.66652589,-1.3306467,-0.36094947\H,0,-0.23289353,-1.90830498
 ,-0.97544873\N,0,-0.68273782,1.28660774,-0.92442969\O,0,0.08864836,2.1

 Normal termination of Gaussian 16 at Wed Apr  9 02:34:14 2025.
