 Gaussian 16, Revision C.01,

 ----------------------------------------------------------------------
 #t hf aug-cc-pvdz symm=none int=(grid=ultrafine) guess=(read,tcheck) s
 table=(opt,rrhf)
 ----------------------------------------------------------------------
 -----
 title
 -----
 Symbolic Z-matrix:
 Charge = -1 Multiplicity = 1

 SCF Done:  E(RHF) =  -591.775347970     A.U. after   16 cycles
 Normal termination of Gaussian 16 at Wed Apr  9 02:45:44 2025.
 Gaussian 16:  ES64L-G16RevC.01  3-Jul-2019

 ----------------------------------------------------------------------
 #t hf aug-cc-pvdz iop(5/13=1,5/36=2,99/5=2) pseudo=read geom=check gue
 ss=(read,tcheck) scf=(maxcycle=1)
 ----------------------------------------------------------------------
 -----
 title
 -----
 Structure from the checkpoint file:  "E2SN2_268_mol1.chk"
 Charge = -1 Multiplicity = 1

                         Standard orientation:
 ---------------------------------------------------------------------
 Center     Atomic      Atomic             Coordinates (Angstroms)
 Number     Number       Type             X           Y           Z
 ---------------------------------------------------------------------
      1          6           0       -0.450802    0.183224    0.071292
      2          1           0        0.749055   -0.441630    1.699699
      3          9           0        0.186304    0.087707   -1.590824
      4          9           0       -1.216146    0.263447    1.648764
      5          6           0        0.747059   -0.606487    0.621153
      6          6           0       -1.637977   -0.494565   -0.424734
      7          7           0       -2.586364   -1.073601   -0.805398
      8          6           0       -0.382888    1.632033    0.009352
      9          7           0       -0.303234    2.803653   -0.015416
     10          6           0        2.024809   -0.113944    0.098437
     11          7           0        3.106545    0.218057   -0.215832
     12          6           0        0.591128   -2.098610    0.331927
     13          1           0       -0.315284   -2.467423    0.814857
     14          1           0        0.517853   -2.247580   -0.744542
     15          1           0        1.450348   -2.650429    0.720492
 ---------------------------------------------------------------------

 SCF Done:  E(RHF) =  -591.948978733     A.U. after    2 cycles

 The electronic state is 1-A.
 Alpha  occ. eigenvalues --  -25.89073 -25.87799 -15.53101 -15.52791 -15.52638
 Alpha  occ. eigenvalues --  -11.32231 -11.19776 -11.19196 -11.19042 -11.18214
 Alpha  occ. eigenvalues --  -11.14368  -1.39770  -1.38314  -1.08157  -1.06693
 Alpha  occ. eigenvalues --   -1.06233  -1.00263  -0.90491  -0.80017  -0.70127
 Alpha  occ. eigenvalues --   -0.62903  -0.59315  -0.54486  -0.50471  -0.49187
 Alpha  occ. eigenvalues --   -0.47368  -0.46871  -0.46235  -0.45747  -0.44359
 Alpha  occ. eigenvalues --   -0.43347  -0.43007  -0.41732  -0.40231  -0.35924
 Alpha  occ. eigenvalues --   -0.34482  -0.34024  -0.33683  -0.33400  -0.33167
 Alpha virt. eigenvalues --    0.11732   0.14038   0.14660   0.15896   0.17282
 Alpha virt. eigenvalues --    0.18538   0.19386   0.20502   0.21582   0.22241
 Alpha virt. eigenvalues --    0.22303   0.23408   0.24010   0.24675   0.25209

 Mulliken charges:
               1
     1  C    2.822093
     2  H    0.024634
     3  F   -0.717990
     4  F   -0.722325
     5  C   -0.310289
     6  C   -1.178372
     7  N   -0.175238
     8  C   -1.218229
     9  N   -0.151608
    10  C   -0.058009
    11  N   -0.301311
    12  C    0.954976
    13  H    0.015491
    14  H    0.111701
    15  H   -0.095525
 Sum of Mulliken charges =  -1.00000

 Dipole moment (field-independent basis, Debye):
    X=              1.3117    Y=             -4.1193    Z=              2.4005  Tot=              4.9448

 Test job not archived.
 1\1\GINC-SE188\SP\RHF\Aug-CC-pVDZ\C6H4F2N3(1-)\OHZDE\09-Apr-2025\0\\#t
  hf aug-cc-pvdz iop(5/13=1,5/36=2,99/5=2) pseudo=read geom=check guess
 =(read,tcheck) scf=(maxcycle=1)\\title\\-1,1\C,0,0.61762108,-0.0644833
 9,0.0265884\H,0,1.69841581,1.74735842,0.20243746\F,0,-1.14703867,-0.07
 528133,0.27861084\F,0,2.33654384,-0.17382144,-0.31098451\C,0,0.6540675
 1,1.47143536,0.04866096\C,0,0.37080398,-0.79587491,-1.20587739\N,0,0.1
 8171032,-1.35499951,-2.22138153\C,0,0.79458859,-0.80061578,1.26525223\
 N,0,0.95447511,-1.3681567,2.28111905\C,0,-0.11719479,2.02985724,1.1630

 Normal termination of Gaussian 16 at Wed Apr  9 02:45:53 2025.
