 Gaussian 16, Revision C.01,

 ----------------------------------------------------------------------
 #t hf aug-cc-pvdz symm=none int=(grid=ultrafine) guess=(read,tcheck) s
 table=(opt,rrhf)
 ----------------------------------------------------------------------
 -----
 title
 -----
 Symbolic Z-matrix:
 Charge = -1 Multiplicity = 1

 SCF Done:  E(RHF) =  -555.143979751     A.U. after   15 cycles
 Normal termination of Gaussian 16 at Wed Apr  9 02:55:45 2025.
 Gaussian 16:  ES64L-G16RevC.01  3-Jul-2019

 ----------------------------------------------------------------------
 #t hf aug-cc-pvdz iop(5/13=1,5/36=2,99/5=2) pseudo=read geom=check gue
 ss=(read,tcheck) scf=(maxcycle=1)
 ----------------------------------------------------------------------
 -----
 title
 -----
 Structure from the checkpoint file:  "E2SN2_392_mol2.chk"
 Charge = -1 Multiplicity = 1

                         Standard orientation:
 ---------------------------------------------------------------------
 Center     Atomic      Atomic             Coordinates (Angstroms)
 Number     Number       Type             X           Y           Z
 ---------------------------------------------------------------------
      1          6           0        0.355873   -0.197441   -0.552963
      2          6           0       -0.633578    0.014791    0.596863
      3          9           0       -0.015301   -1.339805   -1.289386
      4          1           0       -0.313286    1.006942    0.991765
      5          7           0        0.357622    0.945945   -1.380484
      6          1           0        0.540539    1.735326   -0.686457
      7          1           0        1.125575    0.883689   -2.040473
      8          6           0        1.698671   -0.550117   -0.002153
      9          7           0        2.775959   -0.838132    0.368039
     10          6           0       -0.575838   -1.086449    1.655477
     11          1           0        0.388877   -1.063184    2.165646
     12          1           0       -1.359119   -0.931315    2.400592
     13          1           0       -0.716401   -2.072791    1.205597
     14          6           0       -1.980975    0.107862    0.041150
     15          7           0       -3.097610    0.140458   -0.322874
     16          9           0        0.781646    2.336645    0.720532
 ---------------------------------------------------------------------

 SCF Done:  E(RHF) =  -555.311914005     A.U. after    2 cycles

 The electronic state is 1-A.
 Alpha  occ. eigenvalues --  -26.00474 -25.78122 -15.53420 -15.51631 -15.47819
 Alpha  occ. eigenvalues --  -11.28446 -11.18046 -11.17190 -11.15637 -11.13545
 Alpha  occ. eigenvalues --   -1.53845  -1.27493  -1.09121  -1.06135  -1.04630
 Alpha  occ. eigenvalues --   -0.95558  -0.82860  -0.78444  -0.68105  -0.64072
 Alpha  occ. eigenvalues --   -0.62137  -0.56067  -0.54239  -0.50561  -0.49546
 Alpha  occ. eigenvalues --   -0.46381  -0.44191  -0.43483  -0.42028  -0.41220
 Alpha  occ. eigenvalues --   -0.37914  -0.36640  -0.36384  -0.35256  -0.34875
 Alpha  occ. eigenvalues --   -0.32602  -0.31164  -0.28207
 Alpha virt. eigenvalues --    0.12381   0.13864   0.14412   0.15270   0.17492
 Alpha virt. eigenvalues --    0.18132   0.18782   0.19294   0.21063   0.21825
 Alpha virt. eigenvalues --    0.23300   0.23550   0.24770   0.25219   0.25520

 Mulliken charges:
               1
     1  C    1.300109
     2  C    0.060761
     3  F   -0.497612
     4  H   -0.077899
     5  N   -0.638736
     6  H    0.271642
     7  H    0.004930
     8  C   -0.362934
     9  N   -0.264916
    10  C    0.786499
    11  H   -0.031374
    12  H   -0.056280
    13  H    0.016957
    14  C   -0.275378
    15  N   -0.289544
    16  F   -0.946223
 Sum of Mulliken charges =  -1.00000

 Dipole moment (field-independent basis, Debye):
    X=             -0.2788    Y=             -4.9845    Z=             -0.0666  Tot=              4.9928

 Test job not archived.
 1\1\GINC-SE398\SP\RHF\Aug-CC-pVDZ\C5H6F2N3(1-)\OHZDE\09-Apr-2025\0\\#t
  hf aug-cc-pvdz iop(5/13=1,5/36=2,99/5=2) pseudo=read geom=check guess
 =(read,tcheck) scf=(maxcycle=1)\\title\\-1,1\C,0,0.010669,-0.023017,0.
 008982\C,0,-0.513871,-0.012497,-1.430081\F,0,1.418365,0.034906,-0.0020
 23\H,0,-1.61285,0.085732,-1.270415\N,0,-0.524748,1.081355,0.705989\H,0
 ,-1.573497,0.973736,0.542288\H,0,-0.319862,0.987687,1.695161\C,0,-0.28
 6093,-1.342577,0.642678\N,0,-0.48387,-2.36075,1.194722\C,0,-0.143683,-
 1.269071,-2.217933\H,0,-0.644676,-2.139062,-1.789436\H,0,-0.465118,-1.

 Normal termination of Gaussian 16 at Wed Apr  9 02:55:53 2025.
