 Gaussian 16, Revision C.01,

 ----------------------------------------------------------------------
 #t hf aug-cc-pvdz symm=none int=(grid=ultrafine) guess=(read,tcheck) s
 table=(opt,rrhf)
 ----------------------------------------------------------------------
 -----
 title
 -----
 Symbolic Z-matrix:
 Charge = -1 Multiplicity = 1

 SCF Done:  E(RHF) =  -1384.65937565     A.U. after   17 cycles
 Normal termination of Gaussian 16 at Wed Apr  9 02:37:33 2025.
 Gaussian 16:  ES64L-G16RevC.01  3-Jul-2019

 ----------------------------------------------------------------------
 #t hf aug-cc-pvdz iop(5/13=1,5/36=2,99/5=2) pseudo=read geom=check gue
 ss=(read,tcheck) scf=(maxcycle=1)
 ----------------------------------------------------------------------
 -----
 title
 -----
 Structure from the checkpoint file:  "E2SN2_176_mol1.chk"
 Charge = -1 Multiplicity = 1

                         Standard orientation:
 ---------------------------------------------------------------------
 Center     Atomic      Atomic             Coordinates (Angstroms)
 Number     Number       Type             X           Y           Z
 ---------------------------------------------------------------------
      1          6           0       -0.726316   -0.123417    0.444016
      2          1           0       -0.334817    1.017302   -1.324311
      3         17           0        1.043785   -1.146961    1.599912
      4         17           0       -2.532820    1.087675   -0.177468
      5          6           0        0.219423    0.657043   -0.455166
      6          1           0       -0.919294    0.226325    1.439139
      7          6           0       -1.275239   -1.379352    0.026340
      8          7           0       -1.754402   -2.410289   -0.278914
      9          7           0        1.327091   -0.170126   -1.090704
     10          8           0        2.467900    0.268359   -1.054366
     11          8           0        0.942527   -1.159914   -1.697005
     12          6           0        0.781039    1.794631    0.260123
     13          7           0        1.183146    2.752308    0.807148
 ---------------------------------------------------------------------

 SCF Done:  E(RHF) =  -1384.82278164     A.U. after    2 cycles

 The electronic state is 1-A.
 Alpha  occ. eigenvalues -- -103.48698-103.46019 -20.53537 -20.53188 -15.83501
 Alpha  occ. eigenvalues --  -15.57047 -15.54919 -11.30960 -11.29077 -11.21954
 Alpha  occ. eigenvalues --  -11.20730 -10.51941 -10.49284  -8.17584  -8.17428
 Alpha  occ. eigenvalues --   -8.17414  -8.14922  -8.14788  -8.14773  -1.46203
 Alpha  occ. eigenvalues --   -1.28194  -1.11835  -1.08950  -1.05355  -0.96269
 Alpha  occ. eigenvalues --   -0.93395  -0.88174  -0.80709  -0.71105  -0.67151
 Alpha  occ. eigenvalues --   -0.66187  -0.63042  -0.62021  -0.54805  -0.47396
 Alpha  occ. eigenvalues --   -0.45381  -0.44366  -0.43852  -0.41862  -0.39010
 Alpha  occ. eigenvalues --   -0.38097  -0.37477  -0.35538  -0.33486  -0.31373
 Alpha  occ. eigenvalues --   -0.30499  -0.29233  -0.28286  -0.26277
 Alpha virt. eigenvalues --    0.12984   0.14231   0.14586   0.16694   0.17410
 Alpha virt. eigenvalues --    0.18622   0.19702   0.20122   0.21311   0.22303
 Alpha virt. eigenvalues --    0.22560   0.23292   0.23567   0.24181   0.25092

 Mulliken charges:
               1
     1  C    1.405743
     2  H   -0.008165
     3  Cl  -0.626616
     4  Cl  -0.535197
     5  C    1.459351
     6  H   -0.505013
     7  C   -0.823834
     8  N   -0.174172
     9  N    0.435901
    10  O   -0.607106
    11  O   -0.594673
    12  C   -0.199598
    13  N   -0.226620
 Sum of Mulliken charges =  -1.00000

 Dipole moment (field-independent basis, Debye):
    X=              0.1733    Y=              2.0820    Z=             -2.1408  Tot=              2.9913

 Test job not archived.
 1\1\GINC-SE108\SP\RHF\Aug-CC-pVDZ\C4H2Cl2N3O2(1-)\OHZDE\09-Apr-2025\0\
 \#t hf aug-cc-pvdz iop(5/13=1,5/36=2,99/5=2) pseudo=read geom=check gu
 ess=(read,tcheck) scf=(maxcycle=1)\\title\\-1,1\C,0,0.59359356,-0.0601
 747,0.05546833\H,0,1.70192696,1.73979027,0.39194258\Cl,0,-1.75301594,-
 0.03287423,0.15384186\Cl,0,2.76297914,-0.29978517,-0.53849708\C,0,0.68
 377531,1.45644034,0.11723731\H,0,0.35697784,-0.53858093,-0.87456931\C,
 0,0.70604864,-0.85614832,1.24160573\N,0,0.79983305,-1.54864979,2.18884
 127\N,0,-0.14589188,2.10285704,1.21671116\O,0,-0.83396692,3.07108034,0

 Normal termination of Gaussian 16 at Wed Apr  9 02:37:41 2025.
