 Gaussian 16, Revision C.01,

 ----------------------------------------------------------------------
 #t hf aug-cc-pvdz symm=none int=(grid=ultrafine) guess=(read,tcheck) s
 table=(opt,rrhf)
 ----------------------------------------------------------------------
 -----
 title
 -----
 Symbolic Z-matrix:
 Charge = -1 Multiplicity = 1

 SCF Done:  E(RHF) =  -971.891917396     A.U. after   17 cycles
 Normal termination of Gaussian 16 at Wed Apr  9 02:41:25 2025.
 Gaussian 16:  ES64L-G16RevC.01  3-Jul-2019

 ----------------------------------------------------------------------
 #t hf aug-cc-pvdz iop(5/13=1,5/36=2,99/5=2) pseudo=read geom=check gue
 ss=(read,tcheck) scf=(maxcycle=1)
 ----------------------------------------------------------------------
 -----
 title
 -----
 Structure from the checkpoint file:  "E2SN2_232_mol1.chk"
 Charge = -1 Multiplicity = 1

                         Standard orientation:
 ---------------------------------------------------------------------
 Center     Atomic      Atomic             Coordinates (Angstroms)
 Number     Number       Type             X           Y           Z
 ---------------------------------------------------------------------
      1          6           0        0.043955    0.069630    0.174483
      2          1           0       -0.853804    1.284496   -1.391607
      3          9           0       -0.818117   -1.715095    0.275193
      4         17           0        1.259749    1.808717   -0.113363
      5          6           0       -0.982924    0.308491   -0.921798
      6          1           0       -0.854014   -0.471141   -1.668089
      7          7           0        1.171518   -0.854190   -0.181062
      8          8           0        1.333038   -1.116077   -1.365917
      9          8           0        1.890927   -1.235990    0.730984
     10          6           0       -0.258402    0.303081    1.628255
     11          1           0        0.664621    0.216995    2.196954
     12          1           0       -0.658121    1.308970    1.760717
     13          1           0       -0.973163   -0.446448    1.952791
     14          6           0       -2.342423    0.236326   -0.390338
     15          7           0       -3.447397    0.297926    0.000421
 ---------------------------------------------------------------------

 SCF Done:  E(RHF) =  -972.059888736     A.U. after    2 cycles

 The electronic state is 1-A.
 Alpha  occ. eigenvalues -- -103.48064 -25.81499 -20.48444 -20.48313 -15.79384
 Alpha  occ. eigenvalues --  -15.51851 -11.29603 -11.17854 -11.17542 -11.11997
 Alpha  occ. eigenvalues --  -10.51380  -8.17038  -8.16858  -8.16853  -1.41697
 Alpha  occ. eigenvalues --   -1.31500  -1.23239  -1.06566  -1.02512  -0.92882
 Alpha  occ. eigenvalues --   -0.88655  -0.84296  -0.68772  -0.62050  -0.60666
 Alpha  occ. eigenvalues --   -0.59732  -0.57543  -0.53040  -0.48801  -0.48043
 Alpha  occ. eigenvalues --   -0.43194  -0.42889  -0.41248  -0.39886  -0.38621
 Alpha  occ. eigenvalues --   -0.38455  -0.37747  -0.34509  -0.33584  -0.33005
 Alpha  occ. eigenvalues --   -0.30756  -0.30146  -0.29946
 Alpha virt. eigenvalues --    0.13502   0.13690   0.15305   0.16206   0.16973
 Alpha virt. eigenvalues --    0.17981   0.18518   0.20106   0.21941   0.22553
 Alpha virt. eigenvalues --    0.23834   0.24570   0.25288   0.25694   0.26578

 Mulliken charges:
               1
     1  C   -0.506876
     2  H    0.017159
     3  F   -0.795413
     4  Cl  -0.495704
     5  C    0.647236
     6  H    0.209203
     7  N    0.778361
     8  O   -0.722366
     9  O   -0.693752
    10  C    0.622824
    11  H    0.023222
    12  H    0.107603
    13  H    0.099059
    14  C    0.067023
    15  N   -0.357579
 Sum of Mulliken charges =  -1.00000

 Dipole moment (field-independent basis, Debye):
    X=              0.6808    Y=              3.2180    Z=             -0.2621  Tot=              3.2996

 Test job not archived.
 1\1\GINC-SE461\SP\RHF\Aug-CC-pVDZ\C4H5Cl1F1N2O2(1-)\OHZDE\09-Apr-2025\
 0\\#t hf aug-cc-pvdz iop(5/13=1,5/36=2,99/5=2) pseudo=read geom=check
 guess=(read,tcheck) scf=(maxcycle=1)\\title\\-1,1\C,0,0.82385877,-0.04
 207466,0.0881754\H,0,1.6925503,1.95279157,0.10800233\F,0,-1.1312226,0.
 03460141,-0.24398534\Cl,0,2.95668314,-0.23280928,0.07737903\C,0,0.7164
 2349,1.4736197,0.0211193\H,0,0.27293645,1.72934754,-0.93769063\N,0,0.6
 9032749,-0.76183009,-1.22154711\O,0,0.78330344,-0.0941581,-2.24337119\
 O,0,0.55757154,-1.97670295,-1.18144821\C,0,0.58313998,-0.81290645,1.35

 Normal termination of Gaussian 16 at Wed Apr  9 02:41:31 2025.
