 Gaussian 16, Revision C.01,

 ----------------------------------------------------------------------
 #t hf aug-cc-pvdz symm=none int=(grid=ultrafine) guess=(read,tcheck) s
 table=(opt,rrhf)
 ----------------------------------------------------------------------
 -----
 title
 -----
 Symbolic Z-matrix:
 Charge = -1 Multiplicity = 1

 SCF Done:  E(RHF) =  -516.086052485     A.U. after   15 cycles
 Normal termination of Gaussian 16 at Wed Apr  9 02:39:00 2025.
 Gaussian 16:  ES64L-G16RevC.01  3-Jul-2019

 ----------------------------------------------------------------------
 #t hf aug-cc-pvdz iop(5/13=1,5/36=2,99/5=2) pseudo=read geom=check gue
 ss=(read,tcheck) scf=(maxcycle=1)
 ----------------------------------------------------------------------
 -----
 title
 -----
 Structure from the checkpoint file:  "E2SN2_200_mol2.chk"
 Charge = -1 Multiplicity = 1

                         Standard orientation:
 ---------------------------------------------------------------------
 Center     Atomic      Atomic             Coordinates (Angstroms)
 Number     Number       Type             X           Y           Z
 ---------------------------------------------------------------------
      1          6           0       -0.940623   -0.936192   -0.089646
      2          6           0        0.060728    0.033331   -0.759313
      3          9           0       -2.214384   -0.506572   -0.583637
      4          1           0       -0.201616    0.019533   -1.825308
      5          1           0       -0.813957   -1.922446   -0.557250
      6          7           0       -0.875161   -0.923823    1.294256
      7          1           0       -0.916448   -1.849464    1.689351
      8          1           0       -0.027201   -0.357931    1.613083
      9          6           0        1.431852   -0.478842   -0.655893
     10          7           0        2.445712   -1.035612   -0.864216
     11          6           0       -0.105650    1.422943   -0.320878
     12          7           0       -0.368738    2.562187   -0.212704
     13          9           0        1.199794    0.466972    1.529543
 ---------------------------------------------------------------------

 SCF Done:  E(RHF) =  -516.242165883     A.U. after    2 cycles

 The electronic state is 1-A.
 Alpha  occ. eigenvalues --  -25.97493 -25.77666 -15.51096 -15.50461 -15.46126
 Alpha  occ. eigenvalues --  -11.24931 -11.20611 -11.17852 -11.16973  -1.50434
 Alpha  occ. eigenvalues --   -1.27399  -1.07475  -1.04392  -1.03677  -0.93843
 Alpha  occ. eigenvalues --   -0.77110  -0.66266  -0.62047  -0.61211  -0.57854
 Alpha  occ. eigenvalues --   -0.55273  -0.52576  -0.47440  -0.43773  -0.42232
 Alpha  occ. eigenvalues --   -0.41327  -0.38845  -0.37799  -0.34736  -0.33065
 Alpha  occ. eigenvalues --   -0.32093  -0.31011  -0.30380  -0.26902
 Alpha virt. eigenvalues --    0.12020   0.13135   0.15043   0.17922   0.18819
 Alpha virt. eigenvalues --    0.19941   0.21279   0.22479   0.23618   0.23750
 Alpha virt. eigenvalues --    0.24404   0.25140   0.25991   0.26290   0.26700

 Mulliken charges:
               1
     1  C    1.010554
     2  C    0.561494
     3  F   -0.448526
     4  H    0.180016
     5  H   -0.230419
     6  N   -0.508212
     7  H   -0.010107
     8  H    0.230003
     9  C   -0.110118
    10  N   -0.371243
    11  C   -0.035908
    12  N   -0.373836
    13  F   -0.893698
 Sum of Mulliken charges =  -1.00000

 Dipole moment (field-independent basis, Debye):
    X=             -3.3294    Y=             -4.5963    Z=             -3.8957  Tot=              6.8839

 Test job not archived.
 1\1\GINC-SE344\SP\RHF\Aug-CC-pVDZ\C4H4F2N3(1-)\OHZDE\09-Apr-2025\0\\#t
  hf aug-cc-pvdz iop(5/13=1,5/36=2,99/5=2) pseudo=read geom=check guess
 =(read,tcheck) scf=(maxcycle=1)\\title\\-1,1\C,0,0.238336,-0.36707,-0.
 138609\C,0,-0.268826,0.144964,-1.506725\F,0,1.019666,-1.51963,-0.47357
 \H,0,0.626549,0.194356,-2.140148\H,0,0.991725,0.344921,0.225902\N,0,-0
 .78259,-0.657119,0.752011\H,0,-0.586393,-0.325884,1.682821\H,0,-1.7149
 93,-0.312709,0.360952\C,0,-0.78152,1.515146,-1.393837\N,0,-0.870923,2.
 68682,-1.371658\C,0,-1.180061,-0.794287,-2.168831\N,0,-1.684966,-1.608

 Normal termination of Gaussian 16 at Wed Apr  9 02:39:06 2025.
