 Gaussian 16, Revision C.01,

 ----------------------------------------------------------------------
 #t hf aug-cc-pvdz symm=none int=(grid=ultrafine) guess=(read,tcheck) s
 table=(opt,rrhf)
 ----------------------------------------------------------------------
 -----
 title
 -----
 Symbolic Z-matrix:
 Charge = -1 Multiplicity = 1

 SCF Done:  E(RHF) =  -836.261351563     A.U. after   15 cycles
 Normal termination of Gaussian 16 at Wed Apr  9 02:35:03 2025.
 Gaussian 16:  ES64L-G16RevC.01  3-Jul-2019

 ----------------------------------------------------------------------
 #t hf aug-cc-pvdz iop(5/13=1,5/36=2,99/5=2) pseudo=read geom=check gue
 ss=(read,tcheck) scf=(maxcycle=1)
 ----------------------------------------------------------------------
 -----
 title
 -----
 Structure from the checkpoint file:  "E2SN2_156_mol2.chk"
 Charge = -1 Multiplicity = 1

                         Standard orientation:
 ---------------------------------------------------------------------
 Center     Atomic      Atomic             Coordinates (Angstroms)
 Number     Number       Type             X           Y           Z
 ---------------------------------------------------------------------
      1          6           0       -0.923471    0.366092    0.352278
      2          6           0        0.416770    0.653893   -0.321009
      3         17           0       -1.549287   -1.271555   -0.101891
      4          1           0        0.342361    0.615892   -1.408656
      5          1           0       -0.760402    0.322897    1.431018
      6          6           0       -1.954328    1.411054   -0.018418
      7          1           0       -2.134725    1.390970   -1.095862
      8          1           0       -1.559177    2.390195    0.247932
      9          1           0       -2.898410    1.225118    0.498553
     10          7           0        1.340623   -0.521775    0.027802
     11          8           0        1.711966   -1.274636   -0.867630
     12          8           0        1.657242   -0.630634    1.215491
     13          7           0        0.920337    1.903345    0.081369
     14          1           0        1.607737    2.261277   -0.709667
     15          1           0        1.379453    1.826196    0.983176
     16          1           0        2.346852    2.568820   -1.838537
 ---------------------------------------------------------------------

 SCF Done:  E(RHF) =  -836.395033782     A.U. after    2 cycles

 The electronic state is 1-A.
 Alpha  occ. eigenvalues -- -103.54651 -20.49673 -20.48983 -15.77587 -15.46086
 Alpha  occ. eigenvalues --  -11.21145 -11.20904 -11.13840 -10.58003  -8.23717
 Alpha  occ. eigenvalues --   -8.23451  -8.23439  -1.41145  -1.23094  -1.08764
 Alpha  occ. eigenvalues --   -1.03597  -0.90852  -0.87208  -0.75604  -0.69150
 Alpha  occ. eigenvalues --   -0.63989  -0.60951  -0.58949  -0.54375  -0.52947
 Alpha  occ. eigenvalues --   -0.47877  -0.46462  -0.44901  -0.40967  -0.40188
 Alpha  occ. eigenvalues --   -0.39271  -0.38126  -0.35497  -0.34587  -0.34209
 Alpha  occ. eigenvalues --   -0.26693  -0.09751
 Alpha virt. eigenvalues --    0.11289   0.13220   0.14187   0.14972   0.16494
 Alpha virt. eigenvalues --    0.17406   0.18354   0.20684   0.20758   0.21650
 Alpha virt. eigenvalues --    0.22068   0.24143   0.24329   0.25212   0.25750

 Mulliken charges:
               1
     1  C   -0.605502
     2  C    1.243656
     3  Cl  -0.226690
     4  H   -0.195334
     5  H   -0.041233
     6  C    0.633586
     7  H    0.009769
     8  H    0.037597
     9  H   -0.049901
    10  N    0.401176
    11  O   -0.600176
    12  O   -0.644455
    13  N   -0.351792
    14  H    0.090386
    15  H    0.073853
    16  H   -0.774941
 Sum of Mulliken charges =  -1.00000

 Dipole moment (field-independent basis, Debye):
    X=             -9.7509    Y=             -5.1009    Z=              6.2588  Tot=             12.6599

 Test job not archived.
 1\1\GINC-SE105\SP\RHF\Aug-CC-pVDZ\C3H8Cl1N2O2(1-)\OHZDE\09-Apr-2025\0\
 \#t hf aug-cc-pvdz iop(5/13=1,5/36=2,99/5=2) pseudo=read geom=check gu
 ess=(read,tcheck) scf=(maxcycle=1)\\title\\-1,1\C,0,-0.658965,0.072346
 ,-1.47699\C,0,0.101346,-0.092026,-0.162722\Cl,0,-0.65726,-1.464931,-2.
 434372\H,0,1.140409,-0.380708,-0.326939\H,0,-1.707882,0.263919,-1.2420
 22\C,0,-0.060302,1.180317,-2.317245\H,0,0.970658,0.932594,-2.581038\H,
 0,-0.055739,2.09392,-1.724697\H,0,-0.632817,1.322532,-3.236551\N,0,-0.
 512589,-1.307603,0.546381\O,0,0.169266,-2.316813,0.698245\O,0,-1.67949

 Normal termination of Gaussian 16 at Wed Apr  9 02:35:10 2025.
