 Gaussian 16, Revision C.01,

 ----------------------------------------------------------------------
 #t hf aug-cc-pvdz symm=none int=(grid=ultrafine) guess=(read,tcheck) s
 table=(opt,rrhf)
 ----------------------------------------------------------------------
 -----
 title
 -----
 Symbolic Z-matrix:
 Charge = -1 Multiplicity = 1

 SCF Done:  E(RHF) =  -502.436589549     A.U. after   15 cycles
 Normal termination of Gaussian 16 at Wed Apr  9 02:49:33 2025.
 Gaussian 16:  ES64L-G16RevC.01  3-Jul-2019

 ----------------------------------------------------------------------
 #t hf aug-cc-pvdz iop(5/13=1,5/36=2,99/5=2) pseudo=read geom=check gue
 ss=(read,tcheck) scf=(maxcycle=1)
 ----------------------------------------------------------------------
 -----
 title
 -----
 Structure from the checkpoint file:  "E2SN2_315_mol2.chk"
 Charge = -1 Multiplicity = 1

                         Standard orientation:
 ---------------------------------------------------------------------
 Center     Atomic      Atomic             Coordinates (Angstroms)
 Number     Number       Type             X           Y           Z
 ---------------------------------------------------------------------
      1          6           0       -0.390476   -0.249031    0.411534
      2          6           0        0.375002    0.778964   -0.426547
      3          9           0       -0.989737    0.456883    1.520361
      4          1           0        0.755635    0.215590   -1.283872
      5          6           0       -1.595586   -0.733676   -0.328165
      6          7           0       -2.519269   -1.164792   -0.914291
      7          7           0        0.437615   -1.271206    0.855766
      8          1           0        1.301899   -1.415125    0.189520
      9          1           0       -0.072950   -2.121242    1.050269
     10          6           0        1.598894    1.266388    0.349065
     11          1           0        2.036411    2.131774   -0.161916
     12          1           0        2.327750    0.457662    0.355698
     13          1           0        1.326691    1.561163    1.365699
     14          6           0       -0.526874    1.929072   -0.861442
     15          1           0       -0.885526    2.483799    0.009081
     16          1           0       -1.396631    1.581978   -1.427047
     17          1           0        0.034120    2.618345   -1.499852
     18          9           0        2.365115   -1.391578   -0.748647
 ---------------------------------------------------------------------

 SCF Done:  E(RHF) =  -502.592249780     A.U. after    2 cycles

 The electronic state is 1-A.
 Alpha  occ. eigenvalues --  -25.96830 -25.76626 -15.52406 -15.44845 -11.25469
 Alpha  occ. eigenvalues --  -11.17141 -11.11179 -11.10793 -11.08100  -1.49619
 Alpha  occ. eigenvalues --   -1.26062  -1.07183  -1.03254  -0.93283  -0.81022
 Alpha  occ. eigenvalues --   -0.79749  -0.68249  -0.64394  -0.59661  -0.56895
 Alpha  occ. eigenvalues --   -0.53309  -0.49652  -0.48150  -0.46707  -0.43675
 Alpha  occ. eigenvalues --   -0.42594  -0.41031  -0.37646  -0.37457  -0.36063
 Alpha  occ. eigenvalues --   -0.35338  -0.34035  -0.33748  -0.33128  -0.31924
 Alpha  occ. eigenvalues --   -0.25278
 Alpha virt. eigenvalues --    0.12321   0.13758   0.14261   0.14846   0.15856
 Alpha virt. eigenvalues --    0.16406   0.17714   0.18068   0.19667   0.20029
 Alpha virt. eigenvalues --    0.22535   0.23211   0.23482   0.24098   0.24933

 Mulliken charges:
               1
     1  C    1.514164
     2  C   -1.296499
     3  F   -0.516928
     4  H   -0.174989
     5  C   -0.616205
     6  N   -0.221709
     7  N   -0.631197
     8  H    0.264957
     9  H   -0.034092
    10  C    0.872805
    11  H   -0.106569
    12  H    0.073299
    13  H   -0.007943
    14  C    0.826330
    15  H    0.043364
    16  H   -0.080093
    17  H   -0.017118
    18  F   -0.891577
 Sum of Mulliken charges =  -1.00000

 Dipole moment (field-independent basis, Debye):
    X=             -3.3028    Y=              4.5320    Z=              1.2040  Tot=              5.7356

 Test job not archived.
 1\1\GINC-SE435\SP\RHF\Aug-CC-pVDZ\C5H9F2N2(1-)\OHZDE\09-Apr-2025\0\\#t
  hf aug-cc-pvdz iop(5/13=1,5/36=2,99/5=2) pseudo=read geom=check guess
 =(read,tcheck) scf=(maxcycle=1)\\title\\-1,1\C,0,0.059191,0.126934,0.0
 35961\C,0,-0.453634,0.239505,-1.402597\F,0,1.497901,0.01178,-0.025516\
 H,0,-1.53326,0.388674,-1.30547\C,0,-0.112023,1.425995,0.7553\N,0,-0.28
 5155,2.423563,1.353195\N,0,-0.503093,-0.954883,0.700361\H,0,-1.48641,-
 1.223042,0.284717\H,0,-0.504785,-0.830369,1.703138\C,0,-0.264122,-1.09
 5823,-2.122355\H,0,-0.450872,-0.964566,-3.194415\H,0,-0.998056,-1.7928

 Normal termination of Gaussian 16 at Wed Apr  9 02:49:42 2025.
