 Gaussian 16, Revision C.01,

 ----------------------------------------------------------------------
 #t hf aug-cc-pvdz symm=none int=(grid=ultrafine) guess=(read,tcheck) s
 table=(opt,rrhf)
 ----------------------------------------------------------------------
 -----
 title
 -----
 Symbolic Z-matrix:
 Charge = -1 Multiplicity = 1

 SCF Done:  E(RHF) =  -575.119519321     A.U. after   16 cycles
 Normal termination of Gaussian 16 at Wed Apr  9 02:38:05 2025.
 Gaussian 16:  ES64L-G16RevC.01  3-Jul-2019

 ----------------------------------------------------------------------
 #t hf aug-cc-pvdz iop(5/13=1,5/36=2,99/5=2) pseudo=read geom=check gue
 ss=(read,tcheck) scf=(maxcycle=1)
 ----------------------------------------------------------------------
 -----
 title
 -----
 Structure from the checkpoint file:  "E2SN2_197_mol1.chk"
 Charge = -1 Multiplicity = 1

                         Standard orientation:
 ---------------------------------------------------------------------
 Center     Atomic      Atomic             Coordinates (Angstroms)
 Number     Number       Type             X           Y           Z
 ---------------------------------------------------------------------
      1          6           0       -1.062360   -0.148070    0.336867
      2          1           0       -0.228546    0.715730   -1.393007
      3          9           0        0.085424   -0.986406    1.479711
      4          9           0       -2.263804    0.809168   -0.541356
      5          6           0        0.057769    0.620379   -0.347008
      6          1           0       -1.477790    0.268627    1.240847
      7          7           0       -1.506686   -1.380964   -0.231591
      8          1           0       -2.506189   -1.301672   -0.348781
      9          1           0       -1.263692   -2.096886    0.437123
     10          7           0        1.353547   -0.145068   -0.396965
     11          8           0        2.316028    0.262263    0.251376
     12          8           0        1.395397   -1.107542   -1.158148
     13          6           0        0.263908    1.962437    0.315891
     14          1           0       -0.689089    2.487976    0.263914
     15          1           0        0.555635    1.807806    1.354653
     16          1           0        1.039756    2.549536   -0.180369
 ---------------------------------------------------------------------

 SCF Done:  E(RHF) =  -575.295488690     A.U. after    2 cycles

 The electronic state is 1-A.
 Alpha  occ. eigenvalues --  -25.83209 -25.80936 -20.45962 -20.45849 -15.75389
 Alpha  occ. eigenvalues --  -15.45990 -11.22413 -11.16039 -11.10152  -1.38398
 Alpha  occ. eigenvalues --   -1.33684  -1.31286  -1.19979  -1.01954  -0.95640
 Alpha  occ. eigenvalues --   -0.80426  -0.75126  -0.66224  -0.59870  -0.57929
 Alpha  occ. eigenvalues --   -0.57268  -0.53931  -0.52131  -0.47328  -0.45604
 Alpha  occ. eigenvalues --   -0.43443  -0.42530  -0.41591  -0.40117  -0.39770
 Alpha  occ. eigenvalues --   -0.38662  -0.37475  -0.35124  -0.34441  -0.34215
 Alpha  occ. eigenvalues --   -0.31464  -0.25635
 Alpha virt. eigenvalues --    0.13149   0.14015   0.14596   0.15609   0.16588
 Alpha virt. eigenvalues --    0.17177   0.17672   0.22856   0.23333   0.24072
 Alpha virt. eigenvalues --    0.24349   0.26351   0.26428   0.26686   0.28248

 Mulliken charges:
               1
     1  C    1.140924
     2  H   -0.108327
     3  F   -0.843776
     4  F   -0.778083
     5  C    0.400198
     6  H   -0.249466
     7  N   -0.446615
     8  H    0.044678
     9  H    0.075660
    10  N    0.475144
    11  O   -0.669648
    12  O   -0.659761
    13  C    0.410837
    14  H    0.078591
    15  H    0.163070
    16  H   -0.033427
 Sum of Mulliken charges =  -1.00000

 Dipole moment (field-independent basis, Debye):
    X=             -0.6004    Y=              2.2960    Z=             -0.4136  Tot=              2.4090

 Test job not archived.
 1\1\GINC-SE462\SP\RHF\Aug-CC-pVDZ\C3H7F2N2O2(1-)\OHZDE\09-Apr-2025\0\\
 #t hf aug-cc-pvdz iop(5/13=1,5/36=2,99/5=2) pseudo=read geom=check gue
 ss=(read,tcheck) scf=(maxcycle=1)\\title\\-1,1\C,0,0.51364574,-0.06521
 425,0.05644511\H,0,1.67494941,1.64978009,0.43595509\F,0,-1.23422279,-0
 .01329692,0.57467877\F,0,2.10737857,-0.19278589,-0.70170514\C,0,0.6553
 0561,1.44796277,0.11226129\H,0,0.1145355,-0.49898896,-0.84685355\N,0,0
 .89940098,-0.84132482,1.1919819\H,0,1.55103029,-1.53669719,0.85902038\
 H,0,0.05032673,-1.26064064,1.54128856\N,0,-0.19394337,2.08104236,1.182

 Normal termination of Gaussian 16 at Wed Apr  9 02:38:12 2025.
