 Gaussian 16, Revision C.01,

 ----------------------------------------------------------------------
 #t hf aug-cc-pvdz symm=none int=(grid=ultrafine) guess=(read,tcheck) s
 table=(opt,rrhf)
 ----------------------------------------------------------------------
 -----
 title
 -----
 Symbolic Z-matrix:
 Charge = -1 Multiplicity = 1

 SCF Done:  E(RHF) =  -627.800133869     A.U. after   16 cycles
 Normal termination of Gaussian 16 at Wed Apr  9 02:44:19 2025.
 Gaussian 16:  ES64L-G16RevC.01  3-Jul-2019

 ----------------------------------------------------------------------
 #t hf aug-cc-pvdz iop(5/13=1,5/36=2,99/5=2) pseudo=read geom=check gue
 ss=(read,tcheck) scf=(maxcycle=1)
 ----------------------------------------------------------------------
 -----
 title
 -----
 Structure from the checkpoint file:  "E2SN2_264_mol1.chk"
 Charge = -1 Multiplicity = 1

                         Standard orientation:
 ---------------------------------------------------------------------
 Center     Atomic      Atomic             Coordinates (Angstroms)
 Number     Number       Type             X           Y           Z
 ---------------------------------------------------------------------
      1          6           0       -0.104896    0.008498    0.087911
      2          1           0       -1.113547   -1.031514    1.633644
      3          9           0       -0.390467   -0.299989   -1.581040
      4          9           0        0.461135    0.396743    1.753369
      5          6           0       -1.059650   -1.071705    0.549786
      6          1           0       -0.596986   -2.015571    0.241429
      7          6           0       -0.520655    1.390860   -0.028343
      8          7           0       -0.888700    2.499633   -0.145912
      9          7           0        1.340505   -0.305633   -0.157718
     10          8           0        1.699781   -1.462470    0.023014
     11          8           0        2.055188    0.609301   -0.538753
     12          7           0       -2.390059   -0.837064   -0.012962
     13          1           0       -3.000222   -1.591117    0.278602
     14          1           0       -2.286038   -0.871705   -1.018704
 ---------------------------------------------------------------------

 SCF Done:  E(RHF) =  -627.989512999     A.U. after    2 cycles

 The electronic state is 1-A.
 Alpha  occ. eigenvalues --  -25.89309 -25.85368 -20.48412 -20.48352 -15.79125
 Alpha  occ. eigenvalues --  -15.50987 -15.49206 -11.31668 -11.17137 -11.15583
 Alpha  occ. eigenvalues --   -1.42462  -1.39280  -1.35550  -1.23137  -1.05807
 Alpha  occ. eigenvalues --   -1.03688  -0.95867  -0.80648  -0.75306  -0.66542
 Alpha  occ. eigenvalues --   -0.61207  -0.60823  -0.58465  -0.52931  -0.50707
 Alpha  occ. eigenvalues --   -0.50184  -0.48783  -0.46959  -0.44860  -0.44315
 Alpha  occ. eigenvalues --   -0.41998  -0.40772  -0.40363  -0.38265  -0.36544
 Alpha  occ. eigenvalues --   -0.33957  -0.32467  -0.31957  -0.27785
 Alpha virt. eigenvalues --    0.11772   0.14679   0.14792   0.16917   0.19319
 Alpha virt. eigenvalues --    0.20924   0.21638   0.23080   0.23556   0.24051
 Alpha virt. eigenvalues --    0.25305   0.25562   0.25993   0.27460   0.28459

 Mulliken charges:
               1
     1  C    1.681452
     2  H   -0.039719
     3  F   -0.709869
     4  F   -0.756009
     5  C    0.845811
     6  H    0.099244
     7  C   -0.759792
     8  N   -0.185054
     9  N    0.406206
    10  O   -0.651274
    11  O   -0.651959
    12  N   -0.332373
    13  H   -0.028140
    14  H    0.081477
 Sum of Mulliken charges =  -1.00000

 Dipole moment (field-independent basis, Debye):
    X=             -2.7418    Y=             -4.5181    Z=             -0.1592  Tot=              5.2874

 Test job not archived.
 1\1\GINC-SE435\SP\RHF\Aug-CC-pVDZ\C3H4F2N3O2(1-)\OHZDE\09-Apr-2025\0\\
 #t hf aug-cc-pvdz iop(5/13=1,5/36=2,99/5=2) pseudo=read geom=check gue
 ss=(read,tcheck) scf=(maxcycle=1)\\title\\-1,1\C,0,0.66755466,0.008871
 23,-0.03213924\H,0,1.6967571,1.86017078,-0.07366013\F,0,-1.0487851,-0.
 10292977,-0.09371414\F,0,2.4510095,-0.11357457,0.1896095\C,0,0.6652349
 8,1.52270496,-0.03696811\H,0,0.21947653,1.81270024,0.92075075\C,0,0.82
 729403,-0.75442358,-1.25245083\N,0,0.92605049,-1.35239929,-2.2580996\N
 ,0,0.615769,-0.74947256,1.26031134\O,0,0.56352359,-0.09224272,2.292461

 Normal termination of Gaussian 16 at Wed Apr  9 02:44:26 2025.
