 Gaussian 16, Revision C.01,

 ----------------------------------------------------------------------
 #t hf aug-cc-pvdz symm=none int=(grid=ultrafine) guess=(read,tcheck) s
 table=(opt,rrhf)
 ----------------------------------------------------------------------
 -----
 title
 -----
 Symbolic Z-matrix:
 Charge = -1 Multiplicity = 1

 SCF Done:  E(RHF) =  -935.215530384     A.U. after   16 cycles
 Normal termination of Gaussian 16 at Wed Apr  9 02:36:25 2025.
 Gaussian 16:  ES64L-G16RevC.01  3-Jul-2019

 ----------------------------------------------------------------------
 #t hf aug-cc-pvdz iop(5/13=1,5/36=2,99/5=2) pseudo=read geom=check gue
 ss=(read,tcheck) scf=(maxcycle=1)
 ----------------------------------------------------------------------
 -----
 title
 -----
 Structure from the checkpoint file:  "E2SN2_172_mol2.chk"
 Charge = -1 Multiplicity = 1

                         Standard orientation:
 ---------------------------------------------------------------------
 Center     Atomic      Atomic             Coordinates (Angstroms)
 Number     Number       Type             X           Y           Z
 ---------------------------------------------------------------------
      1          6           0        0.162096    0.200630    0.176244
      2          6           0       -0.907577    0.090450   -0.901876
      3         17           0        0.936856    1.819356    0.271413
      4          1           0       -0.467365    0.312408   -1.879955
      5          1           0       -0.315058   -0.082583    1.136274
      6          7           0        1.298321   -0.754348   -0.077919
      7          8           0        1.889819   -1.189217    0.907097
      8          8           0        1.586439   -1.030645   -1.244139
      9          6           0       -2.043401    1.051174   -0.567014
     10          1           0       -2.395358    0.765523    0.427115
     11          1           0       -2.844019    0.904061   -1.295248
     12          1           0       -1.730183    2.097170   -0.578427
     13          7           0       -1.462154   -1.260011   -0.886526
     14          1           0       -1.720836   -1.399152    0.111155
     15          1           0       -0.737806   -1.923505   -1.136628
     16          9           0       -1.738430   -0.866343    1.756113
 ---------------------------------------------------------------------

 SCF Done:  E(RHF) =  -935.377279955     A.U. after    2 cycles

 The electronic state is 1-A.
 Alpha  occ. eigenvalues -- -103.54910 -25.75977 -20.50196 -20.49864 -15.79083
 Alpha  occ. eigenvalues --  -15.45206 -11.21453 -11.14479 -11.08760 -10.58221
 Alpha  occ. eigenvalues --   -8.23947  -8.23667  -8.23644  -1.42166  -1.25016
 Alpha  occ. eigenvalues --   -1.23880  -1.07849  -1.01665  -0.90421  -0.84925
 Alpha  occ. eigenvalues --   -0.73563  -0.67370  -0.63294  -0.61356  -0.60045
 Alpha  occ. eigenvalues --   -0.53418  -0.49184  -0.46425  -0.43963  -0.42135
 Alpha  occ. eigenvalues --   -0.40060  -0.38660  -0.38216  -0.37144  -0.36706
 Alpha  occ. eigenvalues --   -0.35535  -0.34857  -0.34117  -0.33079  -0.31404
 Alpha  occ. eigenvalues --   -0.24716
 Alpha virt. eigenvalues --    0.12926   0.14186   0.14625   0.15764   0.17432
 Alpha virt. eigenvalues --    0.18197   0.18799   0.19616   0.20038   0.21957
 Alpha virt. eigenvalues --    0.24390   0.24838   0.25256   0.26154   0.26975

 Mulliken charges:
               1
     1  C    0.788626
     2  C   -0.102199
     3  Cl  -0.230963
     4  H   -0.137697
     5  H   -0.003707
     6  N    0.437759
     7  O   -0.605603
     8  O   -0.657637
     9  C    0.734594
    10  H    0.011148
    11  H   -0.014409
    12  H   -0.068981
    13  N   -0.361936
    14  H    0.167571
    15  H    0.010148
    16  F   -0.966712
 Sum of Mulliken charges =  -1.00000

 Dipole moment (field-independent basis, Debye):
    X=              3.0296    Y=              3.8188    Z=             -4.2324  Tot=              6.4556

 Test job not archived.
 1\1\GINC-SE074\SP\RHF\Aug-CC-pVDZ\C3H7Cl1F1N2O2(1-)\OHZDE\09-Apr-2025\
 0\\#t hf aug-cc-pvdz iop(5/13=1,5/36=2,99/5=2) pseudo=read geom=check
 guess=(read,tcheck) scf=(maxcycle=1)\\title\\-1,1\C,0,-0.19293,-0.0636
 17,0.01913\C,0,-0.418344,-0.040158,-1.486633\Cl,0,1.284715,0.811535,0.
 548525\H,0,0.441404,-0.491162,-1.993703\H,0,-1.106588,0.352296,0.49007
 5\N,0,-0.007999,-1.469905,0.524838\O,0,-0.383845,-1.702313,1.67112\O,0
 ,0.522155,-2.298501,-0.217986\C,0,-0.636319,1.402965,-1.928335\H,0,-1.
 491311,1.767196,-1.353802\H,0,-0.883141,1.403248,-2.992306\H,0,0.23834

 Normal termination of Gaussian 16 at Wed Apr  9 02:36:33 2025.
