 Gaussian 16, Revision C.01,

 ----------------------------------------------------------------------
 #t hf aug-cc-pvdz symm=none int=(grid=ultrafine) guess=(read,tcheck) s
 table=(opt,rrhf)
 ----------------------------------------------------------------------
 -----
 title
 -----
 Symbolic Z-matrix:
 Charge = -1 Multiplicity = 1

 SCF Done:  E(RHF) =  -463.397434011     A.U. after   14 cycles
 Normal termination of Gaussian 16 at Wed Apr  9 02:37:57 2025.
 Gaussian 16:  ES64L-G16RevC.01  3-Jul-2019

 ----------------------------------------------------------------------
 #t hf aug-cc-pvdz iop(5/13=1,5/36=2,99/5=2) pseudo=read geom=check gue
 ss=(read,tcheck) scf=(maxcycle=1)
 ----------------------------------------------------------------------
 -----
 title
 -----
 Structure from the checkpoint file:  "E2SN2_191_mol2.chk"
 Charge = -1 Multiplicity = 1

                         Standard orientation:
 ---------------------------------------------------------------------
 Center     Atomic      Atomic             Coordinates (Angstroms)
 Number     Number       Type             X           Y           Z
 ---------------------------------------------------------------------
      1          6           0       -0.453792    0.753363   -0.201458
      2          6           0        0.501406   -0.052063    0.681708
      3          9           0        0.145878    2.021280   -0.381552
      4          1           0        0.714671    0.577124    1.560312
      5          1           0       -0.550671    0.262428   -1.167433
      6          6           0       -1.820947    0.900151    0.413067
      7          1           0       -2.304911   -0.065488    0.269188
      8          1           0       -1.768046    1.173239    1.470952
      9          1           0       -2.374526    1.670281   -0.132279
     10          6           0        1.797430   -0.204848   -0.023545
     11          7           0        2.849128   -0.364916   -0.523605
     12          7           0       -0.116492   -1.305613    1.074607
     13          1           0        0.601963   -1.980515    1.306305
     14          1           0       -0.688655   -1.638925    0.241874
     15          9           0       -1.579529   -1.652841   -1.021178
 ---------------------------------------------------------------------

 SCF Done:  E(RHF) =  -463.540821815     A.U. after    2 cycles

 The electronic state is 1-A.
 Alpha  occ. eigenvalues --  -25.96917 -25.75362 -15.51221 -15.45319 -11.18273
 Alpha  occ. eigenvalues --  -11.17521 -11.16295 -11.08856  -1.49879  -1.24433
 Alpha  occ. eigenvalues --   -1.06167  -1.01889  -0.90060  -0.81443  -0.71046
 Alpha  occ. eigenvalues --   -0.61818  -0.60381  -0.58107  -0.54929  -0.49630
 Alpha  occ. eigenvalues --   -0.45479  -0.44237  -0.42843  -0.41307  -0.38634
 Alpha  occ. eigenvalues --   -0.37412  -0.33980  -0.33753  -0.33692  -0.32334
 Alpha  occ. eigenvalues --   -0.31010  -0.24798
 Alpha virt. eigenvalues --    0.12773   0.13608   0.14934   0.15227   0.17500
 Alpha virt. eigenvalues --    0.18545   0.18817   0.20296   0.21651   0.23234
 Alpha virt. eigenvalues --    0.23725   0.25081   0.25759   0.26283   0.26650

 Mulliken charges:
               1
     1  C    0.277272
     2  C    0.995919
     3  F   -0.495595
     4  H   -0.102517
     5  H   -0.183722
     6  C    0.392975
     7  H    0.146392
     8  H   -0.011324
     9  H   -0.044044
    10  C   -0.444206
    11  N   -0.248321
    12  N   -0.500018
    13  H   -0.041483
    14  H    0.217375
    15  F   -0.958704
 Sum of Mulliken charges =  -1.00000

 Dipole moment (field-independent basis, Debye):
    X=              1.0259    Y=              3.8625    Z=              4.0399  Tot=              5.6826

 Test job not archived.
 1\1\GINC-SE247\SP\RHF\Aug-CC-pVDZ\C4H7F2N2(1-)\OHZDE\09-Apr-2025\0\\#t
  hf aug-cc-pvdz iop(5/13=1,5/36=2,99/5=2) pseudo=read geom=check guess
 =(read,tcheck) scf=(maxcycle=1)\\title\\-1,1\C,0,-0.195954,0.034881,-0
 .003945\C,0,-0.39279,-0.036983,-1.519592\F,0,1.130098,0.480069,0.20352
 8\H,0,0.447044,-0.631646,-1.912476\H,0,-0.88781,0.762757,0.414436\C,0,
 -0.416434,-1.294219,0.669244\H,0,-1.497609,-1.428141,0.691702\H,0,0.08
 2027,-2.110563,0.138569\H,0,-0.034246,-1.241418,1.69301\C,0,-0.223024,
 1.320496,-2.093031\N,0,-0.102214,2.366869,-2.614817\N,0,-1.665719,-0.6

 Normal termination of Gaussian 16 at Wed Apr  9 02:38:03 2025.
