 Gaussian 16, Revision C.01,

 ----------------------------------------------------------------------
 #t hf aug-cc-pvdz symm=none int=(grid=ultrafine) guess=(read,tcheck) s
 table=(opt,rrhf)
 ----------------------------------------------------------------------
 -----
 title
 -----
 Symbolic Z-matrix:
 Charge = -1 Multiplicity = 1

 SCF Done:  E(RHF) =  -1423.67528434     A.U. after   18 cycles
 Normal termination of Gaussian 16 at Wed Apr  9 02:42:39 2025.
 Gaussian 16:  ES64L-G16RevC.01  3-Jul-2019

 ----------------------------------------------------------------------
 #t hf aug-cc-pvdz iop(5/13=1,5/36=2,99/5=2) pseudo=read geom=check gue
 ss=(read,tcheck) scf=(maxcycle=1)
 ----------------------------------------------------------------------
 -----
 title
 -----
 Structure from the checkpoint file:  "E2SN2_227_mol1.chk"
 Charge = -1 Multiplicity = 1

                         Standard orientation:
 ---------------------------------------------------------------------
 Center     Atomic      Atomic             Coordinates (Angstroms)
 Number     Number       Type             X           Y           Z
 ---------------------------------------------------------------------
      1          6           0       -0.229573   -0.061470    0.167821
      2          1           0        0.394009   -1.993709   -0.422671
      3         17           0        1.264858    1.762862    0.066271
      4         17           0       -1.905451   -1.588742    0.152331
      5          6           0        0.754280   -0.975476   -0.582875
      6          7           0       -1.207185    0.916331   -0.443441
      7          8           0       -1.285019    0.955765   -1.660030
      8          8           0       -1.868478    1.565436    0.349070
      9          6           0       -0.161873   -0.029235    1.599069
     10          7           0       -0.073491   -0.080979    2.772592
     11          6           0        2.083708   -0.958114    0.040448
     12          7           0        3.150450   -1.149904    0.494981
     13          6           0        0.872149   -0.766833   -2.093356
     14          1           0       -0.083480   -0.964693   -2.573305
     15          1           0        1.188470    0.248990   -2.318846
     16          1           0        1.618493   -1.471611   -2.469290
 ---------------------------------------------------------------------

 SCF Done:  E(RHF) =  -1423.85054603     A.U. after    2 cycles

 The electronic state is 1-A.
 Alpha  occ. eigenvalues -- -103.49487-103.46658 -20.51961 -20.51799 -15.83610
 Alpha  occ. eigenvalues --  -15.55467 -15.53807 -11.35919 -11.22380 -11.21075
 Alpha  occ. eigenvalues --  -11.19401 -11.15006 -10.52732 -10.49944  -8.18384
 Alpha  occ. eigenvalues --   -8.18207  -8.18196  -8.15585  -8.15433  -8.15425
 Alpha  occ. eigenvalues --   -1.45476  -1.27249  -1.10966  -1.07923  -1.04494
 Alpha  occ. eigenvalues --   -0.96322  -0.94873  -0.91136  -0.83792  -0.77815
 Alpha  occ. eigenvalues --   -0.69727  -0.65547  -0.63237  -0.62487  -0.58841
 Alpha  occ. eigenvalues --   -0.49881  -0.47656  -0.46033  -0.45215  -0.44687
 Alpha  occ. eigenvalues --   -0.42309  -0.41817  -0.41723  -0.37730  -0.36300
 Alpha  occ. eigenvalues --   -0.36054  -0.35048  -0.33423  -0.31273  -0.31148
 Alpha  occ. eigenvalues --   -0.28787  -0.28594  -0.27181
 Alpha virt. eigenvalues --    0.11496   0.11675   0.13955   0.14425   0.15623
 Alpha virt. eigenvalues --    0.17975   0.18552   0.19486   0.20120   0.21172
 Alpha virt. eigenvalues --    0.21726   0.22748   0.23076   0.23856   0.24436

 Mulliken charges:
               1
     1  C    1.239443
     2  H    0.031437
     3  Cl  -0.560680
     4  Cl  -0.473210
     5  C   -0.088532
     6  N    0.495225
     7  O   -0.649523
     8  O   -0.644295
     9  C   -0.544787
    10  N   -0.224210
    11  C   -0.114791
    12  N   -0.324612
    13  C    0.838200
    14  H    0.031916
    15  H    0.056131
    16  H   -0.067710
 Sum of Mulliken charges =  -1.00000

 Dipole moment (field-independent basis, Debye):
    X=             -0.3741    Y=             -2.5089    Z=             -4.1251  Tot=              4.8426

 Test job not archived.
 1\1\GINC-SE398\SP\RHF\Aug-CC-pVDZ\C5H4Cl2N3O2(1-)\OHZDE\09-Apr-2025\0\
 \#t hf aug-cc-pvdz iop(5/13=1,5/36=2,99/5=2) pseudo=read geom=check gu
 ess=(read,tcheck) scf=(maxcycle=1)\\title\\-1,1\C,0,0.61970746,-0.0716
 7034,-0.00935004\H,0,1.66605668,1.74658746,0.25555419\Cl,0,-1.73723255
 ,-0.12560222,0.10791491\Cl,0,2.8491661,-0.24680861,-0.3837944\C,0,0.63
 728494,1.46642505,0.02019227\N,0,0.41635505,-0.95414843,-1.21986215\O,
 0,0.31622939,-0.41155307,-2.30764366\O,0,0.40567515,-2.15374354,-1.001
 74258\C,0,0.69163828,-0.77087974,1.23966009\N,0,0.79048696,-1.27782027

 Normal termination of Gaussian 16 at Wed Apr  9 02:42:50 2025.
