 Gaussian 16, Revision C.01,

 ----------------------------------------------------------------------
 #t hf aug-cc-pvdz symm=none int=(grid=ultrafine) guess=(read,tcheck) s
 table=(opt,rrhf)
 ----------------------------------------------------------------------
 -----
 title
 -----
 Symbolic Z-matrix:
 Charge = -1 Multiplicity = 1

 SCF Done:  E(RHF) =  -987.978599953     A.U. after   16 cycles
 Normal termination of Gaussian 16 at Wed Apr  9 02:47:29 2025.
 Gaussian 16:  ES64L-G16RevC.01  3-Jul-2019

 ----------------------------------------------------------------------
 #t hf aug-cc-pvdz iop(5/13=1,5/36=2,99/5=2) pseudo=read geom=check gue
 ss=(read,tcheck) scf=(maxcycle=1)
 ----------------------------------------------------------------------
 -----
 title
 -----
 Structure from the checkpoint file:  "E2SN2_292_mol2.chk"
 Charge = -1 Multiplicity = 1

                         Standard orientation:
 ---------------------------------------------------------------------
 Center     Atomic      Atomic             Coordinates (Angstroms)
 Number     Number       Type             X           Y           Z
 ---------------------------------------------------------------------
      1          6           0        0.222950    0.747622    0.512350
      2          6           0        0.072406   -0.687317    0.027923
      3          9           0        1.234071    0.736466    1.500945
      4          1           0       -0.396854   -1.273486    0.813124
      5          1           0       -0.532605   -0.740703   -0.876114
      6          6           0        0.750731    1.665581   -0.529809
      7          7           0        1.093496    2.475622   -1.308282
      8          7           0       -0.997287    1.177745    1.054751
      9          1           0       -1.147305    2.170326    0.952371
     10          1           0       -1.804377    0.645919    0.697080
     11          7           0        1.407103   -1.282408   -0.241162
     12          8           0        1.769873   -2.220708    0.465651
     13          8           0        2.058566   -0.798852   -1.165960
     14         17           0       -3.214866   -0.601517   -0.358378
 ---------------------------------------------------------------------

 SCF Done:  E(RHF) =  -988.153265591     A.U. after    2 cycles

 The electronic state is 1-A.
 Alpha  occ. eigenvalues -- -103.39764 -26.02786 -20.52879 -20.52566 -15.82006
 Alpha  occ. eigenvalues --  -15.56115 -15.52268 -11.32537 -11.21667 -11.20641
 Alpha  occ. eigenvalues --  -10.42879  -8.08484  -8.08445  -8.08433  -1.56208
 Alpha  occ. eigenvalues --   -1.44978  -1.26780  -1.12520  -1.08196  -1.00052
 Alpha  occ. eigenvalues --   -0.86587  -0.85100  -0.77191  -0.71445  -0.68232
 Alpha  occ. eigenvalues --   -0.67542  -0.64805  -0.62772  -0.60586  -0.56941
 Alpha  occ. eigenvalues --   -0.54433  -0.51112  -0.48016  -0.45868  -0.42108
 Alpha  occ. eigenvalues --   -0.41757  -0.39011  -0.37861  -0.37091  -0.32393
 Alpha  occ. eigenvalues --   -0.23416  -0.23068  -0.22882
 Alpha virt. eigenvalues --    0.13317   0.15116   0.15450   0.16993   0.17850
 Alpha virt. eigenvalues --    0.18600   0.19119   0.20621   0.21732   0.21997
 Alpha virt. eigenvalues --    0.23940   0.24536   0.24968   0.25403   0.26454

 Mulliken charges:
               1
     1  C    1.116469
     2  C    1.177306
     3  F   -0.442497
     4  H   -0.112284
     5  H   -0.049562
     6  C   -0.474672
     7  N   -0.186184
     8  N   -0.483003
     9  H    0.029194
    10  H    0.107098
    11  N    0.398361
    12  O   -0.598555
    13  O   -0.582359
    14  Cl  -0.899311
 Sum of Mulliken charges =  -1.00000

 Dipole moment (field-independent basis, Debye):
    X=              5.3593    Y=              1.5826    Z=              1.8602  Tot=              5.8896

 Test job not archived.
 1\1\GINC-SE457\SP\RHF\Aug-CC-pVDZ\C3H4Cl1F1N3O2(1-)\OHZDE\09-Apr-2025\
 0\\#t hf aug-cc-pvdz iop(5/13=1,5/36=2,99/5=2) pseudo=read geom=check
 guess=(read,tcheck) scf=(maxcycle=1)\\title\\-1,1\C,0,0.043526,0.05571
 1,0.031129\C,0,-0.58487,-0.045784,-1.351333\F,0,1.405541,-0.29456,-0.1
 17318\H,0,-0.658088,-1.09452,-1.625436\H,0,-1.576045,0.405122,-1.37197
 8\C,0,0.085853,1.445353,0.554962\N,0,0.096091,2.496797,1.078446\N,0,-0
 .607378,-0.836622,0.896142\H,0,-0.615856,-0.522324,1.854969\H,0,-1.558
 336,-1.078437,0.580919\N,0,0.277801,0.623482,-2.359221\O,0,0.793027,-0

 Normal termination of Gaussian 16 at Wed Apr  9 02:47:36 2025.
