 Gaussian 16, Revision C.01,

 ----------------------------------------------------------------------
 #t hf aug-cc-pvdz symm=none int=(grid=ultrafine) guess=(read,tcheck) s
 table=(opt,rrhf)
 ----------------------------------------------------------------------
 -----
 title
 -----
 Symbolic Z-matrix:
 Charge = -1 Multiplicity = 1

 SCF Done:  E(RHF) =  -1238.53141646     A.U. after   16 cycles
 Normal termination of Gaussian 16 at Wed Apr  9 02:47:44 2025.
 Gaussian 16:  ES64L-G16RevC.01  3-Jul-2019

 ----------------------------------------------------------------------
 #t hf aug-cc-pvdz iop(5/13=1,5/36=2,99/5=2) pseudo=read geom=check gue
 ss=(read,tcheck) scf=(maxcycle=1)
 ----------------------------------------------------------------------
 -----
 title
 -----
 Structure from the checkpoint file:  "E2SN2_290_mol1.chk"
 Charge = -1 Multiplicity = 1

                         Standard orientation:
 ---------------------------------------------------------------------
 Center     Atomic      Atomic             Coordinates (Angstroms)
 Number     Number       Type             X           Y           Z
 ---------------------------------------------------------------------
      1          6           0        0.121953   -0.190413    0.204765
      2          1           0        0.959558    1.082538   -1.257904
      3         17           0       -2.332060   -0.464652    0.467541
      4         17           0        2.504607   -0.277238    0.051364
      5          6           0        0.095471    1.133701   -0.593716
      6          6           0        0.051955   -1.400399   -0.567736
      7          7           0        0.035517   -2.391323   -1.205253
      8          6           0        0.145394   -0.230294    1.727111
      9          1           0        1.142907   -0.034827    2.112141
     10          1           0       -0.545938    0.516542    2.104906
     11          1           0       -0.184462   -1.211273    2.062758
     12          7           0        0.226902    2.227636    0.378115
     13          1           0        0.257138    3.093310   -0.150604
     14          1           0        1.134258    2.127675    0.827212
     15          7           0       -1.033220    1.268949   -1.477982
     16          1           0       -0.897128    2.088586   -2.057690
     17          1           0       -1.892656    1.337161   -0.948899
 ---------------------------------------------------------------------

 SCF Done:  E(RHF) =  -1238.65219649     A.U. after    2 cycles

 The electronic state is 1-A.
 Alpha  occ. eigenvalues -- -103.44081-103.42153 -15.51281 -15.50525 -15.49157
 Alpha  occ. eigenvalues --  -11.27295 -11.20241 -11.17339 -11.12157 -10.47360
 Alpha  occ. eigenvalues --  -10.45430  -8.12984  -8.12868  -8.12862  -8.11050
 Alpha  occ. eigenvalues --   -8.10957  -8.10937  -1.10249  -1.05007  -0.98964
 Alpha  occ. eigenvalues --   -0.96197  -0.89844  -0.86991  -0.81174  -0.72557
 Alpha  occ. eigenvalues --   -0.60813  -0.56142  -0.53094  -0.49305  -0.48087
 Alpha  occ. eigenvalues --   -0.46566  -0.45834  -0.42345  -0.40694  -0.37596
 Alpha  occ. eigenvalues --   -0.32429  -0.30097  -0.29163  -0.27164  -0.26610
 Alpha  occ. eigenvalues --   -0.26401  -0.25037  -0.24387  -0.23908
 Alpha virt. eigenvalues --    0.11117   0.12806   0.14191   0.14670   0.15991
 Alpha virt. eigenvalues --    0.16756   0.16985   0.17616   0.18265   0.20384
 Alpha virt. eigenvalues --    0.20740   0.22868   0.23897   0.24314   0.24574

 Mulliken charges:
               1
     1  C    0.102614
     2  H   -0.095681
     3  Cl  -0.727168
     4  Cl  -0.641124
     5  C    1.266889
     6  C   -0.624468
     7  N   -0.321273
     8  C    0.774325
     9  H   -0.082745
    10  H    0.169812
    11  H   -0.117612
    12  N   -0.401611
    13  H   -0.071174
    14  H    0.111874
    15  N   -0.347125
    16  H   -0.036800
    17  H    0.041268
 Sum of Mulliken charges =  -1.00000

 Dipole moment (field-independent basis, Debye):
    X=              1.0716    Y=              6.2713    Z=              0.7389  Tot=              6.4050

 Test job not archived.
 1\1\GINC-SE339\SP\RHF\Aug-CC-pVDZ\C4H8Cl2N3(1-)\OHZDE\09-Apr-2025\0\\#
 t hf aug-cc-pvdz iop(5/13=1,5/36=2,99/5=2) pseudo=read geom=check gues
 s=(read,tcheck) scf=(maxcycle=1)\\title\\-1,1\C,0,0.64284671,-0.030569
 83,0.00183904\H,0,1.62438297,1.76342185,-0.52690203\Cl,0,-1.78879056,-
 0.36557223,-0.37412928\Cl,0,3.01372755,-0.06548443,0.29478577\C,0,0.65
 414353,1.51279552,-0.09535628\C,0,0.80884413,-0.7467893,-1.23315051\N,
 0,0.98575533,-1.3315835,-2.24079448\C,0,0.39670899,-0.76853239,1.31122
 975\H,0,1.29045439,-0.78474693,1.92965077\H,0,-0.4083523,-0.27195056,1

 Normal termination of Gaussian 16 at Wed Apr  9 02:47:53 2025.
