 Gaussian 16, Revision C.01,

 ----------------------------------------------------------------------
 #t hf aug-cc-pvdz symm=none int=(grid=ultrafine) guess=(read,tcheck) s
 table=(opt,rrhf)
 ----------------------------------------------------------------------
 -----
 title
 -----
 Symbolic Z-matrix:
 Charge = -1 Multiplicity = 1

 SCF Done:  E(RHF) =  -816.191684242     A.U. after   17 cycles
 Normal termination of Gaussian 16 at Wed Apr  9 02:59:37 2025.
 Gaussian 16:  ES64L-G16RevC.01  3-Jul-2019

 ----------------------------------------------------------------------
 #t hf aug-cc-pvdz iop(5/13=1,5/36=2,99/5=2) pseudo=read geom=check gue
 ss=(read,tcheck) scf=(maxcycle=1)
 ----------------------------------------------------------------------
 -----
 title
 -----
 Structure from the checkpoint file:  "E2SN2_70_mol1.chk"
 Charge = -1 Multiplicity = 1

                         Standard orientation:
 ---------------------------------------------------------------------
 Center     Atomic      Atomic             Coordinates (Angstroms)
 Number     Number       Type             X           Y           Z
 ---------------------------------------------------------------------
      1          6           0        0.295178    0.010690   -0.118218
      2          6           0       -1.169342    0.056404   -0.436303
      3         17           0        0.641191   -0.187850    1.721919
      4          1           0       -2.367187    0.689666   -2.544567
      5          1           0       -1.352942    0.193728   -1.593678
      6          6           0        0.966202   -1.128745   -0.748767
      7          7           0        1.486436   -2.047010   -1.266784
      8          6           0        0.968145    1.252227   -0.501520
      9          7           0        1.534818    2.228273   -0.828882
     10          7           0       -1.736983    1.283868    0.070675
     11          1           0       -2.296499    1.107167    0.897261
     12          1           0       -2.354808    1.596514   -0.690580
     13          6           0       -1.917639   -1.207474   -0.063743
     14          1           0       -2.075799   -1.281813    1.018597
     15          1           0       -2.886762   -1.149858   -0.569592
     16          1           0       -1.411424   -2.116484   -0.403820
 ---------------------------------------------------------------------

 SCF Done:  E(RHF) =  -816.312705408     A.U. after    2 cycles

 The electronic state is 1-A.
 Alpha  occ. eigenvalues -- -103.57108 -15.56494 -15.55213 -15.47960 -11.29007
 Alpha  occ. eigenvalues --  -11.21592 -11.20490 -11.14741 -11.11565 -10.60327
 Alpha  occ. eigenvalues --   -8.26030  -8.25742  -8.25739  -1.12993  -1.08749
 Alpha  occ. eigenvalues --   -1.06758  -1.03376  -0.93648  -0.86127  -0.71446
 Alpha  occ. eigenvalues --   -0.68789  -0.59125  -0.51767  -0.51188  -0.48009
 Alpha  occ. eigenvalues --   -0.46571  -0.45825  -0.43104  -0.42338  -0.39789
 Alpha  occ. eigenvalues --   -0.38677  -0.37116  -0.36047  -0.35407  -0.35242
 Alpha  occ. eigenvalues --   -0.34892  -0.27581  -0.10243
 Alpha virt. eigenvalues --    0.12247   0.13844   0.14724   0.15543   0.16661
 Alpha virt. eigenvalues --    0.17000   0.18397   0.18755   0.19303   0.20102
 Alpha virt. eigenvalues --    0.21689   0.22290   0.22671   0.23144   0.23798

 Mulliken charges:
               1
     1  C    0.510310
     2  C   -0.454939
     3  Cl  -0.141306
     4  H   -0.651967
     5  H    0.071111
     6  C   -0.048324
     7  N   -0.280599
     8  C   -0.389757
     9  N   -0.225069
    10  N   -0.298760
    11  H    0.011049
    12  H    0.099455
    13  C    0.958251
    14  H   -0.044230
    15  H    0.019813
    16  H   -0.135037
 Sum of Mulliken charges =  -1.00000

 Dipole moment (field-independent basis, Debye):
    X=              3.2654    Y=             -3.2447    Z=              9.1636  Tot=             10.2549

 Test job not archived.
 1\1\GINC-SE041\SP\RHF\Aug-CC-pVDZ\C5H7Cl1N3(1-)\OHZDE\09-Apr-2025\0\\#
 t hf aug-cc-pvdz iop(5/13=1,5/36=2,99/5=2) pseudo=read geom=check gues
 s=(read,tcheck) scf=(maxcycle=1)\\title\\-1,1\C,0,-0.14526511,-0.02435
 653,-0.44071407\C,0,-0.29979051,0.00710977,1.0503319\Cl,0,1.65449797,0
 .00341755,-0.99328105\H,0,-2.32304214,0.39205384,2.4782337\H,0,-1.4371
 7708,0.00138572,1.3640265\C,0,-0.69785798,-1.24564183,-1.03171357\N,0,
 -1.15059735,-2.23074223,-1.48646703\C,0,-0.75599375,1.14712271,-1.0698
 9084\N,0,-1.26600597,2.06415951,-1.59893052\N,0,0.10823671,1.29837441,

 Normal termination of Gaussian 16 at Wed Apr  9 02:59:46 2025.
