 Gaussian 16, Revision C.01,

 ----------------------------------------------------------------------
 #t hf aug-cc-pvdz symm=none int=(grid=ultrafine) guess=(read,tcheck) s
 table=(opt,rrhf)
 ----------------------------------------------------------------------
 -----
 title
 -----
 Symbolic Z-matrix:
 Charge = -1 Multiplicity = 1

 SCF Done:  E(RHF) =  -832.218807470     A.U. after   17 cycles
 Normal termination of Gaussian 16 at Wed Apr  9 03:00:28 2025.
 Gaussian 16:  ES64L-G16RevC.01  3-Jul-2019

 ----------------------------------------------------------------------
 #t hf aug-cc-pvdz iop(5/13=1,5/36=2,99/5=2) pseudo=read geom=check gue
 ss=(read,tcheck) scf=(maxcycle=1)
 ----------------------------------------------------------------------
 -----
 title
 -----
 Structure from the checkpoint file:  "E2SN2_91_mol1.chk"
 Charge = -1 Multiplicity = 1

                         Standard orientation:
 ---------------------------------------------------------------------
 Center     Atomic      Atomic             Coordinates (Angstroms)
 Number     Number       Type             X           Y           Z
 ---------------------------------------------------------------------
      1          6           0       -0.584303   -0.202201   -0.233768
      2          6           0        0.908302   -0.256699   -0.528534
      3         17           0       -0.914021   -0.447925    1.552962
      4          1           0        0.968924   -0.886435   -2.937834
      5          1           0        0.936706   -0.195496   -1.726976
      6          6           0       -1.127456    1.118472   -0.576044
      7          7           0       -1.541787    2.178571   -0.866994
      8          7           0       -1.293787   -1.229167   -0.958214
      9          1           0       -0.856567   -2.094113   -0.642307
     10          1           0       -0.967667   -1.132499   -1.929179
     11          7           0        1.404951   -1.604956   -0.335374
     12          1           0        2.159312   -1.636761    0.336351
     13          1           0        1.732228   -1.899751   -1.264107
     14          6           0        1.680655    0.786710    0.101192
     15          7           0        2.330943    1.624421    0.615814
 ---------------------------------------------------------------------

 SCF Done:  E(RHF) =  -832.343204528     A.U. after    2 cycles

 The electronic state is 1-A.
 Alpha  occ. eigenvalues -- -103.54926 -15.54417 -15.52617 -15.51234 -15.50621
 Alpha  occ. eigenvalues --  -11.27365 -11.19128 -11.17806 -11.17628 -10.58257
 Alpha  occ. eigenvalues --   -8.23966  -8.23683  -8.23678  -1.13986  -1.07400
 Alpha  occ. eigenvalues --   -1.06482  -1.03709  -1.01322  -0.88178  -0.77580
 Alpha  occ. eigenvalues --   -0.63893  -0.60842  -0.55306  -0.53591  -0.49924
 Alpha  occ. eigenvalues --   -0.47178  -0.44910  -0.43465  -0.41934  -0.37431
 Alpha  occ. eigenvalues --   -0.36300  -0.35694  -0.34948  -0.34462  -0.33920
 Alpha  occ. eigenvalues --   -0.30780  -0.28973  -0.12933
 Alpha virt. eigenvalues --    0.12575   0.14313   0.15770   0.16600   0.17668
 Alpha virt. eigenvalues --    0.18162   0.19042   0.19771   0.20694   0.22274
 Alpha virt. eigenvalues --    0.22822   0.23773   0.24443   0.25191   0.25536

 Mulliken charges:
               1
     1  C    0.314149
     2  C    1.247404
     3  Cl  -0.232938
     4  H   -0.519142
     5  H    0.007813
     6  C   -0.274272
     7  N   -0.227249
     8  N   -0.390512
     9  H    0.144199
    10  H    0.117740
    11  N   -0.508454
    12  H   -0.011502
    13  H    0.110297
    14  C   -0.525695
    15  N   -0.251840
 Sum of Mulliken charges =  -1.00000

 Dipole moment (field-independent basis, Debye):
    X=             -1.3441    Y=             -2.7037    Z=              6.0922  Tot=              6.7993

 Test job not archived.
 1\1\GINC-SE398\SP\RHF\Aug-CC-pVDZ\C4H6Cl1N4(1-)\OHZDE\09-Apr-2025\0\\#
 t hf aug-cc-pvdz iop(5/13=1,5/36=2,99/5=2) pseudo=read geom=check gues
 s=(read,tcheck) scf=(maxcycle=1)\\title\\-1,1\C,0,-0.15264865,-0.04175
 096,-0.41012442\C,0,-0.17478913,-0.02517569,1.11203277\Cl,0,1.56568318
 ,0.02197215,-1.04634326\H,0,-2.44714577,0.8610993,1.61788211\H,0,-1.34
 887531,0.04397591,1.35194224\C,0,-0.73516028,-1.29013589,-0.91861341\N
 ,0,-1.21481904,-2.29144723,-1.30258584\N,0,-0.86535803,1.09043049,-0.9
 5147198\H,0,-0.37996021,1.89417394,-0.5546393\H,0,-1.7693003,1.0855321

 Normal termination of Gaussian 16 at Wed Apr  9 03:00:35 2025.
