 Gaussian 16, Revision C.01,

 ----------------------------------------------------------------------
 #t hf aug-cc-pvdz symm=none int=(grid=ultrafine) guess=(read,tcheck) s
 table=(opt,rrhf)
 ----------------------------------------------------------------------
 -----
 title
 -----
 Symbolic Z-matrix:
 Charge = -1 Multiplicity = 1

 SCF Done:  E(RHF) =  -364.434571158     A.U. after   16 cycles
 Normal termination of Gaussian 16 at Wed Apr  9 02:30:39 2025.
 Gaussian 16:  ES64L-G16RevC.01  3-Jul-2019

 ----------------------------------------------------------------------
 #t hf aug-cc-pvdz iop(5/13=1,5/36=2,99/5=2) pseudo=read geom=check gue
 ss=(read,tcheck) scf=(maxcycle=1)
 ----------------------------------------------------------------------
 -----
 title
 -----
 Structure from the checkpoint file:  "E2SN2_11_mol2.chk"
 Charge = -1 Multiplicity = 1

                         Standard orientation:
 ---------------------------------------------------------------------
 Center     Atomic      Atomic             Coordinates (Angstroms)
 Number     Number       Type             X           Y           Z
 ---------------------------------------------------------------------
      1          6           0        0.772643   -0.448894   -0.340031
      2          6           0       -0.299053    0.453963    0.264144
      3          9           0        0.691760   -1.715419    0.267257
      4          1           0       -0.096251    0.546436    1.344784
      5          1           0        0.557336   -0.597482   -1.403460
      6          6           0        2.158485    0.106699   -0.129704
      7          1           0        2.902344   -0.592728   -0.521537
      8          1           0        2.241860    1.064797   -0.641109
      9          1           0        2.333483    0.282661    0.932902
     10          6           0       -1.614189   -0.165149    0.078712
     11          7           0       -2.668840   -0.649249   -0.108167
     12          7           0       -0.199621    1.776355   -0.349585
     13          1           0        0.222066    2.347512    0.451213
     14          1           0       -1.134645    2.147959   -0.484629
     15          1           0        0.719881    2.670154    1.882053
 ---------------------------------------------------------------------

 SCF Done:  E(RHF) =  -364.549610034     A.U. after    2 cycles

 The electronic state is 1-A.
 Alpha  occ. eigenvalues --  -25.98700 -15.52176 -15.46604 -11.20890 -11.17365
 Alpha  occ. eigenvalues --  -11.17258 -11.11108  -1.51800  -1.07219  -1.02864
 Alpha  occ. eigenvalues --   -0.92047  -0.82675  -0.72932  -0.63695  -0.61855
 Alpha  occ. eigenvalues --   -0.59932  -0.56446  -0.48245  -0.46329  -0.45445
 Alpha  occ. eigenvalues --   -0.43187  -0.42867  -0.39891  -0.38569  -0.34330
 Alpha  occ. eigenvalues --   -0.32890  -0.26400  -0.09744
 Alpha virt. eigenvalues --    0.12131   0.13904   0.14892   0.15462   0.16579
 Alpha virt. eigenvalues --    0.17566   0.19248   0.20097   0.21517   0.22761
 Alpha virt. eigenvalues --    0.23751   0.23906   0.24846   0.25540   0.26376

 Mulliken charges:
               1
     1  C    0.268322
     2  C    0.819728
     3  F   -0.478507
     4  H   -0.085928
     5  H   -0.238568
     6  C    0.524966
     7  H   -0.010692
     8  H    0.081045
     9  H    0.054700
    10  C   -0.592580
    11  N   -0.242646
    12  N   -0.451390
    13  H    0.127868
    14  H   -0.057621
    15  H   -0.718697
 Sum of Mulliken charges =  -1.00000

 Dipole moment (field-independent basis, Debye):
    X=              0.8066    Y=             -6.4774    Z=             -6.2854  Tot=              9.0616

 Test job not archived.
 1\1\GINC-SE455\SP\RHF\Aug-CC-pVDZ\C4H8F1N2(1-)\OHZDE\09-Apr-2025\0\\#t
  hf aug-cc-pvdz iop(5/13=1,5/36=2,99/5=2) pseudo=read geom=check guess
 =(read,tcheck) scf=(maxcycle=1)\\title\\-1,1\C,0,-0.544751,-0.02969,-1
 .4605\C,0,-0.033311,-0.173522,-0.029958\F,0,-0.430548,-1.273202,-2.108
 622\H,0,1.027873,-0.472156,-0.076543\H,0,-1.612259,0.213505,-1.436007\
 C,0,0.238311,0.999561,-2.2357\H,0,-0.115339,1.033547,-3.270028\H,0,0.1
 11861,1.974277,-1.766255\H,0,1.301788,0.756345,-2.211629\C,0,-0.793221
 ,-1.224429,0.652243\N,0,-1.432926,-2.041382,1.204448\N,0,-0.129783,1.1

 Normal termination of Gaussian 16 at Wed Apr  9 02:30:44 2025.
