 Gaussian 16, Revision C.01,

 ----------------------------------------------------------------------
 #t hf aug-cc-pvdz symm=none int=(grid=ultrafine) guess=(read,tcheck) s
 table=(opt,rrhf)
 ----------------------------------------------------------------------
 -----
 title
 -----
 Symbolic Z-matrix:
 Charge = -1 Multiplicity = 1

 SCF Done:  E(RHF) =  -876.216700455     A.U. after   15 cycles
 Normal termination of Gaussian 16 at Wed Apr  9 02:39:08 2025.
 Gaussian 16:  ES64L-G16RevC.01  3-Jul-2019

 ----------------------------------------------------------------------
 #t hf aug-cc-pvdz iop(5/13=1,5/36=2,99/5=2) pseudo=read geom=check gue
 ss=(read,tcheck) scf=(maxcycle=1)
 ----------------------------------------------------------------------
 -----
 title
 -----
 Structure from the checkpoint file:  "E2SN2_201_mol2.chk"
 Charge = -1 Multiplicity = 1

                         Standard orientation:
 ---------------------------------------------------------------------
 Center     Atomic      Atomic             Coordinates (Angstroms)
 Number     Number       Type             X           Y           Z
 ---------------------------------------------------------------------
      1          6           0       -0.182946   -0.680720   -0.893419
      2          6           0       -0.446227    0.339687    0.221067
      3          9           0       -1.397517   -1.178285   -1.353055
      4          1           0        0.559638    0.699136    0.518657
      5          1           0        0.268501   -0.145868   -1.738364
      6          7           0        0.586764   -1.755096   -0.359199
      7          1           0        0.816637   -2.392415   -1.113528
      8          1           0        1.464336   -1.343664   -0.030406
      9          6           0       -1.121423   -0.278789    1.363640
     10          7           0       -1.676708   -0.733119    2.292286
     11          6           0       -1.239411    1.462237   -0.281815
     12          7           0       -1.871828    2.354996   -0.707087
     13         17           0        2.831822    0.568553    0.206018
 ---------------------------------------------------------------------

 SCF Done:  E(RHF) =  -876.355970321     A.U. after    2 cycles

 The electronic state is 1-A.
 Alpha  occ. eigenvalues -- -103.40085 -26.01617 -15.55506 -15.54665 -15.50973
 Alpha  occ. eigenvalues --  -11.27302 -11.21914 -11.20825 -11.20153 -10.43198
 Alpha  occ. eigenvalues --   -8.08798  -8.08768  -8.08752  -1.55303  -1.10964
 Alpha  occ. eigenvalues --   -1.08353  -1.07325  -0.97333  -0.85653  -0.80538
 Alpha  occ. eigenvalues --   -0.69157  -0.66297  -0.64894  -0.63147  -0.55205
 Alpha  occ. eigenvalues --   -0.52911  -0.49545  -0.48635  -0.45861  -0.44987
 Alpha  occ. eigenvalues --   -0.37407  -0.37373  -0.35744  -0.34967  -0.31134
 Alpha  occ. eigenvalues --   -0.23515  -0.23289  -0.23229
 Alpha virt. eigenvalues --    0.12478   0.14518   0.15373   0.17437   0.18064
 Alpha virt. eigenvalues --    0.18648   0.21054   0.21480   0.22355   0.23462
 Alpha virt. eigenvalues --    0.24250   0.24475   0.25343   0.25376   0.25771

 Mulliken charges:
               1
     1  C    1.101273
     2  C    0.904449
     3  F   -0.433314
     4  H    0.040657
     5  H   -0.196273
     6  N   -0.459337
     7  H    0.000230
     8  H    0.121384
     9  C   -0.370346
    10  N   -0.244927
    11  C   -0.317775
    12  N   -0.232497
    13  Cl  -0.913523
 Sum of Mulliken charges =  -1.00000

 Dipole moment (field-independent basis, Debye):
    X=             -3.6531    Y=             -2.6279    Z=             -2.8978  Tot=              5.3523

 Test job not archived.
 1\1\GINC-SE453\SP\RHF\Aug-CC-pVDZ\C4H4Cl1F1N3(1-)\OHZDE\09-Apr-2025\0\
 \#t hf aug-cc-pvdz iop(5/13=1,5/36=2,99/5=2) pseudo=read geom=check gu
 ess=(read,tcheck) scf=(maxcycle=1)\\title\\-1,1\C,0,-0.023575,0.060853
 ,0.023203\C,0,-0.514437,0.434853,-1.381006\F,0,1.353477,0.243601,0.089
 154\H,0,-1.611999,0.280776,-1.347174\H,0,-0.461592,0.77387,0.732816\N,
 0,-0.321808,-1.312394,0.262745\H,0,-0.058267,-1.537427,1.215601\H,0,-1
 .339561,-1.400259,0.19972\C,0,0.086129,-0.423864,-2.40365\N,0,0.557937
 ,-1.0802,-3.254392\C,0,-0.224994,1.839444,-1.673407\N,0,0.012374,2.969

 Normal termination of Gaussian 16 at Wed Apr  9 02:39:14 2025.
