 Gaussian 16, Revision C.01,

 ----------------------------------------------------------------------
 #t hf aug-cc-pvdz symm=none int=(grid=ultrafine) guess=(read,tcheck) s
 table=(opt,rrhf)
 ----------------------------------------------------------------------
 -----
 title
 -----
 Symbolic Z-matrix:
 Charge = -1 Multiplicity = 1

 SCF Done:  E(RHF) =  -1292.93571399     A.U. after   16 cycles
 Normal termination of Gaussian 16 at Wed Apr  9 02:39:57 2025.
 Gaussian 16:  ES64L-G16RevC.01  3-Jul-2019

 ----------------------------------------------------------------------
 #t hf aug-cc-pvdz iop(5/13=1,5/36=2,99/5=2) pseudo=read geom=check gue
 ss=(read,tcheck) scf=(maxcycle=1)
 ----------------------------------------------------------------------
 -----
 title
 -----
 Structure from the checkpoint file:  "E2SN2_209_mol1.chk"
 Charge = -1 Multiplicity = 1

                         Standard orientation:
 ---------------------------------------------------------------------
 Center     Atomic      Atomic             Coordinates (Angstroms)
 Number     Number       Type             X           Y           Z
 ---------------------------------------------------------------------
      1          6           0        0.338462    0.108502   -0.489598
      2          1           0        0.325530   -2.021150   -0.265920
      3         17           0       -1.624977    1.306124   -0.874758
      4         17           0        2.440020   -0.717359   -0.536127
      5          6           0       -0.355677   -1.231747   -0.581642
      6          1           0        0.650118    0.709140   -1.317600
      7          1           0       -0.588316   -1.381977   -1.638592
      8          7           0        0.527035    0.715375    0.838694
      9          8           0        0.181086    0.041060    1.806240
     10          8           0        1.032551    1.829251    0.875819
     11          6           0       -1.593807   -1.402294    0.180855
     12          7           0       -2.567896   -1.733128    0.746021
 ---------------------------------------------------------------------

 SCF Done:  E(RHF) =  -1293.07486410     A.U. after    2 cycles

 The electronic state is 1-A.
 Alpha  occ. eigenvalues -- -103.47314-103.45052 -20.51002 -20.50850 -15.81501
 Alpha  occ. eigenvalues --  -15.52352 -11.30693 -11.20228 -11.18450 -10.50572
 Alpha  occ. eigenvalues --  -10.48316  -8.16216  -8.16060  -8.16054  -8.13953
 Alpha  occ. eigenvalues --   -8.13813  -8.13810  -1.43766  -1.25545  -1.07190
 Alpha  occ. eigenvalues --   -1.03157  -0.93271  -0.90886  -0.89548  -0.73433
 Alpha  occ. eigenvalues --   -0.67113  -0.63671  -0.61499  -0.57939  -0.54676
 Alpha  occ. eigenvalues --   -0.52365  -0.43212  -0.41581  -0.40455  -0.36598
 Alpha  occ. eigenvalues --   -0.35599  -0.34362  -0.33207  -0.30147  -0.29750
 Alpha  occ. eigenvalues --   -0.28071  -0.27422  -0.25168
 Alpha virt. eigenvalues --    0.13175   0.13752   0.14475   0.15338   0.18308
 Alpha virt. eigenvalues --    0.20479   0.21045   0.21678   0.23316   0.23480
 Alpha virt. eigenvalues --    0.24622   0.25525   0.25579   0.26399   0.27791

 Mulliken charges:
               1
     1  C    0.905303
     2  H    0.131783
     3  Cl  -0.615461
     4  Cl  -0.577722
     5  C    0.260920
     6  H   -0.246035
     7  H    0.087402
     8  N    0.601837
     9  O   -0.625169
    10  O   -0.637577
    11  C    0.065192
    12  N   -0.350474
 Sum of Mulliken charges =  -1.00000

 Dipole moment (field-independent basis, Debye):
    X=              1.5023    Y=             -2.0732    Z=             -2.0729  Tot=              3.2942

 Test job not archived.
 1\1\GINC-SE195\SP\RHF\Aug-CC-pVDZ\C3H3Cl2N2O2(1-)\OHZDE\09-Apr-2025\0\
 \#t hf aug-cc-pvdz iop(5/13=1,5/36=2,99/5=2) pseudo=read geom=check gu
 ess=(read,tcheck) scf=(maxcycle=1)\\title\\-1,1\C,0,0.61824342,-0.0439
 6403,-0.04169555\H,0,1.81622817,1.71075917,-0.3088955\Cl,0,-1.71101996
 ,0.04893865,-0.10204291\Cl,0,2.77669842,-0.45742987,0.47876388\C,0,0.7
 6954543,1.45705982,-0.14466052\H,0,0.39036519,-0.58952679,0.84932473\H
 ,0,0.46689612,1.86058695,0.82456734\N,0,0.68478008,-0.84579324,-1.2749
 2598\O,0,0.95083625,-0.24095804,-2.31122479\O,0,0.49353101,-2.04978789

 Normal termination of Gaussian 16 at Wed Apr  9 02:40:05 2025.
