 Gaussian 16, Revision C.01,

 ----------------------------------------------------------------------
 #t hf aug-cc-pvdz symm=none int=(grid=ultrafine) guess=(read,tcheck) s
 table=(opt,rrhf)
 ----------------------------------------------------------------------
 -----
 title
 -----
 Symbolic Z-matrix:
 Charge = -1 Multiplicity = 1

 SCF Done:  E(RHF) =  -1236.21565967     A.U. after   16 cycles
 Normal termination of Gaussian 16 at Wed Apr  9 02:59:47 2025.
 Gaussian 16:  ES64L-G16RevC.01  3-Jul-2019

 ----------------------------------------------------------------------
 #t hf aug-cc-pvdz iop(5/13=1,5/36=2,99/5=2) pseudo=read geom=check gue
 ss=(read,tcheck) scf=(maxcycle=1)
 ----------------------------------------------------------------------
 -----
 title
 -----
 Structure from the checkpoint file:  "E2SN2_80_mol1.chk"
 Charge = -1 Multiplicity = 1

                         Standard orientation:
 ---------------------------------------------------------------------
 Center     Atomic      Atomic             Coordinates (Angstroms)
 Number     Number       Type             X           Y           Z
 ---------------------------------------------------------------------
      1          6           0        0.427053   -0.495893    0.037531
      2          6           0       -0.408761    0.408460   -0.652591
      3         17           0        2.646766   -0.260980   -0.778021
      4         17           0       -3.183325   -0.535333   -0.102124
      5          1           0       -1.802565   -0.049219   -0.227930
      6          1           0       -0.567622    0.172071   -1.704094
      7          7           0        0.249987   -1.847704   -0.158383
      8          1           0        0.011366   -2.068799   -1.115473
      9          1           0        1.047884   -2.384555    0.150370
     10          6           0        0.822718   -0.148334    1.384600
     11          7           0        1.067233    0.100426    2.508462
     12          6           0       -0.307312    1.802623   -0.370981
     13          7           0       -0.284326    2.956805   -0.140330
 ---------------------------------------------------------------------

 SCF Done:  E(RHF) =  -1236.33664783     A.U. after    2 cycles

 The electronic state is 1-A.
 Alpha  occ. eigenvalues -- -103.49124-103.44562 -15.56967 -15.55929 -15.51801
 Alpha  occ. eigenvalues --  -11.30487 -11.20753 -11.17775 -11.15416 -10.52425
 Alpha  occ. eigenvalues --  -10.47773  -8.18107  -8.17918  -8.17914  -8.13396
 Alpha  occ. eigenvalues --   -8.13279  -8.13277  -1.15360  -1.08297  -1.05949
 Alpha  occ. eigenvalues --   -0.97402  -0.95306  -0.90329  -0.81675  -0.68618
 Alpha  occ. eigenvalues --   -0.60816  -0.55509  -0.53282  -0.51428  -0.45809
 Alpha  occ. eigenvalues --   -0.43709  -0.42547  -0.37371  -0.37081  -0.36334
 Alpha  occ. eigenvalues --   -0.33558  -0.31780  -0.31724  -0.28884  -0.27143
 Alpha  occ. eigenvalues --   -0.26845  -0.21766
 Alpha virt. eigenvalues --    0.11697   0.13288   0.15412   0.15683   0.16983
 Alpha virt. eigenvalues --    0.18515   0.18821   0.20923   0.21976   0.22506
 Alpha virt. eigenvalues --    0.23497   0.23653   0.24362   0.25012   0.25447

 Mulliken charges:
               1
     1  C    1.061437
     2  C    0.110246
     3  Cl  -0.659832
     4  Cl  -0.533099
     5  H    0.713421
     6  H   -0.213678
     7  N   -0.293941
     8  H    0.054141
     9  H    0.034661
    10  C   -0.571444
    11  N   -0.232678
    12  C   -0.134262
    13  N   -0.334973
 Sum of Mulliken charges =  -1.00000

 Dipole moment (field-independent basis, Debye):
    X=             -1.0838    Y=             -5.0509    Z=             -1.7828  Tot=              5.4648

 Test job not archived.
 1\1\GINC-SE016\SP\RHF\Aug-CC-pVDZ\C4H4Cl2N3(1-)\OHZDE\09-Apr-2025\0\\#
 t hf aug-cc-pvdz iop(5/13=1,5/36=2,99/5=2) pseudo=read geom=check gues
 s=(read,tcheck) scf=(maxcycle=1)\\title\\-1,1\C,0,-0.5339145,0.0562617
 2,-0.18960698\C,0,-0.10836848,-0.05989183,1.15133517\Cl,0,1.38068261,0
 .16910725,-1.59282416\Cl,0,-2.51850271,0.59099133,2.78215481\H,0,-1.40
 780479,0.15672881,1.92401672\H,0,0.37120485,0.83017718,1.55699725\N,0,
 -1.17959386,1.20668043,-0.58554014\H,0,-0.79958449,2.03197535,-0.14245
 282\H,0,-1.19434938,1.30801579,-1.5903734\C,0,-1.0165876,-1.13906868,-

 Normal termination of Gaussian 16 at Wed Apr  9 02:59:53 2025.
