 Gaussian 16, Revision C.01,

 ----------------------------------------------------------------------
 #t hf aug-cc-pvdz symm=none int=(grid=ultrafine) guess=(read,tcheck) s
 table=(opt,rrhf)
 ----------------------------------------------------------------------
 -----
 title
 -----
 Symbolic Z-matrix:
 Charge = -1 Multiplicity = 1

 SCF Done:  E(RHF) =  -1236.26672774     A.U. after   15 cycles
 Normal termination of Gaussian 16 at Wed Apr  9 02:48:19 2025.
 Gaussian 16:  ES64L-G16RevC.01  3-Jul-2019

 ----------------------------------------------------------------------
 #t hf aug-cc-pvdz iop(5/13=1,5/36=2,99/5=2) pseudo=read geom=check gue
 ss=(read,tcheck) scf=(maxcycle=1)
 ----------------------------------------------------------------------
 -----
 title
 -----
 Structure from the checkpoint file:  "E2SN2_296_mol2.chk"
 Charge = -1 Multiplicity = 1

                         Standard orientation:
 ---------------------------------------------------------------------
 Center     Atomic      Atomic             Coordinates (Angstroms)
 Number     Number       Type             X           Y           Z
 ---------------------------------------------------------------------
      1          6           0        0.374529   -0.537180   -0.094672
      2          6           0        0.014670    0.872886   -0.566470
      3         17           0        2.006885   -0.985649   -0.808994
      4          1           0       -0.987515    1.106092   -0.179097
      5          1           0       -0.064136    0.834762   -1.655761
      6          6           0        0.597993   -0.564558    1.364477
      7          7           0        0.740648   -0.637734    2.529216
      8          7           0       -0.613126   -1.434915   -0.567983
      9          1           0       -1.551056   -1.012201   -0.472221
     10          1           0       -0.578934   -2.317832   -0.074928
     11          6           0        0.987816    1.881257   -0.169243
     12          7           0        1.761122    2.710695    0.133690
     13         17           0       -3.294468    0.221439   -0.102006
 ---------------------------------------------------------------------

 SCF Done:  E(RHF) =  -1236.38771303     A.U. after    2 cycles

 The electronic state is 1-A.
 Alpha  occ. eigenvalues -- -103.56703-103.39676 -15.55973 -15.54930 -15.52275
 Alpha  occ. eigenvalues --  -11.30235 -11.20592 -11.20162 -11.19466 -10.60052
 Alpha  occ. eigenvalues --  -10.42795  -8.25757  -8.25472  -8.25464  -8.08400
 Alpha  occ. eigenvalues --   -8.08365  -8.08346  -1.15111  -1.08771  -1.08209
 Alpha  occ. eigenvalues --   -1.03279  -0.95073  -0.85334  -0.81287  -0.66868
 Alpha  occ. eigenvalues --   -0.60406  -0.56868  -0.53919  -0.50956  -0.47223
 Alpha  occ. eigenvalues --   -0.46276  -0.45139  -0.39384  -0.38413  -0.37179
 Alpha  occ. eigenvalues --   -0.35886  -0.35635  -0.35388  -0.31671  -0.23178
 Alpha  occ. eigenvalues --   -0.22932  -0.22776
 Alpha virt. eigenvalues --    0.12957   0.13726   0.15997   0.16460   0.17974
 Alpha virt. eigenvalues --    0.18661   0.18817   0.20902   0.21855   0.22531
 Alpha virt. eigenvalues --    0.23265   0.23892   0.24497   0.25214   0.25628

 Mulliken charges:
               1
     1  C    0.175788
     2  C    0.886146
     3  Cl  -0.189122
     4  H   -0.012334
     5  H    0.053238
     6  C   -0.139043
     7  N   -0.248466
     8  N   -0.395122
     9  H    0.099529
    10  H   -0.005408
    11  C   -0.024261
    12  N   -0.295193
    13  Cl  -0.905751
 Sum of Mulliken charges =  -1.00000

 Dipole moment (field-independent basis, Debye):
    X=              6.7436    Y=             -2.8559    Z=             -2.3738  Tot=              7.6986

 Test job not archived.
 1\1\GINC-SE092\SP\RHF\Aug-CC-pVDZ\C4H4Cl2N3(1-)\OHZDE\09-Apr-2025\0\\#
 t hf aug-cc-pvdz iop(5/13=1,5/36=2,99/5=2) pseudo=read geom=check gues
 s=(read,tcheck) scf=(maxcycle=1)\\title\\-1,1\C,0,0.015397,0.056104,0.
 022439\C,0,-0.565966,0.100347,-1.391929\Cl,0,1.828478,-0.212105,-0.107
 054\H,0,-1.656531,0.204217,-1.298678\H,0,-0.375062,-0.875005,-1.846311
 \C,0,-0.109905,1.369085,0.685902\N,0,-0.230589,2.385119,1.265068\N,0,-
 0.575847,-1.026878,0.717418\H,0,-1.585284,-1.076714,0.502656\H,0,-0.43
 766,-0.946381,1.716537\C,0,0.001712,1.157686,-2.217393\N,0,0.448732,1.

 Normal termination of Gaussian 16 at Wed Apr  9 02:48:25 2025.
