 Gaussian 16, Revision C.01,

 ----------------------------------------------------------------------
 #t hf aug-cc-pvdz symm=none int=(grid=ultrafine) guess=(read,tcheck) s
 table=(opt,rrhf)
 ----------------------------------------------------------------------
 -----
 title
 -----
 Symbolic Z-matrix:
 Charge = -1 Multiplicity = 1

 SCF Done:  E(RHF) =  -823.530197054     A.U. after   14 cycles
 Normal termination of Gaussian 16 at Wed Apr  9 02:55:51 2025.
 Gaussian 16:  ES64L-G16RevC.01  3-Jul-2019

 ----------------------------------------------------------------------
 #t hf aug-cc-pvdz iop(5/13=1,5/36=2,99/5=2) pseudo=read geom=check gue
 ss=(read,tcheck) scf=(maxcycle=1)
 ----------------------------------------------------------------------
 -----
 title
 -----
 Structure from the checkpoint file:  "E2SN2_398_mol2.chk"
 Charge = -1 Multiplicity = 1

                         Standard orientation:
 ---------------------------------------------------------------------
 Center     Atomic      Atomic             Coordinates (Angstroms)
 Number     Number       Type             X           Y           Z
 ---------------------------------------------------------------------
      1          6           0        0.513076    0.809931   -0.036129
      2          6           0        0.577787   -0.572655   -0.684016
      3          9           0        1.738034    1.456488   -0.296020
      4          1           0       -0.372577   -1.084741   -0.489540
      5          1           0        0.672953   -0.425421   -1.762661
      6          7           0       -0.514379    1.545820   -0.712775
      7          1           0       -0.694577    2.400349   -0.195697
      8          1           0       -1.372910    0.988063   -0.667143
      9          6           0        0.372424    0.737823    1.472568
     10          1           0        1.201850    0.188118    1.924207
     11          1           0       -0.576367    0.252595    1.709804
     12          1           0        0.369218    1.754536    1.876269
     13          6           0        1.705162   -1.363013   -0.203487
     14          7           0        2.613110   -2.000663    0.179765
     15         17           0       -2.857159   -0.686501    0.041553
 ---------------------------------------------------------------------

 SCF Done:  E(RHF) =  -823.656326020     A.U. after    2 cycles

 The electronic state is 1-A.
 Alpha  occ. eigenvalues -- -103.38445 -25.98735 -15.52989 -15.48838 -11.24864
 Alpha  occ. eigenvalues --  -11.18531 -11.15843 -11.11782 -10.41527  -8.07125
 Alpha  occ. eigenvalues --   -8.07098  -8.07091  -1.52173  -1.07762  -1.06028
 Alpha  occ. eigenvalues --   -0.92969  -0.86428  -0.83769  -0.73453  -0.63576
 Alpha  occ. eigenvalues --   -0.62202  -0.60265  -0.54888  -0.50814  -0.50034
 Alpha  occ. eigenvalues --   -0.47304  -0.44963  -0.43795  -0.42952  -0.40568
 Alpha  occ. eigenvalues --   -0.34129  -0.33884  -0.29062  -0.21807  -0.21595
 Alpha  occ. eigenvalues --   -0.21528
 Alpha virt. eigenvalues --    0.12390   0.13509   0.14206   0.16046   0.16466
 Alpha virt. eigenvalues --    0.17322   0.18430   0.19391   0.20213   0.22881
 Alpha virt. eigenvalues --    0.23790   0.24658   0.25247   0.25616   0.25901

 Mulliken charges:
               1
     1  C   -0.374730
     2  C    0.728247
     3  F   -0.480768
     4  H    0.031076
     5  H    0.031924
     6  N   -0.399875
     7  H   -0.017911
     8  H    0.135832
     9  C    0.621406
    10  H   -0.034099
    11  H    0.119834
    12  H   -0.045304
    13  C   -0.050531
    14  N   -0.328769
    15  Cl  -0.936332
 Sum of Mulliken charges =  -1.00000

 Dipole moment (field-independent basis, Debye):
    X=              5.0537    Y=              3.7247    Z=              0.4968  Tot=              6.2976

 Test job not archived.
 1\1\GINC-SE131\SP\RHF\Aug-CC-pVDZ\C4H7Cl1F1N2(1-)\OHZDE\09-Apr-2025\0\
 \#t hf aug-cc-pvdz iop(5/13=1,5/36=2,99/5=2) pseudo=read geom=check gu
 ess=(read,tcheck) scf=(maxcycle=1)\\title\\-1,1\C,0,-0.011412,-0.01142
 8,0.002811\C,0,-0.486992,0.037056,-1.448727\F,0,1.39357,0.098092,-0.00
 8624\H,0,-1.580808,-0.045413,-1.451694\H,0,-0.216377,1.016782,-1.85011
 7\N,0,-0.529006,1.15493,0.656073\H,0,-0.373198,1.06266,1.654707\H,0,-1
 .544227,1.160618,0.516268\C,0,-0.337981,-1.330646,0.676731\H,0,0.10992
 5,-2.172362,0.142882\H,0,-1.423426,-1.441557,0.714668\H,0,0.059496,-1.

 Normal termination of Gaussian 16 at Wed Apr  9 02:55:57 2025.
