 Gaussian 16, Revision C.01,

 ----------------------------------------------------------------------
 #t hf aug-cc-pvdz symm=none int=(grid=ultrafine) guess=(read,tcheck) s
 table=(opt,rrhf)
 ----------------------------------------------------------------------
 -----
 title
 -----
 Symbolic Z-matrix:
 Charge = -1 Multiplicity = 1

 SCF Done:  E(RHF) =  -1387.01746716     A.U. after   18 cycles
 Normal termination of Gaussian 16 at Wed Apr  9 02:58:37 2025.
 Gaussian 16:  ES64L-G16RevC.01  3-Jul-2019

 ----------------------------------------------------------------------
 #t hf aug-cc-pvdz iop(5/13=1,5/36=2,99/5=2) pseudo=read geom=check gue
 ss=(read,tcheck) scf=(maxcycle=1)
 ----------------------------------------------------------------------
 -----
 title
 -----
 Structure from the checkpoint file:  "E2SN2_43_mol1.chk"
 Charge = -1 Multiplicity = 1

                         Standard orientation:
 ---------------------------------------------------------------------
 Center     Atomic      Atomic             Coordinates (Angstroms)
 Number     Number       Type             X           Y           Z
 ---------------------------------------------------------------------
      1          6           0        0.478109    0.005932   -0.405326
      2          6           0       -0.472916    0.699554    0.378425
      3         17           0        2.614278    0.623098    0.374232
      4         17           0       -2.989736   -0.840090   -0.121224
      5          1           0       -1.736127   -0.112520    0.042674
      6          7           0        0.746542   -1.431748   -0.077187
      7          8           0        1.284823   -2.106201   -0.951465
      8          8           0        0.397723   -1.846264    1.021481
      9          7           0        0.570750    0.214424   -1.748684
     10          1           0        0.608848    1.195666   -1.987319
     11          1           0        1.317509   -0.325192   -2.162781
     12          6           0       -0.473228    0.665326    1.895775
     13          1           0        0.552052    0.776248    2.260619
     14          1           0       -1.081884    1.491340    2.269982
     15          1           0       -0.885646   -0.268040    2.274055
     16          6           0       -0.791724    1.970121   -0.195317
     17          7           0       -1.073547    3.003821   -0.688391
 ---------------------------------------------------------------------

 SCF Done:  E(RHF) =  -1387.18579653     A.U. after    2 cycles

 The electronic state is 1-A.
 Alpha  occ. eigenvalues -- -103.48926-103.45110 -20.52796 -20.52566 -15.82812
 Alpha  occ. eigenvalues --  -15.56257 -15.52624 -11.32053 -11.18515 -11.15699
 Alpha  occ. eigenvalues --  -11.12826 -10.52219 -10.48324  -8.17909  -8.17713
 Alpha  occ. eigenvalues --   -8.17709  -8.13957  -8.13833  -8.13832  -1.45409
 Alpha  occ. eigenvalues --   -1.27191  -1.15416  -1.06759  -0.98777  -0.96253
 Alpha  occ. eigenvalues --   -0.91844  -0.90223  -0.81235  -0.73072  -0.66550
 Alpha  occ. eigenvalues --   -0.65784  -0.63090  -0.60871  -0.57439  -0.53028
 Alpha  occ. eigenvalues --   -0.47571  -0.45350  -0.44522  -0.43715  -0.42485
 Alpha  occ. eigenvalues --   -0.42134  -0.40523  -0.37766  -0.36552  -0.34295
 Alpha  occ. eigenvalues --   -0.31545  -0.31414  -0.29130  -0.28097  -0.27439
 Alpha  occ. eigenvalues --   -0.21022
 Alpha virt. eigenvalues --    0.12392   0.12971   0.13274   0.15314   0.15774
 Alpha virt. eigenvalues --    0.16055   0.17457   0.19111   0.20249   0.21734
 Alpha virt. eigenvalues --    0.22666   0.23294   0.23844   0.24593   0.25603

 Mulliken charges:
               1
     1  C    1.520001
     2  C   -0.506738
     3  Cl  -0.658793
     4  Cl  -0.560188
     5  H    0.752959
     6  N    0.235024
     7  O   -0.615046
     8  O   -0.560978
     9  N   -0.480043
    10  H    0.055238
    11  H    0.101922
    12  C    0.625138
    13  H   -0.009983
    14  H   -0.072566
    15  H    0.035223
    16  C   -0.523536
    17  N   -0.337633
 Sum of Mulliken charges =  -1.00000

 Dipole moment (field-independent basis, Debye):
    X=              0.3668    Y=             -0.7195    Z=             -0.9111  Tot=              1.2175

 Test job not archived.
 1\1\GINC-SE072\SP\RHF\Aug-CC-pVDZ\C4H6Cl2N3O2(1-)\OHZDE\09-Apr-2025\0\
 \#t hf aug-cc-pvdz iop(5/13=1,5/36=2,99/5=2) pseudo=read geom=check gu
 ess=(read,tcheck) scf=(maxcycle=1)\\title\\-1,1\C,0,-0.35989143,0.1283
 4456,-0.18294442\C,0,-0.10015845,0.01079031,1.20217146\Cl,0,1.6713847,
 -0.25702962,-1.31308947\Cl,0,-2.83492754,-0.36454272,2.35746467\H,0,-1
 .53816102,-0.13523505,1.73011107\N,0,-0.99740399,-1.03499408,-0.880710
 73\O,0,-1.53038423,-0.80471894,-1.96325378\O,0,-0.9667157,-2.12649725,
 -0.32550883\N,0,-0.79149273,1.30316387,-0.72162967\H,0,-0.23244499,2.0

 Normal termination of Gaussian 16 at Wed Apr  9 02:58:48 2025.
