 Gaussian 16, Revision C.01,

 ----------------------------------------------------------------------
 #t hf aug-cc-pvdz symm=none int=(grid=ultrafine) guess=(read,tcheck) s
 table=(opt,rrhf)
 ----------------------------------------------------------------------
 -----
 title
 -----
 Symbolic Z-matrix:
 Charge = -1 Multiplicity = 1

 SCF Done:  E(RHF) =  -1042.92172842     A.U. after   17 cycles
 Normal termination of Gaussian 16 at Wed Apr  9 02:51:08 2025.
 Gaussian 16:  ES64L-G16RevC.01  3-Jul-2019

 ----------------------------------------------------------------------
 #t hf aug-cc-pvdz iop(5/13=1,5/36=2,99/5=2) pseudo=read geom=check gue
 ss=(read,tcheck) scf=(maxcycle=1)
 ----------------------------------------------------------------------
 -----
 title
 -----
 Structure from the checkpoint file:  "E2SN2_321_mol1.chk"
 Charge = -1 Multiplicity = 1

                         Standard orientation:
 ---------------------------------------------------------------------
 Center     Atomic      Atomic             Coordinates (Angstroms)
 Number     Number       Type             X           Y           Z
 ---------------------------------------------------------------------
      1          6           0       -0.702450   -0.306350   -0.239462
      2          1           0        0.735436    0.608273   -1.522211
      3          9           0       -0.483167   -2.182403    0.217957
      4         17           0       -1.128056    1.885818   -0.462515
      5          6           0        0.749925   -0.155088   -0.752127
      6          6           0       -1.107026   -0.248657    1.153553
      7          7           0       -1.532056   -0.181240    2.248821
      8          7           0       -1.609927   -0.711546   -1.275715
      9          1           0       -2.408138   -0.092166   -1.284989
     10          1           0       -1.881142   -1.653213   -1.020171
     11          7           0        1.389666   -1.335122   -1.254399
     12          1           0        1.048729   -1.472604   -2.197579
     13          1           0        1.023780   -2.098430   -0.686367
     14          7           0        1.643312    0.400502    0.321299
     15          8           0        2.318898    1.387920    0.039524
     16          8           0        1.696993   -0.220011    1.380554
 ---------------------------------------------------------------------

 SCF Done:  E(RHF) =  -1043.10716942     A.U. after    2 cycles

 The electronic state is 1-A.
 Alpha  occ. eigenvalues -- -103.46376 -25.85467 -20.49700 -20.49682 -15.78684
 Alpha  occ. eigenvalues --  -15.52365 -15.51137 -15.50613 -11.31684 -11.23701
 Alpha  occ. eigenvalues --  -11.17727 -10.49698  -8.15339  -8.15189  -8.15180
 Alpha  occ. eigenvalues --   -1.41965  -1.35851  -1.23745  -1.11477  -1.06829
 Alpha  occ. eigenvalues --   -1.04100  -0.94427  -0.90686  -0.82736  -0.72932
 Alpha  occ. eigenvalues --   -0.66590  -0.62841  -0.60854  -0.59460  -0.58434
 Alpha  occ. eigenvalues --   -0.55322  -0.51051  -0.48457  -0.45289  -0.44275
 Alpha  occ. eigenvalues --   -0.43701  -0.42357  -0.39170  -0.38683  -0.35865
 Alpha  occ. eigenvalues --   -0.34632  -0.33943  -0.31852  -0.30856  -0.29220
 Alpha  occ. eigenvalues --   -0.28732  -0.27443
 Alpha virt. eigenvalues --    0.12106   0.13270   0.14360   0.16641   0.17013
 Alpha virt. eigenvalues --    0.19105   0.19321   0.19870   0.21783   0.22120
 Alpha virt. eigenvalues --    0.22467   0.24375   0.24988   0.25021   0.25293

 Mulliken charges:
               1
     1  C    1.353834
     2  H   -0.104426
     3  F   -0.828007
     4  Cl  -0.551299
     5  C    1.658117
     6  C   -0.564785
     7  N   -0.291447
     8  N   -0.652786
     9  H    0.068729
    10  H    0.128863
    11  N   -0.474711
    12  H    0.044003
    13  H    0.123247
    14  N    0.272379
    15  O   -0.615781
    16  O   -0.565929
 Sum of Mulliken charges =  -1.00000

 Dipole moment (field-independent basis, Debye):
    X=             -0.5688    Y=             -1.3128    Z=             -5.1803  Tot=              5.3742

 Test job not archived.
 1\1\GINC-SE284\SP\RHF\Aug-CC-pVDZ\C3H5Cl1F1N4O2(1-)\OHZDE\09-Apr-2025\
 0\\#t hf aug-cc-pvdz iop(5/13=1,5/36=2,99/5=2) pseudo=read geom=check
 guess=(read,tcheck) scf=(maxcycle=1)\\title\\-1,1\C,0,0.76901099,0.027
 32113,0.03953356\H,0,1.60939278,1.96607558,0.33019781\F,0,-1.08214909,
 -0.2718544,0.55001892\Cl,0,2.85685059,0.1111683,-0.77923892\C,0,0.6353
 1391,1.56890525,0.06678892\C,0,0.36532313,-0.8269632,-1.06261691\N,0,0
 .1017022,-1.59279181,-1.91632521\N,0,1.15982058,-0.51138526,1.31176786
 \H,0,1.94983604,-1.12883099,1.18728732\H,0,0.3449902,-1.02060974,1.631

 Normal termination of Gaussian 16 at Wed Apr  9 02:51:18 2025.
