 Gaussian 16, Revision C.01,

 ----------------------------------------------------------------------
 #t hf aug-cc-pvdz symm=none int=(grid=ultrafine) guess=(read,tcheck) s
 table=(opt,rrhf)
 ----------------------------------------------------------------------
 -----
 title
 -----
 Symbolic Z-matrix:
 Charge = -1 Multiplicity = 1

 SCF Done:  E(RHF) =  -492.200631816     A.U. after   17 cycles
 Normal termination of Gaussian 16 at Wed Apr  9 02:27:18 2025.
 Gaussian 16:  ES64L-G16RevC.01  3-Jul-2019

 ----------------------------------------------------------------------
 #t hf aug-cc-pvdz iop(5/13=1,5/36=2,99/5=2) pseudo=read geom=check gue
 ss=(read,tcheck) scf=(maxcycle=1)
 ----------------------------------------------------------------------
 -----
 title
 -----
 Structure from the checkpoint file:  "E2SN2_103_mol2.chk"
 Charge = -1 Multiplicity = 1

                         Standard orientation:
 ---------------------------------------------------------------------
 Center     Atomic      Atomic             Coordinates (Angstroms)
 Number     Number       Type             X           Y           Z
 ---------------------------------------------------------------------
      1          6           0       -0.137290    0.495355   -0.427772
      2          6           0        1.068343   -0.120156    0.240042
      3          9           0       -0.266801    1.822053   -0.091789
      4          1           0        0.947344    0.011860    1.322578
      5          1           0       -0.105823    0.405743   -1.513026
      6          7           0       -1.392748   -0.192648    0.021084
      7          8           0       -1.740085   -0.012380    1.183781
      8          8           0       -1.977955   -0.885905   -0.807802
      9          7           0        2.261009    0.529746   -0.293314
     10          1           0        2.314424    1.472747    0.084976
     11          1           0        3.019786   -0.010042    0.163021
     12          7           0        1.070175   -1.542552   -0.015412
     13          1           0        1.371148   -1.657402   -0.981239
     14          1           0        1.872232   -1.872544    0.546350
     15          1           0        3.571053   -1.375575    1.335470
 ---------------------------------------------------------------------

 SCF Done:  E(RHF) =  -492.356466219     A.U. after    2 cycles

 The electronic state is 1-A.
 Alpha  occ. eigenvalues --  -26.04296 -20.52158 -20.52054 -15.81013 -15.47447
 Alpha  occ. eigenvalues --  -15.47229 -11.28357 -11.18209  -1.58089  -1.44139
 Alpha  occ. eigenvalues --   -1.26201  -1.08997  -0.97486  -0.95875  -0.79764
 Alpha  occ. eigenvalues --   -0.74065  -0.69948  -0.68787  -0.64451  -0.63140
 Alpha  occ. eigenvalues --   -0.60170  -0.59166  -0.52232  -0.51061  -0.47609
 Alpha  occ. eigenvalues --   -0.43453  -0.42608  -0.41054  -0.39062  -0.37194
 Alpha  occ. eigenvalues --   -0.28546  -0.27681  -0.09536
 Alpha virt. eigenvalues --    0.12508   0.14030   0.15378   0.16349   0.17720
 Alpha virt. eigenvalues --    0.19088   0.19816   0.20435   0.20999   0.22229
 Alpha virt. eigenvalues --    0.23989   0.24466   0.25510   0.26031   0.26636

 Mulliken charges:
               1
     1  C    1.394015
     2  C    0.606043
     3  F   -0.378655
     4  H   -0.139216
     5  H   -0.213183
     6  N    0.386406
     7  O   -0.584499
     8  O   -0.615369
     9  N   -0.447653
    10  H    0.020864
    11  H    0.082784
    12  N   -0.418833
    13  H    0.028602
    14  H    0.083751
    15  H   -0.805058
 Sum of Mulliken charges =  -1.00000

 Dipole moment (field-independent basis, Debye):
    X=             -9.1659    Y=              5.7333    Z=             -5.4741  Tot=             12.1182

 Test job not archived.
 1\1\GINC-SE090\SP\RHF\Aug-CC-pVDZ\C2H7F1N3O2(1-)\OHZDE\09-Apr-2025\0\\
 #t hf aug-cc-pvdz iop(5/13=1,5/36=2,99/5=2) pseudo=read geom=check gue
 ss=(read,tcheck) scf=(maxcycle=1)\\title\\-1,1\C,0,-0.79071,0.084299,-
 1.536889\C,0,0.145579,-0.008361,-0.356569\F,0,-0.499924,-0.875655,-2.4
 76952\H,0,1.168296,0.09866,-0.739386\H,0,-1.8374,-0.006841,-1.248912\N
 ,0,-0.64883,1.415308,-2.214591\O,0,0.398072,1.622119,-2.819759\O,0,-1.
 589945,2.198796,-2.11176\N,0,-0.093107,-1.284204,0.310176\H,0,0.283499
 ,-2.030151,-0.270287\H,0,0.531753,-1.21376,1.134763\N,0,-0.096789,1.11

 Normal termination of Gaussian 16 at Wed Apr  9 02:27:24 2025.
