 Gaussian 16, Revision C.01,

 ----------------------------------------------------------------------
 #t hf aug-cc-pvdz symm=none int=(grid=ultrafine) guess=(read,tcheck) s
 table=(opt,rrhf)
 ----------------------------------------------------------------------
 -----
 title
 -----
 Symbolic Z-matrix:
 Charge = -1 Multiplicity = 1

 SCF Done:  E(RHF) =  -823.423765053     A.U. after   16 cycles
 Normal termination of Gaussian 16 at Wed Apr  9 02:44:18 2025.
 Gaussian 16:  ES64L-G16RevC.01  3-Jul-2019

 ----------------------------------------------------------------------
 #t hf aug-cc-pvdz iop(5/13=1,5/36=2,99/5=2) pseudo=read geom=check gue
 ss=(read,tcheck) scf=(maxcycle=1)
 ----------------------------------------------------------------------
 -----
 title
 -----
 Structure from the checkpoint file:  "E2SN2_259_mol1.chk"
 Charge = -1 Multiplicity = 1

                         Standard orientation:
 ---------------------------------------------------------------------
 Center     Atomic      Atomic             Coordinates (Angstroms)
 Number     Number       Type             X           Y           Z
 ---------------------------------------------------------------------
      1          6           0        0.163021    0.118075   -0.383272
      2          1           0       -0.197176   -1.164424    1.283864
      3          9           0       -1.334143    1.101845   -1.193127
      4         17           0        2.006839   -1.026520   -0.004314
      5          6           0       -0.790970   -0.653926    0.524545
      6          1           0        0.261640   -0.133952   -1.420623
      7          6           0        0.675117    1.397048    0.043942
      8          7           0        1.120483    2.427971    0.391652
      9          6           0       -1.514661   -1.690012   -0.333007
     10          1           0       -2.071950   -1.157347   -1.103923
     11          1           0       -0.803536   -2.379243   -0.798898
     12          1           0       -2.205860   -2.276435    0.282414
     13          7           0       -1.665954    0.287891    1.218420
     14          1           0       -2.382104   -0.237333    1.707219
     15          1           0       -2.086736    0.844820    0.477683
 ---------------------------------------------------------------------

 SCF Done:  E(RHF) =  -823.546916434     A.U. after    2 cycles

 The electronic state is 1-A.
 Alpha  occ. eigenvalues -- -103.44863 -25.81485 -15.49959 -15.46829 -11.23766
 Alpha  occ. eigenvalues --  -11.16134 -11.15470 -11.10566 -10.48130  -8.13775
 Alpha  occ. eigenvalues --   -8.13623  -8.13616  -1.31246  -1.05068  -1.02811
 Alpha  occ. eigenvalues --   -0.94013  -0.87416  -0.83311  -0.69818  -0.59450
 Alpha  occ. eigenvalues --   -0.56389  -0.49028  -0.45651  -0.44647  -0.43611
 Alpha  occ. eigenvalues --   -0.41966  -0.40440  -0.39855  -0.39333  -0.37495
 Alpha  occ. eigenvalues --   -0.32646  -0.31293  -0.28009  -0.27243  -0.26426
 Alpha  occ. eigenvalues --   -0.25139
 Alpha virt. eigenvalues --    0.11829   0.13628   0.14496   0.15132   0.16554
 Alpha virt. eigenvalues --    0.17075   0.18329   0.20120   0.20732   0.22337
 Alpha virt. eigenvalues --    0.23706   0.24408   0.24654   0.26440   0.26680

 Mulliken charges:
               1
     1  C    1.579566
     2  H   -0.148652
     3  F   -0.861486
     4  Cl  -0.585631
     5  C    0.012492
     6  H   -0.340701
     7  C   -0.763435
     8  N   -0.225885
     9  C    0.632988
    10  H    0.092678
    11  H   -0.019334
    12  H   -0.107482
    13  N   -0.340403
    14  H   -0.038050
    15  H    0.113336
 Sum of Mulliken charges =  -1.00000

 Dipole moment (field-independent basis, Debye):
    X=             -3.2595    Y=             -4.6777    Z=              0.9166  Tot=              5.7746

 Test job not archived.
 1\1\GINC-SE187\SP\RHF\Aug-CC-pVDZ\C4H7Cl1F1N2(1-)\OHZDE\09-Apr-2025\0\
 \#t hf aug-cc-pvdz iop(5/13=1,5/36=2,99/5=2) pseudo=read geom=check gu
 ess=(read,tcheck) scf=(maxcycle=1)\\title\\-1,1\C,0,0.64664829,0.03131
 333,-0.04916321\H,0,1.68005224,1.88948377,-0.2312839\F,0,-1.31245439,-
 0.01013172,-0.20843615\Cl,0,2.74833801,-0.3094913,0.51663273\C,0,0.651
 26342,1.55736191,-0.08618728\H,0,0.35882452,-0.49755095,0.83785435\C,0
 ,0.68852783,-0.71178882,-1.28470833\N,0,0.74917863,-1.32929337,-2.2832
 3988\C,0,0.14359394,2.05806752,1.26442873\H,0,-0.87163342,1.68475716,1

 Normal termination of Gaussian 16 at Wed Apr  9 02:44:24 2025.
