 Gaussian 16, Revision C.01,

 ----------------------------------------------------------------------
 #t hf aug-cc-pvdz symm=none int=(grid=ultrafine) guess=(read,tcheck) s
 table=(opt,rrhf)
 ----------------------------------------------------------------------
 -----
 title
 -----
 Symbolic Z-matrix:
 Charge = -1 Multiplicity = 1

 SCF Done:  E(RHF) =  -974.213678319     A.U. after   16 cycles
 Normal termination of Gaussian 16 at Wed Apr  9 03:00:26 2025.
 Gaussian 16:  ES64L-G16RevC.01  3-Jul-2019

 ----------------------------------------------------------------------
 #t hf aug-cc-pvdz iop(5/13=1,5/36=2,99/5=2) pseudo=read geom=check gue
 ss=(read,tcheck) scf=(maxcycle=1)
 ----------------------------------------------------------------------
 -----
 title
 -----
 Structure from the checkpoint file:  "E2SN2_78_mol1.chk"
 Charge = -1 Multiplicity = 1

                         Standard orientation:
 ---------------------------------------------------------------------
 Center     Atomic      Atomic             Coordinates (Angstroms)
 Number     Number       Type             X           Y           Z
 ---------------------------------------------------------------------
      1          6           0       -0.294941   -0.041883   -0.374455
      2          6           0        0.906704   -0.480445    0.320342
      3         17           0       -1.809584   -1.261519   -0.238080
      4          9           0        2.909082    0.921925   -0.227678
      5          1           0        1.886816    0.462259    0.071419
      6          6           0       -0.118870    0.164653   -1.859439
      7          1           0       -1.015009    0.597356   -2.304980
      8          1           0        0.737633    0.822065   -2.013131
      9          1           0        0.097920   -0.805680   -2.297432
     10          7           0        1.516265   -1.585030   -0.421094
     11          1           0        1.340514   -2.464793    0.056618
     12          1           0        2.515242   -1.415105   -0.440810
     13          6           0        0.824064   -0.743383    1.808876
     14          1           0        0.174097   -1.605446    2.030620
     15          1           0        1.833563   -0.971681    2.166309
     16          1           0        0.450563    0.105184    2.383144
     17          7           0       -0.832995    1.229177    0.266750
     18          8           0       -0.650078    2.278790   -0.351374
     19          8           0       -1.365521    1.161418    1.370523
 ---------------------------------------------------------------------

 SCF Done:  E(RHF) =  -974.387475696     A.U. after    2 cycles

 The electronic state is 1-A.
 Alpha  occ. eigenvalues -- -103.50466 -25.82820 -20.49200 -20.49042 -15.78406
 Alpha  occ. eigenvalues --  -15.46418 -11.23870 -11.10754 -11.08617 -11.08433
 Alpha  occ. eigenvalues --  -10.53732  -8.19420  -8.19191  -8.19182  -1.41431
 Alpha  occ. eigenvalues --   -1.33599  -1.23128  -1.04982  -0.99099  -0.92273
 Alpha  occ. eigenvalues --   -0.84119  -0.81551  -0.72220  -0.66886  -0.61024
 Alpha  occ. eigenvalues --   -0.59276  -0.57454  -0.52514  -0.48466  -0.47422
 Alpha  occ. eigenvalues --   -0.46292  -0.44974  -0.42860  -0.42177  -0.41786
 Alpha  occ. eigenvalues --   -0.41307  -0.38973  -0.37812  -0.37341  -0.35977
 Alpha  occ. eigenvalues --   -0.34513  -0.31659  -0.31248  -0.25470  -0.19324
 Alpha virt. eigenvalues --    0.12925   0.13087   0.14403   0.15108   0.16003
 Alpha virt. eigenvalues --    0.16993   0.17204   0.17902   0.18488   0.20164
 Alpha virt. eigenvalues --    0.20513   0.21601   0.23938   0.24972   0.26039

 Mulliken charges:
               1
     1  C   -0.552169
     2  C   -0.477429
     3  Cl  -0.357458
     4  F   -0.579019
     5  H    0.495892
     6  C    0.889084
     7  H   -0.010776
     8  H    0.102183
     9  H    0.083719
    10  N   -0.469333
    11  H    0.019678
    12  H    0.034954
    13  C    0.946846
    14  H   -0.051668
    15  H   -0.071460
    16  H   -0.051760
    17  N    0.267215
    18  O   -0.590726
    19  O   -0.627775
 Sum of Mulliken charges =  -1.00000

 Dipole moment (field-independent basis, Debye):
    X=             -2.9635    Y=             -3.1586    Z=             -0.3373  Tot=              4.3443

 Test job not archived.
 1\1\GINC-SE454\SP\RHF\Aug-CC-pVDZ\C4H9Cl1F1N2O2(1-)\OHZDE\09-Apr-2025\
 0\\#t hf aug-cc-pvdz iop(5/13=1,5/36=2,99/5=2) pseudo=read geom=check
 guess=(read,tcheck) scf=(maxcycle=1)\\title\\-1,1\C,0,-0.17807042,0.01
 044301,-0.40368622\C,0,-0.24735031,-0.02843642,1.04983369\Cl,0,1.62808
 184,-0.00599808,-1.1370331\F,0,-2.55712103,0.39785615,1.92145055\H,0,-
 1.58375994,0.04961327,1.39507126\C,0,-0.81989204,1.22562807,-1.0283668
 5\H,0,-0.83641445,1.14612506,-2.11566204\H,0,-1.83442552,1.31405783,-0
 .63809777\H,0,-0.24445522,2.09230849,-0.71512701\N,0,0.16123743,1.2700

 Normal termination of Gaussian 16 at Wed Apr  9 03:00:37 2025.
