 Gaussian 16, Revision C.01,

 ----------------------------------------------------------------------
 #t hf aug-cc-pvdz symm=none int=(grid=ultrafine) guess=(read,tcheck) s
 table=(opt,rrhf)
 ----------------------------------------------------------------------
 -----
 title
 -----
 Symbolic Z-matrix:
 Charge = -1 Multiplicity = 1

 SCF Done:  E(RHF) =  -935.177042255     A.U. after   16 cycles
 Normal termination of Gaussian 16 at Wed Apr  9 02:32:22 2025.
 Gaussian 16:  ES64L-G16RevC.01  3-Jul-2019

 ----------------------------------------------------------------------
 #t hf aug-cc-pvdz iop(5/13=1,5/36=2,99/5=2) pseudo=read geom=check gue
 ss=(read,tcheck) scf=(maxcycle=1)
 ----------------------------------------------------------------------
 -----
 title
 -----
 Structure from the checkpoint file:  "E2SN2_128_mol1.chk"
 Charge = -1 Multiplicity = 1

                         Standard orientation:
 ---------------------------------------------------------------------
 Center     Atomic      Atomic             Coordinates (Angstroms)
 Number     Number       Type             X           Y           Z
 ---------------------------------------------------------------------
      1          6           0       -0.101649    0.005206   -0.410412
      2          6           0        0.636270    1.168860    0.022670
      3         17           0       -1.985088    0.320782   -0.833379
      4          9           0        2.932531    0.195662   -0.499899
      5          1           0        1.978807    0.637057   -0.097092
      6          1           0        0.710644    1.843092   -0.838702
      7          7           0        0.380666   -0.686056   -1.569100
      8          1           0        1.397836   -0.643074   -1.509344
      9          1           0        0.076186   -0.165475   -2.380967
     10          7           0       -0.192455   -1.004943    0.745677
     11          8           0       -0.923497   -0.741202    1.696649
     12          8           0        0.555457   -1.975790    0.682896
     13          6           0        0.212655    1.894189    1.283261
     14          1           0        0.406896    1.306174    2.183546
     15          1           0        0.782961    2.824545    1.374821
     16          1           0       -0.856423    2.146826    1.288752
 ---------------------------------------------------------------------

 SCF Done:  E(RHF) =  -935.339970991     A.U. after    2 cycles

 The electronic state is 1-A.
 Alpha  occ. eigenvalues -- -103.50051 -25.85145 -20.48267 -20.47879 -15.77113
 Alpha  occ. eigenvalues --  -15.48953 -11.26498 -11.08820 -11.05597 -10.53343
 Alpha  occ. eigenvalues --   -8.19029  -8.18794  -8.18787  -1.40426  -1.36355
 Alpha  occ. eigenvalues --   -1.22210  -1.08400  -0.96627  -0.90253  -0.84057
 Alpha  occ. eigenvalues --   -0.73421  -0.66983  -0.60161  -0.59485  -0.57298
 Alpha  occ. eigenvalues --   -0.54012  -0.52862  -0.48041  -0.44990  -0.44561
 Alpha  occ. eigenvalues --   -0.43146  -0.40979  -0.40218  -0.38569  -0.37258
 Alpha  occ. eigenvalues --   -0.34448  -0.33677  -0.31367  -0.31218  -0.28357
 Alpha  occ. eigenvalues --   -0.19244
 Alpha virt. eigenvalues --    0.13126   0.13682   0.15142   0.15597   0.17157
 Alpha virt. eigenvalues --    0.17891   0.18685   0.20224   0.20771   0.23277
 Alpha virt. eigenvalues --    0.23723   0.24986   0.25845   0.26391   0.27389

 Mulliken charges:
               1
     1  C    1.132969
     2  C   -0.408910
     3  Cl  -0.321909
     4  F   -0.535744
     5  H    0.433305
     6  H   -0.262449
     7  N   -0.456561
     8  H    0.080957
     9  H    0.061953
    10  N    0.155465
    11  O   -0.626068
    12  O   -0.546489
    13  C    0.483296
    14  H   -0.034763
    15  H   -0.086878
    16  H   -0.068175
 Sum of Mulliken charges =  -1.00000

 Dipole moment (field-independent basis, Debye):
    X=             -2.9510    Y=              1.9790    Z=             -1.1735  Tot=              3.7420

 Test job not archived.
 1\1\GINC-SE455\SP\RHF\Aug-CC-pVDZ\C3H7Cl1F1N2O2(1-)\OHZDE\09-Apr-2025\
 0\\#t hf aug-cc-pvdz iop(5/13=1,5/36=2,99/5=2) pseudo=read geom=check
 guess=(read,tcheck) scf=(maxcycle=1)\\title\\-1,1\C,0,-0.19977966,-0.0
 4856046,-0.26121289\C,0,-0.20928167,0.08173431,1.17722684\Cl,0,1.57215
 906,-0.21427813,-1.07275606\F,0,-2.63664642,-0.64005853,1.4599318\H,0,
 -1.61762242,-0.16463152,1.41269084\H,0,0.13722726,-0.87295636,1.590238
 89\N,0,-0.92103591,-1.14986057,-0.82685917\H,0,-1.75378387,-1.25739073
 ,-0.24804926\H,0,-0.34261201,-1.97355994,-0.72792568\N,0,-0.72947674,1

 Normal termination of Gaussian 16 at Wed Apr  9 02:32:30 2025.
