 Gaussian 16, Revision C.01,

 ----------------------------------------------------------------------
 #t hf aug-cc-pvdz symm=none int=(grid=ultrafine) guess=(read,tcheck) s
 table=(opt,rrhf)
 ----------------------------------------------------------------------
 -----
 title
 -----
 Symbolic Z-matrix:
 Charge = -1 Multiplicity = 1

 SCF Done:  E(RHF) =  -763.526917510     A.U. after   16 cycles
 Normal termination of Gaussian 16 at Wed Apr  9 02:40:25 2025.
 Gaussian 16:  ES64L-G16RevC.01  3-Jul-2019

 ----------------------------------------------------------------------
 #t hf aug-cc-pvdz iop(5/13=1,5/36=2,99/5=2) pseudo=read geom=check gue
 ss=(read,tcheck) scf=(maxcycle=1)
 ----------------------------------------------------------------------
 -----
 title
 -----
 Structure from the checkpoint file:  "E2SN2_20_mol1.chk"
 Charge = -1 Multiplicity = 1

                         Standard orientation:
 ---------------------------------------------------------------------
 Center     Atomic      Atomic             Coordinates (Angstroms)
 Number     Number       Type             X           Y           Z
 ---------------------------------------------------------------------
      1          6           0        0.614963    0.101120    0.367542
      2          6           0       -0.740892    0.690783    0.049973
      3         17           0        1.093749   -1.190913   -0.893839
      4          1           0       -0.693855    2.152619    2.120925
      5          1           0       -0.848916    1.424929    1.060563
      6          7           0        0.640528   -0.554620    1.658679
      7          1           0       -0.092460   -1.259283    1.669061
      8          1           0        0.341411    0.181440    2.309617
      9          6           0       -1.787064   -0.294049    0.119998
     10          7           0       -2.667343   -1.072666    0.224733
     11          6           0       -0.837325    1.578925   -1.179585
     12          1           0       -0.413650    1.104289   -2.071843
     13          1           0       -1.882670    1.824402   -1.385266
     14          1           0       -0.313096    2.521038   -0.992630
     15          6           0        1.693477    1.162442    0.346730
     16          1           0        1.829041    1.579685   -0.651487
     17          1           0        1.378320    1.952522    1.038793
     18          1           0        2.630895    0.719562    0.685706
 ---------------------------------------------------------------------

 SCF Done:  E(RHF) =  -763.635086182     A.U. after    2 cycles

 The electronic state is 1-A.
 Alpha  occ. eigenvalues -- -103.50926 -15.49838 -15.48652 -11.21830 -11.15501
 Alpha  occ. eigenvalues --  -11.11709 -11.11642 -11.10822 -10.54294  -8.19987
 Alpha  occ. eigenvalues --   -8.19746  -8.19745  -1.08806  -1.03675  -0.97872
 Alpha  occ. eigenvalues --   -0.92711  -0.85704  -0.77571  -0.65685  -0.57187
 Alpha  occ. eigenvalues --   -0.55100  -0.49872  -0.48078  -0.44949  -0.43164
 Alpha  occ. eigenvalues --   -0.42493  -0.41016  -0.40242  -0.38951  -0.36585
 Alpha  occ. eigenvalues --   -0.32636  -0.31725  -0.31106  -0.30359  -0.27886
 Alpha  occ. eigenvalues --   -0.10863
 Alpha virt. eigenvalues --    0.12531   0.13230   0.14690   0.15001   0.15574
 Alpha virt. eigenvalues --    0.16918   0.17749   0.18173   0.19406   0.19921
 Alpha virt. eigenvalues --    0.20547   0.21523   0.23113   0.23569   0.25303

 Mulliken charges:
               1
     1  C   -0.870954
     2  C    0.902166
     3  Cl  -0.364702
     4  H   -0.555967
     5  H   -0.171439
     6  N   -0.512839
     7  H   -0.007717
     8  H    0.124893
     9  C   -0.892468
    10  N   -0.312553
    11  C    0.661452
    12  H    0.020073
    13  H   -0.116358
    14  H    0.022194
    15  C    1.098786
    16  H   -0.051783
    17  H    0.026295
    18  H    0.000920
 Sum of Mulliken charges =  -1.00000

 Dipole moment (field-independent basis, Debye):
    X=              3.9450    Y=             -1.5473    Z=             -5.3065  Tot=              6.7909

 Test job not archived.
 1\1\GINC-SE105\SP\RHF\Aug-CC-pVDZ\C5H10Cl1N2(1-)\OHZDE\09-Apr-2025\0\\
 #t hf aug-cc-pvdz iop(5/13=1,5/36=2,99/5=2) pseudo=read geom=check gue
 ss=(read,tcheck) scf=(maxcycle=1)\\title\\-1,1\C,0,-0.12970637,0.05242
 837,-0.39859433\C,0,-0.08977438,0.00717918,1.1124489\Cl,0,1.59550692,0
 .13325155,-1.11047735\H,0,-2.62004382,0.01706315,1.2726237\H,0,-1.3259
 0209,0.05070737,1.31744849\N,0,-0.83499078,1.21584477,-0.89530216\H,0,
 -0.39459607,2.04348738,-0.50161445\H,0,-1.75980816,1.14449749,-0.45417
 017\C,0,0.48148067,1.20254625,1.67284192\N,0,0.89640362,2.19594889,2.1

 Normal termination of Gaussian 16 at Wed Apr  9 02:40:34 2025.
