 Gaussian 16, Revision C.01,

 ----------------------------------------------------------------------
 #t hf aug-cc-pvdz symm=none int=(grid=ultrafine) guess=(read,tcheck) s
 table=(opt,rrhf)
 ----------------------------------------------------------------------
 -----
 title
 -----
 Symbolic Z-matrix:
 Charge = -1 Multiplicity = 1

 SCF Done:  E(RHF) =  -1334.36169516     A.U. after   15 cycles
 Normal termination of Gaussian 16 at Wed Apr  9 02:35:17 2025.
 Gaussian 16:  ES64L-G16RevC.01  3-Jul-2019

 ----------------------------------------------------------------------
 #t hf aug-cc-pvdz iop(5/13=1,5/36=2,99/5=2) pseudo=read geom=check gue
 ss=(read,tcheck) scf=(maxcycle=1)
 ----------------------------------------------------------------------
 -----
 title
 -----
 Structure from the checkpoint file:  "E2SN2_14_mol2.chk"
 Charge = -1 Multiplicity = 1

                         Standard orientation:
 ---------------------------------------------------------------------
 Center     Atomic      Atomic             Coordinates (Angstroms)
 Number     Number       Type             X           Y           Z
 ---------------------------------------------------------------------
      1          6           0        0.968257   -0.158829    0.403857
      2          6           0       -0.483278   -0.101727   -0.107042
      3         17           0        1.850224   -1.506731   -0.354549
      4          1           0       -0.960695    0.710198    0.450599
      5          7           0        1.640458    1.149733    0.000434
      6          8           0        2.484301    1.172729   -0.887367
      7          8           0        1.219981    2.136123    0.602609
      8          6           0        1.050118   -0.301403    1.907742
      9          1           0        0.535449   -1.223129    2.170914
     10          1           0        2.090683   -0.335249    2.238947
     11          1           0        0.539712    0.539536    2.376813
     12          7           0       -1.149397   -1.329071    0.295749
     13          1           0       -1.055514   -2.010983   -0.449847
     14          1           0       -2.142968   -1.087420    0.360352
     15          6           0       -0.595477    0.224182   -1.591614
     16          1           0       -1.661531    0.280338   -1.817705
     17          1           0       -0.130281   -0.556894   -2.200502
     18          1           0       -0.138697    1.184159   -1.849773
     19         17           0       -3.955256    0.289710    0.074980
 ---------------------------------------------------------------------

 SCF Done:  E(RHF) =  -1334.51759138     A.U. after    2 cycles

 The electronic state is 1-A.
 Alpha  occ. eigenvalues -- -103.57003-103.37204 -20.53151 -20.52664 -15.82068
 Alpha  occ. eigenvalues --  -15.47815 -11.27373 -11.16969 -11.15230 -11.11217
 Alpha  occ. eigenvalues --  -10.60379 -10.40268  -8.26104  -8.25812  -8.25804
 Alpha  occ. eigenvalues --   -8.05865  -8.05836  -8.05832  -1.45368  -1.27173
 Alpha  occ. eigenvalues --   -1.11981  -1.03680  -0.96403  -0.88187  -0.85110
 Alpha  occ. eigenvalues --   -0.82387  -0.75773  -0.70551  -0.64802  -0.63084
 Alpha  occ. eigenvalues --   -0.62833  -0.55361  -0.52622  -0.49520  -0.48492
 Alpha  occ. eigenvalues --   -0.47440  -0.45347  -0.43678  -0.43050  -0.41043
 Alpha  occ. eigenvalues --   -0.39831  -0.39013  -0.37580  -0.36494  -0.36031
 Alpha  occ. eigenvalues --   -0.27908  -0.20466  -0.20282  -0.20209
 Alpha virt. eigenvalues --    0.11246   0.13019   0.13813   0.14303   0.15319
 Alpha virt. eigenvalues --    0.16317   0.16729   0.17353   0.18198   0.18969
 Alpha virt. eigenvalues --    0.19882   0.20928   0.21962   0.23881   0.24126

 Mulliken charges:
               1
     1  C   -0.684984
     2  C    0.333762
     3  Cl  -0.179253
     4  H   -0.109677
     5  N    0.380592
     6  O   -0.628623
     7  O   -0.627822
     8  C    0.899172
     9  H    0.113142
    10  H   -0.068507
    11  H    0.116131
    12  N   -0.390255
    13  H    0.053960
    14  H    0.097712
    15  C    0.727911
    16  H    0.007540
    17  H   -0.032430
    18  H   -0.055957
    19  Cl  -0.952415
 Sum of Mulliken charges =  -1.00000

 Dipole moment (field-independent basis, Debye):
    X=             12.0556    Y=             -2.8111    Z=              0.3627  Tot=             12.3843

 Test job not archived.
 1\1\GINC-SE459\SP\RHF\Aug-CC-pVDZ\C4H9Cl2N2O2(1-)\OHZDE\09-Apr-2025\0\
 \#t hf aug-cc-pvdz iop(5/13=1,5/36=2,99/5=2) pseudo=read geom=check gu
 ess=(read,tcheck) scf=(maxcycle=1)\\title\\-1,1\C,0,-0.48343,0.026733,
 -1.571974\C,0,0.154516,0.04496,-0.170573\Cl,0,-2.235976,-0.267273,-1.4
 6231\H,0,1.229013,0.170863,-0.337059\N,0,-0.259492,1.404299,-2.187688\
 O,0,-1.19073,2.188624,-2.323405\O,0,0.91364,1.64347,-2.468651\C,0,0.13
 4521,-1.014844,-2.47859\H,0,-0.009404,-1.981713,-2.000917\H,0,-0.33595
 9,-1.000419,-3.46452\H,0,1.202282,-0.819246,-2.575276\N,0,-0.022162,-1

 Normal termination of Gaussian 16 at Wed Apr  9 02:35:30 2025.
