 Gaussian 16, Revision C.01,

 ----------------------------------------------------------------------
 #t hf aug-cc-pvdz symm=none int=(grid=ultrafine) guess=(read,tcheck) s
 table=(opt,rrhf)
 ----------------------------------------------------------------------
 -----
 title
 -----
 Symbolic Z-matrix:
 Charge = -1 Multiplicity = 1

 SCF Done:  E(RHF) =  -1099.65905257     A.U. after   16 cycles
 Normal termination of Gaussian 16 at Wed Apr  9 02:40:43 2025.
 Gaussian 16:  ES64L-G16RevC.01  3-Jul-2019

 ----------------------------------------------------------------------
 #t hf aug-cc-pvdz iop(5/13=1,5/36=2,99/5=2) pseudo=read geom=check gue
 ss=(read,tcheck) scf=(maxcycle=1)
 ----------------------------------------------------------------------
 -----
 title
 -----
 Structure from the checkpoint file:  "E2SN2_214_mol1.chk"
 Charge = -1 Multiplicity = 1

                         Standard orientation:
 ---------------------------------------------------------------------
 Center     Atomic      Atomic             Coordinates (Angstroms)
 Number     Number       Type             X           Y           Z
 ---------------------------------------------------------------------
      1          6           0       -0.403589    0.112445   -0.292996
      2          1           0        0.756595    1.007536    1.306904
      3          9           0        0.365716   -1.457036   -1.021839
      4         17           0       -1.400716    1.889664    0.384249
      5          6           0        0.756683    0.107827    0.691919
      6          1           0       -0.261989    0.520031   -1.272675
      7          7           0       -1.622915   -0.725713   -0.181328
      8          8           0       -1.859398   -1.311563    0.865655
      9          8           0       -2.326436   -0.743572   -1.184653
     10          7           0        2.019104    0.343057   -0.202226
     11          8           0        3.037882   -0.269389    0.104270
     12          8           0        1.954303    1.200577   -1.075169
     13          7           0        0.870547   -1.046194    1.488639
     14          1           0        1.759096   -1.033444    1.969421
     15          1           0        0.830501   -1.833191    0.850719
 ---------------------------------------------------------------------

 SCF Done:  E(RHF) =  -1099.86622382     A.U. after    2 cycles

 The electronic state is 1-A.
 Alpha  occ. eigenvalues -- -103.47633 -25.84859 -20.50388 -20.50281 -20.49007
 Alpha  occ. eigenvalues --  -20.48781 -15.79882 -15.78985 -15.50573 -11.29078
 Alpha  occ. eigenvalues --  -11.24771 -10.50925  -8.16585  -8.16411  -8.16396
 Alpha  occ. eigenvalues --   -1.42621  -1.42144  -1.34843  -1.24509  -1.23646
 Alpha  occ. eigenvalues --   -1.09698  -0.99381  -0.91365  -0.88975  -0.75836
 Alpha  occ. eigenvalues --   -0.70474  -0.66393  -0.64854  -0.62583  -0.61931
 Alpha  occ. eigenvalues --   -0.60173  -0.59536  -0.57035  -0.51132  -0.47748
 Alpha  occ. eigenvalues --   -0.44279  -0.44019  -0.43592  -0.41331  -0.40054
 Alpha  occ. eigenvalues --   -0.38793  -0.38290  -0.35994  -0.34586  -0.31164
 Alpha  occ. eigenvalues --   -0.30466  -0.29778  -0.29204
 Alpha virt. eigenvalues --    0.12529   0.14174   0.15718   0.17522   0.17997
 Alpha virt. eigenvalues --    0.19929   0.20357   0.21436   0.23378   0.24107
 Alpha virt. eigenvalues --    0.24763   0.25194   0.26763   0.27269   0.27611

 Mulliken charges:
               1
     1  C    1.026490
     2  H   -0.176784
     3  F   -0.832611
     4  Cl  -0.528075
     5  C    1.258091
     6  H   -0.166909
     7  N    0.654216
     8  O   -0.650862
     9  O   -0.671951
    10  N    0.525642
    11  O   -0.664365
    12  O   -0.628111
    13  N   -0.276328
    14  H    0.029016
    15  H    0.102541
 Sum of Mulliken charges =  -1.00000

 Dipole moment (field-independent basis, Debye):
    X=              2.4032    Y=              0.8981    Z=              2.8725  Tot=              3.8514

 Test job not archived.
 1\1\GINC-SE249\SP\RHF\Aug-CC-pVDZ\C2H4Cl1F1N3O4(1-)\OHZDE\09-Apr-2025\
 0\\#t hf aug-cc-pvdz iop(5/13=1,5/36=2,99/5=2) pseudo=read geom=check
 guess=(read,tcheck) scf=(maxcycle=1)\\title\\-1,1\C,0,0.63867511,0.011
 36603,-0.06935634\H,0,1.77009127,1.84567993,0.17981313\F,0,-1.22306517
 ,0.27526762,-0.29428121\Cl,0,2.7113884,-0.47738938,0.20706177\C,0,0.75
 444278,1.52884398,-0.05631083\H,0,0.35899269,-0.50382758,0.8263555\N,0
 ,0.50822804,-0.82548373,-1.2877169\O,0,0.72451251,-0.3320382,-2.385464
 66\O,0,0.20019846,-1.99286027,-1.07731101\N,0,-0.01396613,1.96054558,1

 Normal termination of Gaussian 16 at Wed Apr  9 02:40:52 2025.
