 Gaussian 16, Revision C.01,

 ----------------------------------------------------------------------
 #t hf aug-cc-pvdz symm=none int=(grid=ultrafine) guess=(read,tcheck) s
 table=(opt,rrhf)
 ----------------------------------------------------------------------
 -----
 title
 -----
 Symbolic Z-matrix:
 Charge = -1 Multiplicity = 1

 SCF Done:  E(RHF) =  -839.438311299     A.U. after   15 cycles
 Normal termination of Gaussian 16 at Wed Apr  9 02:59:45 2025.
 Gaussian 16:  ES64L-G16RevC.01  3-Jul-2019

 ----------------------------------------------------------------------
 #t hf aug-cc-pvdz iop(5/13=1,5/36=2,99/5=2) pseudo=read geom=check gue
 ss=(read,tcheck) scf=(maxcycle=1)
 ----------------------------------------------------------------------
 -----
 title
 -----
 Structure from the checkpoint file:  "E2SN2_81_mol2.chk"
 Charge = -1 Multiplicity = 1

                         Standard orientation:
 ---------------------------------------------------------------------
 Center     Atomic      Atomic             Coordinates (Angstroms)
 Number     Number       Type             X           Y           Z
 ---------------------------------------------------------------------
      1          6           0       -0.674898   -0.217547    0.207129
      2          6           0        0.581476   -0.882552   -0.406079
      3         17           0       -0.383967    1.611485    0.286248
      4          1           0        0.934715   -0.284973   -1.246988
      5          1           0        0.233761   -1.861178   -0.765353
      6          6           0       -1.852100   -0.370190   -0.653260
      7          7           0       -2.781880   -0.531703   -1.353299
      8          7           0       -0.901962   -0.785910    1.481509
      9          1           0       -1.525444   -0.219182    2.040973
     10          1           0        0.037199   -0.837994    1.890950
     11          7           0        1.613739   -0.962442    0.603767
     12          1           0        1.937091   -1.920818    0.653251
     13          1           0        2.417103   -0.368874    0.146547
     14          9           0        3.184097    0.319989   -0.844020
 ---------------------------------------------------------------------

 SCF Done:  E(RHF) =  -839.568042499     A.U. after    2 cycles

 The electronic state is 1-A.
 Alpha  occ. eigenvalues -- -103.53014 -25.74878 -15.54253 -15.51651 -15.43603
 Alpha  occ. eigenvalues --  -11.25689 -11.19300 -11.13966 -10.56346  -8.22046
 Alpha  occ. eigenvalues --   -8.21772  -8.21765  -1.24036  -1.12696  -1.06981
 Alpha  occ. eigenvalues --   -1.00202  -0.98719  -0.84914  -0.72429  -0.61130
 Alpha  occ. eigenvalues --   -0.55274  -0.53861  -0.49369  -0.45772  -0.44525
 Alpha  occ. eigenvalues --   -0.43298  -0.39709  -0.37118  -0.35872  -0.34024
 Alpha  occ. eigenvalues --   -0.33871  -0.33478  -0.32804  -0.30332  -0.29919
 Alpha  occ. eigenvalues --   -0.23798
 Alpha virt. eigenvalues --    0.12162   0.13613   0.14750   0.16966   0.17241
 Alpha virt. eigenvalues --    0.18582   0.19261   0.20126   0.22240   0.23008
 Alpha virt. eigenvalues --    0.23691   0.24056   0.25569   0.26406   0.27020

 Mulliken charges:
               1
     1  C    0.449317
     2  C    0.972305
     3  Cl  -0.159081
     4  H   -0.105640
     5  H   -0.091255
     6  C   -0.427864
     7  N   -0.216486
     8  N   -0.407361
     9  H   -0.013679
    10  H    0.178084
    11  N   -0.578494
    12  H    0.012448
    13  H    0.286179
    14  F   -0.898473
 Sum of Mulliken charges =  -1.00000

 Dipole moment (field-independent basis, Debye):
    X=             -6.8331    Y=             -1.9024    Z=              4.1221  Tot=              8.2038

 Test job not archived.
 1\1\GINC-SE051\SP\RHF\Aug-CC-pVDZ\C3H6Cl1F1N3(1-)\OHZDE\09-Apr-2025\0\
 \#t hf aug-cc-pvdz iop(5/13=1,5/36=2,99/5=2) pseudo=read geom=check gu
 ess=(read,tcheck) scf=(maxcycle=1)\\title\\-1,1\C,0,-0.639735,-0.04329
 4,-1.505727\C,0,0.014903,-0.158687,-0.107563\Cl,0,0.445649,1.018084,-2
 .56953\H,0,1.089244,-0.306915,-0.220818\H,0,-0.438638,-1.053284,0.3415
 37\C,0,-0.689374,-1.335222,-2.19698\N,0,-0.736897,-2.38959,-2.713394\N
 ,0,-1.936825,0.496014,-1.34653\H,0,-2.307833,0.848469,-2.218905\H,0,-1
 .801628,1.245174,-0.658883\N,0,-0.234592,1.058663,0.632403\H,0,-0.6401

 Normal termination of Gaussian 16 at Wed Apr  9 02:59:51 2025.
