 Gaussian 16, Revision C.01,

 ----------------------------------------------------------------------
 #t hf aug-cc-pvdz symm=none int=(grid=ultrafine) guess=(read,tcheck) s
 table=(opt,rrhf)
 ----------------------------------------------------------------------
 -----
 title
 -----
 Symbolic Z-matrix:
 Charge = -1 Multiplicity = 1

 SCF Done:  E(RHF) =  -1222.60957190     A.U. after   15 cycles
 Normal termination of Gaussian 16 at Wed Apr  9 02:53:15 2025.
 Gaussian 16:  ES64L-G16RevC.01  3-Jul-2019

 ----------------------------------------------------------------------
 #t hf aug-cc-pvdz iop(5/13=1,5/36=2,99/5=2) pseudo=read geom=check gue
 ss=(read,tcheck) scf=(maxcycle=1)
 ----------------------------------------------------------------------
 -----
 title
 -----
 Structure from the checkpoint file:  "E2SN2_348_mol2.chk"
 Charge = -1 Multiplicity = 1

                         Standard orientation:
 ---------------------------------------------------------------------
 Center     Atomic      Atomic             Coordinates (Angstroms)
 Number     Number       Type             X           Y           Z
 ---------------------------------------------------------------------
      1          6           0       -0.591520   -0.653750    0.297835
      2          6           0        0.017117    0.706628   -0.112808
      3         17           0       -2.134982   -0.888149   -0.647751
      4          1           0        0.911998    0.825895    0.514573
      5          6           0        0.341557   -1.796591   -0.050656
      6          1           0       -0.092533   -2.742996    0.282060
      7          1           0        1.312145   -1.627229    0.421175
      8          1           0        0.511227   -1.849659   -1.125919
      9          6           0       -0.952085   -0.660119    1.773139
     10          1           0       -0.037772   -0.513463    2.356216
     11          1           0       -1.660762    0.133902    2.014545
     12          1           0       -1.395374   -1.619232    2.050556
     13          6           0       -0.921619    1.796109    0.216136
     14          7           0       -1.667311    2.660314    0.493115
     15          7           0        0.477093    0.838464   -1.478353
     16          1           0       -0.105222    0.299863   -2.107201
     17          1           0        1.439077    0.507434   -1.497004
     18         17           0        3.316631    0.049348    0.132798
 ---------------------------------------------------------------------

 SCF Done:  E(RHF) =  -1222.72923761     A.U. after    2 cycles

 The electronic state is 1-A.
 Alpha  occ. eigenvalues -- -103.54367-103.38289 -15.52587 -15.49478 -11.21700
 Alpha  occ. eigenvalues --  -11.19572 -11.17741 -11.14113 -11.12187 -10.57745
 Alpha  occ. eigenvalues --  -10.41369  -8.23448  -8.23199  -8.23190  -8.06967
 Alpha  occ. eigenvalues --   -8.06943  -8.06938  -1.10289  -1.05999  -1.03415
 Alpha  occ. eigenvalues --   -0.93968  -0.85065  -0.83557  -0.83269  -0.67649
 Alpha  occ. eigenvalues --   -0.60685  -0.55793  -0.53265  -0.51825  -0.47691
 Alpha  occ. eigenvalues --   -0.46073  -0.45307  -0.43431  -0.42489  -0.40630
 Alpha  occ. eigenvalues --   -0.39207  -0.35445  -0.34424  -0.33943  -0.33317
 Alpha  occ. eigenvalues --   -0.28787  -0.21671  -0.21436  -0.21379
 Alpha virt. eigenvalues --    0.11634   0.12830   0.13962   0.14997   0.15389
 Alpha virt. eigenvalues --    0.16066   0.17246   0.17419   0.18517   0.19362
 Alpha virt. eigenvalues --    0.20074   0.22043   0.23021   0.23871   0.24001

 Mulliken charges:
               1
     1  C   -2.163810
     2  C    1.359199
     3  Cl  -0.325593
     4  H   -0.035520
     5  C    1.244553
     6  H   -0.007856
     7  H    0.063030
     8  H   -0.096089
     9  C    0.880797
    10  H    0.066487
    11  H   -0.076944
    12  H   -0.023190
    13  C   -0.325784
    14  N   -0.297411
    15  N   -0.472197
    16  H    0.034724
    17  H    0.116803
    18  Cl  -0.941200
 Sum of Mulliken charges =  -1.00000

 Dipole moment (field-independent basis, Debye):
    X=             -7.8560    Y=             -4.5898    Z=              0.2577  Tot=              9.1022

 Test job not archived.
 1\1\GINC-SE126\SP\RHF\Aug-CC-pVDZ\C5H9Cl2N2(1-)\OHZDE\09-Apr-2025\0\\#
 t hf aug-cc-pvdz iop(5/13=1,5/36=2,99/5=2) pseudo=read geom=check gues
 s=(read,tcheck) scf=(maxcycle=1)\\title\\-1,1\C,0,0.013057,-0.043379,0
 .046397\C,0,-0.575453,-0.367676,-1.345789\Cl,0,1.820407,0.135861,-0.13
 4462\H,0,-1.652084,-0.515023,-1.179061\C,0,-0.530334,1.268848,0.576445
 \H,0,-0.129757,1.458324,1.575671\H,0,-1.621698,1.225895,0.597153\H,0,-
 0.253112,2.098606,-0.073512\C,0,-0.239823,-1.183113,1.017802\H,0,-1.32
 0624,-1.309695,1.133129\H,0,0.192811,-2.118123,0.657865\H,0,0.192732,-

 Normal termination of Gaussian 16 at Wed Apr  9 02:53:25 2025.
