 Gaussian 16, Revision C.01,

 ----------------------------------------------------------------------
 #t hf aug-cc-pvdz symm=none int=(grid=ultrafine) guess=(read,tcheck) s
 table=(opt,rrhf)
 ----------------------------------------------------------------------
 -----
 title
 -----
 Symbolic Z-matrix:
 Charge = -1 Multiplicity = 1

 SCF Done:  E(RHF) =  -627.816538640     A.U. after   16 cycles
 Normal termination of Gaussian 16 at Wed Apr  9 02:49:08 2025.
 Gaussian 16:  ES64L-G16RevC.01  3-Jul-2019

 ----------------------------------------------------------------------
 #t hf aug-cc-pvdz iop(5/13=1,5/36=2,99/5=2) pseudo=read geom=check gue
 ss=(read,tcheck) scf=(maxcycle=1)
 ----------------------------------------------------------------------
 -----
 title
 -----
 Structure from the checkpoint file:  "E2SN2_304_mol1.chk"
 Charge = -1 Multiplicity = 1

                         Standard orientation:
 ---------------------------------------------------------------------
 Center     Atomic      Atomic             Coordinates (Angstroms)
 Number     Number       Type             X           Y           Z
 ---------------------------------------------------------------------
      1          6           0       -0.707500   -0.296270    0.087332
      2          1           0        0.604271   -1.398370   -1.138545
      3          9           0        0.137998    0.761536    1.290651
      4          9           0       -1.616899   -1.158680   -1.112873
      5          6           0        0.484500   -0.357165   -0.855474
      6          1           0        0.306507    0.271441   -1.723695
      7          6           0       -1.653049    0.817915   -0.028048
      8          7           0       -2.451666    1.675026   -0.117763
      9          7           0       -0.865997   -1.329433    1.064746
     10          1           0       -1.768809   -1.755916    0.913516
     11          1           0       -0.800544   -0.887509    1.969643
     12          7           0        1.791165    0.069965   -0.281883
     13          8           0        2.233616    1.166322   -0.620457
     14          8           0        2.380190   -0.735214    0.433022
 ---------------------------------------------------------------------

 SCF Done:  E(RHF) =  -628.005442720     A.U. after    2 cycles

 The electronic state is 1-A.
 Alpha  occ. eigenvalues --  -25.87916 -25.84550 -20.48229 -20.48136 -15.77805
 Alpha  occ. eigenvalues --  -15.50335 -15.49592 -11.30166 -11.18634 -11.16664
 Alpha  occ. eigenvalues --   -1.40683  -1.38790  -1.35262  -1.22310  -1.06701
 Alpha  occ. eigenvalues --   -1.03375  -0.96355  -0.82492  -0.72196  -0.64279
 Alpha  occ. eigenvalues --   -0.61760  -0.60629  -0.58365  -0.57799  -0.50643
 Alpha  occ. eigenvalues --   -0.48988  -0.48225  -0.46562  -0.44972  -0.43488
 Alpha  occ. eigenvalues --   -0.42467  -0.41744  -0.38766  -0.37430  -0.37229
 Alpha  occ. eigenvalues --   -0.33654  -0.32970  -0.31387  -0.29416
 Alpha virt. eigenvalues --    0.13207   0.13905   0.15381   0.16355   0.19180
 Alpha virt. eigenvalues --    0.21080   0.21726   0.22173   0.23475   0.23654
 Alpha virt. eigenvalues --    0.25030   0.26321   0.26742   0.27289   0.27375

 Mulliken charges:
               1
     1  C    1.537787
     2  H   -0.019279
     3  F   -0.777521
     4  F   -0.697451
     5  C    0.996120
     6  H   -0.143004
     7  C   -0.534082
     8  N   -0.268728
     9  N   -0.560588
    10  H    0.047635
    11  H    0.082970
    12  N    0.646931
    13  O   -0.659692
    14  O   -0.651099
 Sum of Mulliken charges =  -1.00000

 Dipole moment (field-independent basis, Debye):
    X=              0.5620    Y=             -3.0239    Z=             -0.9685  Tot=              3.2245

 Test job not archived.
 1\1\GINC-SE094\SP\RHF\Aug-CC-pVDZ\C3H4F2N3O2(1-)\OHZDE\09-Apr-2025\0\\
 #t hf aug-cc-pvdz iop(5/13=1,5/36=2,99/5=2) pseudo=read geom=check gue
 ss=(read,tcheck) scf=(maxcycle=1)\\title\\-1,1\C,0,0.75789002,-0.08821
 328,0.0889234\H,0,1.77793333,1.53047096,0.97069085\F,0,-1.03366506,-0.
 05041567,0.3548119\F,0,2.43639822,-0.14926375,-0.34711802\C,0,0.928336
 06,1.4075226,0.30612267\H,0,1.0937377,1.90658177,-0.6447815\C,0,0.4149
 0444,-0.58111865,-1.24830822\N,0,0.17858899,-1.01412887,-2.31467295\N,
 0,0.93284096,-0.97015661,1.20223118\H,0,1.66258478,-1.62498232,0.96035

 Normal termination of Gaussian 16 at Wed Apr  9 02:49:14 2025.
