 Gaussian 16, Revision C.01,

 ----------------------------------------------------------------------
 #t hf aug-cc-pvdz symm=none int=(grid=ultrafine) guess=(read,tcheck) s
 table=(opt,rrhf)
 ----------------------------------------------------------------------
 -----
 title
 -----
 Symbolic Z-matrix:
 Charge = -1 Multiplicity = 1

 SCF Done:  E(RHF) =  -463.349604052     A.U. after   15 cycles
 Normal termination of Gaussian 16 at Wed Apr  9 02:51:01 2025.
 Gaussian 16:  ES64L-G16RevC.01  3-Jul-2019

 ----------------------------------------------------------------------
 #t hf aug-cc-pvdz iop(5/13=1,5/36=2,99/5=2) pseudo=read geom=check gue
 ss=(read,tcheck) scf=(maxcycle=1)
 ----------------------------------------------------------------------
 -----
 title
 -----
 Structure from the checkpoint file:  "E2SN2_326_mol1.chk"
 Charge = -1 Multiplicity = 1

                         Standard orientation:
 ---------------------------------------------------------------------
 Center     Atomic      Atomic             Coordinates (Angstroms)
 Number     Number       Type             X           Y           Z
 ---------------------------------------------------------------------
      1          6           0       -0.731922    0.138877   -0.395303
      2          1           0        0.202104    0.901547    1.332801
      3          9           0       -0.186816   -1.387279   -1.163712
      4          9           0       -1.162535    1.886510    0.111566
      5          6           0        0.405433    0.108952    0.614864
      6          1           0       -0.581038    0.598926   -1.351575
      7          6           0       -2.085609   -0.347065    0.044472
      8          1           0       -2.153604   -1.429830   -0.042897
      9          1           0       -2.260915   -0.042522    1.075410
     10          1           0       -2.846724    0.130081   -0.573542
     11          6           0        1.677283    0.438743   -0.063082
     12          7           0        2.730886    0.667350   -0.530539
     13          7           0        0.464991   -1.180967    1.304608
     14          1           0        1.316722   -1.229210    1.851319
     15          1           0        0.505368   -1.863799    0.553605
 ---------------------------------------------------------------------

 SCF Done:  E(RHF) =  -463.489034992     A.U. after    2 cycles

 The electronic state is 1-A.
 Alpha  occ. eigenvalues --  -25.82876 -25.79448 -15.50209 -15.48173 -11.19254
 Alpha  occ. eigenvalues --  -11.16811 -11.15491 -11.08467  -1.33230  -1.29398
 Alpha  occ. eigenvalues --   -1.05965  -1.02244  -0.89180  -0.81164  -0.67410
 Alpha  occ. eigenvalues --   -0.58640  -0.56405  -0.49487  -0.46774  -0.45295
 Alpha  occ. eigenvalues --   -0.44702  -0.41955  -0.41068  -0.40962  -0.38244
 Alpha  occ. eigenvalues --   -0.37990  -0.37234  -0.36009  -0.33942  -0.32124
 Alpha  occ. eigenvalues --   -0.31097  -0.27480
 Alpha virt. eigenvalues --    0.12973   0.14095   0.14750   0.15595   0.16836
 Alpha virt. eigenvalues --    0.17085   0.18438   0.19153   0.22914   0.23160
 Alpha virt. eigenvalues --    0.24056   0.25051   0.26125   0.26921   0.28459

 Mulliken charges:
               1
     1  C    0.556665
     2  H   -0.033590
     3  F   -0.830795
     4  F   -0.845258
     5  C    1.018137
     6  H   -0.557645
     7  C    0.450493
     8  H    0.070830
     9  H    0.056856
    10  H    0.009064
    11  C   -0.263371
    12  N   -0.284326
    13  N   -0.431745
    14  H   -0.042959
    15  H    0.127644
 Sum of Mulliken charges =  -1.00000

 Dipole moment (field-independent basis, Debye):
    X=             -0.4034    Y=             -2.5558    Z=              2.8354  Tot=              3.8386

 Test job not archived.
 1\1\GINC-SE143\SP\RHF\Aug-CC-pVDZ\C4H7F2N2(1-)\OHZDE\09-Apr-2025\0\\#t
  hf aug-cc-pvdz iop(5/13=1,5/36=2,99/5=2) pseudo=read geom=check guess
 =(read,tcheck) scf=(maxcycle=1)\\title\\-1,1\C,0,0.56935765,-0.0296694
 3,-0.05947335\H,0,1.68883486,1.74281232,-0.27275926\F,0,-1.22406306,-0
 .01412318,-0.04745377\F,0,2.4059929,-0.12992306,0.27710594\C,0,0.64388
 826,1.48936405,-0.10295125\H,0,0.5072457,-0.53159103,0.88555789\C,0,0.
 74051393,-0.78647246,-1.34786968\H,0,-0.20178331,-0.8434242,-1.8895978
 2\H,0,1.49485621,-0.29265144,-1.95895031\H,0,1.1059438,-1.78812865,-1.

 Normal termination of Gaussian 16 at Wed Apr  9 02:51:07 2025.
