 Gaussian 16, Revision C.01,

 ----------------------------------------------------------------------
 #t hf aug-cc-pvdz symm=none int=(grid=ultrafine) guess=(read,tcheck) s
 table=(opt,rrhf)
 ----------------------------------------------------------------------
 -----
 title
 -----
 Symbolic Z-matrix:
 Charge = -1 Multiplicity = 1

 SCF Done:  E(RHF) =  -777.175820238     A.U. after   16 cycles
 Normal termination of Gaussian 16 at Wed Apr  9 02:31:49 2025.
 Gaussian 16:  ES64L-G16RevC.01  3-Jul-2019

 ----------------------------------------------------------------------
 #t hf aug-cc-pvdz iop(5/13=1,5/36=2,99/5=2) pseudo=read geom=check gue
 ss=(read,tcheck) scf=(maxcycle=1)
 ----------------------------------------------------------------------
 -----
 title
 -----
 Structure from the checkpoint file:  "E2SN2_122_mol2.chk"
 Charge = -1 Multiplicity = 1

                         Standard orientation:
 ---------------------------------------------------------------------
 Center     Atomic      Atomic             Coordinates (Angstroms)
 Number     Number       Type             X           Y           Z
 ---------------------------------------------------------------------
      1          6           0        0.369455   -0.166406    0.210034
      2          6           0       -0.644888   -0.927573   -0.632025
      3         17           0        0.248694    1.619121   -0.232649
      4          1           0       -0.435860   -0.769776   -1.691454
      5          1           0       -0.492151   -1.996576   -0.451811
      6          7           0        0.175958   -0.379241    1.611066
      7          1           0        0.815624    0.194219    2.149434
      8          1           0       -0.776152   -0.132758    1.858674
      9          6           0        1.744597   -0.567769   -0.122617
     10          7           0        2.869127   -0.882858   -0.247326
     11          6           0       -1.995254   -0.564968   -0.245380
     12          7           0       -3.090840   -0.269660    0.066160
     13          1           0        0.137566   -0.737562   -3.179197
 ---------------------------------------------------------------------

 SCF Done:  E(RHF) =  -777.285745715     A.U. after    2 cycles

 The electronic state is 1-A.
 Alpha  occ. eigenvalues -- -103.55487 -15.55607 -15.55108 -15.53716 -11.29714
 Alpha  occ. eigenvalues --  -11.20032 -11.19171 -11.15915 -10.58822  -8.24525
 Alpha  occ. eigenvalues --   -8.24239  -8.24228  -1.15535  -1.07924  -1.07289
 Alpha  occ. eigenvalues --   -1.03037  -0.94103  -0.82196  -0.64381  -0.60235
 Alpha  occ. eigenvalues --   -0.57317  -0.54871  -0.49110  -0.47309  -0.45478
 Alpha  occ. eigenvalues --   -0.44116  -0.39129  -0.37063  -0.36887  -0.34981
 Alpha  occ. eigenvalues --   -0.34582  -0.33880  -0.32763  -0.08529
 Alpha virt. eigenvalues --    0.11114   0.13748   0.14506   0.17011   0.18209
 Alpha virt. eigenvalues --    0.18776   0.21005   0.21413   0.21889   0.22144
 Alpha virt. eigenvalues --    0.22550   0.24200   0.24925   0.25567   0.25745

 Mulliken charges:
               1
     1  C    0.531893
     2  C    1.072104
     3  Cl  -0.111705
     4  H   -0.519524
     5  H   -0.013133
     6  N   -0.370442
     7  H    0.020756
     8  H    0.061086
     9  C   -0.502396
    10  N   -0.175828
    11  C    0.021836
    12  N   -0.345068
    13  H   -0.669579
 Sum of Mulliken charges =  -1.00000

 Dipole moment (field-independent basis, Debye):
    X=             -0.1197    Y=              2.4363    Z=             12.5173  Tot=             12.7528

 Test job not archived.
 1\1\GINC-SE116\SP\RHF\Aug-CC-pVDZ\C4H5Cl1N3(1-)\OHZDE\09-Apr-2025\0\\#
 t hf aug-cc-pvdz iop(5/13=1,5/36=2,99/5=2) pseudo=read geom=check gues
 s=(read,tcheck) scf=(maxcycle=1)\\title\\-1,1\C,0,-0.526319,0.024175,-
 1.403081\C,0,0.003383,-0.054152,0.021914\Cl,0,0.115902,-1.435383,-2.32
 8231\H,0,1.094591,-0.062749,0.008776\H,0,-0.283456,0.869393,0.535101\N
 ,0,-1.954364,0.091689,-1.445011\H,0,-2.283314,0.069321,-2.40374\H,0,-2
 .341723,-0.701,-0.944836\C,0,0.002895,1.204455,-2.102822\N,0,0.293973,
 2.162403,-2.716833\C,0,-0.578823,-1.187741,0.71508\N,0,-1.048937,-2.10

 Normal termination of Gaussian 16 at Wed Apr  9 02:31:55 2025.
