 Gaussian 16, Revision C.01,

 ----------------------------------------------------------------------
 #t hf aug-cc-pvdz symm=none int=(grid=ultrafine) guess=(read,tcheck) s
 table=(opt,rrhf)
 ----------------------------------------------------------------------
 -----
 title
 -----
 Symbolic Z-matrix:
 Charge = -1 Multiplicity = 1

 SCF Done:  E(RHF) =  -779.524304200     A.U. after   16 cycles
 Normal termination of Gaussian 16 at Wed Apr  9 02:29:09 2025.
 Gaussian 16:  ES64L-G16RevC.01  3-Jul-2019

 ----------------------------------------------------------------------
 #t hf aug-cc-pvdz iop(5/13=1,5/36=2,99/5=2) pseudo=read geom=check gue
 ss=(read,tcheck) scf=(maxcycle=1)
 ----------------------------------------------------------------------
 -----
 title
 -----
 Structure from the checkpoint file:  "E2SN2_114_mol1.chk"
 Charge = -1 Multiplicity = 1

                         Standard orientation:
 ---------------------------------------------------------------------
 Center     Atomic      Atomic             Coordinates (Angstroms)
 Number     Number       Type             X           Y           Z
 ---------------------------------------------------------------------
      1          6           0        0.589740    0.112893    0.379458
      2          6           0       -0.720919    0.724219   -0.061546
      3         17           0        1.082765   -1.273731   -0.779442
      4          1           0       -0.690648    2.471966    1.746108
      5          1           0       -0.833520    1.592477    0.844696
      6          6           0        1.706919    1.130910    0.347707
      7          1           0        1.888991    1.490696   -0.665053
      8          1           0        1.392432    1.970548    0.979297
      9          1           0        2.617168    0.677612    0.741953
     10          7           0        0.512550   -0.457899    1.706501
     11          1           0       -0.260089   -1.118169    1.725129
     12          1           0        0.238443    0.329450    2.302043
     13          7           0       -0.759293    1.455478   -1.310277
     14          1           0       -0.173186    1.010615   -2.008890
     15          1           0       -0.412852    2.393296   -1.133969
     16          6           0       -1.819136   -0.207009    0.061421
     17          7           0       -2.712311   -0.959171    0.226198
 ---------------------------------------------------------------------

 SCF Done:  E(RHF) =  -779.636056715     A.U. after    2 cycles

 The electronic state is 1-A.
 Alpha  occ. eigenvalues -- -103.51341 -15.49727 -15.49469 -15.49366 -11.22078
 Alpha  occ. eigenvalues --  -11.15262 -11.14098 -11.11146 -10.54703  -8.20395
 Alpha  occ. eigenvalues --   -8.20157  -8.20154  -1.09979  -1.04055  -1.02055
 Alpha  occ. eigenvalues --   -0.98339  -0.87157  -0.82195  -0.66480  -0.58336
 Alpha  occ. eigenvalues --   -0.55786  -0.53933  -0.51299  -0.47208  -0.42976
 Alpha  occ. eigenvalues --   -0.42312  -0.41537  -0.40029  -0.37117  -0.33397
 Alpha  occ. eigenvalues --   -0.32220  -0.31901  -0.31518  -0.30651  -0.26228
 Alpha  occ. eigenvalues --   -0.11327
 Alpha virt. eigenvalues --    0.12373   0.13530   0.15021   0.15659   0.15872
 Alpha virt. eigenvalues --    0.17538   0.17975   0.18684   0.19441   0.20531
 Alpha virt. eigenvalues --    0.21674   0.23497   0.24085   0.25063   0.25723

 Mulliken charges:
               1
     1  C   -0.937427
     2  C    1.802686
     3  Cl  -0.366856
     4  H   -0.574429
     5  H   -0.208187
     6  C    1.181054
     7  H   -0.065752
     8  H   -0.021155
     9  H    0.009828
    10  N   -0.458864
    11  H   -0.011467
    12  H    0.133108
    13  N   -0.510834
    14  H    0.027984
    15  H    0.055742
    16  C   -0.756213
    17  N   -0.299219
 Sum of Mulliken charges =  -1.00000

 Dipole moment (field-independent basis, Debye):
    X=              5.3287    Y=             -2.5178    Z=             -3.8752  Tot=              7.0535

 Test job not archived.
 1\1\GINC-SE097\SP\RHF\Aug-CC-pVDZ\C4H9Cl1N3(1-)\OHZDE\09-Apr-2025\0\\#
 t hf aug-cc-pvdz iop(5/13=1,5/36=2,99/5=2) pseudo=read geom=check gues
 s=(read,tcheck) scf=(maxcycle=1)\\title\\-1,1\C,0,-0.17932808,-0.01144
 487,-0.32455971\C,0,-0.0911844,0.04327476,1.18383895\Cl,0,1.53257285,-
 0.15741201,-1.07084286\H,0,-2.58751938,0.09807646,1.48125605\H,0,-1.32
 161064,0.14241154,1.43691804\C,0,-0.96384917,-1.21938543,-0.78375524\H
 ,0,-0.47058871,-2.14766785,-0.49519695\H,0,-1.94634831,-1.16557093,-0.
 29940097\H,0,-1.07152781,-1.18653424,-1.86855417\N,0,-0.7803266,1.1792

 Normal termination of Gaussian 16 at Wed Apr  9 02:29:17 2025.
