 Gaussian 16, Revision C.01,

 ----------------------------------------------------------------------
 #t hf aug-cc-pvdz symm=none int=(grid=ultrafine) guess=(read,tcheck) s
 table=(opt,rrhf)
 ----------------------------------------------------------------------
 -----
 title
 -----
 Symbolic Z-matrix:
 Charge = -1 Multiplicity = 1

 SCF Done:  E(RHF) =  -583.892167192     A.U. after   18 cycles
 Normal termination of Gaussian 16 at Wed Apr  9 02:57:15 2025.
 Gaussian 16:  ES64L-G16RevC.01  3-Jul-2019

 ----------------------------------------------------------------------
 #t hf aug-cc-pvdz iop(5/13=1,5/36=2,99/5=2) pseudo=read geom=check gue
 ss=(read,tcheck) scf=(maxcycle=1)
 ----------------------------------------------------------------------
 -----
 title
 -----
 Structure from the checkpoint file:  "E2SN2_408_mol1.chk"
 Charge = -1 Multiplicity = 1

                         Standard orientation:
 ---------------------------------------------------------------------
 Center     Atomic      Atomic             Coordinates (Angstroms)
 Number     Number       Type             X           Y           Z
 ---------------------------------------------------------------------
      1          6           0       -1.153497    0.181321   -0.093073
      2          1           0        0.261093    0.009646   -1.686686
      3          9           0       -1.013855   -1.063375    0.905417
      4          1           0       -1.180745    1.570785   -1.278997
      5          6           0        0.279819    0.243285   -0.627427
      6          7           0       -1.502393    1.127952    0.942229
      7          1           0       -1.995038    0.625332    1.669635
      8          1           0       -2.056482    1.869207    0.548121
      9          7           0       -2.104003   -0.479207   -0.969239
     10          1           0       -2.690194    0.217436   -1.397462
     11          1           0       -2.642280   -1.120352   -0.398701
     12          7           0        1.193387   -0.878394   -0.034963
     13          8           0        1.764371   -0.678761    1.031147
     14          8           0        1.270774   -1.909787   -0.699985
     15          6           0        0.964522    1.503930   -0.363206
     16          7           0        1.641884    2.449004   -0.188273
 ---------------------------------------------------------------------

 SCF Done:  E(RHF) =  -584.067757611     A.U. after    2 cycles

 The electronic state is 1-A.
 Alpha  occ. eigenvalues --  -25.90884 -20.48232 -20.48187 -15.77069 -15.50600
 Alpha  occ. eigenvalues --  -15.48656 -15.48410 -11.28299 -11.21736 -11.16779
 Alpha  occ. eigenvalues --   -1.42882  -1.40023  -1.22240  -1.07917  -1.04457
 Alpha  occ. eigenvalues --   -0.98509  -0.95753  -0.76821  -0.71194  -0.64429
 Alpha  occ. eigenvalues --   -0.61780  -0.60782  -0.57760  -0.56720  -0.54907
 Alpha  occ. eigenvalues --   -0.51371  -0.49581  -0.46902  -0.45753  -0.44816
 Alpha  occ. eigenvalues --   -0.41677  -0.38327  -0.37500  -0.34016  -0.32713
 Alpha  occ. eigenvalues --   -0.32020  -0.31272  -0.26236  -0.14145
 Alpha virt. eigenvalues --    0.12094   0.13578   0.14684   0.15174   0.17579
 Alpha virt. eigenvalues --    0.18909   0.19687   0.21615   0.21966   0.23176
 Alpha virt. eigenvalues --    0.23870   0.25182   0.25421   0.26086   0.27235

 Mulliken charges:
               1
     1  C    0.065234
     2  H   -0.134574
     3  F   -0.569780
     4  H   -0.323877
     5  C    1.631821
     6  N   -0.187886
     7  H   -0.026697
     8  H    0.034538
     9  N   -0.168176
    10  H    0.034436
    11  H   -0.014559
    12  N    0.427272
    13  O   -0.628140
    14  O   -0.658889
    15  C   -0.173971
    16  N   -0.306752
 Sum of Mulliken charges =  -1.00000

 Dipole moment (field-independent basis, Debye):
    X=             -3.4812    Y=             -1.7861    Z=              0.3970  Tot=              3.9328

 Test job not archived.
 1\1\GINC-SE042\SP\RHF\Aug-CC-pVDZ\C3H6F1N4O2(1-)\OHZDE\09-Apr-2025\0\\
 #t hf aug-cc-pvdz iop(5/13=1,5/36=2,99/5=2) pseudo=read geom=check gue
 ss=(read,tcheck) scf=(maxcycle=1)\\title\\-1,1\C,0,0.47978405,-0.15006
 554,0.11513584\H,0,1.58271323,1.50989772,0.88857457\F,0,-0.96242041,-0
 .22551968,0.80803152\H,0,2.1313078,0.07303409,-0.63350545\C,0,0.738512
 38,1.3548412,0.22506181\N,0,0.02360774,-0.63895196,-1.16649682\H,0,-0.
 75389441,-1.26554314,-1.00120861\H,0,0.78400692,-1.09205328,-1.6442890
 7\N,0,1.13655278,-0.95823912,1.1265395\H,0,1.91362371,-1.43861318,0.70

 Normal termination of Gaussian 16 at Wed Apr  9 02:57:23 2025.
