 Gaussian 16, Revision C.01,

 ----------------------------------------------------------------------
 #t hf aug-cc-pvdz symm=none int=(grid=ultrafine) guess=(read,tcheck) s
 table=(opt,rrhf)
 ----------------------------------------------------------------------
 -----
 title
 -----
 Symbolic Z-matrix:
 Charge = -1 Multiplicity = 1

 SCF Done:  E(RHF) =  -682.922810303     A.U. after   16 cycles
 Normal termination of Gaussian 16 at Wed Apr  9 02:57:48 2025.
 Gaussian 16:  ES64L-G16RevC.01  3-Jul-2019

 ----------------------------------------------------------------------
 #t hf aug-cc-pvdz iop(5/13=1,5/36=2,99/5=2) pseudo=read geom=check gue
 ss=(read,tcheck) scf=(maxcycle=1)
 ----------------------------------------------------------------------
 -----
 title
 -----
 Structure from the checkpoint file:  "E2SN2_409_mol2.chk"
 Charge = -1 Multiplicity = 1

                         Standard orientation:
 ---------------------------------------------------------------------
 Center     Atomic      Atomic             Coordinates (Angstroms)
 Number     Number       Type             X           Y           Z
 ---------------------------------------------------------------------
      1          6           0       -0.772942    0.192985    0.692292
      2          6           0        0.263311    0.080603   -0.459295
      3          9           0       -0.139745    0.725437    1.806068
      4          1           0       -0.349719   -0.344415   -1.282715
      5          7           0       -1.849795    1.063972    0.332333
      6          1           0       -1.498712    1.987166    0.098539
      7          1           0       -2.236023    0.605511   -0.510221
      8          7           0       -1.210957   -1.135184    0.968501
      9          1           0       -1.638809   -1.415313    0.070848
     10          1           0       -1.964335   -1.040309    1.643370
     11          7           0        1.367378   -0.867155   -0.109323
     12          8           0        2.261293   -0.451845    0.627562
     13          8           0        1.294435   -2.002583   -0.569400
     14          6           0        0.839069    1.376541   -0.779316
     15          7           0        1.257781    2.437737   -1.059114
     16          9           0       -2.047556   -0.786946   -1.598733
 ---------------------------------------------------------------------

 SCF Done:  E(RHF) =  -683.129993451     A.U. after    2 cycles

 The electronic state is 1-A.
 Alpha  occ. eigenvalues --  -25.99586 -25.79379 -20.50928 -20.50637 -15.80389
 Alpha  occ. eigenvalues --  -15.55015 -15.48732 -15.48296 -11.28413 -11.21736
 Alpha  occ. eigenvalues --  -11.20142  -1.53622  -1.43123  -1.28638  -1.24884
 Alpha  occ. eigenvalues --   -1.11454  -1.08384  -0.99006  -0.98550  -0.79264
 Alpha  occ. eigenvalues --   -0.75244  -0.67778  -0.66596  -0.63956  -0.62528
 Alpha  occ. eigenvalues --   -0.61310  -0.59010  -0.54994  -0.51806  -0.50544
 Alpha  occ. eigenvalues --   -0.47706  -0.46520  -0.44756  -0.41230  -0.40831
 Alpha  occ. eigenvalues --   -0.38407  -0.38046  -0.37608  -0.36466  -0.35340
 Alpha  occ. eigenvalues --   -0.34745  -0.29725  -0.28978
 Alpha virt. eigenvalues --    0.13365   0.14397   0.15385   0.17176   0.18392
 Alpha virt. eigenvalues --    0.18819   0.19258   0.20337   0.21388   0.22402
 Alpha virt. eigenvalues --    0.23999   0.24279   0.25203   0.26089   0.26523

 Mulliken charges:
               1
     1  C    0.801132
     2  C    1.972990
     3  F   -0.419807
     4  H   -0.134723
     5  N   -0.490286
     6  H    0.000774
     7  H    0.192977
     8  N   -0.438338
     9  H    0.196428
    10  H   -0.020488
    11  N    0.130289
    12  O   -0.581724
    13  O   -0.571637
    14  C   -0.389703
    15  N   -0.261211
    16  F   -0.986671
 Sum of Mulliken charges =  -1.00000

 Dipole moment (field-independent basis, Debye):
    X=              0.9345    Y=              1.3818    Z=              2.1361  Tot=              2.7103

 Test job not archived.
 1\1\GINC-SE090\SP\RHF\Aug-CC-pVDZ\C3H5F2N4O2(1-)\OHZDE\09-Apr-2025\0\\
 #t hf aug-cc-pvdz iop(5/13=1,5/36=2,99/5=2) pseudo=read geom=check gue
 ss=(read,tcheck) scf=(maxcycle=1)\\title\\-1,1\C,0,-0.00953,-0.007867,
 0.000397\C,0,-0.508374,-0.048952,-1.470001\F,0,1.377762,0.010656,-0.00
 4029\H,0,-1.611885,-0.055054,-1.340798\N,0,-0.469361,1.171966,0.666992
 \H,0,-0.155154,2.003577,0.177192\H,0,-1.497084,1.082981,0.595422\N,0,-
 0.47952,-1.204267,0.616771\H,0,-1.504604,-1.102143,0.538777\H,0,-0.243
 188,-1.116406,1.600873\N,0,-0.072675,-1.303898,-2.15918\O,0,1.085677,-

 Normal termination of Gaussian 16 at Wed Apr  9 02:57:57 2025.
