 Gaussian 16, Revision C.01,

 ----------------------------------------------------------------------
 #t hf aug-cc-pvdz symm=none int=(grid=ultrafine) guess=(read,tcheck) s
 table=(opt,rrhf)
 ----------------------------------------------------------------------
 -----
 title
 -----
 Symbolic Z-matrix:
 Charge = -1 Multiplicity = 1

 SCF Done:  E(RHF) =  -1236.21316038     A.U. after   16 cycles
 Normal termination of Gaussian 16 at Wed Apr  9 02:43:08 2025.
 Gaussian 16:  ES64L-G16RevC.01  3-Jul-2019

 ----------------------------------------------------------------------
 #t hf aug-cc-pvdz iop(5/13=1,5/36=2,99/5=2) pseudo=read geom=check gue
 ss=(read,tcheck) scf=(maxcycle=1)
 ----------------------------------------------------------------------
 -----
 title
 -----
 Structure from the checkpoint file:  "E2SN2_254_mol1.chk"
 Charge = -1 Multiplicity = 1

                         Standard orientation:
 ---------------------------------------------------------------------
 Center     Atomic      Atomic             Coordinates (Angstroms)
 Number     Number       Type             X           Y           Z
 ---------------------------------------------------------------------
      1          6           0        0.363943    0.176694   -0.308948
      2          1           0        0.355986   -1.351621    1.162210
      3         17           0       -1.488347    1.476558   -0.831663
      4         17           0        2.276655   -1.173306   -0.397344
      5          6           0       -0.376949   -0.679373    0.716081
      6          1           0        0.336340   -0.043775   -1.357752
      7          6           0        1.113192    1.303287    0.166094
      8          7           0        1.723615    2.229342    0.559697
      9          6           0       -1.361513   -1.538565    0.023672
     10          7           0       -2.160049   -2.277102   -0.420607
     11          7           0       -0.928156    0.114390    1.799462
     12          1           0       -1.309377   -0.505969    2.502763
     13          1           0       -1.664088    0.707418    1.434643
 ---------------------------------------------------------------------

 SCF Done:  E(RHF) =  -1236.33163383     A.U. after    2 cycles

 The electronic state is 1-A.
 Alpha  occ. eigenvalues -- -103.46132-103.45180 -15.54261 -15.53439 -15.52765
 Alpha  occ. eigenvalues --  -11.28346 -11.23553 -11.19320 -11.19257 -10.49393
 Alpha  occ. eigenvalues --  -10.48418  -8.15027  -8.14900  -8.14880  -8.14050
 Alpha  occ. eigenvalues --   -8.13922  -8.13912  -1.11503  -1.07306  -1.06187
 Alpha  occ. eigenvalues --   -0.97203  -0.92248  -0.89021  -0.82479  -0.65005
 Alpha  occ. eigenvalues --   -0.61429  -0.59965  -0.52294  -0.48797  -0.45144
 Alpha  occ. eigenvalues --   -0.43983  -0.40837  -0.36998  -0.35879  -0.34511
 Alpha  occ. eigenvalues --   -0.31848  -0.31499  -0.29197  -0.28340  -0.27893
 Alpha  occ. eigenvalues --   -0.27249  -0.25145
 Alpha virt. eigenvalues --    0.11756   0.14174   0.14816   0.16347   0.16923
 Alpha virt. eigenvalues --    0.17391   0.19490   0.20435   0.21666   0.22571
 Alpha virt. eigenvalues --    0.23107   0.23610   0.24393   0.25229   0.26165

 Mulliken charges:
               1
     1  C    1.474560
     2  H   -0.068750
     3  Cl  -0.628216
     4  Cl  -0.644021
     5  C    1.066607
     6  H   -0.552080
     7  C   -0.693595
     8  N   -0.209945
     9  C   -0.176966
    10  N   -0.272397
    11  N   -0.359021
    12  H    0.011002
    13  H    0.052822
 Sum of Mulliken charges =  -1.00000

 Dipole moment (field-independent basis, Debye):
    X=             -2.3071    Y=             -1.2756    Z=              3.0914  Tot=              4.0629

 Test job not archived.
 1\1\GINC-SE080\SP\RHF\Aug-CC-pVDZ\C4H4Cl2N3(1-)\OHZDE\09-Apr-2025\0\\#
 t hf aug-cc-pvdz iop(5/13=1,5/36=2,99/5=2) pseudo=read geom=check gues
 s=(read,tcheck) scf=(maxcycle=1)\\title\\-1,1\C,0,0.60926899,-0.032261
 39,-0.05393218\H,0,1.68603249,1.79260433,-0.15670719\Cl,0,-1.70914133,
 -0.16408492,-0.01580835\Cl,0,2.89700424,-0.30727071,0.36964367\C,0,0.6
 4137871,1.4945822,-0.06713464\H,0,0.52103984,-0.58961946,0.85761884\C,
 0,0.70189729,-0.72136359,-1.30804806\N,0,0.77409271,-1.28298519,-2.339
 78753\C,0,0.17249442,2.01036437,1.23713656\N,0,-0.16467725,2.52939503,

 Normal termination of Gaussian 16 at Wed Apr  9 02:43:14 2025.
