 Gaussian 16, Revision C.01,

 ----------------------------------------------------------------------
 #t hf aug-cc-pvdz symm=none int=(grid=ultrafine) guess=(read,tcheck) s
 table=(opt,rrhf)
 ----------------------------------------------------------------------
 -----
 title
 -----
 Symbolic Z-matrix:
 Charge = -1 Multiplicity = 1

 SCF Done:  E(RHF) =  -1042.92620892     A.U. after   17 cycles
 Normal termination of Gaussian 16 at Wed Apr  9 02:50:11 2025.
 Gaussian 16:  ES64L-G16RevC.01  3-Jul-2019

 ----------------------------------------------------------------------
 #t hf aug-cc-pvdz iop(5/13=1,5/36=2,99/5=2) pseudo=read geom=check gue
 ss=(read,tcheck) scf=(maxcycle=1)
 ----------------------------------------------------------------------
 -----
 title
 -----
 Structure from the checkpoint file:  "E2SN2_308_mol1.chk"
 Charge = -1 Multiplicity = 1

                         Standard orientation:
 ---------------------------------------------------------------------
 Center     Atomic      Atomic             Coordinates (Angstroms)
 Number     Number       Type             X           Y           Z
 ---------------------------------------------------------------------
      1          6           0       -0.544594    0.036595    0.353298
      2          1           0        0.354253   -1.127622   -1.240787
      3          9           0        0.633855    1.423305    1.019223
      4         17           0       -2.030092   -1.378154   -0.544905
      5          6           0        0.526975   -0.185827   -0.723770
      6          6           0       -1.475606    1.138433    0.157651
      7          7           0       -2.264407    2.009578    0.097699
      8          7           0       -0.487752   -0.637131    1.600277
      9          1           0       -1.426377   -0.821515    1.924548
     10          1           0        0.003890   -0.005378    2.220742
     11          7           0        1.913349   -0.428100   -0.075991
     12          8           0        2.830818    0.322569   -0.396237
     13          8           0        2.037685   -1.427586    0.622544
     14          7           0        0.535817    0.910210   -1.613916
     15          1           0        1.222579    0.771631   -2.341641
     16          1           0        0.784789    1.724795   -1.062495
 ---------------------------------------------------------------------

 SCF Done:  E(RHF) =  -1043.11158448     A.U. after    2 cycles

 The electronic state is 1-A.
 Alpha  occ. eigenvalues -- -103.45987 -25.84808 -20.49199 -20.49153 -15.78187
 Alpha  occ. eigenvalues --  -15.51434 -15.51134 -15.50993 -11.31373 -11.23955
 Alpha  occ. eigenvalues --  -11.17891 -10.49288  -8.14932  -8.14783  -8.14766
 Alpha  occ. eigenvalues --   -1.41564  -1.35092  -1.23358  -1.11533  -1.07160
 Alpha  occ. eigenvalues --   -1.04341  -0.93217  -0.89766  -0.83177  -0.72274
 Alpha  occ. eigenvalues --   -0.64505  -0.64262  -0.61593  -0.59443  -0.57307
 Alpha  occ. eigenvalues --   -0.56253  -0.50191  -0.46931  -0.46114  -0.44027
 Alpha  occ. eigenvalues --   -0.43448  -0.42522  -0.40343  -0.38610  -0.35034
 Alpha  occ. eigenvalues --   -0.34334  -0.33990  -0.32065  -0.29829  -0.28598
 Alpha  occ. eigenvalues --   -0.28236  -0.27272
 Alpha virt. eigenvalues --    0.12445   0.13433   0.14294   0.16477   0.17567
 Alpha virt. eigenvalues --    0.19058   0.19447   0.20939   0.21292   0.22802
 Alpha virt. eigenvalues --    0.23192   0.23468   0.24834   0.25484   0.25969

 Mulliken charges:
               1
     1  C    1.103662
     2  H   -0.097322
     3  F   -0.800627
     4  Cl  -0.540393
     5  C    1.165841
     6  C   -0.241008
     7  N   -0.362885
     8  N   -0.498360
     9  H    0.059599
    10  H    0.125172
    11  N    0.462441
    12  O   -0.631648
    13  O   -0.594678
    14  N   -0.263674
    15  H   -0.004890
    16  H    0.118769
 Sum of Mulliken charges =  -1.00000

 Dipole moment (field-independent basis, Debye):
    X=              1.8537    Y=             -1.3664    Z=             -1.1657  Tot=              2.5812

 Test job not archived.
 1\1\GINC-SE105\SP\RHF\Aug-CC-pVDZ\C3H5Cl1F1N4O2(1-)\OHZDE\09-Apr-2025\
 0\\#t hf aug-cc-pvdz iop(5/13=1,5/36=2,99/5=2) pseudo=read geom=check
 guess=(read,tcheck) scf=(maxcycle=1)\\title\\-1,1\C,0,0.76398653,-0.03
 800163,0.0311106\H,0,1.72566591,1.88163289,0.33869031\F,0,-1.16938502,
 0.09165805,0.01048654\Cl,0,2.98486349,-0.2047294,-0.20318712\C,0,0.743
 86783,1.49688684,0.07006597\C,0,0.57930667,-0.67995121,-1.26229727\N,0
 ,0.42550247,-1.2916171,-2.25572726\N,0,0.71881203,-0.80655228,1.222489
 83\H,0,1.25611104,-1.65242357,1.09608764\H,0,-0.26272288,-1.00691087,1

 Normal termination of Gaussian 16 at Wed Apr  9 02:50:21 2025.
