 Gaussian 16, Revision C.01,

 ----------------------------------------------------------------------
 #t hf aug-cc-pvdz symm=none int=(grid=ultrafine) guess=(read,tcheck) s
 table=(opt,rrhf)
 ----------------------------------------------------------------------
 -----
 title
 -----
 Symbolic Z-matrix:
 Charge = -1 Multiplicity = 1

 SCF Done:  E(RHF) =  -987.991668310     A.U. after   16 cycles
 Normal termination of Gaussian 16 at Wed Apr  9 02:42:42 2025.
 Gaussian 16:  ES64L-G16RevC.01  3-Jul-2019

 ----------------------------------------------------------------------
 #t hf aug-cc-pvdz iop(5/13=1,5/36=2,99/5=2) pseudo=read geom=check gue
 ss=(read,tcheck) scf=(maxcycle=1)
 ----------------------------------------------------------------------
 -----
 title
 -----
 Structure from the checkpoint file:  "E2SN2_238_mol2.chk"
 Charge = -1 Multiplicity = 1

                         Standard orientation:
 ---------------------------------------------------------------------
 Center     Atomic      Atomic             Coordinates (Angstroms)
 Number     Number       Type             X           Y           Z
 ---------------------------------------------------------------------
      1          6           0        0.624048   -0.305817   -0.318660
      2          6           0        0.601763    0.751828    0.764650
      3          9           0        1.927865   -0.643124   -0.644229
      4          1           0       -0.448646    1.016092    0.948482
      5          1           0        1.038088    0.344597    1.676262
      6          7           0        0.144302   -1.670590    0.304183
      7          8           0        0.308443   -1.863694    1.504830
      8          8           0       -0.297852   -2.489556   -0.495080
      9          7           0       -0.085259    0.055393   -1.445262
     10          1           0       -0.201107   -0.736226   -2.065190
     11          1           0       -1.003583    0.431207   -1.169861
     12          6           0        1.358977    1.926052    0.345709
     13          7           0        1.995687    2.870481    0.064221
     14         17           0       -2.747771    0.972887    0.065775
 ---------------------------------------------------------------------

 SCF Done:  E(RHF) =  -988.167258336     A.U. after    2 cycles

 The electronic state is 1-A.
 Alpha  occ. eigenvalues -- -103.39544 -26.04845 -20.52824 -20.52736 -15.81103
 Alpha  occ. eigenvalues --  -15.54284 -15.52087 -11.34335 -11.19830 -11.18871
 Alpha  occ. eigenvalues --  -10.42658  -8.08262  -8.08229  -8.08211  -1.58878
 Alpha  occ. eigenvalues --   -1.44548  -1.26843  -1.12287  -1.08099  -0.96519
 Alpha  occ. eigenvalues --   -0.89196  -0.85084  -0.77063  -0.71359  -0.68659
 Alpha  occ. eigenvalues --   -0.67299  -0.64016  -0.62558  -0.59799  -0.58454
 Alpha  occ. eigenvalues --   -0.54042  -0.51594  -0.48725  -0.44944  -0.43658
 Alpha  occ. eigenvalues --   -0.41640  -0.38002  -0.35591  -0.35282  -0.32884
 Alpha  occ. eigenvalues --   -0.23156  -0.22801  -0.22647
 Alpha virt. eigenvalues --    0.12892   0.13492   0.16563   0.17338   0.17596
 Alpha virt. eigenvalues --    0.18316   0.19403   0.20985   0.22263   0.23347
 Alpha virt. eigenvalues --    0.24357   0.24444   0.25480   0.26051   0.26485

 Mulliken charges:
               1
     1  C    1.179942
     2  C    0.544946
     3  F   -0.406808
     4  H   -0.022819
     5  H    0.093745
     6  N    0.396516
     7  O   -0.607552
     8  O   -0.611371
     9  N   -0.390712
    10  H    0.061023
    11  H    0.082415
    12  C   -0.122444
    13  N   -0.280234
    14  Cl  -0.916645
 Sum of Mulliken charges =  -1.00000

 Dipole moment (field-independent basis, Debye):
    X=              6.1076    Y=             -3.7038    Z=             -0.0256  Tot=              7.1430

 Test job not archived.
 1\1\GINC-SE165\SP\RHF\Aug-CC-pVDZ\C3H4Cl1F1N3O2(1-)\OHZDE\09-Apr-2025\
 0\\#t hf aug-cc-pvdz iop(5/13=1,5/36=2,99/5=2) pseudo=read geom=check
 guess=(read,tcheck) scf=(maxcycle=1)\\title\\-1,1\C,0,-0.00948,0.00940
 9,0.009459\C,0,-0.521011,0.435404,-1.350517\F,0,1.371904,-0.097312,-0.
 000531\H,0,-1.618288,0.456654,-1.300302\H,0,-0.149147,1.433546,-1.5800
 4\N,0,-0.175348,1.21662,1.007369\O,0,-0.171194,2.359348,0.560222\O,0,-
 0.21887,0.917089,2.19624\N,0,-0.588371,-1.156077,0.467004\H,0,-0.36313
 ,-1.309712,1.441712\H,0,-1.609049,-1.108454,0.339141\C,0,-0.073859,-0.

 Normal termination of Gaussian 16 at Wed Apr  9 02:42:51 2025.
