 Gaussian 16, Revision C.01,

 ----------------------------------------------------------------------
 #t hf aug-cc-pvdz symm=none int=(grid=ultrafine) guess=(read,tcheck) s
 table=(opt,rrhf)
 ----------------------------------------------------------------------
 -----
 title
 -----
 Symbolic Z-matrix:
 Charge = -1 Multiplicity = 1

 SCF Done:  E(RHF) =  -836.225031220     A.U. after   16 cycles
 Normal termination of Gaussian 16 at Wed Apr  9 02:58:17 2025.
 Gaussian 16:  ES64L-G16RevC.01  3-Jul-2019

 ----------------------------------------------------------------------
 #t hf aug-cc-pvdz iop(5/13=1,5/36=2,99/5=2) pseudo=read geom=check gue
 ss=(read,tcheck) scf=(maxcycle=1)
 ----------------------------------------------------------------------
 -----
 title
 -----
 Structure from the checkpoint file:  "E2SN2_5_mol1.chk"
 Charge = -1 Multiplicity = 1

                         Standard orientation:
 ---------------------------------------------------------------------
 Center     Atomic      Atomic             Coordinates (Angstroms)
 Number     Number       Type             X           Y           Z
 ---------------------------------------------------------------------
      1          6           0       -0.093465    0.101431   -0.532302
      2          6           0        1.121536   -0.571586   -0.059796
      3         17           0       -0.293364    1.896991   -0.066064
      4          1           0        1.716190   -2.881836   -0.559205
      5          1           0        1.095458   -1.793105   -0.313431
      6          1           0       -0.144674    0.095365   -1.615954
      7          7           0       -1.340439   -0.591007   -0.058075
      8          8           0       -1.664687   -0.507396    1.123260
      9          8           0       -1.932208   -1.259267   -0.907659
     10          6           0        1.427859   -0.500570    1.418207
     11          1           0        0.553027   -0.707838    2.037736
     12          1           0        2.188870   -1.262359    1.624830
     13          1           0        1.822070    0.483740    1.705145
     14          7           0        2.227985   -0.202329   -0.926808
     15          1           0        2.717018   -1.088752   -1.105310
     16          1           0        2.865982    0.416947   -0.438009
 ---------------------------------------------------------------------

 SCF Done:  E(RHF) =  -836.358148881     A.U. after    2 cycles

 The electronic state is 1-A.
 Alpha  occ. eigenvalues -- -103.54009 -20.50464 -20.50301 -15.79592 -15.46914
 Alpha  occ. eigenvalues --  -11.24119 -11.11272 -11.09282 -10.57274  -8.22981
 Alpha  occ. eigenvalues --   -8.22717  -8.22702  -1.42548  -1.24339  -1.06871
 Alpha  occ. eigenvalues --   -1.01236  -0.92669  -0.84161  -0.75185  -0.68018
 Alpha  occ. eigenvalues --   -0.63029  -0.61361  -0.58522  -0.54795  -0.48697
 Alpha  occ. eigenvalues --   -0.46114  -0.44870  -0.41819  -0.40433  -0.39165
 Alpha  occ. eigenvalues --   -0.37935  -0.36033  -0.34262  -0.33955  -0.32590
 Alpha  occ. eigenvalues --   -0.26203  -0.09755
 Alpha virt. eigenvalues --    0.12945   0.13921   0.14581   0.15559   0.16965
 Alpha virt. eigenvalues --    0.17858   0.18694   0.19038   0.20413   0.21860
 Alpha virt. eigenvalues --    0.22795   0.24137   0.25398   0.25914   0.26505

 Mulliken charges:
               1
     1  C    0.829606
     2  C   -0.512004
     3  Cl  -0.257499
     4  H   -0.682998
     5  H    0.217210
     6  H   -0.169477
     7  N    0.446935
     8  O   -0.626986
     9  O   -0.616639
    10  C    0.877946
    11  H   -0.086572
    12  H   -0.018181
    13  H   -0.072550
    14  N   -0.380383
    15  H    0.040508
    16  H    0.011084
 Sum of Mulliken charges =  -1.00000

 Dipole moment (field-independent basis, Debye):
    X=             -2.0675    Y=              8.2929    Z=              1.6298  Tot=              8.7007

 Test job not archived.
 1\1\GINC-SE070\SP\RHF\Aug-CC-pVDZ\C3H8Cl1N2O2(1-)\OHZDE\09-Apr-2025\0\
 \#t hf aug-cc-pvdz iop(5/13=1,5/36=2,99/5=2) pseudo=read geom=check gu
 ess=(read,tcheck) scf=(maxcycle=1)\\title\\-1,1\C,0,-0.04818618,0.0375
 5063,-0.45618822\C,0,-0.1923277,0.00311965,1.00342816\Cl,0,1.6836281,0
 .2276274,-1.12406774\H,0,-2.30011666,-0.30983447,2.18645921\H,0,-1.392
 70658,0.00395288,1.3443237\H,0,-0.41238195,-0.88080962,-0.90444666\N,0
 ,-0.85464949,1.14484765,-1.07491016\O,0,-0.48708476,2.30829681,-0.9372
 0562\O,0,-1.88915135,0.7933868,-1.64485424\C,0,0.42352718,1.1357173,1.

 Normal termination of Gaussian 16 at Wed Apr  9 02:58:24 2025.
