 Gaussian 16, Revision C.01,

 ----------------------------------------------------------------------
 #t hf aug-cc-pvdz symm=none int=(grid=ultrafine) guess=(read,tcheck) s
 table=(opt,rrhf)
 ----------------------------------------------------------------------
 -----
 title
 -----
 Symbolic Z-matrix:
 Charge = -1 Multiplicity = 1

 SCF Done:  E(RHF) =  -832.223781006     A.U. after   17 cycles
 Normal termination of Gaussian 16 at Wed Apr  9 02:34:07 2025.
 Gaussian 16:  ES64L-G16RevC.01  3-Jul-2019

 ----------------------------------------------------------------------
 #t hf aug-cc-pvdz iop(5/13=1,5/36=2,99/5=2) pseudo=read geom=check gue
 ss=(read,tcheck) scf=(maxcycle=1)
 ----------------------------------------------------------------------
 -----
 title
 -----
 Structure from the checkpoint file:  "E2SN2_149_mol2.chk"
 Charge = -1 Multiplicity = 1

                         Standard orientation:
 ---------------------------------------------------------------------
 Center     Atomic      Atomic             Coordinates (Angstroms)
 Number     Number       Type             X           Y           Z
 ---------------------------------------------------------------------
      1          6           0       -0.596035    0.339306   -0.158034
      2          6           0        0.880885    0.354558   -0.607750
      3         17           0       -0.613572   -0.009016    1.716991
      4          1           0        0.813906    0.415030   -1.709107
      5          7           0       -1.186746    1.536825   -0.497296
      6          1           0       -0.628249    2.136940   -1.215849
      7          1           0       -2.180550    1.487165   -0.667074
      8          6           0       -1.275607   -0.849957   -0.698770
      9          7           0       -1.850781   -1.751420   -1.189469
     10          6           0        1.564280   -0.890849   -0.255434
     11          7           0        2.165965   -1.871061   -0.017433
     12          7           0        1.563080    1.512265   -0.054644
     13          1           0        1.298421    2.279550   -0.694412
     14          1           0        2.563024    1.368559   -0.156930
     15          1           0        0.282396    2.761409   -2.113659
 ---------------------------------------------------------------------

 SCF Done:  E(RHF) =  -832.348217390     A.U. after    2 cycles

 The electronic state is 1-A.
 Alpha  occ. eigenvalues -- -103.52651 -15.54963 -15.54252 -15.49892 -15.49256
 Alpha  occ. eigenvalues --  -11.28143 -11.21665 -11.19826 -11.19151 -10.55960
 Alpha  occ. eigenvalues --   -8.21650  -8.21388  -8.21382  -1.13642  -1.08438
 Alpha  occ. eigenvalues --   -1.07053  -1.03824  -0.99600  -0.88492  -0.77547
 Alpha  occ. eigenvalues --   -0.66635  -0.59940  -0.55478  -0.52627  -0.49836
 Alpha  occ. eigenvalues --   -0.48398  -0.45860  -0.45111  -0.43664  -0.37472
 Alpha  occ. eigenvalues --   -0.37100  -0.35861  -0.34889  -0.33870  -0.32859
 Alpha  occ. eigenvalues --   -0.29179  -0.27329  -0.13787
 Alpha virt. eigenvalues --    0.13430   0.13807   0.14967   0.16907   0.18317
 Alpha virt. eigenvalues --    0.18393   0.19156   0.19759   0.20279   0.22170
 Alpha virt. eigenvalues --    0.22983   0.23227   0.24046   0.24317   0.25875

 Mulliken charges:
               1
     1  C    0.531865
     2  C    0.959470
     3  Cl  -0.246493
     4  H    0.036539
     5  N   -0.440848
     6  H    0.045622
     7  H   -0.026550
     8  C    0.031547
     9  N   -0.303849
    10  C   -0.412946
    11  N   -0.257018
    12  N   -0.443561
    13  H    0.149988
    14  H   -0.026210
    15  H   -0.597556
 Sum of Mulliken charges =  -1.00000

 Dipole moment (field-independent basis, Debye):
    X=             -0.5085    Y=             -2.7943    Z=              3.2106  Tot=              4.2866

 Test job not archived.
 1\1\GINC-SE454\SP\RHF\Aug-CC-pVDZ\C4H6Cl1N4(1-)\OHZDE\09-Apr-2025\0\\#
 t hf aug-cc-pvdz iop(5/13=1,5/36=2,99/5=2) pseudo=read geom=check gues
 s=(read,tcheck) scf=(maxcycle=1)\\title\\-1,1\C,0,-0.238108,-0.061308,
 -1.504668\C,0,-0.073671,-0.197633,0.024432\Cl,0,-2.060391,0.390345,-1.
 840303\H,0,0.950693,-0.596107,0.138572\N,0,0.653594,0.877351,-1.975706
 \H,0,1.450794,1.142478,-1.281044\H,0,0.950855,0.739282,-2.930436\C,0,-
 0.125484,-1.383176,-2.14384\N,0,0.042407,-2.419723,-2.674527\C,0,-1.01
 2048,-1.172432,0.582471\N,0,-1.725944,-1.954303,1.090914\N,0,-0.21072,

 Normal termination of Gaussian 16 at Wed Apr  9 02:34:14 2025.
