 Gaussian 16, Revision C.01,

 ----------------------------------------------------------------------
 #t hf aug-cc-pvdz symm=none int=(grid=ultrafine) guess=(read,tcheck) s
 table=(opt,rrhf)
 ----------------------------------------------------------------------
 -----
 title
 -----
 Symbolic Z-matrix:
 Charge = -1 Multiplicity = 1

 SCF Done:  E(RHF) =  -1347.94694551     A.U. after   17 cycles
 Normal termination of Gaussian 16 at Wed Apr  9 02:45:35 2025.
 Gaussian 16:  ES64L-G16RevC.01  3-Jul-2019

 ----------------------------------------------------------------------
 #t hf aug-cc-pvdz iop(5/13=1,5/36=2,99/5=2) pseudo=read geom=check gue
 ss=(read,tcheck) scf=(maxcycle=1)
 ----------------------------------------------------------------------
 -----
 title
 -----
 Structure from the checkpoint file:  "E2SN2_266_mol1.chk"
 Charge = -1 Multiplicity = 1

                         Standard orientation:
 ---------------------------------------------------------------------
 Center     Atomic      Atomic             Coordinates (Angstroms)
 Number     Number       Type             X           Y           Z
 ---------------------------------------------------------------------
      1          6           0       -0.000516   -0.103973   -0.042261
      2          1           0        0.631206   -1.202084   -1.764302
      3         17           0       -2.221249    0.512862    0.169040
      4         17           0        2.332571   -0.534689   -0.070318
      5          6           0       -0.302935   -0.938401   -1.276434
      6          1           0       -0.880086   -0.302453   -1.951724
      7          6           0       -0.000628   -0.624654    1.291796
      8          7           0       -0.044133   -1.059597    2.385040
      9          7           0        0.356994    1.335215   -0.216535
     10          8           0        0.417796    1.731465   -1.374099
     11          8           0        0.544546    1.999589    0.790627
     12          7           0       -0.974957   -2.160171   -0.863419
     13          1           0       -0.942036   -2.830535   -1.619287
     14          1           0       -1.941155   -1.948247   -0.649387
 ---------------------------------------------------------------------

 SCF Done:  E(RHF) =  -1348.10133117     A.U. after    2 cycles

 The electronic state is 1-A.
 Alpha  occ. eigenvalues -- -103.47332-103.45399 -20.50907 -20.50792 -15.82079
 Alpha  occ. eigenvalues --  -15.53159 -15.51218 -11.33375 -11.19311 -11.18333
 Alpha  occ. eigenvalues --  -10.50572 -10.48642  -8.16219  -8.16058  -8.16050
 Alpha  occ. eigenvalues --   -8.14283  -8.14130  -8.14126  -1.44048  -1.25817
 Alpha  occ. eigenvalues --   -1.09469  -1.05685  -1.00209  -0.93198  -0.89936
 Alpha  occ. eigenvalues --   -0.82577  -0.77702  -0.68595  -0.63115  -0.61722
 Alpha  occ. eigenvalues --   -0.59058  -0.53218  -0.51106  -0.46624  -0.43902
 Alpha  occ. eigenvalues --   -0.41636  -0.40917  -0.40334  -0.36249  -0.34347
 Alpha  occ. eigenvalues --   -0.31448  -0.30118  -0.29588  -0.29260  -0.27855
 Alpha  occ. eigenvalues --   -0.26934  -0.25716
 Alpha virt. eigenvalues --    0.11413   0.12308   0.14201   0.14712   0.16846
 Alpha virt. eigenvalues --    0.18946   0.20352   0.20560   0.21798   0.22586
 Alpha virt. eigenvalues --    0.23305   0.24136   0.25405   0.25731   0.25991

 Mulliken charges:
               1
     1  C    0.654247
     2  H   -0.099358
     3  Cl  -0.540672
     4  Cl  -0.573056
     5  C    1.092395
     6  H    0.045642
     7  C   -0.228826
     8  N   -0.312117
     9  N    0.495770
    10  O   -0.632155
    11  O   -0.630858
    12  N   -0.313178
    13  H   -0.012785
    14  H    0.054950
 Sum of Mulliken charges =  -1.00000

 Dipole moment (field-independent basis, Debye):
    X=             -2.2863    Y=             -2.1591    Z=             -4.3958  Tot=              5.4048

 Test job not archived.
 1\1\GINC-SE054\SP\RHF\Aug-CC-pVDZ\C3H4Cl2N3O2(1-)\OHZDE\09-Apr-2025\0\
 \#t hf aug-cc-pvdz iop(5/13=1,5/36=2,99/5=2) pseudo=read geom=check gu
 ess=(read,tcheck) scf=(maxcycle=1)\\title\\-1,1\C,0,0.6425833,-0.00388
 902,-0.01158691\H,0,1.52305571,1.92396849,0.26855282\Cl,0,-1.66069119,
 -0.22649712,0.03488656\Cl,0,3.01475622,-0.05274713,-0.0090582\C,0,0.54
 240564,1.51180035,0.04808651\H,0,-0.12870086,1.74973683,0.87667092\C,0
 ,0.7071436,-0.75119745,-1.23149715\N,0,0.71908988,-1.35262159,-2.24362
 143\N,0,0.71778656,-0.77100544,1.26720979\O,0,0.7320995,-0.09807069,2.

 Normal termination of Gaussian 16 at Wed Apr  9 02:45:43 2025.
