 Gaussian 16, Revision C.01,

 ----------------------------------------------------------------------
 #t hf aug-cc-pvdz symm=none int=(grid=ultrafine) guess=(read,tcheck) s
 table=(opt,rrhf)
 ----------------------------------------------------------------------
 -----
 title
 -----
 Symbolic Z-matrix:
 Charge = -1 Multiplicity = 1

 SCF Done:  E(RHF) =  -836.263628350     A.U. after   16 cycles
 Normal termination of Gaussian 16 at Wed Apr  9 02:38:06 2025.
 Gaussian 16:  ES64L-G16RevC.01  3-Jul-2019

 ----------------------------------------------------------------------
 #t hf aug-cc-pvdz iop(5/13=1,5/36=2,99/5=2) pseudo=read geom=check gue
 ss=(read,tcheck) scf=(maxcycle=1)
 ----------------------------------------------------------------------
 -----
 title
 -----
 Structure from the checkpoint file:  "E2SN2_188_mol2.chk"
 Charge = -1 Multiplicity = 1

                         Standard orientation:
 ---------------------------------------------------------------------
 Center     Atomic      Atomic             Coordinates (Angstroms)
 Number     Number       Type             X           Y           Z
 ---------------------------------------------------------------------
      1          6           0       -0.940170    0.257045    0.288175
      2          6           0        0.349251    0.566503   -0.449889
      3         17           0       -1.464775   -1.413016   -0.176098
      4          1           0        0.288712    0.259469   -1.500006
      5          1           0       -0.731234    0.234046    1.356723
      6          6           0       -2.034977    1.253396   -0.019576
      7          1           0       -2.172880    1.369854   -1.097444
      8          1           0       -2.975295    0.921744    0.427613
      9          1           0       -1.740290    2.205727    0.422830
     10          7           0        1.462126   -0.389169    0.066938
     11          8           0        2.384367   -0.589728   -0.730084
     12          8           0        1.430471   -0.812518    1.217681
     13          7           0        0.692630    1.923181   -0.296833
     14          1           0        1.613468    2.119467   -0.671155
     15          1           0        0.583098    2.257045    0.716778
     16          1           0        0.188984    2.672133    2.134564
 ---------------------------------------------------------------------

 SCF Done:  E(RHF) =  -836.397144306     A.U. after    2 cycles

 The electronic state is 1-A.
 Alpha  occ. eigenvalues -- -103.53837 -20.49695 -20.49121 -15.77532 -15.47676
 Alpha  occ. eigenvalues --  -11.22098 -11.19278 -11.11952 -10.57194  -8.22908
 Alpha  occ. eigenvalues --   -8.22650  -8.22633  -1.41143  -1.23117  -1.08675
 Alpha  occ. eigenvalues --   -1.03584  -0.89817  -0.87193  -0.75120  -0.68646
 Alpha  occ. eigenvalues --   -0.63849  -0.60954  -0.59069  -0.55715  -0.51560
 Alpha  occ. eigenvalues --   -0.47283  -0.45720  -0.45122  -0.41182  -0.39319
 Alpha  occ. eigenvalues --   -0.39210  -0.37966  -0.35087  -0.33958  -0.33368
 Alpha  occ. eigenvalues --   -0.27317  -0.09679
 Alpha virt. eigenvalues --    0.12468   0.13174   0.14937   0.15029   0.17264
 Alpha virt. eigenvalues --    0.18159   0.18589   0.20544   0.21358   0.21916
 Alpha virt. eigenvalues --    0.22707   0.24164   0.24790   0.25913   0.26096

 Mulliken charges:
               1
     1  C   -0.395816
     2  C    1.115106
     3  Cl  -0.253548
     4  H   -0.191934
     5  H    0.107213
     6  C    0.523298
     7  H   -0.013663
     8  H   -0.064128
     9  H    0.049536
    10  N    0.347868
    11  O   -0.627146
    12  O   -0.582889
    13  N   -0.224403
    14  H   -0.030243
    15  H   -0.020323
    16  H   -0.738928
 Sum of Mulliken charges =  -1.00000

 Dipole moment (field-independent basis, Debye):
    X=             -2.9021    Y=             -5.8435    Z=             -7.6146  Tot=             10.0275

 Test job not archived.
 1\1\GINC-SE188\SP\RHF\Aug-CC-pVDZ\C3H8Cl1N2O2(1-)\OHZDE\09-Apr-2025\0\
 \#t hf aug-cc-pvdz iop(5/13=1,5/36=2,99/5=2) pseudo=read geom=check gu
 ess=(read,tcheck) scf=(maxcycle=1)\\title\\-1,1\C,0,-0.130519,0.000722
 ,0.019579\C,0,-0.470284,-0.004019,-1.459491\Cl,0,1.637147,0.357146,0.1
 87459\H,0,0.279717,-0.555975,-2.037007\H,0,-0.6625,0.823478,0.495023\C
 ,0,-0.465639,-1.310768,0.693163\H,0,-0.030067,-2.155606,0.153806\H,0,-
 0.088574,-1.308399,1.718827\H,0,-1.552589,-1.399216,0.707746\N,0,-0.26
 9433,1.43178,-2.022563\O,0,-0.039989,1.485552,-3.235188\O,0,-0.428134,

 Normal termination of Gaussian 16 at Wed Apr  9 02:38:13 2025.
