 Gaussian 16, Revision C.01,

 ----------------------------------------------------------------------
 #t hf aug-cc-pvdz symm=none int=(grid=ultrafine) guess=(read,tcheck) s
 table=(opt,rrhf)
 ----------------------------------------------------------------------
 -----
 title
 -----
 Symbolic Z-matrix:
 Charge = -1 Multiplicity = 1

 SCF Done:  E(RHF) =  -1024.58133226     A.U. after   17 cycles
 Normal termination of Gaussian 16 at Wed Apr  9 02:40:26 2025.
 Gaussian 16:  ES64L-G16RevC.01  3-Jul-2019

 ----------------------------------------------------------------------
 #t hf aug-cc-pvdz iop(5/13=1,5/36=2,99/5=2) pseudo=read geom=check gue
 ss=(read,tcheck) scf=(maxcycle=1)
 ----------------------------------------------------------------------
 -----
 title
 -----
 Structure from the checkpoint file:  "E2SN2_215_mol1.chk"
 Charge = -1 Multiplicity = 1

                         Standard orientation:
 ---------------------------------------------------------------------
 Center     Atomic      Atomic             Coordinates (Angstroms)
 Number     Number       Type             X           Y           Z
 ---------------------------------------------------------------------
      1          6           0       -0.374310    0.417343   -0.380592
      2          1           0        0.681842    0.949370    1.345512
      3         17           0       -0.306780   -1.473066   -1.362338
      4          9           0       -0.520046    2.173970    0.245922
      5          6           0        0.885989    0.328363    0.471130
      6          1           0       -0.431076    0.918508   -1.325571
      7          7           0       -1.644930    0.182725    0.327450
      8          8           0       -1.564198   -0.223753    1.483805
      9          8           0       -2.676058    0.407516   -0.288595
     10          6           0        1.980683    0.964329   -0.265307
     11          7           0        2.876392    1.472991   -0.827692
     12          6           0        1.307016   -0.994418    0.952004
     13          7           0        1.735779   -1.963616    1.457587
 ---------------------------------------------------------------------

 SCF Done:  E(RHF) =  -1024.76207398     A.U. after    2 cycles

 The electronic state is 1-A.
 Alpha  occ. eigenvalues -- -103.49093 -25.85761 -20.51176 -20.51119 -15.81735
 Alpha  occ. eigenvalues --  -15.55827 -15.54940 -11.31477 -11.24924 -11.21293
 Alpha  occ. eigenvalues --  -11.20598 -10.52403  -8.18061  -8.17877  -8.17868
 Alpha  occ. eigenvalues --   -1.44225  -1.35797  -1.25865  -1.11094  -1.08380
 Alpha  occ. eigenvalues --   -1.04213  -0.95839  -0.91957  -0.74776  -0.69618
 Alpha  occ. eigenvalues --   -0.64853  -0.64244  -0.62449  -0.60601  -0.55674
 Alpha  occ. eigenvalues --   -0.46691  -0.46222  -0.45621  -0.45319  -0.44050
 Alpha  occ. eigenvalues --   -0.41764  -0.41058  -0.38171  -0.37676  -0.36530
 Alpha  occ. eigenvalues --   -0.35779  -0.35554  -0.31811  -0.31419  -0.30560
 Alpha virt. eigenvalues --    0.13799   0.14700   0.16063   0.17044   0.18178
 Alpha virt. eigenvalues --    0.19983   0.21114   0.21973   0.22158   0.23323
 Alpha virt. eigenvalues --    0.24191   0.24967   0.25173   0.25649   0.25930

 Mulliken charges:
               1
     1  C    0.839651
     2  H    0.297555
     3  Cl  -0.476365
     4  F   -0.780716
     5  C    1.155140
     6  H   -0.319358
     7  N    0.721107
     8  O   -0.665488
     9  O   -0.664911
    10  C   -0.312633
    11  N   -0.239343
    12  C   -0.296169
    13  N   -0.258468
 Sum of Mulliken charges =  -1.00000

 Dipole moment (field-independent basis, Debye):
    X=              0.4256    Y=             -0.4411    Z=              0.1631  Tot=              0.6342

 Test job not archived.
 1\1\GINC-SE336\SP\RHF\Aug-CC-pVDZ\C4H2Cl1F1N3O2(1-)\OHZDE\09-Apr-2025\
 0\\#t hf aug-cc-pvdz iop(5/13=1,5/36=2,99/5=2) pseudo=read geom=check
 guess=(read,tcheck) scf=(maxcycle=1)\\title\\-1,1\C,0,0.37109203,-0.06
 573999,-0.0592529\H,0,1.66226434,1.53862332,-0.42916717\Cl,0,-1.694050
 93,-0.16176952,-0.57693596\F,0,2.12734183,-0.17199903,0.57619403\C,0,0
 .60899915,1.43584537,-0.16095507\H,0,0.17710784,-0.58632574,0.85657219
 \N,0,0.85636405,-0.87041914,-1.19408577\O,0,1.24966098,-0.25174014,-2.
 17970894\O,0,0.82795629,-2.08558606,-1.0682639\C,0,0.44371467,2.015818

 Normal termination of Gaussian 16 at Wed Apr  9 02:40:34 2025.
