 Gaussian 16, Revision C.01,

 ----------------------------------------------------------------------
 #t hf aug-cc-pvdz symm=none int=(grid=ultrafine) guess=(read,tcheck) s
 table=(opt,rrhf)
 ----------------------------------------------------------------------
 -----
 title
 -----
 Symbolic Z-matrix:
 Charge = -1 Multiplicity = 1

 SCF Done:  E(RHF) =  -1384.70701636     A.U. after   17 cycles
 Normal termination of Gaussian 16 at Wed Apr  9 02:37:52 2025.
 Gaussian 16:  ES64L-G16RevC.01  3-Jul-2019

 ----------------------------------------------------------------------
 #t hf aug-cc-pvdz iop(5/13=1,5/36=2,99/5=2) pseudo=read geom=check gue
 ss=(read,tcheck) scf=(maxcycle=1)
 ----------------------------------------------------------------------
 -----
 title
 -----
 Structure from the checkpoint file:  "E2SN2_176_mol2.chk"
 Charge = -1 Multiplicity = 1

                         Standard orientation:
 ---------------------------------------------------------------------
 Center     Atomic      Atomic             Coordinates (Angstroms)
 Number     Number       Type             X           Y           Z
 ---------------------------------------------------------------------
      1          6           0        0.115389    0.707970    0.572476
      2          6           0       -0.068732   -0.601023   -0.184914
      3         17           0       -1.322174    1.104182    1.568833
      4          1           0        0.910224   -0.788208   -0.675403
      5          1           0        0.957768    0.528479    1.244086
      6          6           0        0.454992    1.843538   -0.279138
      7          7           0        0.718178    2.806718   -0.896451
      8          7           0       -1.144722   -0.557629   -1.239960
      9          8           0       -1.549965    0.540822   -1.603528
     10          8           0       -1.490795   -1.641205   -1.699432
     11          6           0       -0.353539   -1.707508    0.718281
     12          7           0       -0.586604   -2.588686    1.458272
     13         17           0        3.008142   -0.517000   -0.060496
 ---------------------------------------------------------------------

 SCF Done:  E(RHF) =  -1384.87311337     A.U. after    2 cycles

 The electronic state is 1-A.
 Alpha  occ. eigenvalues -- -103.59103-103.40356 -20.54826 -20.54417 -15.84374
 Alpha  occ. eigenvalues --  -15.57173 -15.55663 -11.28171 -11.27436 -11.22074
 Alpha  occ. eigenvalues --  -11.20950 -10.62405 -10.43484  -8.28131  -8.27827
 Alpha  occ. eigenvalues --   -8.27807  -8.09092  -8.09050  -8.09035  -1.47232
 Alpha  occ. eigenvalues --   -1.29124  -1.14204  -1.10339  -1.08060  -1.03293
 Alpha  occ. eigenvalues --   -0.90212  -0.85964  -0.80749  -0.71922  -0.67652
 Alpha  occ. eigenvalues --   -0.67001  -0.62014  -0.59867  -0.57506  -0.50398
 Alpha  occ. eigenvalues --   -0.47414  -0.45944  -0.45176  -0.43965  -0.40744
 Alpha  occ. eigenvalues --   -0.40039  -0.39122  -0.38128  -0.37631  -0.36041
 Alpha  occ. eigenvalues --   -0.35638  -0.24011  -0.23650  -0.23493
 Alpha virt. eigenvalues --    0.13791   0.15116   0.15646   0.16670   0.17195
 Alpha virt. eigenvalues --    0.18565   0.19944   0.20584   0.21231   0.22583
 Alpha virt. eigenvalues --    0.23097   0.23291   0.23863   0.24716   0.24899

 Mulliken charges:
               1
     1  C    0.654476
     2  C    1.506309
     3  Cl  -0.132319
     4  H   -0.082442
     5  H    0.022069
     6  C   -0.321729
     7  N   -0.202805
     8  N    0.225926
     9  O   -0.559544
    10  O   -0.572751
    11  C   -0.429080
    12  N   -0.214176
    13  Cl  -0.893933
 Sum of Mulliken charges =  -1.00000

 Dipole moment (field-independent basis, Debye):
    X=             -7.2720    Y=              1.4765    Z=              1.7221  Tot=              7.6176

 Test job not archived.
 1\1\GINC-SE131\SP\RHF\Aug-CC-pVDZ\C4H2Cl2N3O2(1-)\OHZDE\09-Apr-2025\0\
 \#t hf aug-cc-pvdz iop(5/13=1,5/36=2,99/5=2) pseudo=read geom=check gu
 ess=(read,tcheck) scf=(maxcycle=1)\\title\\-1,1\C,0,-0.072712,-0.05028
 5,0.026736\C,0,-0.60554,-0.013934,-1.40007\Cl,0,1.693005,0.258708,0.08
 2099\H,0,-1.707062,-0.113956,-1.297031\H,0,-0.579628,0.771311,0.537515
 \C,0,-0.381704,-1.283062,0.744284\N,0,-0.57943,-2.247634,1.383473\N,0,
 -0.092894,-1.126379,-2.278944\O,0,0.430559,-2.093255,-1.736592\O,0,-0.
 298139,-0.998958,-3.481714\C,0,-0.314377,1.257085,-2.048853\N,0,-0.068

 Normal termination of Gaussian 16 at Wed Apr  9 02:38:00 2025.
