 Gaussian 16, Revision C.01,

 ----------------------------------------------------------------------
 #t hf aug-cc-pvdz symm=none int=(grid=ultrafine) guess=(read,tcheck) s
 table=(opt,rrhf)
 ----------------------------------------------------------------------
 -----
 title
 -----
 Symbolic Z-matrix:
 Charge = -1 Multiplicity = 1

 SCF Done:  E(RHF) =  -1175.36269175     A.U. after   18 cycles
 Normal termination of Gaussian 16 at Wed Apr  9 02:48:25 2025.
 Gaussian 16:  ES64L-G16RevC.01  3-Jul-2019

 ----------------------------------------------------------------------
 #t hf aug-cc-pvdz iop(5/13=1,5/36=2,99/5=2) pseudo=read geom=check gue
 ss=(read,tcheck) scf=(maxcycle=1)
 ----------------------------------------------------------------------
 -----
 title
 -----
 Structure from the checkpoint file:  "E2SN2_280_mol1.chk"
 Charge = -1 Multiplicity = 1

                         Standard orientation:
 ---------------------------------------------------------------------
 Center     Atomic      Atomic             Coordinates (Angstroms)
 Number     Number       Type             X           Y           Z
 ---------------------------------------------------------------------
      1          6           0       -0.907319    0.014854    0.461623
      2          1           0        0.846937   -0.439865    1.550155
      3         17           0       -0.947290    1.782640   -0.941610
      4          9           0       -0.872966   -1.628058    1.401716
      5          6           0        0.596190   -0.207441    0.522545
      6          6           0       -1.792185   -0.689073   -0.436191
      7          7           0       -2.615107   -1.221449   -1.086844
      8          6           0       -1.525722    0.789826    1.607234
      9          1           0       -1.686590    0.098374    2.431955
     10          1           0       -0.858497    1.598583    1.903256
     11          1           0       -2.467763    1.227955    1.284158
     12          7           0        1.493072    0.960949    0.167402
     13          8           0        2.146947    0.919709   -0.865246
     14          8           0        1.539946    1.835807    1.025114
     15          7           0        1.079068   -1.358568   -0.291100
     16          8           0        2.025571   -1.976399    0.192025
     17          8           0        0.562728   -1.560733   -1.381278
 ---------------------------------------------------------------------

 SCF Done:  E(RHF) =  -1175.58964983     A.U. after    2 cycles

 The electronic state is 1-A.
 Alpha  occ. eigenvalues -- -103.46503 -25.87057 -20.53478 -20.52971 -20.52882
 Alpha  occ. eigenvalues --  -20.52271 -15.83231 -15.82446 -15.51941 -11.31216
 Alpha  occ. eigenvalues --  -11.29559 -11.18702 -11.14780 -10.49832  -8.15477
 Alpha  occ. eigenvalues --   -8.15328  -8.15310  -1.46544  -1.44568  -1.37340
 Alpha  occ. eigenvalues --   -1.27836  -1.26981  -1.08562  -1.05210  -0.97405
 Alpha  occ. eigenvalues --   -0.91203  -0.85819  -0.81291  -0.75194  -0.69978
 Alpha  occ. eigenvalues --   -0.69440  -0.66501  -0.64207  -0.63082  -0.60768
 Alpha  occ. eigenvalues --   -0.55017  -0.52629  -0.52156  -0.48082  -0.47472
 Alpha  occ. eigenvalues --   -0.47172  -0.43513  -0.42834  -0.42734  -0.41957
 Alpha  occ. eigenvalues --   -0.41788  -0.40255  -0.38570  -0.37233  -0.34972
 Alpha  occ. eigenvalues --   -0.33075  -0.29958  -0.29086  -0.27672
 Alpha virt. eigenvalues --    0.12523   0.13611   0.15071   0.15621   0.16262
 Alpha virt. eigenvalues --    0.17313   0.18514   0.18903   0.19715   0.21184
 Alpha virt. eigenvalues --    0.21475   0.22386   0.23555   0.24644   0.24902

 Mulliken charges:
               1
     1  C    0.170767
     2  H   -0.057922
     3  Cl  -0.556628
     4  F   -0.762463
     5  C    1.871427
     6  C   -0.604863
     7  N   -0.289342
     8  C    0.549316
     9  H    0.154681
    10  H    0.095669
    11  H    0.007592
    12  N    0.374772
    13  O   -0.584212
    14  O   -0.621143
    15  N    0.461433
    16  O   -0.634914
    17  O   -0.574170
 Sum of Mulliken charges =  -1.00000

 Dipole moment (field-independent basis, Debye):
    X=              1.8509    Y=              2.1798    Z=              3.8132  Tot=              4.7663

 Test job not archived.
 1\1\GINC-SE423\SP\RHF\Aug-CC-pVDZ\C4H4Cl1F1N3O4(1-)\OHZDE\09-Apr-2025\
 0\\#t hf aug-cc-pvdz iop(5/13=1,5/36=2,99/5=2) pseudo=read geom=check
 guess=(read,tcheck) scf=(maxcycle=1)\\title\\-1,1\C,0,0.45982502,-0.10
 11158,0.04763407\H,0,1.56107534,1.59392476,0.66664365\Cl,0,-1.73120298
 ,-0.28149957,0.56006365\F,0,2.20862192,0.09740681,-0.64979901\C,0,0.61
 227974,1.40656618,0.17924103\C,0,0.20092967,-0.78097979,-1.19949409\N,
 0,0.03078975,-1.44900327,-2.15278994\C,0,0.90280858,-0.93405601,1.2331
 312\H,0,1.98144311,-1.06264339,1.16861155\H,0,0.62674471,-0.42877872,2

 Normal termination of Gaussian 16 at Wed Apr  9 02:48:38 2025.
