 Gaussian 16, Revision C.01,

 ----------------------------------------------------------------------
 #t hf aug-cc-pvdz symm=none int=(grid=ultrafine) guess=(read,tcheck) s
 table=(opt,rrhf)
 ----------------------------------------------------------------------
 -----
 title
 -----
 Symbolic Z-matrix:
 Charge = -1 Multiplicity = 1

 SCF Done:  E(RHF) =  -987.894915455     A.U. after   17 cycles
 Normal termination of Gaussian 16 at Wed Apr  9 02:37:26 2025.
 Gaussian 16:  ES64L-G16RevC.01  3-Jul-2019

 ----------------------------------------------------------------------
 #t hf aug-cc-pvdz iop(5/13=1,5/36=2,99/5=2) pseudo=read geom=check gue
 ss=(read,tcheck) scf=(maxcycle=1)
 ----------------------------------------------------------------------
 -----
 title
 -----
 Structure from the checkpoint file:  "E2SN2_180_mol1.chk"
 Charge = -1 Multiplicity = 1

                         Standard orientation:
 ---------------------------------------------------------------------
 Center     Atomic      Atomic             Coordinates (Angstroms)
 Number     Number       Type             X           Y           Z
 ---------------------------------------------------------------------
      1          6           0       -0.679888   -0.157393   -0.517333
      2          1           0        0.269464   -1.801545    0.356354
      3         17           0       -0.058215    1.895127   -0.456427
      4          9           0       -1.398937   -1.968046   -0.697032
      5          6           0        0.349546   -0.722686    0.462224
      6          1           0       -0.519929   -0.254060   -1.575315
      7          6           0       -2.005621    0.077428   -0.005331
      8          7           0       -3.055245    0.342366    0.453911
      9          7           0        0.221583   -0.343854    1.828907
     10          1           0       -0.612209   -0.783774    2.197819
     11          1           0        0.115959    0.662653    1.893340
     12          7           0        1.735631   -0.390512   -0.050764
     13          8           0        2.549735    0.129057    0.700765
     14          8           0        1.953866   -0.725072   -1.213437
 ---------------------------------------------------------------------

 SCF Done:  E(RHF) =  -988.065964046     A.U. after    2 cycles

 The electronic state is 1-A.
 Alpha  occ. eigenvalues -- -103.48068 -25.82415 -20.50613 -20.49900 -15.79509
 Alpha  occ. eigenvalues --  -15.51996 -15.51870 -11.26588 -11.23685 -11.18522
 Alpha  occ. eigenvalues --  -10.51366  -8.17023  -8.16851  -8.16840  -1.42755
 Alpha  occ. eigenvalues --   -1.32204  -1.24557  -1.10537  -1.05751  -0.97585
 Alpha  occ. eigenvalues --   -0.91932  -0.86223  -0.72366  -0.65725  -0.63420
 Alpha  occ. eigenvalues --   -0.62190  -0.60170  -0.56039  -0.53511  -0.48894
 Alpha  occ. eigenvalues --   -0.45316  -0.43070  -0.41844  -0.41431  -0.40078
 Alpha  occ. eigenvalues --   -0.37898  -0.35837  -0.33937  -0.33629  -0.32089
 Alpha  occ. eigenvalues --   -0.30805  -0.30231  -0.29060
 Alpha virt. eigenvalues --    0.13440   0.14544   0.14700   0.16845   0.18958
 Alpha virt. eigenvalues --    0.19349   0.20045   0.21718   0.22438   0.23017
 Alpha virt. eigenvalues --    0.23796   0.25004   0.25601   0.26328   0.26702

 Mulliken charges:
               1
     1  C    1.493647
     2  H    0.003367
     3  Cl  -0.547246
     4  F   -0.867728
     5  C    0.982889
     6  H   -0.362533
     7  C   -0.526536
     8  N   -0.259770
     9  N   -0.288852
    10  H    0.055887
    11  H    0.053207
    12  N    0.492215
    13  O   -0.595664
    14  O   -0.632882
 Sum of Mulliken charges =  -1.00000

 Dipole moment (field-independent basis, Debye):
    X=              2.2657    Y=              0.5802    Z=              2.0769  Tot=              3.1279

 Test job not archived.
 1\1\GINC-SE322\SP\RHF\Aug-CC-pVDZ\C3H4Cl1F1N3O2(1-)\OHZDE\09-Apr-2025\
 0\\#t hf aug-cc-pvdz iop(5/13=1,5/36=2,99/5=2) pseudo=read geom=check
 guess=(read,tcheck) scf=(maxcycle=1)\\title\\-1,1\C,0,0.56160761,0.008
 65714,0.04905803\H,0,1.75110179,1.68532072,-0.32742245\Cl,0,-1.5794556
 ,-0.07730526,0.15622027\F,0,2.51268688,-0.11705523,-0.0235566\C,0,0.71
 054038,1.52708925,-0.05584799\H,0,0.61785795,-0.59616516,-0.83710361\C
 ,0,0.79526981,-0.58081971,1.34241553\N,0,0.90515697,-1.03089816,2.4232
 2996\N,0,0.37250463,2.29366943,1.09558518\H,0,1.06879418,2.11104257,1.

 Normal termination of Gaussian 16 at Wed Apr  9 02:37:34 2025.
