 Gaussian 16, Revision C.01,

 ----------------------------------------------------------------------
 #t hf aug-cc-pvdz symm=none int=(grid=ultrafine) guess=(read,tcheck) s
 table=(opt,rrhf)
 ----------------------------------------------------------------------
 -----
 title
 -----
 Symbolic Z-matrix:
 Charge = -1 Multiplicity = 1

 SCF Done:  E(RHF) =  -591.181211002     A.U. after   16 cycles
 Normal termination of Gaussian 16 at Wed Apr  9 02:54:47 2025.
 Gaussian 16:  ES64L-G16RevC.01  3-Jul-2019

 ----------------------------------------------------------------------
 #t hf aug-cc-pvdz iop(5/13=1,5/36=2,99/5=2) pseudo=read geom=check gue
 ss=(read,tcheck) scf=(maxcycle=1)
 ----------------------------------------------------------------------
 -----
 title
 -----
 Structure from the checkpoint file:  "E2SN2_377_mol2.chk"
 Charge = -1 Multiplicity = 1

                         Standard orientation:
 ---------------------------------------------------------------------
 Center     Atomic      Atomic             Coordinates (Angstroms)
 Number     Number       Type             X           Y           Z
 ---------------------------------------------------------------------
      1          6           0       -0.167541   -0.172398    0.359462
      2          6           0        0.668051   -0.922636   -0.668124
      3          9           0       -0.700968   -1.108573    1.289725
      4          1           0        0.092485   -1.796233   -0.981982
      5          1           0        0.802946   -0.254913   -1.520793
      6          7           0        0.482217    0.852275    0.969676
      7          1           0       -0.141612    1.547870    1.348306
      8          1           0        1.330643    1.206091    0.406474
      9          7           0       -1.523828    0.268097   -0.310447
     10          8           0       -2.059119   -0.512515   -1.095127
     11          8           0       -1.996717    1.356546    0.015505
     12          7           0        1.994769   -1.288266   -0.198286
     13          1           0        2.504987   -0.394802   -0.187926
     14          1           0        1.916157   -1.619500    0.756823
     15          9           0        2.508292    1.364650   -0.462898
 ---------------------------------------------------------------------

 SCF Done:  E(RHF) =  -591.364717517     A.U. after    2 cycles

 The electronic state is 1-A.
 Alpha  occ. eigenvalues --  -25.99302 -25.77966 -20.50162 -20.49983 -15.78104
 Alpha  occ. eigenvalues --  -15.46281 -15.45572 -11.28633 -11.13548  -1.52569
 Alpha  occ. eigenvalues --   -1.41621  -1.27442  -1.23759  -1.07515  -0.99727
 Alpha  occ. eigenvalues --   -0.88282  -0.78256  -0.71082  -0.67244  -0.62587
 Alpha  occ. eigenvalues --   -0.61783  -0.60666  -0.57920  -0.56110  -0.52720
 Alpha  occ. eigenvalues --   -0.51457  -0.45239  -0.42359  -0.40847  -0.39440
 Alpha  occ. eigenvalues --   -0.38796  -0.37058  -0.35560  -0.35472  -0.34556
 Alpha  occ. eigenvalues --   -0.27971  -0.24848
 Alpha virt. eigenvalues --    0.14031   0.14357   0.15409   0.16405   0.18812
 Alpha virt. eigenvalues --    0.19461   0.20159   0.20730   0.22078   0.23621
 Alpha virt. eigenvalues --    0.25277   0.25962   0.26929   0.27042   0.29674

 Mulliken charges:
               1
     1  C    1.063960
     2  C    0.784605
     3  F   -0.445160
     4  H   -0.085734
     5  H   -0.035519
     6  N   -0.482828
     7  H    0.059831
     8  H    0.215685
     9  N    0.370889
    10  O   -0.614582
    11  O   -0.626302
    12  N   -0.477193
    13  H    0.127017
    14  H    0.035712
    15  F   -0.890381
 Sum of Mulliken charges =  -1.00000

 Dipole moment (field-independent basis, Debye):
    X=             -4.4089    Y=             -2.1659    Z=              1.7003  Tot=              5.1981

 Test job not archived.
 1\1\GINC-SE016\SP\RHF\Aug-CC-pVDZ\C2H6F2N3O2(1-)\OHZDE\09-Apr-2025\0\\
 #t hf aug-cc-pvdz iop(5/13=1,5/36=2,99/5=2) pseudo=read geom=check gue
 ss=(read,tcheck) scf=(maxcycle=1)\\title\\-1,1\C,0,-0.097068,-0.04046,
 0.043669\C,0,-0.67874,-0.275553,-1.343195\F,0,1.241581,0.424176,-0.092
 313\H,0,0.071752,-0.815419,-1.924798\H,0,-1.560203,-0.906841,-1.218325
 \N,0,-0.848095,0.766629,0.836806\H,0,-0.674963,0.628395,1.820317\H,0,-
 1.877346,0.825159,0.521488\N,0,0.220857,-1.43436,0.705708\O,0,0.670711
 ,-2.324503,-0.013242\O,0,0.037211,-1.54825,1.917275\N,0,-1.114729,0.93

 Normal termination of Gaussian 16 at Wed Apr  9 02:54:53 2025.
