 Gaussian 16, Revision C.01,

 ----------------------------------------------------------------------
 #t hf aug-cc-pvdz symm=none int=(grid=ultrafine) guess=(read,tcheck) s
 table=(opt,rrhf)
 ----------------------------------------------------------------------
 -----
 title
 -----
 Symbolic Z-matrix:
 Charge = -1 Multiplicity = 1

 SCF Done:  E(RHF) =  -726.830962549     A.U. after   14 cycles
 Normal termination of Gaussian 16 at Wed Apr  9 02:53:10 2025.
 Gaussian 16:  ES64L-G16RevC.01  3-Jul-2019

 ----------------------------------------------------------------------
 #t hf aug-cc-pvdz iop(5/13=1,5/36=2,99/5=2) pseudo=read geom=check gue
 ss=(read,tcheck) scf=(maxcycle=1)
 ----------------------------------------------------------------------
 -----
 title
 -----
 Structure from the checkpoint file:  "E2SN2_365_mol2.chk"
 Charge = -1 Multiplicity = 1

                         Standard orientation:
 ---------------------------------------------------------------------
 Center     Atomic      Atomic             Coordinates (Angstroms)
 Number     Number       Type             X           Y           Z
 ---------------------------------------------------------------------
      1          6           0        0.259319    0.388599    0.124181
      2          6           0       -0.855390   -0.473001   -0.526884
      3         17           0        1.857848   -0.547873   -0.219474
      4          1           0       -0.516391   -0.726517   -1.539566
      5          6           0        0.404162    1.732696   -0.562135
      6          1           0        1.315011    2.216642   -0.208734
      7          1           0        0.449962    1.621240   -1.649242
      8          1           0       -0.451405    2.349604   -0.273845
      9          7           0        0.157299    0.608688    1.522724
     10          1           0       -0.030807   -0.264693    2.002334
     11          1           0       -0.670254    1.241820    1.688295
     12          7           0       -2.118324    0.253607   -0.633559
     13          1           0       -2.289631    0.780129    0.239830
     14          1           0       -2.028486    0.963319   -1.352324
     15          6           0       -1.119879   -1.763486    0.239005
     16          1           0       -1.799726   -2.385861   -0.346769
     17          1           0       -1.622597   -1.534556    1.181788
     18          1           0       -0.202972   -2.321368    0.442431
     19          1           0       -2.138216    2.029169    1.677706
 ---------------------------------------------------------------------

 SCF Done:  E(RHF) =  -726.930312217     A.U. after    2 cycles

 The electronic state is 1-A.
 Alpha  occ. eigenvalues -- -103.50264 -15.45921 -15.45711 -11.20249 -11.14116
 Alpha  occ. eigenvalues --  -11.10198 -11.10131 -10.53630  -8.19319  -8.19092
 Alpha  occ. eigenvalues --   -8.19085  -1.07563  -1.00380  -0.96547  -0.85845
 Alpha  occ. eigenvalues --   -0.85112  -0.72614  -0.62111  -0.53779  -0.53613
 Alpha  occ. eigenvalues --   -0.51422  -0.47309  -0.46135  -0.42862  -0.40585
 Alpha  occ. eigenvalues --   -0.39848  -0.37557  -0.36120  -0.35821  -0.32318
 Alpha  occ. eigenvalues --   -0.31246  -0.27347  -0.23461  -0.09629
 Alpha virt. eigenvalues --    0.12367   0.12864   0.14054   0.14949   0.15406
 Alpha virt. eigenvalues --    0.16301   0.16667   0.18250   0.18599   0.19654
 Alpha virt. eigenvalues --    0.20847   0.22049   0.22766   0.23169   0.24458

 Mulliken charges:
               1
     1  C   -0.804659
     2  C    0.309010
     3  Cl  -0.331040
     4  H   -0.262153
     5  C    1.012888
     6  H   -0.048652
     7  H   -0.027925
     8  H   -0.038306
     9  N   -0.393090
    10  H   -0.007943
    11  H    0.051361
    12  N   -0.425002
    13  H    0.064533
    14  H    0.016639
    15  C    0.742564
    16  H   -0.083483
    17  H   -0.001950
    18  H   -0.031936
    19  H   -0.740858
 Sum of Mulliken charges =  -1.00000

 Dipole moment (field-independent basis, Debye):
    X=              5.2603    Y=             -5.6561    Z=             -5.8132  Tot=              9.6673

 Test job not archived.
 1\1\GINC-SE366\SP\RHF\Aug-CC-pVDZ\C4H12Cl1N2(1-)\OHZDE\09-Apr-2025\0\\
 #t hf aug-cc-pvdz iop(5/13=1,5/36=2,99/5=2) pseudo=read geom=check gue
 ss=(read,tcheck) scf=(maxcycle=1)\\title\\-1,1\C,0,-0.066983,0.00409,-
 0.028054\C,0,-0.323659,-0.344649,-1.518462\Cl,0,1.793919,-0.18448,0.19
 967\H,0,0.411374,0.214767,-2.111333\C,0,-0.381734,1.456538,0.271837\H,
 0,-0.00434,1.70514,1.264063\H,0,0.072408,2.122675,-0.467309\H,0,-1.469
 355,1.569455,0.275395\N,0,-0.723584,-0.804622,0.936119\H,0,-0.605915,-
 1.785923,0.709392\H,0,-1.755705,-0.5923,0.883583\N,0,-1.661248,0.05187

 Normal termination of Gaussian 16 at Wed Apr  9 02:53:17 2025.
