 Gaussian 16, Revision C.01,

 ----------------------------------------------------------------------
 #t hf aug-cc-pvdz symm=none int=(grid=ultrafine) guess=(read,tcheck) s
 table=(opt,rrhf)
 ----------------------------------------------------------------------
 -----
 title
 -----
 Symbolic Z-matrix:
 Charge = -1 Multiplicity = 1

 SCF Done:  E(RHF) =  -1083.65188018     A.U. after   16 cycles
 Normal termination of Gaussian 16 at Wed Apr  9 02:36:57 2025.
 Gaussian 16:  ES64L-G16RevC.01  3-Jul-2019

 ----------------------------------------------------------------------
 #t hf aug-cc-pvdz iop(5/13=1,5/36=2,99/5=2) pseudo=read geom=check gue
 ss=(read,tcheck) scf=(maxcycle=1)
 ----------------------------------------------------------------------
 -----
 title
 -----
 Structure from the checkpoint file:  "E2SN2_171_mol1.chk"
 Charge = -1 Multiplicity = 1

                         Standard orientation:
 ---------------------------------------------------------------------
 Center     Atomic      Atomic             Coordinates (Angstroms)
 Number     Number       Type             X           Y           Z
 ---------------------------------------------------------------------
      1          6           0        0.599084    0.299029   -0.482873
      2          1           0       -0.362551    1.400995    1.023264
      3         17           0       -0.035276   -1.679560   -1.081863
      4          9           0        1.370081    1.984450   -0.198011
      5          6           0       -0.665247    0.882743    0.117602
      6          1           0        0.891010    0.487625   -1.496480
      7          7           0        1.692595   -0.178434    0.391441
      8          8           0        1.485406   -0.212587    1.598715
      9          8           0        2.735695   -0.492886   -0.166741
     10          7           0       -1.690852   -0.120754    0.608528
     11          8           0       -2.717768   -0.279009   -0.048275
     12          8           0       -1.457899   -0.667038    1.682624
     13          6           0       -1.310168    1.816197   -0.886332
     14          1           0       -0.570194    2.575320   -1.125103
     15          1           0       -1.602437    1.266833   -1.781903
     16          1           0       -2.204557    2.280359   -0.466776
 ---------------------------------------------------------------------

 SCF Done:  E(RHF) =  -1083.85569508     A.U. after    2 cycles

 The electronic state is 1-A.
 Alpha  occ. eigenvalues -- -103.46848 -25.84617 -20.49540 -20.49461 -20.48859
 Alpha  occ. eigenvalues --  -20.48617 -15.79464 -15.78877 -11.29180 -11.21212
 Alpha  occ. eigenvalues --  -11.13164 -10.50155  -8.15814  -8.15640  -8.15630
 Alpha  occ. eigenvalues --   -1.42059  -1.41762  -1.34520  -1.23698  -1.23372
 Alpha  occ. eigenvalues --   -1.03606  -0.95380  -0.90369  -0.83618  -0.75092
 Alpha  occ. eigenvalues --   -0.69645  -0.65765  -0.63805  -0.61863  -0.61196
 Alpha  occ. eigenvalues --   -0.59562  -0.59050  -0.50873  -0.48112  -0.46981
 Alpha  occ. eigenvalues --   -0.45014  -0.43857  -0.42891  -0.41960  -0.39441
 Alpha  occ. eigenvalues --   -0.38496  -0.38062  -0.37039  -0.35011  -0.34200
 Alpha  occ. eigenvalues --   -0.29870  -0.29279  -0.28958
 Alpha virt. eigenvalues --    0.12169   0.13710   0.15072   0.15881   0.16542
 Alpha virt. eigenvalues --    0.18185   0.19871   0.20607   0.21385   0.22290
 Alpha virt. eigenvalues --    0.23026   0.24665   0.25432   0.26098   0.26671

 Mulliken charges:
               1
     1  C    1.244964
     2  H   -0.058514
     3  Cl  -0.562104
     4  F   -0.784049
     5  C    0.436519
     6  H   -0.326786
     7  N    0.628767
     8  O   -0.657501
     9  O   -0.685979
    10  N    0.408278
    11  O   -0.640440
    12  O   -0.616284
    13  C    0.432243
    14  H    0.082831
    15  H    0.117970
    16  H   -0.019916
 Sum of Mulliken charges =  -1.00000

 Dipole moment (field-independent basis, Debye):
    X=             -3.1753    Y=              2.4718    Z=             -1.2603  Tot=              4.2167

 Test job not archived.
 1\1\GINC-SE459\SP\RHF\Aug-CC-pVDZ\C3H5Cl1F1N2O4(1-)\OHZDE\09-Apr-2025\
 0\\#t hf aug-cc-pvdz iop(5/13=1,5/36=2,99/5=2) pseudo=read geom=check
 guess=(read,tcheck) scf=(maxcycle=1)\\title\\-1,1\C,0,0.33436877,-0.03
 031295,0.07415322\H,0,1.52611575,1.59199163,0.67029603\Cl,0,-1.7375208
 2,-0.2456467,0.65460119\F,0,2.0828829,-0.11552812,-0.59790446\C,0,0.55
 699907,1.46482725,0.19587445\H,0,0.09791837,-0.49938458,-0.85979044\N,
 0,0.85175348,-0.95160035,1.1093847\O,0,1.33707067,-0.45951009,2.121274
 43\O,0,0.76495778,-2.14769198,0.86375586\N,0,-0.39097757,2.20334112,1.

 Normal termination of Gaussian 16 at Wed Apr  9 02:37:05 2025.
