 Gaussian 16, Revision C.01,

 ----------------------------------------------------------------------
 #t hf aug-cc-pvdz symm=none int=(grid=ultrafine) guess=(read,tcheck) s
 table=(opt,rrhf)
 ----------------------------------------------------------------------
 -----
 title
 -----
 Symbolic Z-matrix:
 Charge = -1 Multiplicity = 1

 SCF Done:  E(RHF) =  -951.233311734     A.U. after   16 cycles
 Normal termination of Gaussian 16 at Wed Apr  9 02:39:18 2025.
 Gaussian 16:  ES64L-G16RevC.01  3-Jul-2019

 ----------------------------------------------------------------------
 #t hf aug-cc-pvdz iop(5/13=1,5/36=2,99/5=2) pseudo=read geom=check gue
 ss=(read,tcheck) scf=(maxcycle=1)
 ----------------------------------------------------------------------
 -----
 title
 -----
 Structure from the checkpoint file:  "E2SN2_19_mol2.chk"
 Charge = -1 Multiplicity = 1

                         Standard orientation:
 ---------------------------------------------------------------------
 Center     Atomic      Atomic             Coordinates (Angstroms)
 Number     Number       Type             X           Y           Z
 ---------------------------------------------------------------------
      1          6           0       -0.629786    0.431078    0.003791
      2          6           0        0.275167   -0.494877   -0.804236
      3         17           0        0.117603    2.084396    0.171259
      4          1           0       -0.288149   -1.427631   -0.849290
      5          1           0        0.483520   -0.052465   -1.774276
      6          7           0       -1.817775    0.568491   -0.813264
      7          1           0       -2.216560   -0.393894   -0.730566
      8          1           0       -2.443943    1.209310   -0.333865
      9          7           0       -0.785725   -0.124189    1.323542
     10          1           0       -1.417827    0.481762    1.838764
     11          1           0       -1.298659   -1.001796    1.105698
     12          7           0        1.581279   -0.762675   -0.156109
     13          8           0        2.515001   -0.001871   -0.426113
     14          8           0        1.668960   -1.732291    0.594484
     15          9           0       -2.111785   -1.973924   -0.132372
 ---------------------------------------------------------------------

 SCF Done:  E(RHF) =  -951.398145352     A.U. after    2 cycles

 The electronic state is 1-A.
 Alpha  occ. eigenvalues -- -103.51892 -25.77680 -20.48775 -20.48501 -15.77862
 Alpha  occ. eigenvalues --  -15.47166 -15.46953 -11.24468 -11.16556 -10.55301
 Alpha  occ. eigenvalues --   -8.21011  -8.20746  -8.20735  -1.40777  -1.26852
 Alpha  occ. eigenvalues --   -1.22440  -1.11527  -0.98613  -0.96655  -0.94777
 Alpha  occ. eigenvalues --   -0.75417  -0.67357  -0.61715  -0.61209  -0.58777
 Alpha  occ. eigenvalues --   -0.55195  -0.50938  -0.49550  -0.48062  -0.43567
 Alpha  occ. eigenvalues --   -0.40133  -0.38515  -0.38138  -0.36480  -0.36198
 Alpha  occ. eigenvalues --   -0.35201  -0.34496  -0.32608  -0.32244  -0.30397
 Alpha  occ. eigenvalues --   -0.24899
 Alpha virt. eigenvalues --    0.13098   0.14038   0.15364   0.17019   0.18338
 Alpha virt. eigenvalues --    0.19375   0.19594   0.20958   0.22374   0.23458
 Alpha virt. eigenvalues --    0.24774   0.26082   0.26867   0.27080   0.27531

 Mulliken charges:
               1
     1  C    0.193508
     2  C    1.477346
     3  Cl  -0.246979
     4  H   -0.134884
     5  H   -0.045629
     6  N   -0.369250
     7  H    0.163445
     8  H    0.000517
     9  N   -0.388231
    10  H   -0.009035
    11  H    0.172327
    12  N    0.376364
    13  O   -0.625243
    14  O   -0.579123
    15  F   -0.985134
 Sum of Mulliken charges =  -1.00000

 Dipole moment (field-independent basis, Debye):
    X=              0.9036    Y=              4.5631    Z=             -0.4815  Tot=              4.6766

 Test job not archived.
 1\1\GINC-SE114\SP\RHF\Aug-CC-pVDZ\C2H6Cl1F1N3O2(1-)\OHZDE\09-Apr-2025\
 0\\#t hf aug-cc-pvdz iop(5/13=1,5/36=2,99/5=2) pseudo=read geom=check
 guess=(read,tcheck) scf=(maxcycle=1)\\title\\-1,1\C,0,0.044839,0.01011
 8,-1.461314\C,0,-0.016753,-0.001353,0.063585\Cl,0,-1.628401,0.097427,-
 2.177375\H,0,1.031863,-0.031864,0.361673\H,0,-0.555673,0.872998,0.4174
 12\N,0,0.722596,1.24979,-1.780119\H,0,1.685992,1.031796,-1.438944\H,0,
 0.758436,1.324879,-2.792856\N,0,0.654952,-1.218363,-1.900605\H,0,0.722
 414,-1.182442,-2.91369\H,0,1.614721,-1.106608,-1.517062\N,0,-0.701217,

 Normal termination of Gaussian 16 at Wed Apr  9 02:39:25 2025.
