 Gaussian 16, Revision C.01,

 ----------------------------------------------------------------------
 #t hf aug-cc-pvdz symm=none int=(grid=ultrafine) guess=(read,tcheck) s
 table=(opt,rrhf)
 ----------------------------------------------------------------------
 -----
 title
 -----
 Symbolic Z-matrix:
 Charge = -1 Multiplicity = 1

 SCF Done:  E(RHF) =  -915.245902446     A.U. after   15 cycles
 Normal termination of Gaussian 16 at Wed Apr  9 02:47:58 2025.
 Gaussian 16:  ES64L-G16RevC.01  3-Jul-2019

 ----------------------------------------------------------------------
 #t hf aug-cc-pvdz iop(5/13=1,5/36=2,99/5=2) pseudo=read geom=check gue
 ss=(read,tcheck) scf=(maxcycle=1)
 ----------------------------------------------------------------------
 -----
 title
 -----
 Structure from the checkpoint file:  "E2SN2_283_mol2.chk"
 Charge = -1 Multiplicity = 1

                         Standard orientation:
 ---------------------------------------------------------------------
 Center     Atomic      Atomic             Coordinates (Angstroms)
 Number     Number       Type             X           Y           Z
 ---------------------------------------------------------------------
      1          6           0        0.684275   -0.721124   -0.396762
      2          6           0        0.443617    0.810913   -0.325492
      3          9           0        1.708867   -0.952078   -1.323327
      4          1           0        0.028312    1.090512   -1.301099
      5          6           0        1.174238   -1.190339    0.913038
      6          7           0        1.557198   -1.549856    1.963499
      7          6           0       -0.545216   -1.478599   -0.840237
      8          1           0       -0.777117   -1.178722   -1.864382
      9          1           0       -1.416651   -1.239189   -0.227959
     10          1           0       -0.345689   -2.551789   -0.816370
     11          6           0        1.749311    1.484833   -0.188126
     12          7           0        2.782249    2.028781   -0.065009
     13          7           0       -0.466468    1.268903    0.691562
     14          1           0       -0.198220    0.921259    1.604817
     15          1           0       -1.424616    0.966052    0.478312
     16         17           0       -3.493766    0.287746    0.054809
 ---------------------------------------------------------------------

 SCF Done:  E(RHF) =  -915.396039494     A.U. after    2 cycles

 The electronic state is 1-A.
 Alpha  occ. eigenvalues -- -103.38912 -26.04567 -15.57347 -15.55274 -15.50977
 Alpha  occ. eigenvalues --  -11.29670 -11.23685 -11.21565 -11.20114 -11.14828
 Alpha  occ. eigenvalues --  -10.41999  -8.07602  -8.07567  -8.07559  -1.57872
 Alpha  occ. eigenvalues --   -1.12258  -1.09953  -1.07023  -0.98522  -0.87742
 Alpha  occ. eigenvalues --   -0.84162  -0.81465  -0.71416  -0.67536  -0.65571
 Alpha  occ. eigenvalues --   -0.62902  -0.56130  -0.53142  -0.50042  -0.49083
 Alpha  occ. eigenvalues --   -0.47447  -0.46585  -0.45403  -0.44605  -0.39109
 Alpha  occ. eigenvalues --   -0.38212  -0.36554  -0.36259  -0.30497  -0.22356
 Alpha  occ. eigenvalues --   -0.22050  -0.22000
 Alpha virt. eigenvalues --    0.11968   0.13111   0.14807   0.15293   0.16607
 Alpha virt. eigenvalues --    0.17269   0.18210   0.18689   0.19709   0.21511
 Alpha virt. eigenvalues --    0.22075   0.22629   0.23090   0.23570   0.24086

 Mulliken charges:
               1
     1  C   -0.048232
     2  C    0.998579
     3  F   -0.458689
     4  H   -0.074639
     5  C   -0.492406
     6  N   -0.216191
     7  C    0.872857
     8  H   -0.002369
     9  H    0.034504
    10  H   -0.006170
    11  C   -0.122104
    12  N   -0.260078
    13  N   -0.364646
    14  H    0.016382
    15  H    0.046122
    16  Cl  -0.922919
 Sum of Mulliken charges =  -1.00000

 Dipole moment (field-independent basis, Debye):
    X=              6.5522    Y=             -2.8679    Z=             -2.3550  Tot=              7.5301

 Test job not archived.
 1\1\GINC-SE029\SP\RHF\Aug-CC-pVDZ\C5H6Cl1F1N3(1-)\OHZDE\09-Apr-2025\0\
 \#t hf aug-cc-pvdz iop(5/13=1,5/36=2,99/5=2) pseudo=read geom=check gu
 ess=(read,tcheck) scf=(maxcycle=1)\\title\\-1,1\C,0,0.04144,0.017868,-
 0.032553\C,0,-0.455147,-0.020867,-1.502938\F,0,1.369397,-0.427004,-0.0
 16075\H,0,-0.495894,-1.082825,-1.773209\C,0,0.050266,1.417441,0.433192
 \N,0,0.045545,2.535853,0.791678\C,0,-0.775017,-0.870862,0.876097\H,0,-
 0.633984,-1.905052,0.554945\H,0,-1.842818,-0.654218,0.80926\H,0,-0.427
 96,-0.763716,1.905751\C,0,0.563622,0.617285,-2.358945\N,0,1.362159,1.1

 Normal termination of Gaussian 16 at Wed Apr  9 02:48:07 2025.
