 Gaussian 16, Revision C.01,

 ----------------------------------------------------------------------
 #t hf aug-cc-pvdz symm=none int=(grid=ultrafine) guess=(read,tcheck) s
 table=(opt,rrhf)
 ----------------------------------------------------------------------
 -----
 title
 -----
 Symbolic Z-matrix:
 Charge = -1 Multiplicity = 1

 SCF Done:  E(RHF) =  -839.415731496     A.U. after   16 cycles
 Normal termination of Gaussian 16 at Wed Apr  9 02:48:03 2025.
 Gaussian 16:  ES64L-G16RevC.01  3-Jul-2019

 ----------------------------------------------------------------------
 #t hf aug-cc-pvdz iop(5/13=1,5/36=2,99/5=2) pseudo=read geom=check gue
 ss=(read,tcheck) scf=(maxcycle=1)
 ----------------------------------------------------------------------
 -----
 title
 -----
 Structure from the checkpoint file:  "E2SN2_302_mol1.chk"
 Charge = -1 Multiplicity = 1

                         Standard orientation:
 ---------------------------------------------------------------------
 Center     Atomic      Atomic             Coordinates (Angstroms)
 Number     Number       Type             X           Y           Z
 ---------------------------------------------------------------------
      1          6           0       -0.263087   -0.126065   -0.344362
      2          1           0       -1.111841    1.711899   -0.827464
      3         17           0        1.929254   -0.494900   -0.108685
      4          9           0       -2.270758    0.045938   -0.368174
      5          6           0       -0.123177    1.367917   -0.533385
      6          1           0        0.580147    1.501547   -1.363765
      7          6           0       -0.565952   -0.670787    0.968287
      8          7           0       -0.753345   -1.192919    2.005915
      9          7           0       -0.398048   -0.924893   -1.525162
     10          1           0       -1.402596   -1.068838   -1.573467
     11          1           0        0.085789   -1.802378   -1.389022
     12          7           0        0.265223    2.029307    0.704391
     13          1           0        0.164668    3.029618    0.590618
     14          1           0        1.239818    1.821153    0.885049
 ---------------------------------------------------------------------

 SCF Done:  E(RHF) =  -839.541678476     A.U. after    2 cycles

 The electronic state is 1-A.
 Alpha  occ. eigenvalues -- -103.44817 -25.80283 -15.49198 -15.49096 -15.48461
 Alpha  occ. eigenvalues --  -11.27612 -11.15665 -11.14043 -10.48115  -8.13757
 Alpha  occ. eigenvalues --   -8.13618  -8.13601  -1.30212  -1.07825  -1.02448
 Alpha  occ. eigenvalues --   -1.02022  -0.91515  -0.84203  -0.74064  -0.57773
 Alpha  occ. eigenvalues --   -0.55990  -0.54548  -0.49279  -0.45409  -0.43884
 Alpha  occ. eigenvalues --   -0.41905  -0.40655  -0.38787  -0.37190  -0.31600
 Alpha  occ. eigenvalues --   -0.31463  -0.29190  -0.27848  -0.27575  -0.26802
 Alpha  occ. eigenvalues --   -0.25967
 Alpha virt. eigenvalues --    0.12342   0.13848   0.15167   0.15375   0.17355
 Alpha virt. eigenvalues --    0.18031   0.20155   0.21124   0.22000   0.23754
 Alpha virt. eigenvalues --    0.24179   0.24761   0.26176   0.26512   0.27397

 Mulliken charges:
               1
     1  C    0.689114
     2  H    0.018008
     3  Cl  -0.590862
     4  F   -0.850220
     5  C    1.027624
     6  H   -0.051305
     7  C   -0.318190
     8  N   -0.322417
     9  N   -0.533077
    10  H    0.152678
    11  H    0.057707
    12  N   -0.319165
    13  H   -0.017535
    14  H    0.057640
 Sum of Mulliken charges =  -1.00000

 Dipole moment (field-independent basis, Debye):
    X=              2.3950    Y=              2.5616    Z=             -2.7973  Tot=              4.4858

 Test job not archived.
 1\1\GINC-SE070\SP\RHF\Aug-CC-pVDZ\C3H6Cl1F1N3(1-)\OHZDE\09-Apr-2025\0\
 \#t hf aug-cc-pvdz iop(5/13=1,5/36=2,99/5=2) pseudo=read geom=check gu
 ess=(read,tcheck) scf=(maxcycle=1)\\title\\-1,1\C,0,0.56138635,-0.0381
 1358,0.02527082\H,0,1.67240892,1.71411592,0.19020299\Cl,0,-1.67165691,
 -0.1393102,0.06020667\F,0,2.56439108,-0.12973748,-0.17590404\C,0,0.622
 53033,1.47293124,0.04239938\H,0,0.04115787,1.78766014,0.91704507\C,0,0
 .64313511,-0.75796117,-1.23434536\N,0,0.64560477,-1.41034976,-2.213525
 36\N,0,0.73675499,-0.71397491,1.27550535\H,0,1.71591305,-0.98247213,1.

 Normal termination of Gaussian 16 at Wed Apr  9 02:48:09 2025.
