 Gaussian 16, Revision C.01,

 ----------------------------------------------------------------------
 #t hf aug-cc-pvdz symm=none int=(grid=ultrafine) guess=(read,tcheck) s
 table=(opt,rrhf)
 ----------------------------------------------------------------------
 -----
 title
 -----
 Symbolic Z-matrix:
 Charge = -1 Multiplicity = 1

 SCF Done:  E(RHF) =  -740.493554510     A.U. after   16 cycles
 Normal termination of Gaussian 16 at Wed Apr  9 02:36:43 2025.
 Gaussian 16:  ES64L-G16RevC.01  3-Jul-2019

 ----------------------------------------------------------------------
 #t hf aug-cc-pvdz iop(5/13=1,5/36=2,99/5=2) pseudo=read geom=check gue
 ss=(read,tcheck) scf=(maxcycle=1)
 ----------------------------------------------------------------------
 -----
 title
 -----
 Structure from the checkpoint file:  "E2SN2_182_mol2.chk"
 Charge = -1 Multiplicity = 1

                         Standard orientation:
 ---------------------------------------------------------------------
 Center     Atomic      Atomic             Coordinates (Angstroms)
 Number     Number       Type             X           Y           Z
 ---------------------------------------------------------------------
      1          6           0       -0.273878    0.023313    0.345144
      2          6           0        1.039980    0.183865   -0.452467
      3         17           0       -1.064852   -1.553186   -0.032541
      4          1           0        0.803955    0.163227   -1.524959
      5          1           0        0.046030    0.003456    1.408622
      6          6           0       -1.231734    1.084310    0.077616
      7          7           0       -2.040629    1.909568   -0.138031
      8          7           0        2.017719   -0.852397   -0.162973
      9          1           0        2.153937   -0.806648    0.853968
     10          1           0        1.631512   -1.764220   -0.386387
     11          7           0        1.527227    1.495192   -0.068325
     12          1           0        1.713112    1.412215    0.940134
     13          1           0        2.430688    1.610909   -0.517478
     14          1           0        1.586830    0.169739    2.542839
 ---------------------------------------------------------------------

 SCF Done:  E(RHF) =  -740.594813204     A.U. after    2 cycles

 The electronic state is 1-A.
 Alpha  occ. eigenvalues -- -103.54962 -15.52537 -15.47511 -15.47430 -11.20592
 Alpha  occ. eigenvalues --  -11.18716 -11.18015 -10.58265  -8.23984  -8.23709
 Alpha  occ. eigenvalues --   -8.23689  -1.10344  -1.06099  -1.04047  -0.96313
 Alpha  occ. eigenvalues --   -0.86465  -0.71389  -0.60980  -0.54427  -0.53114
 Alpha  occ. eigenvalues --   -0.48936  -0.47796  -0.43860  -0.42700  -0.39905
 Alpha  occ. eigenvalues --   -0.35902  -0.35584  -0.33672  -0.33041  -0.28323
 Alpha  occ. eigenvalues --   -0.26875  -0.10398
 Alpha virt. eigenvalues --    0.12905   0.14036   0.14680   0.16370   0.18792
 Alpha virt. eigenvalues --    0.18922   0.19673   0.20564   0.21908   0.22718
 Alpha virt. eigenvalues --    0.23404   0.24830   0.25144   0.26144   0.27314

 Mulliken charges:
               1
     1  C    0.634935
     2  C    0.275549
     3  Cl  -0.196580
     4  H   -0.180097
     5  H    0.024177
     6  C   -0.269545
     7  N   -0.238578
     8  N   -0.258564
     9  H    0.089514
    10  H    0.014571
    11  N   -0.207355
    12  H    0.108434
    13  H   -0.040925
    14  H   -0.755535
 Sum of Mulliken charges =  -1.00000

 Dipole moment (field-independent basis, Debye):
    X=             -2.2590    Y=             -3.0027    Z=             -7.4138  Tot=              8.3116

 Test job not archived.
 1\1\GINC-SE335\SP\RHF\Aug-CC-pVDZ\C3H7Cl1N3(1-)\OHZDE\09-Apr-2025\0\\#
 t hf aug-cc-pvdz iop(5/13=1,5/36=2,99/5=2) pseudo=read geom=check gues
 s=(read,tcheck) scf=(maxcycle=1)\\title\\-1,1\C,0,-0.346218,-0.159068,
 0.097207\C,0,-0.530034,-0.243392,-1.434878\Cl,0,0.731967,1.217889,0.53
 8954\H,0,0.452092,-0.410688,-1.897279\H,0,-1.36268,0.058554,0.488573\C
 ,0,0.215568,-1.373086,0.667583\N,0,0.696132,-2.327557,1.157389\N,0,-1.
 12569,0.952389,-2.008394\H,0,-2.010507,1.072894,-1.501054\H,0,-0.54026
 5,1.758251,-1.812547\N,0,-1.380866,-1.403037,-1.624249\H,0,-2.262555,-

 Normal termination of Gaussian 16 at Wed Apr  9 02:36:48 2025.
