 Gaussian 16, Revision C.01,

 ----------------------------------------------------------------------
 #t hf aug-cc-pvdz symm=none int=(grid=ultrafine) guess=(read,tcheck) s
 table=(opt,rrhf)
 ----------------------------------------------------------------------
 -----
 title
 -----
 Symbolic Z-matrix:
 Charge = -1 Multiplicity = 1

 SCF Done:  E(RHF) =  -536.073026363     A.U. after   16 cycles
 Normal termination of Gaussian 16 at Wed Apr  9 02:40:44 2025.
 Gaussian 16:  ES64L-G16RevC.01  3-Jul-2019

 ----------------------------------------------------------------------
 #t hf aug-cc-pvdz iop(5/13=1,5/36=2,99/5=2) pseudo=read geom=check gue
 ss=(read,tcheck) scf=(maxcycle=1)
 ----------------------------------------------------------------------
 -----
 title
 -----
 Structure from the checkpoint file:  "E2SN2_222_mol1.chk"
 Charge = -1 Multiplicity = 1

                         Standard orientation:
 ---------------------------------------------------------------------
 Center     Atomic      Atomic             Coordinates (Angstroms)
 Number     Number       Type             X           Y           Z
 ---------------------------------------------------------------------
      1          6           0       -0.155758    0.103207   -0.403923
      2          1           0       -1.088824    0.029221    1.471621
      3          9           0        0.483647    1.813185   -0.500420
      4          9           0       -0.507339   -1.577431   -0.383824
      5          6           0       -1.305792    0.473783    0.493992
      6          1           0       -0.207367    0.141944   -1.474274
      7          1           0       -1.332394    1.554968    0.586918
      8          7           0        1.177424   -0.191555    0.163686
      9          8           0        1.315213   -0.152974    1.383734
     10          8           0        2.066337   -0.483156   -0.627795
     11          7           0       -2.563601   -0.002565   -0.101618
     12          1           0       -3.306538    0.137470    0.573817
     13          1           0       -2.431512   -0.999449   -0.222282
 ---------------------------------------------------------------------

 SCF Done:  E(RHF) =  -536.238080262     A.U. after    2 cycles

 The electronic state is 1-A.
 Alpha  occ. eigenvalues --  -25.86348 -25.81201 -20.45824 -20.45770 -15.76147
 Alpha  occ. eigenvalues --  -15.47570 -11.24721 -11.12773  -1.39408  -1.36282
 Alpha  occ. eigenvalues --   -1.31168  -1.20163  -1.02281  -0.92136  -0.77604
 Alpha  occ. eigenvalues --   -0.67353  -0.61804  -0.58468  -0.57719  -0.54932
 Alpha  occ. eigenvalues --   -0.48812  -0.47776  -0.45905  -0.44938  -0.44021
 Alpha  occ. eigenvalues --   -0.40692  -0.39187  -0.37623  -0.36548  -0.35548
 Alpha  occ. eigenvalues --   -0.34057  -0.31525  -0.26123
 Alpha virt. eigenvalues --    0.12413   0.14959   0.15441   0.16389   0.17836
 Alpha virt. eigenvalues --    0.22809   0.23585   0.24253   0.24884   0.25547
 Alpha virt. eigenvalues --    0.26406   0.28008   0.28888   0.30099   0.30803

 Mulliken charges:
               1
     1  C    1.485655
     2  H    0.054719
     3  F   -0.824252
     4  F   -0.767706
     5  C    0.553950
     6  H   -0.331712
     7  H   -0.048854
     8  N    0.607800
     9  O   -0.697762
    10  O   -0.696555
    11  N   -0.380026
    12  H   -0.039100
    13  H    0.083842
 Sum of Mulliken charges =  -1.00000

 Dipole moment (field-independent basis, Debye):
    X=             -3.8338    Y=             -0.9425    Z=              1.6263  Tot=              4.2698

 Test job not archived.
 1\1\GINC-SE097\SP\RHF\Aug-CC-pVDZ\C2H5F2N2O2(1-)\OHZDE\09-Apr-2025\0\\
 #t hf aug-cc-pvdz iop(5/13=1,5/36=2,99/5=2) pseudo=read geom=check gue
 ss=(read,tcheck) scf=(maxcycle=1)\\title\\-1,1\C,0,0.35484939,0.019600
 73,-0.00784809\H,0,1.23619586,1.80469196,-0.66391748\F,0,-1.21462113,-
 0.05544313,-0.94235566\F,0,1.86787945,-0.1620156,0.78355233\C,0,0.4036
 761,1.52418367,-0.00917001\H,0,-0.15222004,-0.55306641,0.74364965\H,0,
 -0.52616292,1.89607569,-0.42797717\N,0,0.88603726,-0.75152416,-1.15224
 505\O,0,1.39073839,-0.13643431,-2.08815749\O,0,0.80999449,-1.97260538,

 Normal termination of Gaussian 16 at Wed Apr  9 02:40:48 2025.
