 Gaussian 16, Revision C.01,

 ----------------------------------------------------------------------
 #t hf aug-cc-pvdz symm=none int=(grid=ultrafine) guess=(read,tcheck) s
 table=(opt,rrhf)
 ----------------------------------------------------------------------
 -----
 title
 -----
 Symbolic Z-matrix:
 Charge = -1 Multiplicity = 1

 SCF Done:  E(RHF) =  -823.434562223     A.U. after   16 cycles
 Normal termination of Gaussian 16 at Wed Apr  9 02:38:10 2025.
 Gaussian 16:  ES64L-G16RevC.01  3-Jul-2019

 ----------------------------------------------------------------------
 #t hf aug-cc-pvdz iop(5/13=1,5/36=2,99/5=2) pseudo=read geom=check gue
 ss=(read,tcheck) scf=(maxcycle=1)
 ----------------------------------------------------------------------
 -----
 title
 -----
 Structure from the checkpoint file:  "E2SN2_192_mol1.chk"
 Charge = -1 Multiplicity = 1

                         Standard orientation:
 ---------------------------------------------------------------------
 Center     Atomic      Atomic             Coordinates (Angstroms)
 Number     Number       Type             X           Y           Z
 ---------------------------------------------------------------------
      1          6           0        0.428193    0.279219    0.481203
      2          1           0        0.140138   -1.140814   -1.111856
      3          9           0       -1.186547    0.584844    1.610638
      4         17           0        2.413270   -0.296166   -0.362213
      5          6           0       -0.432965   -0.711706   -0.287707
      6          1           0        0.784508   -0.042528    1.439555
      7          6           0        0.485487    1.720810    0.063747
      8          1           0        0.649904    1.807389   -1.011334
      9          1           0       -0.457971    2.184737    0.342505
     10          1           0        1.312226    2.218613    0.569807
     11          6           0       -1.582021   -0.004961   -0.904777
     12          7           0       -2.490016    0.454164   -1.492671
     13          7           0       -0.843916   -1.780463    0.613467
     14          1           0       -1.485806   -2.398704    0.129890
     15          1           0       -1.344308   -1.273532    1.342947
 ---------------------------------------------------------------------

 SCF Done:  E(RHF) =  -823.556894392     A.U. after    2 cycles

 The electronic state is 1-A.
 Alpha  occ. eigenvalues -- -103.43250 -25.80529 -15.51000 -15.48756 -11.21316
 Alpha  occ. eigenvalues --  -11.18908 -11.16441 -11.10377 -10.46548  -8.12184
 Alpha  occ. eigenvalues --   -8.12060  -8.12050  -1.30384  -1.07171  -1.03253
 Alpha  occ. eigenvalues --   -0.94279  -0.87505  -0.81571  -0.70524  -0.58267
 Alpha  occ. eigenvalues --   -0.55200  -0.51900  -0.48319  -0.44148  -0.42996
 Alpha  occ. eigenvalues --   -0.42047  -0.40784  -0.39229  -0.38516  -0.37263
 Alpha  occ. eigenvalues --   -0.33926  -0.32117  -0.28513  -0.26150  -0.26115
 Alpha  occ. eigenvalues --   -0.26047
 Alpha virt. eigenvalues --    0.13039   0.14034   0.14398   0.15825   0.16592
 Alpha virt. eigenvalues --    0.17276   0.18462   0.19185   0.21354   0.22991
 Alpha virt. eigenvalues --    0.23258   0.24493   0.25216   0.26560   0.27462

 Mulliken charges:
               1
     1  C    0.150980
     2  H   -0.046225
     3  F   -0.872932
     4  Cl  -0.665121
     5  C    1.190136
     6  H   -0.300966
     7  C    0.452296
     8  H    0.061576
     9  H    0.081493
    10  H   -0.099663
    11  C   -0.319589
    12  N   -0.299859
    13  N   -0.433786
    14  H   -0.029014
    15  H    0.130675
 Sum of Mulliken charges =  -1.00000

 Dipole moment (field-independent basis, Debye):
    X=             -0.2318    Y=             -0.9431    Z=             -1.0304  Tot=              1.4159

 Test job not archived.
 1\1\GINC-SE364\SP\RHF\Aug-CC-pVDZ\C4H7Cl1F1N2(1-)\OHZDE\09-Apr-2025\0\
 \#t hf aug-cc-pvdz iop(5/13=1,5/36=2,99/5=2) pseudo=read geom=check gu
 ess=(read,tcheck) scf=(maxcycle=1)\\title\\-1,1\C,0,0.61498654,-0.0310
 7623,0.02612507\H,0,1.79207999,1.77217037,0.0339154\F,0,-1.35536619,0.
 27445747,0.05396037\Cl,0,2.73014803,-0.52845305,-0.48539741\C,0,0.7388
 0163,1.48530424,0.02313128\H,0,0.32376213,-0.48717217,-0.89912371\C,0,
 0.57849675,-0.78844709,1.32258018\H,0,1.37684293,-0.45712918,1.9883126
 2\H,0,-0.39337383,-0.61691274,1.77984363\H,0,0.72113941,-1.85189026,1.

 Normal termination of Gaussian 16 at Wed Apr  9 02:38:16 2025.
