 Gaussian 16, Revision C.01,

 ----------------------------------------------------------------------
 #t hf aug-cc-pvdz symm=none int=(grid=ultrafine) guess=(read,tcheck) s
 table=(opt,rrhf)
 ----------------------------------------------------------------------
 -----
 title
 -----
 Symbolic Z-matrix:
 Charge = -1 Multiplicity = 1

 SCF Done:  E(RHF) =  -779.529107916     A.U. after   16 cycles
 Normal termination of Gaussian 16 at Wed Apr  9 02:59:24 2025.
 Gaussian 16:  ES64L-G16RevC.01  3-Jul-2019

 ----------------------------------------------------------------------
 #t hf aug-cc-pvdz iop(5/13=1,5/36=2,99/5=2) pseudo=read geom=check gue
 ss=(read,tcheck) scf=(maxcycle=1)
 ----------------------------------------------------------------------
 -----
 title
 -----
 Structure from the checkpoint file:  "E2SN2_75_mol2.chk"
 Charge = -1 Multiplicity = 1

                         Standard orientation:
 ---------------------------------------------------------------------
 Center     Atomic      Atomic             Coordinates (Angstroms)
 Number     Number       Type             X           Y           Z
 ---------------------------------------------------------------------
      1          6           0        0.357466    0.114868    0.320099
      2          6           0       -1.065096   -0.450362    0.180478
      3         17           0        1.560444   -1.145893   -0.197874
      4          1           0       -1.133274   -1.305107    0.871431
      5          6           0        0.541805    1.266566   -0.564923
      6          7           0        0.702516    2.228058   -1.220673
      7          6           0        0.672662    0.494748    1.759105
      8          1           0        1.689898    0.881593    1.845750
      9          1           0        0.569033   -0.392931    2.386405
     10          1           0       -0.056450    1.237451    2.079129
     11          7           0       -1.367234   -0.816522   -1.194031
     12          1           0       -2.333162   -1.165964   -1.106127
     13          1           0       -0.797065   -1.613629   -1.464352
     14          7           0       -2.004593    0.541402    0.658234
     15          1           0       -2.875780   -0.024178    0.742516
     16          1           0       -2.172817    1.165048   -0.129875
     17          1           0       -3.773770   -1.527581    0.265702
 ---------------------------------------------------------------------

 SCF Done:  E(RHF) =  -779.641875434     A.U. after    2 cycles

 The electronic state is 1-A.
 Alpha  occ. eigenvalues -- -103.56270 -15.54338 -15.47016 -15.46336 -11.24303
 Alpha  occ. eigenvalues --  -11.19470 -11.18018 -11.14858 -10.59593  -8.25304
 Alpha  occ. eigenvalues --   -8.25026  -8.25024  -1.11976  -1.07078  -1.05275
 Alpha  occ. eigenvalues --   -0.95813  -0.92852  -0.80647  -0.72463  -0.57222
 Alpha  occ. eigenvalues --   -0.56465  -0.53121  -0.51901  -0.47911  -0.46019
 Alpha  occ. eigenvalues --   -0.44785  -0.43139  -0.42006  -0.41346  -0.36862
 Alpha  occ. eigenvalues --   -0.36663  -0.34662  -0.34165  -0.27838  -0.27036
 Alpha  occ. eigenvalues --   -0.09508
 Alpha virt. eigenvalues --    0.11564   0.13741   0.14113   0.14637   0.16472
 Alpha virt. eigenvalues --    0.17015   0.18005   0.18229   0.19555   0.20681
 Alpha virt. eigenvalues --    0.21362   0.22313   0.22917   0.24006   0.24419

 Mulliken charges:
               1
     1  C   -0.875012
     2  C    1.194453
     3  Cl  -0.217252
     4  H   -0.137295
     5  C   -0.348631
     6  N   -0.293021
     7  C    0.999966
     8  H   -0.035143
     9  H   -0.012523
    10  H    0.105230
    11  N   -0.392972
    12  H    0.098213
    13  H   -0.009804
    14  N   -0.462950
    15  H    0.118255
    16  H    0.062069
    17  H   -0.793583
 Sum of Mulliken charges =  -1.00000

 Dipole moment (field-independent basis, Debye):
    X=             11.9692    Y=              2.4821    Z=              1.5103  Tot=             12.3168

 Test job not archived.
 1\1\GINC-SE250\SP\RHF\Aug-CC-pVDZ\C4H9Cl1N3(1-)\OHZDE\09-Apr-2025\0\\#
 t hf aug-cc-pvdz iop(5/13=1,5/36=2,99/5=2) pseudo=read geom=check gues
 s=(read,tcheck) scf=(maxcycle=1)\\title\\-1,1\C,0,-0.510787,0.057829,-
 1.576683\C,0,0.193679,-0.027841,-0.213214\Cl,0,-0.255245,-1.495644,-2.
 485744\H,0,1.269256,-0.139686,-0.421246\C,0,-1.955807,0.213267,-1.3994
 56\N,0,-3.111137,0.396473,-1.290134\C,0,0.0452,1.190589,-2.426465\H,0,
 -0.454418,1.231074,-3.396346\H,0,1.113657,1.023502,-2.577131\H,0,-0.09
 0327,2.121365,-1.877908\N,0,-0.33471,-1.111817,0.599459\H,0,0.235077,-

 Normal termination of Gaussian 16 at Wed Apr  9 02:59:32 2025.
