 Gaussian 16, Revision C.01,

 ----------------------------------------------------------------------
 #t hf aug-cc-pvdz symm=none int=(grid=ultrafine) guess=(read,tcheck) s
 table=(opt,rrhf)
 ----------------------------------------------------------------------
 -----
 title
 -----
 Symbolic Z-matrix:
 Charge = -1 Multiplicity = 1

 SCF Done:  E(RHF) =  -821.107410432     A.U. after   15 cycles
 Normal termination of Gaussian 16 at Wed Apr  9 02:42:33 2025.
 Gaussian 16:  ES64L-G16RevC.01  3-Jul-2019

 ----------------------------------------------------------------------
 #t hf aug-cc-pvdz iop(5/13=1,5/36=2,99/5=2) pseudo=read geom=check gue
 ss=(read,tcheck) scf=(maxcycle=1)
 ----------------------------------------------------------------------
 -----
 title
 -----
 Structure from the checkpoint file:  "E2SN2_248_mol2.chk"
 Charge = -1 Multiplicity = 1

                         Standard orientation:
 ---------------------------------------------------------------------
 Center     Atomic      Atomic             Coordinates (Angstroms)
 Number     Number       Type             X           Y           Z
 ---------------------------------------------------------------------
      1          6           0       -0.328941   -0.138488   -0.248306
      2          6           0        0.583333    0.684005    0.650888
      3         17           0        0.097063   -1.905917   -0.290913
      4          1           0        0.173680    1.709017    0.331762
      5          1           0       -0.258005    0.255714   -1.257239
      6          1           0        0.413053    0.455153    1.705691
      7          6           0       -1.714387   -0.020635    0.198330
      8          7           0       -2.816361   -0.059232    0.601427
      9          6           0        1.987175    0.528168    0.325234
     10          7           0        3.132060    0.435888    0.074840
     11          9           0       -0.816864    2.336202   -0.680605
 ---------------------------------------------------------------------

 SCF Done:  E(RHF) =  -821.231055483     A.U. after    2 cycles

 The electronic state is 1-A.
 Alpha  occ. eigenvalues -- -103.55160 -25.76826 -15.52167 -15.52121 -11.23343
 Alpha  occ. eigenvalues --  -11.17892 -11.17826 -11.14821 -10.58471  -8.24186
 Alpha  occ. eigenvalues --   -8.23902  -8.23893  -1.26003  -1.08905  -1.06125
 Alpha  occ. eigenvalues --   -1.04421  -0.93859  -0.81069  -0.61008  -0.56674
 Alpha  occ. eigenvalues --   -0.53847  -0.48241  -0.44945  -0.43317  -0.42478
 Alpha  occ. eigenvalues --   -0.37334  -0.36797  -0.36249  -0.35405  -0.35071
 Alpha  occ. eigenvalues --   -0.34320  -0.32335  -0.32155  -0.29327
 Alpha virt. eigenvalues --    0.13532   0.15114   0.17241   0.17749   0.18436
 Alpha virt. eigenvalues --    0.19513   0.20733   0.22926   0.24034   0.24264
 Alpha virt. eigenvalues --    0.25232   0.25788   0.26691   0.27049   0.27222

 Mulliken charges:
               1
     1  C    0.136955
     2  C    0.420759
     3  Cl  -0.200864
     4  H    0.298888
     5  H    0.075671
     6  H   -0.070683
     7  C   -0.045755
     8  N   -0.276029
     9  C   -0.120945
    10  N   -0.296688
    11  F   -0.921309
 Sum of Mulliken charges =  -1.00000

 Dipole moment (field-independent basis, Debye):
    X=              1.6788    Y=             -5.6109    Z=              1.6893  Tot=              6.0954

 Test job not archived.
 1\1\GINC-SE131\SP\RHF\Aug-CC-pVDZ\C4H3Cl1F1N2(1-)\OHZDE\09-Apr-2025\0\
 \#t hf aug-cc-pvdz iop(5/13=1,5/36=2,99/5=2) pseudo=read geom=check gu
 ess=(read,tcheck) scf=(maxcycle=1)\\title\\-1,1\C,0,-0.034895,0.006976
 ,0.010933\C,0,-0.567744,-0.22062,-1.396746\Cl,0,1.774975,-0.12379,0.13
 0813\H,0,-1.678428,-0.239097,-1.102901\H,0,-0.476582,-0.736936,0.66658
 6\H,0,-0.305431,0.607473,-2.059642\C,0,-0.422398,1.332106,0.48707\N,0,
 -0.598397,2.433034,0.854909\C,0,-0.130374,-1.47822,-1.969685\N,0,0.193
 572,-2.498551,-2.45544\F,0,-2.581112,-0.205012,0.155441\\Version=ES64L

 Normal termination of Gaussian 16 at Wed Apr  9 02:42:38 2025.
