 Gaussian 16, Revision C.01,

 ----------------------------------------------------------------------
 #t hf aug-cc-pvdz symm=none int=(grid=ultrafine) guess=(read,tcheck) s
 table=(opt,rrhf)
 ----------------------------------------------------------------------
 -----
 title
 -----
 Symbolic Z-matrix:
 Charge = -1 Multiplicity = 1

 SCF Done:  E(RHF) =  -823.516436771     A.U. after   14 cycles
 Normal termination of Gaussian 16 at Wed Apr  9 02:38:08 2025.
 Gaussian 16:  ES64L-G16RevC.01  3-Jul-2019

 ----------------------------------------------------------------------
 #t hf aug-cc-pvdz iop(5/13=1,5/36=2,99/5=2) pseudo=read geom=check gue
 ss=(read,tcheck) scf=(maxcycle=1)
 ----------------------------------------------------------------------
 -----
 title
 -----
 Structure from the checkpoint file:  "E2SN2_192_mol2.chk"
 Charge = -1 Multiplicity = 1

                         Standard orientation:
 ---------------------------------------------------------------------
 Center     Atomic      Atomic             Coordinates (Angstroms)
 Number     Number       Type             X           Y           Z
 ---------------------------------------------------------------------
      1          6           0       -0.331260    0.899592    0.295326
      2          6           0       -0.361744   -0.573572   -0.103735
      3          9           0       -1.209810    1.064719    1.387879
      4          1           0        0.326008   -0.680073   -0.948031
      5          1           0        0.678833    1.103503    0.651285
      6          6           0       -0.736201    1.854410   -0.799161
      7          1           0       -0.029189    1.770938   -1.627312
      8          1           0       -0.711719    2.880313   -0.425251
      9          1           0       -1.745753    1.635045   -1.155072
     10          6           0       -1.720003   -0.946861   -0.539008
     11          7           0       -2.805977   -1.216456   -0.894909
     12          7           0        0.101495   -1.482751    0.936435
     13          1           0        1.116723   -1.388839    0.929926
     14          1           0       -0.243114   -1.141666    1.827182
     15         17           0        2.901360   -0.133450   -0.303227
 ---------------------------------------------------------------------

 SCF Done:  E(RHF) =  -823.642534694     A.U. after    2 cycles

 The electronic state is 1-A.
 Alpha  occ. eigenvalues -- -103.38195 -25.99354 -15.52733 -15.49232 -11.20991
 Alpha  occ. eigenvalues --  -11.18827 -11.17860 -11.12989 -10.41265  -8.06861
 Alpha  occ. eigenvalues --   -8.06839  -8.06834  -1.52381  -1.08222  -1.04491
 Alpha  occ. eigenvalues --   -0.94151  -0.83466  -0.83077  -0.75483  -0.64572
 Alpha  occ. eigenvalues --   -0.62754  -0.60635  -0.56093  -0.51375  -0.49489
 Alpha  occ. eigenvalues --   -0.45642  -0.44831  -0.43815  -0.42672  -0.39898
 Alpha  occ. eigenvalues --   -0.34319  -0.33892  -0.28840  -0.21536  -0.21357
 Alpha  occ. eigenvalues --   -0.21280
 Alpha virt. eigenvalues --    0.12222   0.13794   0.14476   0.15261   0.16345
 Alpha virt. eigenvalues --    0.17429   0.18033   0.19207   0.21373   0.22630
 Alpha virt. eigenvalues --    0.23507   0.24501   0.24841   0.25796   0.26038

 Mulliken charges:
               1
     1  C    0.533669
     2  C    0.655248
     3  F   -0.517168
     4  H   -0.088822
     5  H   -0.112962
     6  C    0.295967
     7  H    0.070573
     8  H   -0.028936
     9  H   -0.034916
    10  C   -0.273945
    11  N   -0.283646
    12  N   -0.394931
    13  H    0.094302
    14  H    0.033607
    15  Cl  -0.948040
 Sum of Mulliken charges =  -1.00000

 Dipole moment (field-independent basis, Debye):
    X=             -5.4378    Y=              3.0005    Z=              0.9651  Tot=              6.2853

 Test job not archived.
 1\1\GINC-SE249\SP\RHF\Aug-CC-pVDZ\C4H7Cl1F1N2(1-)\OHZDE\09-Apr-2025\0\
 \#t hf aug-cc-pvdz iop(5/13=1,5/36=2,99/5=2) pseudo=read geom=check gu
 ess=(read,tcheck) scf=(maxcycle=1)\\title\\-1,1\C,0,-0.124645,-0.08833
 2,0.018542\C,0,-0.552749,-0.014557,-1.444904\F,0,1.251362,0.221374,0.0
 77477\H,0,-1.61999,-0.254658,-1.467916\H,0,-0.663057,0.703785,0.539347
 \C,0,-0.34649,-1.429914,0.670079\H,0,-1.415569,-1.652843,0.676456\H,0,
 0.007964,-1.404678,1.702848\H,0,0.189357,-2.217473,0.134722\C,0,0.1839
 04,-1.018892,-2.233782\N,0,0.772107,-1.835906,-2.838092\N,0,-0.403108,

 Normal termination of Gaussian 16 at Wed Apr  9 02:38:15 2025.
