 Gaussian 16, Revision C.01,

 ----------------------------------------------------------------------
 #t hf aug-cc-pvdz symm=none int=(grid=ultrafine) guess=(read,tcheck) s
 table=(opt,rrhf)
 ----------------------------------------------------------------------
 -----
 title
 -----
 Symbolic Z-matrix:
 Charge = -1 Multiplicity = 1

 SCF Done:  E(RHF) =  -611.864105933     A.U. after   16 cycles
 Normal termination of Gaussian 16 at Wed Apr  9 02:41:16 2025.
 Gaussian 16:  ES64L-G16RevC.01  3-Jul-2019

 ----------------------------------------------------------------------
 #t hf aug-cc-pvdz iop(5/13=1,5/36=2,99/5=2) pseudo=read geom=check gue
 ss=(read,tcheck) scf=(maxcycle=1)
 ----------------------------------------------------------------------
 -----
 title
 -----
 Structure from the checkpoint file:  "E2SN2_231_mol2.chk"
 Charge = -1 Multiplicity = 1

                         Standard orientation:
 ---------------------------------------------------------------------
 Center     Atomic      Atomic             Coordinates (Angstroms)
 Number     Number       Type             X           Y           Z
 ---------------------------------------------------------------------
      1          6           0        0.019168   -0.437809    0.222874
      2          6           0       -0.896109    0.315796   -0.709367
      3          9           0       -0.158764   -1.819648    0.111810
      4          1           0       -0.702890    0.015233   -1.739488
      5          1           0       -0.519950    1.396927   -0.526726
      6          7           0        1.453144   -0.251731   -0.281234
      7          8           0        1.619948   -0.261824   -1.496791
      8          8           0        2.353415   -0.236356    0.549882
      9          6           0       -0.087110   -0.005424    1.653142
     10          1           0       -1.109363   -0.183186    1.994048
     11          1           0        0.611257   -0.564302    2.273842
     12          1           0        0.145415    1.062661    1.638311
     13          6           0       -2.287711    0.101263   -0.373142
     14          7           0       -3.423900   -0.048493   -0.108669
     15          9           0        0.502596    2.321504    0.099697
 ---------------------------------------------------------------------

 SCF Done:  E(RHF) =  -612.052672702     A.U. after    2 cycles

 The electronic state is 1-A.
 Alpha  occ. eigenvalues --  -26.01973 -25.77168 -20.49716 -20.49532 -15.78801
 Alpha  occ. eigenvalues --  -15.52023 -11.28351 -11.17862 -11.13412 -11.11070
 Alpha  occ. eigenvalues --   -1.55476  -1.41832  -1.26457  -1.23832  -1.06519
 Alpha  occ. eigenvalues --   -1.00883  -0.87459  -0.83984  -0.72775  -0.68081
 Alpha  occ. eigenvalues --   -0.65071  -0.63289  -0.61193  -0.57759  -0.56136
 Alpha  occ. eigenvalues --   -0.54418  -0.48391  -0.46325  -0.44407  -0.43027
 Alpha  occ. eigenvalues --   -0.41586  -0.38868  -0.37797  -0.36580  -0.36252
 Alpha  occ. eigenvalues --   -0.35328  -0.34747  -0.33128  -0.29365
 Alpha virt. eigenvalues --    0.13177   0.13923   0.15518   0.16771   0.17935
 Alpha virt. eigenvalues --    0.18823   0.19353   0.19909   0.22600   0.23608
 Alpha virt. eigenvalues --    0.24551   0.24799   0.25079   0.25665   0.26355

 Mulliken charges:
               1
     1  C    0.114967
     2  C    0.488414
     3  F   -0.511863
     4  H    0.061902
     5  H    0.304044
     6  N    0.499784
     7  O   -0.651272
     8  O   -0.641844
     9  C    0.445067
    10  H   -0.000364
    11  H    0.050460
    12  H    0.199207
    13  C   -0.072902
    14  N   -0.339420
    15  F   -0.946180
 Sum of Mulliken charges =  -1.00000

 Dipole moment (field-independent basis, Debye):
    X=             -0.3316    Y=             -4.9099    Z=              0.6737  Tot=              4.9670

 Test job not archived.
 1\1\GINC-SE459\SP\RHF\Aug-CC-pVDZ\C4H5F2N2O2(1-)\OHZDE\09-Apr-2025\0\\
 #t hf aug-cc-pvdz iop(5/13=1,5/36=2,99/5=2) pseudo=read geom=check gue
 ss=(read,tcheck) scf=(maxcycle=1)\\title\\-1,1\C,0,-0.024157,-0.008832
 ,0.002717\C,0,-0.630754,0.06311,-1.376265\F,0,1.370565,0.068407,-0.044
 791\H,0,-0.343779,0.998407,-1.857604\H,0,-1.755926,0.080626,-1.098092\
 N,0,-0.397377,1.278497,0.743345\O,0,-0.39163,2.316713,0.08945\O,0,-0.5
 48797,1.215559,1.957671\C,0,-0.459747,-1.205171,0.79199\H,0,-0.148724,
 -2.105288,0.257322\H,0,-0.011495,-1.191903,1.784071\H,0,-1.549274,-1.1

 Normal termination of Gaussian 16 at Wed Apr  9 02:41:23 2025.
