 Gaussian 16, Revision C.01,

 ----------------------------------------------------------------------
 #t hf aug-cc-pvdz symm=none int=(grid=ultrafine) guess=(read,tcheck) s
 table=(opt,rrhf)
 ----------------------------------------------------------------------
 -----
 title
 -----
 Symbolic Z-matrix:
 Charge = -1 Multiplicity = 1

 SCF Done:  E(RHF) =  -627.866092699     A.U. after   16 cycles
 Normal termination of Gaussian 16 at Wed Apr  9 02:40:09 2025.
 Gaussian 16:  ES64L-G16RevC.01  3-Jul-2019

 ----------------------------------------------------------------------
 #t hf aug-cc-pvdz iop(5/13=1,5/36=2,99/5=2) pseudo=read geom=check gue
 ss=(read,tcheck) scf=(maxcycle=1)
 ----------------------------------------------------------------------
 -----
 title
 -----
 Structure from the checkpoint file:  "E2SN2_218_mol2.chk"
 Charge = -1 Multiplicity = 1

                         Standard orientation:
 ---------------------------------------------------------------------
 Center     Atomic      Atomic             Coordinates (Angstroms)
 Number     Number       Type             X           Y           Z
 ---------------------------------------------------------------------
      1          6           0        0.221751   -0.525422    0.487358
      2          6           0        0.457360    0.970956    0.220756
      3          9           0       -0.283218   -0.697905    1.748493
      4          1           0        1.004119    1.279762    1.116872
      5          1           0        1.226888   -0.987506    0.366281
      6          7           0       -0.776090   -1.097423   -0.469998
      7          8           0       -0.486496   -0.997271   -1.663402
      8          8           0       -1.796055   -1.622288   -0.034233
      9          6           0       -0.820026    1.701370    0.181465
     10          7           0       -1.847062    2.269471    0.139949
     11          7           0        1.304854    1.272694   -0.915006
     12          1           0        0.874005    0.864995   -1.737342
     13          1           0        2.142336    0.691499   -0.686448
     14          9           0        2.848399   -0.511750    0.240354
 ---------------------------------------------------------------------

 SCF Done:  E(RHF) =  -628.057909950     A.U. after    2 cycles

 The electronic state is 1-A.
 Alpha  occ. eigenvalues --  -26.02577 -25.78226 -20.51805 -20.51135 -15.80631
 Alpha  occ. eigenvalues --  -15.53745 -15.47796 -11.26485 -11.20787 -11.18598
 Alpha  occ. eigenvalues --   -1.56547  -1.43626  -1.27360  -1.25525  -1.08993
 Alpha  occ. eigenvalues --   -1.04953  -0.96331  -0.84321  -0.76037  -0.69951
 Alpha  occ. eigenvalues --   -0.67356  -0.65914  -0.62000  -0.61131  -0.59616
 Alpha  occ. eigenvalues --   -0.55560  -0.49437  -0.47423  -0.46256  -0.43416
 Alpha  occ. eigenvalues --   -0.41432  -0.41152  -0.37300  -0.37197  -0.36546
 Alpha  occ. eigenvalues --   -0.35138  -0.34755  -0.34217  -0.27914
 Alpha virt. eigenvalues --    0.13779   0.15031   0.16018   0.17384   0.18604
 Alpha virt. eigenvalues --    0.19130   0.21126   0.22140   0.22398   0.23044
 Alpha virt. eigenvalues --    0.24640   0.25378   0.26281   0.26666   0.27330

 Mulliken charges:
               1
     1  C    1.215596
     2  C    0.761218
     3  F   -0.338301
     4  H   -0.024126
     5  H   -0.059137
     6  N    0.410256
     7  O   -0.647261
     8  O   -0.579186
     9  C   -0.285228
    10  N   -0.247909
    11  N   -0.497157
    12  H    0.069090
    13  H    0.158558
    14  F   -0.936411
 Sum of Mulliken charges =  -1.00000

 Dipole moment (field-independent basis, Debye):
    X=             -3.2211    Y=             -0.1397    Z=              0.1626  Tot=              3.2282

 Test job not archived.
 1\1\GINC-SE073\SP\RHF\Aug-CC-pVDZ\C3H4F2N3O2(1-)\OHZDE\09-Apr-2025\0\\
 #t hf aug-cc-pvdz iop(5/13=1,5/36=2,99/5=2) pseudo=read geom=check gue
 ss=(read,tcheck) scf=(maxcycle=1)\\title\\-1,1\C,0,-0.309917,0.075331,
 0.06318\C,0,-0.415989,-0.114553,-1.459459\F,0,0.545217,-0.856458,0.588
 27\H,0,-0.59963,-1.189961,-1.543736\H,0,-1.353052,-0.052674,0.429194\N
 ,0,0.241742,1.423618,0.405522\O,0,-0.399409,2.385045,-0.021902\O,0,1.2
 67609,1.502207,1.074195\C,0,0.866861,0.190114,-2.113857\N,0,1.892538,0
 .448587,-2.624194\N,0,-1.534713,0.5549,-2.091547\H,0,-1.449308,1.54649

 Normal termination of Gaussian 16 at Wed Apr  9 02:40:15 2025.
