 Gaussian 16, Revision C.01,

 ----------------------------------------------------------------------
 #t hf aug-cc-pvdz symm=none int=(grid=ultrafine) guess=(read,tcheck) s
 table=(opt,rrhf)
 ----------------------------------------------------------------------
 -----
 title
 -----
 Symbolic Z-matrix:
 Charge = -1 Multiplicity = 1

 SCF Done:  E(RHF) =  -823.435544197     A.U. after   16 cycles
 Normal termination of Gaussian 16 at Wed Apr  9 02:51:17 2025.
 Gaussian 16:  ES64L-G16RevC.01  3-Jul-2019

 ----------------------------------------------------------------------
 #t hf aug-cc-pvdz iop(5/13=1,5/36=2,99/5=2) pseudo=read geom=check gue
 ss=(read,tcheck) scf=(maxcycle=1)
 ----------------------------------------------------------------------
 -----
 title
 -----
 Structure from the checkpoint file:  "E2SN2_327_mol1.chk"
 Charge = -1 Multiplicity = 1

                         Standard orientation:
 ---------------------------------------------------------------------
 Center     Atomic      Atomic             Coordinates (Angstroms)
 Number     Number       Type             X           Y           Z
 ---------------------------------------------------------------------
      1          6           0        0.419092    0.433621   -0.350526
      2          1           0        0.022503   -0.718883    1.413508
      3          9           0       -1.142339    1.383195   -1.157621
      4         17           0        2.131499   -0.945620    0.011894
      5          6           0       -0.549120   -0.188071    0.650663
      6          1           0        0.415287    0.091587   -1.364912
      7          6           0        1.118604    1.705153    0.033881
      8          1           0        0.397389    2.516193   -0.016384
      9          1           0        1.526066    1.629303    1.041989
     10          1           0        1.940335    1.892672   -0.657799
     11          6           0       -1.382473   -1.194111   -0.041917
     12          7           0       -2.099282   -2.001327   -0.505177
     13          7           0       -1.339488    0.848792    1.310266
     14          1           0       -2.046764    0.404612    1.884348
     15          1           0       -1.774473    1.339490    0.527409
 ---------------------------------------------------------------------

 SCF Done:  E(RHF) =  -823.558016811     A.U. after    2 cycles

 The electronic state is 1-A.
 Alpha  occ. eigenvalues -- -103.43454 -25.80436 -15.50986 -15.48646 -11.21351
 Alpha  occ. eigenvalues --  -11.18942 -11.16222 -11.10422 -10.46753  -8.12389
 Alpha  occ. eigenvalues --   -8.12264  -8.12255  -1.30265  -1.07088  -1.03144
 Alpha  occ. eigenvalues --   -0.94209  -0.87191  -0.82794  -0.68650  -0.59921
 Alpha  occ. eigenvalues --   -0.57177  -0.48803  -0.46313  -0.45585  -0.44929
 Alpha  occ. eigenvalues --   -0.42037  -0.39821  -0.39278  -0.38308  -0.37616
 Alpha  occ. eigenvalues --   -0.33551  -0.32083  -0.28494  -0.26356  -0.26274
 Alpha  occ. eigenvalues --   -0.26227
 Alpha virt. eigenvalues --    0.12747   0.13728   0.14573   0.15463   0.16915
 Alpha virt. eigenvalues --    0.17071   0.18456   0.19281   0.21383   0.22894
 Alpha virt. eigenvalues --    0.22989   0.24473   0.25061   0.26128   0.27310

 Mulliken charges:
               1
     1  C    0.096509
     2  H   -0.054026
     3  F   -0.875257
     4  Cl  -0.672712
     5  C    1.251230
     6  H   -0.446166
     7  C    0.584634
     8  H    0.064754
     9  H    0.032799
    10  H   -0.049855
    11  C   -0.341432
    12  N   -0.273600
    13  N   -0.435240
    14  H   -0.046121
    15  H    0.164482
 Sum of Mulliken charges =  -1.00000

 Dipole moment (field-independent basis, Debye):
    X=              0.1456    Y=              1.8951    Z=              3.5449  Tot=              4.0223

 Test job not archived.
 1\1\GINC-SE090\SP\RHF\Aug-CC-pVDZ\C4H7Cl1F1N2(1-)\OHZDE\09-Apr-2025\0\
 \#t hf aug-cc-pvdz iop(5/13=1,5/36=2,99/5=2) pseudo=read geom=check gu
 ess=(read,tcheck) scf=(maxcycle=1)\\title\\-1,1\C,0,0.68064321,-0.0155
 5501,-0.07836015\H,0,1.65841738,1.8810437,-0.28868067\F,0,-1.31616063,
 0.0185132,-0.02570197\Cl,0,2.83211613,-0.24861448,0.45346568\C,0,0.649
 1439,1.50909991,-0.10572716\H,0,0.44555841,-0.52830951,0.83147389\C,0,
 0.73130805,-0.74827843,-1.38772265\H,0,-0.24973164,-0.68256163,-1.8500
 0715\H,0,1.48364309,-0.31034345,-2.04366844\H,0,0.99196244,-1.79222397

 Normal termination of Gaussian 16 at Wed Apr  9 02:51:23 2025.
