 Gaussian 16, Revision C.01,

 ----------------------------------------------------------------------
 #t hf aug-cc-pvdz symm=none int=(grid=ultrafine) guess=(read,tcheck) s
 table=(opt,rrhf)
 ----------------------------------------------------------------------
 -----
 title
 -----
 Symbolic Z-matrix:
 Charge = -1 Multiplicity = 1

 SCF Done:  E(RHF) =  -572.775586027     A.U. after   16 cycles
 Normal termination of Gaussian 16 at Wed Apr  9 02:35:40 2025.
 Gaussian 16:  ES64L-G16RevC.01  3-Jul-2019

 ----------------------------------------------------------------------
 #t hf aug-cc-pvdz iop(5/13=1,5/36=2,99/5=2) pseudo=read geom=check gue
 ss=(read,tcheck) scf=(maxcycle=1)
 ----------------------------------------------------------------------
 -----
 title
 -----
 Structure from the checkpoint file:  "E2SN2_165_mol1.chk"
 Charge = -1 Multiplicity = 1

                         Standard orientation:
 ---------------------------------------------------------------------
 Center     Atomic      Atomic             Coordinates (Angstroms)
 Number     Number       Type             X           Y           Z
 ---------------------------------------------------------------------
      1          6           0        1.250566   -0.289022    0.521837
      2          1           0        0.541099   -0.012432   -1.469617
      3          9           0        0.071120   -0.135020    1.829176
      4          9           0        2.469676   -0.393351   -0.764274
      5          6           0        0.187042    0.151649   -0.450817
      6          1           0        1.359740   -1.338445    0.714705
      7          1           0        1.866352    0.441307    1.009690
      8          6           0       -0.179049    1.552188   -0.264311
      9          7           0       -0.411273    2.700415   -0.196190
     10          7           0       -1.045692   -0.711983   -0.319296
     11          8           0       -2.145526   -0.172312   -0.274195
     12          8           0       -0.852844   -1.920563   -0.359648
 ---------------------------------------------------------------------

 SCF Done:  E(RHF) =  -572.948693610     A.U. after    2 cycles

 The electronic state is 1-A.
 Alpha  occ. eigenvalues --  -25.83786 -25.83567 -20.50274 -20.49931 -15.79952
 Alpha  occ. eigenvalues --  -15.53277 -11.22960 -11.21312 -11.18633  -1.42849
 Alpha  occ. eigenvalues --   -1.34266  -1.33646  -1.24568  -1.07532  -1.00061
 Alpha  occ. eigenvalues --   -0.82117  -0.74910  -0.67003  -0.63445  -0.61662
 Alpha  occ. eigenvalues --   -0.57582  -0.52099  -0.50896  -0.47330  -0.44415
 Alpha  occ. eigenvalues --   -0.43832  -0.42667  -0.41629  -0.40150  -0.39467
 Alpha  occ. eigenvalues --   -0.38450  -0.36137  -0.35631  -0.34258  -0.33899
 Alpha virt. eigenvalues --    0.14105   0.15278   0.15763   0.18430   0.20304
 Alpha virt. eigenvalues --    0.21589   0.22506   0.23607   0.24024   0.24876
 Alpha virt. eigenvalues --    0.25315   0.26223   0.27434   0.27734   0.29697

 Mulliken charges:
               1
     1  C    1.101086
     2  H   -0.002944
     3  F   -0.800851
     4  F   -0.827116
     5  C    1.174521
     6  H   -0.134179
     7  H   -0.222471
     8  C   -0.304782
     9  N   -0.247331
    10  N    0.527813
    11  O   -0.638751
    12  O   -0.624995
 Sum of Mulliken charges =  -1.00000

 Dipole moment (field-independent basis, Debye):
    X=             -0.9367    Y=             -0.6007    Z=             -2.0011  Tot=              2.2896

 Test job not archived.
 1\1\GINC-SE016\SP\RHF\Aug-CC-pVDZ\C3H3F2N2O2(1-)\OHZDE\09-Apr-2025\0\\
 #t hf aug-cc-pvdz iop(5/13=1,5/36=2,99/5=2) pseudo=read geom=check gue
 ss=(read,tcheck) scf=(maxcycle=1)\\title\\-1,1\C,0,0.57717222,-0.06923
 095,0.02198869\H,0,1.75087114,1.69848944,-0.18616609\F,0,-1.17903985,0
 .11167811,-0.06129548\F,0,2.33430874,-0.27551302,0.16729332\C,0,0.7052
 1939,1.43164433,-0.02604945\H,0,0.58713619,-0.61019336,-0.90411492\H,0
 ,0.46742936,-0.56774589,0.96539232\C,0,0.20502738,2.063033,1.1911085\N
 ,0,-0.09710241,2.57866882,2.20097495\N,0,-0.03054995,1.99087484,-1.221

 Normal termination of Gaussian 16 at Wed Apr  9 02:35:46 2025.
