 Gaussian 16, Revision C.01,

 ----------------------------------------------------------------------
 #t hf aug-cc-pvdz symm=none int=(grid=ultrafine) guess=(read,tcheck) s
 table=(opt,rrhf)
 ----------------------------------------------------------------------
 -----
 title
 -----
 Symbolic Z-matrix:
 Charge = -1 Multiplicity = 1

 SCF Done:  E(RHF) =  -1083.65127804     A.U. after   16 cycles
 Normal termination of Gaussian 16 at Wed Apr  9 02:39:07 2025.
 Gaussian 16:  ES64L-G16RevC.01  3-Jul-2019

 ----------------------------------------------------------------------
 #t hf aug-cc-pvdz iop(5/13=1,5/36=2,99/5=2) pseudo=read geom=check gue
 ss=(read,tcheck) scf=(maxcycle=1)
 ----------------------------------------------------------------------
 -----
 title
 -----
 Structure from the checkpoint file:  "E2SN2_185_mol1.chk"
 Charge = -1 Multiplicity = 1

                         Standard orientation:
 ---------------------------------------------------------------------
 Center     Atomic      Atomic             Coordinates (Angstroms)
 Number     Number       Type             X           Y           Z
 ---------------------------------------------------------------------
      1          6           0       -0.665071    1.013624    0.062814
      2          1           0        0.731227    0.468995   -1.444180
      3         17           0       -1.952807   -0.430925    1.134151
      4          9           0        0.622401    2.350713   -0.462324
      5          6           0        0.419851    0.117332   -0.467999
      6          1           0       -0.497298    1.472566    1.014846
      7          6           0       -1.717379    1.495094   -0.897342
      8          1           0       -1.246110    2.179081   -1.600273
      9          1           0       -2.172796    0.656300   -1.422695
     10          1           0       -2.500391    2.013127   -0.344380
     11          7           0        0.072406   -1.340880   -0.672125
     12          8           0        0.571198   -2.186818    0.057867
     13          8           0       -0.666395   -1.551916   -1.628093
     14          7           0        1.645086    0.141357    0.386181
     15          8           0        2.695941   -0.099829   -0.204685
     16          8           0        1.528584    0.341013    1.586636
 ---------------------------------------------------------------------

 SCF Done:  E(RHF) =  -1083.85453091     A.U. after    2 cycles

 The electronic state is 1-A.
 Alpha  occ. eigenvalues -- -103.44604 -25.83070 -20.51998 -20.51499 -20.51262
 Alpha  occ. eigenvalues --  -20.50763 -15.81598 -15.80819 -11.26903 -11.24190
 Alpha  occ. eigenvalues --  -11.12327 -10.47928  -8.13574  -8.13436  -8.13421
 Alpha  occ. eigenvalues --   -1.44946  -1.43017  -1.33068  -1.26284  -1.25350
 Alpha  occ. eigenvalues --   -1.05223  -0.94502  -0.88511  -0.84027  -0.76837
 Alpha  occ. eigenvalues --   -0.71378  -0.68186  -0.66137  -0.63172  -0.62291
 Alpha  occ. eigenvalues --   -0.61606  -0.58354  -0.51086  -0.48830  -0.48143
 Alpha  occ. eigenvalues --   -0.44694  -0.43427  -0.42384  -0.41074  -0.40373
 Alpha  occ. eigenvalues --   -0.39938  -0.39568  -0.38373  -0.37182  -0.35599
 Alpha  occ. eigenvalues --   -0.28319  -0.27342  -0.27252
 Alpha virt. eigenvalues --    0.13072   0.14062   0.15291   0.15904   0.16674
 Alpha virt. eigenvalues --    0.18010   0.18791   0.20435   0.21468   0.22708
 Alpha virt. eigenvalues --    0.23046   0.24838   0.25183   0.25807   0.26197

 Mulliken charges:
               1
     1  C   -0.108217
     2  H   -0.101937
     3  Cl  -0.647596
     4  F   -0.831592
     5  C    1.932498
     6  H   -0.266486
     7  C    0.576375
     8  H    0.040720
     9  H    0.065973
    10  H   -0.035595
    11  N    0.400373
    12  O   -0.601818
    13  O   -0.640316
    14  N    0.460425
    15  O   -0.652824
    16  O   -0.589982
 Sum of Mulliken charges =  -1.00000

 Dipole moment (field-independent basis, Debye):
    X=             -0.7766    Y=             -0.1183    Z=             -2.6158  Tot=              2.7312

 Test job not archived.
 1\1\GINC-SE090\SP\RHF\Aug-CC-pVDZ\C3H5Cl1F1N2O4(1-)\OHZDE\09-Apr-2025\
 0\\#t hf aug-cc-pvdz iop(5/13=1,5/36=2,99/5=2) pseudo=read geom=check
 guess=(read,tcheck) scf=(maxcycle=1)\\title\\-1,1\C,0,0.33535128,-0.08
 173681,0.1169656\H,0,1.61364626,1.55030057,0.58570421\Cl,0,-1.81368417
 ,-0.15633791,0.63545455\F,0,2.05550199,-0.03839765,-0.7550224\C,0,0.61
 528446,1.39394995,0.19534701\H,0,0.0532095,-0.47538443,-0.83727576\C,0
 ,0.81000777,-0.952525,1.24722915\H,0,1.89768838,-0.97372337,1.22386092
 \H,0,0.45269074,-0.57192288,2.20349464\H,0,0.41669175,-1.96015669,1.11

 Normal termination of Gaussian 16 at Wed Apr  9 02:39:17 2025.
