 Gaussian 16, Revision C.01,

 ----------------------------------------------------------------------
 #t hf aug-cc-pvdz symm=none int=(grid=ultrafine) guess=(read,tcheck) s
 table=(opt,rrhf)
 ----------------------------------------------------------------------
 -----
 title
 -----
 Symbolic Z-matrix:
 Charge = -1 Multiplicity = 1

 SCF Done:  E(RHF) =  -761.112297981     A.U. after   17 cycles
 Normal termination of Gaussian 16 at Wed Apr  9 02:58:58 2025.
 Gaussian 16:  ES64L-G16RevC.01  3-Jul-2019

 ----------------------------------------------------------------------
 #t hf aug-cc-pvdz iop(5/13=1,5/36=2,99/5=2) pseudo=read geom=check gue
 ss=(read,tcheck) scf=(maxcycle=1)
 ----------------------------------------------------------------------
 -----
 title
 -----
 Structure from the checkpoint file:  "E2SN2_67_mol1.chk"
 Charge = -1 Multiplicity = 1

                         Standard orientation:
 ---------------------------------------------------------------------
 Center     Atomic      Atomic             Coordinates (Angstroms)
 Number     Number       Type             X           Y           Z
 ---------------------------------------------------------------------
      1          6           0        0.066130   -0.205254   -0.134821
      2          6           0       -1.063472   -0.954391   -0.649010
      3         17           0       -0.134554    0.549196    1.566002
      4          1           0       -0.610617    0.446658   -2.384301
      5          1           0       -0.878875   -0.390073   -1.939455
      6          6           0        1.257605   -1.033188   -0.065949
      7          7           0        2.218424   -1.713018   -0.046848
      8          6           0        0.435862    1.091817   -1.015610
      9          7           0        1.141741    2.050609   -1.025064
     10          6           0       -2.432816   -0.398479   -0.352767
     11          1           0       -2.484343    0.639300   -0.708858
     12          1           0       -3.199529   -0.970707   -0.886120
     13          1           0       -2.684630   -0.391600    0.713557
     14          1           0       -0.955598   -2.036079   -0.604523
 ---------------------------------------------------------------------

 SCF Done:  E(RHF) =  -761.217517519     A.U. after    2 cycles

 The electronic state is 1-A.
 Alpha  occ. eigenvalues -- -103.52669 -15.52331 -15.46529 -11.24043 -11.17929
 Alpha  occ. eigenvalues --  -11.14795 -11.10265 -11.08057 -10.55933  -8.21632
 Alpha  occ. eigenvalues --   -8.21357  -8.21347  -1.07758  -1.03672  -0.99648
 Alpha  occ. eigenvalues --   -0.92425  -0.83671  -0.68461  -0.62585  -0.52539
 Alpha  occ. eigenvalues --   -0.48667  -0.45043  -0.43635  -0.40728  -0.39548
 Alpha  occ. eigenvalues --   -0.38734  -0.37101  -0.34345  -0.33896  -0.32144
 Alpha  occ. eigenvalues --   -0.31914  -0.28616  -0.27714  -0.12169
 Alpha virt. eigenvalues --    0.12360   0.14187   0.14595   0.16133   0.17408
 Alpha virt. eigenvalues --    0.18367   0.18697   0.19437   0.20981   0.21709
 Alpha virt. eigenvalues --    0.23451   0.23991   0.24466   0.25336   0.25831

 Mulliken charges:
               1
     1  C    0.063552
     2  C   -0.143654
     3  Cl  -0.154164
     4  H   -0.417015
     5  H    0.654312
     6  C   -0.277880
     7  N   -0.291678
     8  C    0.124914
     9  N   -0.463158
    10  C    0.498352
    11  H   -0.092632
    12  H   -0.077499
    13  H   -0.061794
    14  H   -0.361655
 Sum of Mulliken charges =  -1.00000

 Dipole moment (field-independent basis, Debye):
    X=             -3.6769    Y=             -2.4260    Z=              3.2813  Tot=              5.4929

 Test job not archived.
 1\1\GINC-SE129\SP\RHF\Aug-CC-pVDZ\C5H6Cl1N2(1-)\OHZDE\09-Apr-2025\0\\#
 t hf aug-cc-pvdz iop(5/13=1,5/36=2,99/5=2) pseudo=read geom=check gues
 s=(read,tcheck) scf=(maxcycle=1)\\title\\-1,1\C,0,-0.23715583,0.030770
 29,-0.26574131\C,0,-0.03004602,-0.06396761,1.16594561\Cl,0,1.16933356,
 0.75034492,-1.26886968\H,0,-2.05036445,0.97830803,1.05999708\H,0,-1.36
 123446,0.36770516,1.40961434\C,0,-0.5131834,-1.27293183,-0.84366878\N,
 0,-0.76491508,-2.33409449,-1.28669595\C,0,-1.45231873,1.00388211,-0.67
 964407\N,0,-1.97846716,1.49907711,-1.62599861\C,0,0.70198314,1.0804406

 Normal termination of Gaussian 16 at Wed Apr  9 02:59:04 2025.
