 Gaussian 16, Revision C.01,

 ----------------------------------------------------------------------
 #t hf aug-cc-pvdz symm=none int=(grid=ultrafine) guess=(read,tcheck) s
 table=(opt,rrhf)
 ----------------------------------------------------------------------
 -----
 title
 -----
 Symbolic Z-matrix:
 Charge = -1 Multiplicity = 1

 SCF Done:  E(RHF) =  -528.863910692     A.U. after   17 cycles
 Normal termination of Gaussian 16 at Wed Apr  9 02:41:02 2025.
 Gaussian 16:  ES64L-G16RevC.01  3-Jul-2019

 ----------------------------------------------------------------------
 #t hf aug-cc-pvdz iop(5/13=1,5/36=2,99/5=2) pseudo=read geom=check gue
 ss=(read,tcheck) scf=(maxcycle=1)
 ----------------------------------------------------------------------
 -----
 title
 -----
 Structure from the checkpoint file:  "E2SN2_223_mol1.chk"
 Charge = -1 Multiplicity = 1

                         Standard orientation:
 ---------------------------------------------------------------------
 Center     Atomic      Atomic             Coordinates (Angstroms)
 Number     Number       Type             X           Y           Z
 ---------------------------------------------------------------------
      1          6           0       -0.400335    0.407477   -0.480286
      2          1           0        0.615194    0.641655    1.361256
      3          9           0       -0.178512   -1.010246   -1.203262
      4          1           0       -0.832501    1.969600    0.298946
      5          6           0        0.894336    0.567764    0.306424
      6          1           0       -0.580005    0.979369   -1.373121
      7          7           0       -1.607755    0.000198    0.247677
      8          8           0       -1.459859   -0.533180    1.350670
      9          8           0       -2.683969    0.097206   -0.339952
     10          7           0        1.611023    1.746633   -0.201633
     11          1           0        2.390869    1.932908    0.420766
     12          1           0        0.923391    2.491523   -0.077213
     13          6           0        1.810290   -0.585973    0.195851
     14          7           0        2.627381   -1.428354    0.236964
 ---------------------------------------------------------------------

 SCF Done:  E(RHF) =  -529.023730871     A.U. after    2 cycles

 The electronic state is 1-A.
 Alpha  occ. eigenvalues --  -25.90625 -20.46851 -20.46773 -15.77574 -15.51211
 Alpha  occ. eigenvalues --  -15.50503 -11.26139 -11.20027 -11.16785  -1.42302
 Alpha  occ. eigenvalues --   -1.38869  -1.21079  -1.08067  -1.03841  -0.94783
 Alpha  occ. eigenvalues --   -0.83129  -0.71030  -0.63911  -0.61820  -0.59835
 Alpha  occ. eigenvalues --   -0.57089  -0.54618  -0.52614  -0.49282  -0.48851
 Alpha  occ. eigenvalues --   -0.47196  -0.44133  -0.41809  -0.37289  -0.36703
 Alpha  occ. eigenvalues --   -0.33306  -0.32954  -0.32896  -0.29637  -0.16135
 Alpha virt. eigenvalues --    0.12401   0.14198   0.15514   0.16171   0.18416
 Alpha virt. eigenvalues --    0.18939   0.21273   0.22754   0.23242   0.23739
 Alpha virt. eigenvalues --    0.24843   0.25126   0.26013   0.26810   0.28032

 Mulliken charges:
               1
     1  C    1.384576
     2  H    0.018190
     3  F   -0.650902
     4  H   -0.214638
     5  C    0.834500
     6  H   -0.367939
     7  N    0.283393
     8  O   -0.640020
     9  O   -0.623115
    10  N   -0.371852
    11  H   -0.033019
    12  H    0.110446
    13  C   -0.479832
    14  N   -0.249786
 Sum of Mulliken charges =  -1.00000

 Dipole moment (field-independent basis, Debye):
    X=              2.1967    Y=              2.6131    Z=              0.8192  Tot=              3.5106

 Test job not archived.
 1\1\GINC-SE149\SP\RHF\Aug-CC-pVDZ\C3H5F1N3O2(1-)\OHZDE\09-Apr-2025\0\\
 #t hf aug-cc-pvdz iop(5/13=1,5/36=2,99/5=2) pseudo=read geom=check gue
 ss=(read,tcheck) scf=(maxcycle=1)\\title\\-1,1\C,0,0.20882564,-0.00030
 211,-0.14473701\H,0,1.51083927,1.58701024,-0.65719969\F,0,-1.14483405,
 -0.07442101,-1.00726256\H,0,1.74410906,-0.10102433,0.78636865\C,0,0.52
 911938,1.4885016,-0.18542207\H,0,-0.1822543,-0.45828052,0.74622221\N,0
 ,0.97426638,-0.89798739,-1.01762329\O,0,1.56526927,-0.39735946,-1.9783
 7601\O,0,0.87513577,-2.10706053,-0.81447156\N,0,0.47312534,2.01966584,

 Normal termination of Gaussian 16 at Wed Apr  9 02:41:08 2025.
