 Gaussian 16, Revision C.01,

 ----------------------------------------------------------------------
 #t hf aug-cc-pvdz symm=none int=(grid=ultrafine) guess=(read,tcheck) s
 table=(opt,rrhf)
 ----------------------------------------------------------------------
 -----
 title
 -----
 Symbolic Z-matrix:
 Charge = -1 Multiplicity = 1

 SCF Done:  E(RHF) =  -726.798128500     A.U. after   15 cycles
 Normal termination of Gaussian 16 at Wed Apr  9 02:35:15 2025.
 Gaussian 16:  ES64L-G16RevC.01  3-Jul-2019

 ----------------------------------------------------------------------
 #t hf aug-cc-pvdz iop(5/13=1,5/36=2,99/5=2) pseudo=read geom=check gue
 ss=(read,tcheck) scf=(maxcycle=1)
 ----------------------------------------------------------------------
 -----
 title
 -----
 Structure from the checkpoint file:  "E2SN2_160_mol1.chk"
 Charge = -1 Multiplicity = 1

                         Standard orientation:
 ---------------------------------------------------------------------
 Center     Atomic      Atomic             Coordinates (Angstroms)
 Number     Number       Type             X           Y           Z
 ---------------------------------------------------------------------
      1          6           0       -0.248841    0.523402    0.120512
      2          6           0        1.099171    0.028439   -0.061862
      3         17           0       -1.610305   -1.015174   -0.145550
      4          1           0        2.275948    2.047239    0.765681
      5          1           0        1.726166    1.112197    0.288758
      6          7           0       -0.550596    0.995412    1.449385
      7          1           0        0.190435    1.685176    1.638116
      8          1           0       -0.409467    0.234630    2.103552
      9          6           0       -0.672364    1.549550   -0.892772
     10          1           0       -1.700690    1.854423   -0.698057
     11          1           0       -0.001867    2.412447   -0.762296
     12          1           0       -0.556383    1.170482   -1.904422
     13          7           0        1.436648   -0.261097   -1.444990
     14          1           0        1.231551   -1.237676   -1.646508
     15          1           0        2.436857   -0.126322   -1.561955
     16          6           0        1.606979   -0.985817    0.940596
     17          1           0        1.043154   -1.926824    0.886136
     18          1           0        2.661755   -1.195258    0.729517
     19          1           0        1.565689   -0.606218    1.966210
 ---------------------------------------------------------------------

 SCF Done:  E(RHF) =  -726.895743348     A.U. after    2 cycles

 The electronic state is 1-A.
 Alpha  occ. eigenvalues -- -103.45771 -15.47824 -15.46946 -11.19780 -11.09073
 Alpha  occ. eigenvalues --  -11.09002 -11.08818 -10.49029  -8.14688  -8.14515
 Alpha  occ. eigenvalues --   -8.14511  -1.06403  -1.00371  -0.92527  -0.85368
 Alpha  occ. eigenvalues --   -0.84099  -0.72538  -0.59520  -0.54846  -0.51436
 Alpha  occ. eigenvalues --   -0.49355  -0.47683  -0.43479  -0.42934  -0.40982
 Alpha  occ. eigenvalues --   -0.38871  -0.36917  -0.34422  -0.30575  -0.28409
 Alpha  occ. eigenvalues --   -0.27899  -0.27658  -0.24689  -0.09291
 Alpha virt. eigenvalues --    0.12552   0.13506   0.13991   0.15340   0.15744
 Alpha virt. eigenvalues --    0.15969   0.16940   0.17247   0.18227   0.19219
 Alpha virt. eigenvalues --    0.20227   0.21142   0.22352   0.23768   0.25886

 Mulliken charges:
               1
     1  C   -0.981962
     2  C    0.509060
     3  Cl  -0.526026
     4  H   -0.743626
     5  H    0.047127
     6  N   -0.466511
     7  H    0.065593
     8  H    0.028057
     9  C    0.829891
    10  H   -0.022125
    11  H    0.058723
    12  H    0.029367
    13  N   -0.495833
    14  H    0.036353
    15  H    0.006800
    16  C    0.771324
    17  H   -0.007067
    18  H   -0.065255
    19  H   -0.073890
 Sum of Mulliken charges =  -1.00000

 Dipole moment (field-independent basis, Debye):
    X=             -1.8003    Y=             -4.1438    Z=             -1.2120  Tot=              4.6777

 Test job not archived.
 1\1\GINC-SE273\SP\RHF\Aug-CC-pVDZ\C4H12Cl1N2(1-)\OHZDE\09-Apr-2025\0\\
 #t hf aug-cc-pvdz iop(5/13=1,5/36=2,99/5=2) pseudo=read geom=check gue
 ss=(read,tcheck) scf=(maxcycle=1)\\title\\-1,1\C,0,-0.23313667,0.03527
 156,-0.34175136\C,0,-0.22837303,0.06584034,1.10546199\Cl,0,1.71107223,
 -0.01029698,-1.05559\H,0,-2.6558078,-0.32387401,1.42306002\H,0,-1.5112
 4797,-0.05199146,1.28134873\N,0,-0.81899345,-1.14648463,-0.92482571\H,
 0,-1.75118531,-1.19733148,-0.49013794\H,0,-0.30509074,-1.95713261,-0.6
 0017989\C,0,-0.81680855,1.26269467,-0.98351106\H,0,-0.76512318,1.16902

 Normal termination of Gaussian 16 at Wed Apr  9 02:35:25 2025.
