 Gaussian 16, Revision C.01,

 ----------------------------------------------------------------------
 #t hf aug-cc-pvdz symm=none int=(grid=ultrafine) guess=(read,tcheck) s
 table=(opt,rrhf)
 ----------------------------------------------------------------------
 -----
 title
 -----
 Symbolic Z-matrix:
 Charge = -1 Multiplicity = 1

 SCF Done:  E(RHF) =  -1044.62512558     A.U. after   16 cycles
 Normal termination of Gaussian 16 at Wed Apr  9 02:40:14 2025.
 Gaussian 16:  ES64L-G16RevC.01  3-Jul-2019

 ----------------------------------------------------------------------
 #t hf aug-cc-pvdz iop(5/13=1,5/36=2,99/5=2) pseudo=read geom=check gue
 ss=(read,tcheck) scf=(maxcycle=1)
 ----------------------------------------------------------------------
 -----
 title
 -----
 Structure from the checkpoint file:  "E2SN2_212_mol1.chk"
 Charge = -1 Multiplicity = 1

                         Standard orientation:
 ---------------------------------------------------------------------
 Center     Atomic      Atomic             Coordinates (Angstroms)
 Number     Number       Type             X           Y           Z
 ---------------------------------------------------------------------
      1          6           0       -0.345251    0.074833   -0.263136
      2          1           0        0.747509    1.096451    1.319580
      3          9           0        0.479946   -1.619593   -0.713296
      4         17           0       -1.359876    1.875204    0.059022
      5          6           0        0.762058    0.169778    0.744783
      6          1           0       -0.186146    0.245084   -1.308500
      7          1           0        0.745303   -0.696215    1.392981
      8          7           0       -1.483676   -0.809289    0.062379
      9          8           0       -1.591706   -1.196137    1.222080
     10          8           0       -2.264002   -1.055961   -0.846651
     11          7           0        2.083934    0.159247    0.057780
     12          8           0        3.008766   -0.389665    0.651084
     13          8           0        2.195574    0.783660   -0.991359
 ---------------------------------------------------------------------

 SCF Done:  E(RHF) =  -1044.81808386     A.U. after    2 cycles

 The electronic state is 1-A.
 Alpha  occ. eigenvalues -- -103.49270 -25.82153 -20.49989 -20.49978 -20.49326
 Alpha  occ. eigenvalues --  -20.49287 -15.80047 -15.79736 -11.28507 -11.20428
 Alpha  occ. eigenvalues --  -10.52557  -8.18223  -8.18030  -8.18020  -1.42663
 Alpha  occ. eigenvalues --   -1.42335  -1.32051  -1.24279  -1.23976  -1.03664
 Alpha  occ. eigenvalues --   -0.95819  -0.90807  -0.76040  -0.70779  -0.66029
 Alpha  occ. eigenvalues --   -0.64460  -0.62447  -0.61876  -0.60376  -0.60087
 Alpha  occ. eigenvalues --   -0.50795  -0.49599  -0.43368  -0.41829  -0.41062
 Alpha  occ. eigenvalues --   -0.40307  -0.39500  -0.38660  -0.38355  -0.35541
 Alpha  occ. eigenvalues --   -0.34916  -0.31806  -0.31272  -0.30991
 Alpha virt. eigenvalues --    0.13870   0.15159   0.15957   0.17609   0.19661
 Alpha virt. eigenvalues --    0.20377   0.21706   0.22824   0.23657   0.25009
 Alpha virt. eigenvalues --    0.25609   0.27042   0.27237   0.27940   0.28375

 Mulliken charges:
               1
     1  C    0.827595
     2  H   -0.040133
     3  F   -0.842635
     4  Cl  -0.467502
     5  C    1.101506
     6  H   -0.214777
     7  H   -0.037709
     8  N    0.774694
     9  O   -0.706420
    10  O   -0.678121
    11  N    0.557032
    12  O   -0.632151
    13  O   -0.641379
 Sum of Mulliken charges =  -1.00000

 Dipole moment (field-independent basis, Debye):
    X=              0.2827    Y=              3.0782    Z=              2.3522  Tot=              3.8843

 Test job not archived.
 1\1\GINC-SE112\SP\RHF\Aug-CC-pVDZ\C2H3Cl1F1N2O4(1-)\OHZDE\09-Apr-2025\
 0\\#t hf aug-cc-pvdz iop(5/13=1,5/36=2,99/5=2) pseudo=read geom=check
 guess=(read,tcheck) scf=(maxcycle=1)\\title\\-1,1\C,0,0.7121799,-0.059
 11442,0.0172291\H,0,1.83484275,1.79804885,0.19995822\F,0,-1.18028418,0
 .27863829,-0.22603978\Cl,0,2.70611281,-0.6242645,0.29904398\C,0,0.8185
 8857,1.43732097,0.03738823\H,0,0.33947356,-0.61940434,0.85044717\H,0,0
 .39466224,1.84892256,-0.86884382\N,0,0.5477261,-0.70891899,-1.29971903
 \O,0,0.77323777,-0.03484705,-2.30021841\O,0,0.23876911,-1.89238284,-1.

 Normal termination of Gaussian 16 at Wed Apr  9 02:40:20 2025.
