 Gaussian 16, Revision C.01,

 ----------------------------------------------------------------------
 #t hf aug-cc-pvdz symm=none int=(grid=ultrafine) guess=(read,tcheck) s
 table=(opt,rrhf)
 ----------------------------------------------------------------------
 -----
 title
 -----
 Symbolic Z-matrix:
 Charge = -1 Multiplicity = 1

 SCF Done:  E(RHF) =  -1042.92126786     A.U. after   17 cycles
 Normal termination of Gaussian 16 at Wed Apr  9 02:42:51 2025.
 Gaussian 16:  ES64L-G16RevC.01  3-Jul-2019

 ----------------------------------------------------------------------
 #t hf aug-cc-pvdz iop(5/13=1,5/36=2,99/5=2) pseudo=read geom=check gue
 ss=(read,tcheck) scf=(maxcycle=1)
 ----------------------------------------------------------------------
 -----
 title
 -----
 Structure from the checkpoint file:  "E2SN2_243_mol1.chk"
 Charge = -1 Multiplicity = 1

                         Standard orientation:
 ---------------------------------------------------------------------
 Center     Atomic      Atomic             Coordinates (Angstroms)
 Number     Number       Type             X           Y           Z
 ---------------------------------------------------------------------
      1          6           0       -0.132230    0.092059   -0.294252
      2          1           0        0.900795    1.366589    1.087652
      3          9           0        0.742423   -1.542305   -0.690947
      4         17           0       -1.423069    1.782022    0.357942
      5          6           0        1.031025    0.365833    0.675115
      6          7           0       -1.296500   -0.856795   -0.006289
      7          8           0       -1.438278   -1.314781    1.112887
      8          8           0       -2.019976   -1.080490   -0.968822
      9          7           0        0.024407    0.555877   -1.609122
     10          1           0       -0.869882    0.850546   -1.973665
     11          1           0        0.383324   -0.233270   -2.134198
     12          6           0        2.276107    0.415036   -0.131584
     13          7           0        3.348303    0.505259   -0.604614
     14          7           0        1.139216   -0.574466    1.777163
     15          1           0        2.012661   -0.390654    2.257780
     16          1           0        1.192104   -1.491360    1.347785
 ---------------------------------------------------------------------

 SCF Done:  E(RHF) =  -1043.10708319     A.U. after    2 cycles

 The electronic state is 1-A.
 Alpha  occ. eigenvalues -- -103.46157 -25.85744 -20.48798 -20.48579 -15.79572
 Alpha  occ. eigenvalues --  -15.51978 -15.51367 -15.50402 -11.33412 -11.21719
 Alpha  occ. eigenvalues --  -11.17571 -10.49481  -8.15130  -8.14980  -8.14965
 Alpha  occ. eigenvalues --   -1.42133  -1.35991  -1.23697  -1.11270  -1.07033
 Alpha  occ. eigenvalues --   -1.04250  -0.93890  -0.88791  -0.85126  -0.69844
 Alpha  occ. eigenvalues --   -0.64290  -0.61714  -0.61161  -0.59697  -0.57835
 Alpha  occ. eigenvalues --   -0.56892  -0.49736  -0.47797  -0.45202  -0.44496
 Alpha  occ. eigenvalues --   -0.43450  -0.42808  -0.40237  -0.38981  -0.35146
 Alpha  occ. eigenvalues --   -0.34521  -0.33332  -0.32089  -0.29329  -0.29196
 Alpha  occ. eigenvalues --   -0.28712  -0.28261
 Alpha virt. eigenvalues --    0.12585   0.13478   0.14143   0.16676   0.17537
 Alpha virt. eigenvalues --    0.18108   0.18625   0.21194   0.21482   0.22861
 Alpha virt. eigenvalues --    0.23833   0.24427   0.25352   0.26303   0.26643

 Mulliken charges:
               1
     1  C    0.585101
     2  H   -0.080039
     3  F   -0.769187
     4  Cl  -0.541514
     5  C    1.200342
     6  N    0.740598
     7  O   -0.683281
     8  O   -0.702288
     9  N   -0.226664
    10  H    0.095015
    11  H    0.121579
    12  C   -0.174085
    13  N   -0.325580
    14  N   -0.351243
    15  H   -0.023312
    16  H    0.134559
 Sum of Mulliken charges =  -1.00000

 Dipole moment (field-independent basis, Debye):
    X=              0.7613    Y=              0.7077    Z=              0.5667  Tot=              1.1839

 Test job not archived.
 1\1\GINC-SE457\SP\RHF\Aug-CC-pVDZ\C3H5Cl1F1N4O2(1-)\OHZDE\09-Apr-2025\
 0\\#t hf aug-cc-pvdz iop(5/13=1,5/36=2,99/5=2) pseudo=read geom=check
 guess=(read,tcheck) scf=(maxcycle=1)\\title\\-1,1\C,0,0.76651651,-0.02
 43716,0.0030107\H,0,1.74474561,1.87385162,0.20560303\F,0,-1.12038793,0
 .05531831,-0.16060369\Cl,0,2.97303584,-0.23458938,-0.18322011\C,0,0.73
 093714,1.51375854,0.02900809\N,0,0.61847011,-0.87437285,-1.25966549\O,
 0,0.64020134,-0.33880193,-2.3528708\O,0,0.48905078,-2.07444849,-1.0523
 0875\N,0,0.68418973,-0.67488763,1.24341222\H,0,1.24355297,-1.51523848,

 Normal termination of Gaussian 16 at Wed Apr  9 02:43:00 2025.
