 Gaussian 16, Revision C.01,

 ----------------------------------------------------------------------
 #t hf aug-cc-pvdz symm=none int=(grid=ultrafine) guess=(read,tcheck) s
 table=(opt,rrhf)
 ----------------------------------------------------------------------
 -----
 title
 -----
 Symbolic Z-matrix:
 Charge = -1 Multiplicity = 1

 SCF Done:  E(RHF) =  -836.241623650     A.U. after   17 cycles
 Normal termination of Gaussian 16 at Wed Apr  9 02:40:41 2025.
 Gaussian 16:  ES64L-G16RevC.01  3-Jul-2019

 ----------------------------------------------------------------------
 #t hf aug-cc-pvdz iop(5/13=1,5/36=2,99/5=2) pseudo=read geom=check gue
 ss=(read,tcheck) scf=(maxcycle=1)
 ----------------------------------------------------------------------
 -----
 title
 -----
 Structure from the checkpoint file:  "E2SN2_220_mol2.chk"
 Charge = -1 Multiplicity = 1

                         Standard orientation:
 ---------------------------------------------------------------------
 Center     Atomic      Atomic             Coordinates (Angstroms)
 Number     Number       Type             X           Y           Z
 ---------------------------------------------------------------------
      1          6           0       -0.242890   -0.116843   -0.600401
      2          6           0        1.200314   -0.440738   -0.260859
      3         17           0       -1.366121   -1.474642   -0.345252
      4          1           0        1.489344   -1.261353   -0.943240
      5          1           0       -0.338418    0.183167   -1.642574
      6          7           0       -0.741451    1.075856    0.173070
      7          8           0       -0.863262    2.117445   -0.468575
      8          8           0       -0.969881    0.940655    1.368930
      9          6           0        1.450380   -0.918540    1.159015
     10          1           0        2.510240   -1.179290    1.200612
     11          1           0        0.849634   -1.794637    1.415817
     12          1           0        1.252105   -0.115575    1.869332
     13          7           0        1.987262    0.762851   -0.485733
     14          1           0        2.972878    0.365295   -0.537259
     15          1           0        1.825383    1.072242   -1.444840
     16          1           0        4.160541   -0.679951   -0.849307
 ---------------------------------------------------------------------

 SCF Done:  E(RHF) =  -836.375360196     A.U. after    2 cycles

 The electronic state is 1-A.
 Alpha  occ. eigenvalues -- -103.57878 -20.52211 -20.52121 -15.81483 -15.45849
 Alpha  occ. eigenvalues --  -11.26570 -11.16017 -11.09617 -10.61201  -8.26930
 Alpha  occ. eigenvalues --   -8.26630  -8.26619  -1.44545  -1.26429  -1.11139
 Alpha  occ. eigenvalues --   -1.03153  -0.93324  -0.85645  -0.76833  -0.70188
 Alpha  occ. eigenvalues --   -0.65100  -0.63332  -0.61044  -0.53702  -0.51939
 Alpha  occ. eigenvalues --   -0.51482  -0.43281  -0.42645  -0.42006  -0.40394
 Alpha  occ. eigenvalues --   -0.39211  -0.38865  -0.37716  -0.36620  -0.35412
 Alpha  occ. eigenvalues --   -0.26294  -0.08892
 Alpha virt. eigenvalues --    0.12381   0.13576   0.15037   0.16219   0.16512
 Alpha virt. eigenvalues --    0.16751   0.18062   0.18910   0.20866   0.20986
 Alpha virt. eigenvalues --    0.22408   0.23474   0.23707   0.24660   0.25703

 Mulliken charges:
               1
     1  C    0.788088
     2  C   -0.250506
     3  Cl  -0.161604
     4  H   -0.077312
     5  H   -0.166267
     6  N    0.447144
     7  O   -0.615939
     8  O   -0.615793
     9  C    0.744733
    10  H    0.013839
    11  H   -0.069822
    12  H    0.022377
    13  N   -0.362030
    14  H    0.073370
    15  H    0.013085
    16  H   -0.783362
 Sum of Mulliken charges =  -1.00000

 Dipole moment (field-independent basis, Debye):
    X=            -13.4760    Y=             -0.2461    Z=              0.7161  Tot=             13.4973

 Test job not archived.
 1\1\GINC-SE338\SP\RHF\Aug-CC-pVDZ\C3H8Cl1N2O2(1-)\OHZDE\09-Apr-2025\0\
 \#t hf aug-cc-pvdz iop(5/13=1,5/36=2,99/5=2) pseudo=read geom=check gu
 ess=(read,tcheck) scf=(maxcycle=1)\\title\\-1,1\C,0,0.279732,-0.026037
 ,-0.22617\C,0,-0.818046,0.153862,-1.258427\Cl,0,1.887219,0.498749,-0.7
 83804\H,0,-0.526052,-0.479477,-2.116455\H,0,0.370137,-1.070864,0.06609
 5\N,0,-0.043995,0.689066,1.05959\O,0,-0.380302,-0.027032,2.000629\O,0,
 0.027595,1.911766,1.080135\C,0,-1.006054,1.568431,-1.77854\H,0,-1.7672
 76,1.497617,-2.558637\H,0,-0.087651,1.982057,-2.202613\H,0,-1.36954,2.

 Normal termination of Gaussian 16 at Wed Apr  9 02:40:48 2025.
