 Gaussian 16, Revision C.01,

 ----------------------------------------------------------------------
 #t hf aug-cc-pvdz symm=none int=(grid=ultrafine) guess=(read,tcheck) s
 table=(opt,rrhf)
 ----------------------------------------------------------------------
 -----
 title
 -----
 Symbolic Z-matrix:
 Charge = -1 Multiplicity = 1

 SCF Done:  E(RHF) =  -1404.74958679     A.U. after   16 cycles
 Normal termination of Gaussian 16 at Wed Apr  9 02:36:28 2025.
 Gaussian 16:  ES64L-G16RevC.01  3-Jul-2019

 ----------------------------------------------------------------------
 #t hf aug-cc-pvdz iop(5/13=1,5/36=2,99/5=2) pseudo=read geom=check gue
 ss=(read,tcheck) scf=(maxcycle=1)
 ----------------------------------------------------------------------
 -----
 title
 -----
 Structure from the checkpoint file:  "E2SN2_168_mol2.chk"
 Charge = -1 Multiplicity = 1

                         Standard orientation:
 ---------------------------------------------------------------------
 Center     Atomic      Atomic             Coordinates (Angstroms)
 Number     Number       Type             X           Y           Z
 ---------------------------------------------------------------------
      1          6           0        0.185660   -0.510282   -0.232240
      2          6           0       -0.657833    0.261452    0.745656
      3         17           0       -0.538369   -2.098847   -0.610051
      4          1           0       -0.159784    1.227712    0.893857
      5          1           0        0.356657    0.041339   -1.150443
      6          1           0       -0.818923   -0.274047    1.676051
      7          7           0        1.538083   -0.796933    0.363953
      8          8           0        2.426619   -1.076170   -0.428488
      9          8           0        1.631704   -0.793000    1.588182
     10          7           0       -1.996733    0.554977    0.171498
     11          8           0       -2.915615    0.698437    0.977568
     12          8           0       -2.096347    0.680918   -1.045348
     13         17           0        1.379236    2.458269   -0.388974
 ---------------------------------------------------------------------

 SCF Done:  E(RHF) =  -1404.92767064     A.U. after    2 cycles

 The electronic state is 1-A.
 Alpha  occ. eigenvalues -- -103.58719-103.38395 -20.52435 -20.52427 -20.52422
 Alpha  occ. eigenvalues --  -20.52092 -15.82178 -15.81807 -11.28086 -11.21251
 Alpha  occ. eigenvalues --  -10.62047 -10.41499  -8.27777  -8.27471  -8.27456
 Alpha  occ. eigenvalues --   -8.07101  -8.07069  -8.07059  -1.45000  -1.44644
 Alpha  occ. eigenvalues --   -1.26906  -1.26458  -1.12172  -1.00773  -0.93087
 Alpha  occ. eigenvalues --   -0.83892  -0.78009  -0.72638  -0.67875  -0.66320
 Alpha  occ. eigenvalues --   -0.64888  -0.64084  -0.63082  -0.62251  -0.53946
 Alpha  occ. eigenvalues --   -0.50806  -0.45735  -0.43607  -0.42912  -0.41433
 Alpha  occ. eigenvalues --   -0.40633  -0.38774  -0.38473  -0.37188  -0.37022
 Alpha  occ. eigenvalues --   -0.22083  -0.21635  -0.21574
 Alpha virt. eigenvalues --    0.13133   0.14616   0.16052   0.16951   0.17898
 Alpha virt. eigenvalues --    0.18723   0.20438   0.22131   0.22738   0.23949
 Alpha virt. eigenvalues --    0.24447   0.25080   0.25866   0.26471   0.26818

 Mulliken charges:
               1
     1  C    0.833681
     2  C    0.976150
     3  Cl  -0.144508
     4  H    0.011691
     5  H   -0.121781
     6  H   -0.069818
     7  N    0.453216
     8  O   -0.601678
     9  O   -0.619045
    10  N    0.424410
    11  O   -0.610817
    12  O   -0.595014
    13  Cl  -0.936487
 Sum of Mulliken charges =  -1.00000

 Dipole moment (field-independent basis, Debye):
    X=             -4.1652    Y=             -7.9637    Z=              1.4871  Tot=              9.1093

 Test job not archived.
 1\1\GINC-SE024\SP\RHF\Aug-CC-pVDZ\C2H3Cl2N2O4(1-)\OHZDE\09-Apr-2025\0\
 \#t hf aug-cc-pvdz iop(5/13=1,5/36=2,99/5=2) pseudo=read geom=check gu
 ess=(read,tcheck) scf=(maxcycle=1)\\title\\-1,1\C,0,-0.075741,-0.01551
 6,0.008053\C,0,-0.516008,0.032048,-1.429736\Cl,0,1.69419,0.173165,0.15
 719\H,0,-1.609428,-0.057884,-1.425146\H,0,-0.575589,0.732077,0.614583\
 H,0,-0.035809,-0.725088,-2.041699\N,0,-0.406431,-1.356747,0.606723\O,0
 ,-0.447908,-1.404794,1.827953\O,0,-0.543806,-2.303916,-0.162378\N,0,-0
 .198767,1.351353,-2.035756\O,0,-0.022329,1.363111,-3.253707\O,0,-0.177

 Normal termination of Gaussian 16 at Wed Apr  9 02:36:34 2025.
