 Gaussian 16, Revision C.01,

 ----------------------------------------------------------------------
 #t hf aug-cc-pvdz symm=none int=(grid=ultrafine) guess=(read,tcheck) s
 table=(opt,rrhf)
 ----------------------------------------------------------------------
 -----
 title
 -----
 Symbolic Z-matrix:
 Charge = -1 Multiplicity = 1

 SCF Done:  E(RHF) =  -987.891697157     A.U. after   17 cycles
 Normal termination of Gaussian 16 at Wed Apr  9 02:34:00 2025.
 Gaussian 16:  ES64L-G16RevC.01  3-Jul-2019

 ----------------------------------------------------------------------
 #t hf aug-cc-pvdz iop(5/13=1,5/36=2,99/5=2) pseudo=read geom=check gue
 ss=(read,tcheck) scf=(maxcycle=1)
 ----------------------------------------------------------------------
 -----
 title
 -----
 Structure from the checkpoint file:  "E2SN2_142_mol2.chk"
 Charge = -1 Multiplicity = 1

                         Standard orientation:
 ---------------------------------------------------------------------
 Center     Atomic      Atomic             Coordinates (Angstroms)
 Number     Number       Type             X           Y           Z
 ---------------------------------------------------------------------
      1          6           0        0.538091   -0.292530   -0.361087
      2          6           0       -0.594902   -0.466576    0.647148
      3         17           0        1.962410   -1.080720    0.423741
      4          1           0       -0.356229    0.255090    1.428903
      5          1           0       -0.649502   -1.497089    0.997300
      6          7           0        0.375175   -0.938062   -1.654760
      7          1           0        0.058611   -1.889287   -1.496501
      8          1           0       -0.350533   -0.433015   -2.151721
      9          6           0        0.884187    1.114994   -0.618367
     10          7           0        1.196985    2.135928   -1.108845
     11          7           0       -1.905517   -0.149979    0.071948
     12          8           0       -2.894668   -0.653258    0.609853
     13          8           0       -1.966229    0.632622   -0.883054
     14          9           0        0.465900    1.403456    1.893272
 ---------------------------------------------------------------------

 SCF Done:  E(RHF) =  -988.066024547     A.U. after    2 cycles

 The electronic state is 1-A.
 Alpha  occ. eigenvalues -- -103.54915 -25.75987 -20.50554 -20.50462 -15.79959
 Alpha  occ. eigenvalues --  -15.53253 -15.50867 -11.27579 -11.16806 -11.16465
 Alpha  occ. eigenvalues --  -10.58241  -8.23961  -8.23664  -8.23645  -1.42708
 Alpha  occ. eigenvalues --   -1.25321  -1.24338  -1.13360  -1.03824  -1.02011
 Alpha  occ. eigenvalues --   -0.97312  -0.82395  -0.73455  -0.66070  -0.62823
 Alpha  occ. eigenvalues --   -0.62602  -0.59731  -0.54482  -0.51970  -0.47877
 Alpha  occ. eigenvalues --   -0.46873  -0.41698  -0.40643  -0.39982  -0.37053
 Alpha  occ. eigenvalues --   -0.36723  -0.36287  -0.35435  -0.34310  -0.32994
 Alpha  occ. eigenvalues --   -0.31673  -0.30713  -0.30130
 Alpha virt. eigenvalues --    0.11626   0.13669   0.15617   0.17302   0.18259
 Alpha virt. eigenvalues --    0.19697   0.20256   0.21503   0.22833   0.23314
 Alpha virt. eigenvalues --    0.23775   0.24880   0.25448   0.25792   0.27168

 Mulliken charges:
               1
     1  C    0.726613
     2  C    1.315543
     3  Cl  -0.196146
     4  H   -0.068826
     5  H   -0.156462
     6  N   -0.492486
     7  H    0.017847
     8  H    0.066934
     9  C   -0.147792
    10  N   -0.330254
    11  N    0.466028
    12  O   -0.635164
    13  O   -0.649125
    14  F   -0.916711
 Sum of Mulliken charges =  -1.00000

 Dipole moment (field-independent basis, Debye):
    X=             -1.2060    Y=             -7.9176    Z=             -3.9217  Tot=              8.9175

 Test job not archived.
 1\1\GINC-SE049\SP\RHF\Aug-CC-pVDZ\C3H4Cl1F1N3O2(1-)\OHZDE\09-Apr-2025\
 0\\#t hf aug-cc-pvdz iop(5/13=1,5/36=2,99/5=2) pseudo=read geom=check
 guess=(read,tcheck) scf=(maxcycle=1)\\title\\-1,1\C,0,-0.448807,-0.005
 377,-1.354504\C,0,-0.035304,-0.042626,0.114554\Cl,0,-0.034322,-1.64966
 2,-1.979333\H,0,1.053024,0.012202,0.076564\H,0,-0.41688,-0.93852,0.603
 755\N,0,-1.861817,0.195115,-1.637433\H,0,-2.39613,-0.424916,-1.037301\
 H,0,-2.082793,1.15412,-1.39213\C,0,0.298059,0.982853,-2.149923\N,0,0.6
 22818,1.80958,-2.919191\N,0,-0.557227,1.100724,0.868972\O,0,-0.672134,

 Normal termination of Gaussian 16 at Wed Apr  9 02:34:09 2025.
