 Gaussian 16, Revision C.01,

 ----------------------------------------------------------------------
 #t hf aug-cc-pvdz symm=none int=(grid=ultrafine) guess=(read,tcheck) s
 table=(opt,rrhf)
 ----------------------------------------------------------------------
 -----
 title
 -----
 Symbolic Z-matrix:
 Charge = -1 Multiplicity = 1

 SCF Done:  E(RHF) =  -575.175199110     A.U. after   16 cycles
 Normal termination of Gaussian 16 at Wed Apr  9 02:39:20 2025.
 Gaussian 16:  ES64L-G16RevC.01  3-Jul-2019

 ----------------------------------------------------------------------
 #t hf aug-cc-pvdz iop(5/13=1,5/36=2,99/5=2) pseudo=read geom=check gue
 ss=(read,tcheck) scf=(maxcycle=1)
 ----------------------------------------------------------------------
 -----
 title
 -----
 Structure from the checkpoint file:  "E2SN2_197_mol2.chk"
 Charge = -1 Multiplicity = 1

                         Standard orientation:
 ---------------------------------------------------------------------
 Center     Atomic      Atomic             Coordinates (Angstroms)
 Number     Number       Type             X           Y           Z
 ---------------------------------------------------------------------
      1          6           0        0.502580    0.843730    0.229245
      2          6           0       -0.248192   -0.291904   -0.474201
      3          9           0       -0.400268    1.937533    0.247205
      4          1           0       -0.346643   -0.031412   -1.530882
      5          1           0        0.693745    0.569443    1.268820
      6          7           0        1.713807    1.200898   -0.385585
      7          1           0        2.436858    0.455562   -0.113934
      8          1           0        1.602774    1.195770   -1.394142
      9          7           0       -1.663499   -0.347724    0.015124
     10          8           0       -1.842211   -0.541534    1.216641
     11          8           0       -2.569128   -0.199778   -0.808093
     12          6           0        0.426349   -1.635328   -0.263620
     13          1           0        0.210040   -1.984569    0.748571
     14          1           0        1.520650   -1.509937   -0.317046
     15          1           0        0.055177   -2.371422   -0.982784
     16          9           0        3.142660   -0.811327    0.274762
 ---------------------------------------------------------------------

 SCF Done:  E(RHF) =  -575.354484150     A.U. after    2 cycles

 The electronic state is 1-A.
 Alpha  occ. eigenvalues --  -25.96921 -25.76601 -20.50142 -20.49913 -15.78891
 Alpha  occ. eigenvalues --  -15.45044 -11.22286 -11.18346 -11.10310  -1.50089
 Alpha  occ. eigenvalues --   -1.42065  -1.25822  -1.23850  -1.04179  -0.96921
 Alpha  occ. eigenvalues --   -0.81983  -0.77843  -0.70289  -0.64497  -0.62971
 Alpha  occ. eigenvalues --   -0.61541  -0.60272  -0.57117  -0.56092  -0.50002
 Alpha  occ. eigenvalues --   -0.48096  -0.45317  -0.41861  -0.41253  -0.39901
 Alpha  occ. eigenvalues --   -0.38695  -0.38371  -0.35648  -0.35469  -0.33851
 Alpha  occ. eigenvalues --   -0.32785  -0.25510
 Alpha virt. eigenvalues --    0.12783   0.13815   0.15396   0.16082   0.16663
 Alpha virt. eigenvalues --    0.18577   0.19795   0.19990   0.21408   0.22625
 Alpha virt. eigenvalues --    0.24428   0.25101   0.25683   0.26178   0.26439

 Mulliken charges:
               1
     1  C    1.229562
     2  C    0.143502
     3  F   -0.434592
     4  H   -0.269943
     5  H   -0.133053
     6  N   -0.567022
     7  H    0.238145
     8  H    0.004157
     9  N    0.350957
    10  O   -0.617523
    11  O   -0.633068
    12  C    0.705640
    13  H    0.028240
    14  H   -0.097130
    15  H   -0.050134
    16  F   -0.897737
 Sum of Mulliken charges =  -1.00000

 Dipole moment (field-independent basis, Debye):
    X=             -5.3933    Y=             -0.4968    Z=             -2.4474  Tot=              5.9434

 Test job not archived.
 1\1\GINC-SE054\SP\RHF\Aug-CC-pVDZ\C3H7F2N2O2(1-)\OHZDE\09-Apr-2025\0\\
 #t hf aug-cc-pvdz iop(5/13=1,5/36=2,99/5=2) pseudo=read geom=check gue
 ss=(read,tcheck) scf=(maxcycle=1)\\title\\-1,1\C,0,-0.017608,0.036349,
 -0.089381\C,0,-0.128421,-0.003843,-1.617211\F,0,1.372625,-0.006847,0.1
 88556\H,0,0.163006,-1.001939,-1.953365\H,0,-0.38841,0.994372,0.281014\
 N,0,-0.694299,-1.006193,0.564722\H,0,-1.738094,-0.756005,0.560218\H,0,
 -0.564397,-1.874097,0.055397\N,0,0.903051,0.895837,-2.227365\O,0,0.860
 67,2.089781,-1.934373\O,0,1.733567,0.395205,-2.988515\C,0,-1.512371,0.

 Normal termination of Gaussian 16 at Wed Apr  9 02:39:27 2025.
