 Gaussian 16, Revision C.01,

 ----------------------------------------------------------------------
 #t hf aug-cc-pvdz symm=none int=(grid=ultrafine) guess=(read,tcheck) s
 table=(opt,rrhf)
 ----------------------------------------------------------------------
 -----
 title
 -----
 Symbolic Z-matrix:
 Charge = -1 Multiplicity = 1

 SCF Done:  E(RHF) =  -852.269412533     A.U. after   15 cycles
 Normal termination of Gaussian 16 at Wed Apr  9 02:38:57 2025.
 Gaussian 16:  ES64L-G16RevC.01  3-Jul-2019

 ----------------------------------------------------------------------
 #t hf aug-cc-pvdz iop(5/13=1,5/36=2,99/5=2) pseudo=read geom=check gue
 ss=(read,tcheck) scf=(maxcycle=1)
 ----------------------------------------------------------------------
 -----
 title
 -----
 Structure from the checkpoint file:  "E2SN2_199_mol2.chk"
 Charge = -1 Multiplicity = 1

                         Standard orientation:
 ---------------------------------------------------------------------
 Center     Atomic      Atomic             Coordinates (Angstroms)
 Number     Number       Type             X           Y           Z
 ---------------------------------------------------------------------
      1          6           0       -0.998278    0.145657    0.269321
      2          6           0        0.264042    0.654559   -0.428938
      3         17           0       -1.099800   -1.657773   -0.057277
      4          1           0        0.223693    0.406939   -1.494437
      5          1           0       -0.856640    0.240801    1.346027
      6          7           0       -2.187408    0.806064   -0.109305
      7          1           0       -2.189621    0.986740   -1.107707
      8          1           0       -2.192515    1.731457    0.393178
      9          7           0        1.469742   -0.151509    0.051619
     10          8           0        1.631872   -0.263427    1.261911
     11          8           0        2.232156   -0.595995   -0.808792
     12          7           0        0.506635    2.024111   -0.139561
     13          1           0       -0.250813    2.467794    0.426386
     14          1           0        0.620152    2.559621   -0.987997
     15          1           0       -1.687242    3.112204    1.111740
 ---------------------------------------------------------------------

 SCF Done:  E(RHF) =  -852.406592098     A.U. after    2 cycles

 The electronic state is 1-A.
 Alpha  occ. eigenvalues -- -103.52974 -20.49998 -20.49899 -15.78399 -15.49155
 Alpha  occ. eigenvalues --  -15.48214 -11.22620 -11.22316 -10.56340  -8.22047
 Alpha  occ. eigenvalues --   -8.21788  -8.21777  -1.41948  -1.23861  -1.10872
 Alpha  occ. eigenvalues --   -1.04424  -0.99287  -0.89763  -0.77069  -0.70213
 Alpha  occ. eigenvalues --   -0.64148  -0.61762  -0.60529  -0.57116  -0.54095
 Alpha  occ. eigenvalues --   -0.50553  -0.49118  -0.43720  -0.41752  -0.39424
 Alpha  occ. eigenvalues --   -0.38687  -0.35597  -0.34183  -0.33702  -0.28754
 Alpha  occ. eigenvalues --   -0.28073  -0.11651
 Alpha virt. eigenvalues --    0.12344   0.14410   0.15357   0.16024   0.18718
 Alpha virt. eigenvalues --    0.19308   0.19896   0.21106   0.21815   0.22137
 Alpha virt. eigenvalues --    0.23279   0.24360   0.25299   0.25925   0.27210

 Mulliken charges:
               1
     1  C    0.152892
     2  C    1.489724
     3  Cl  -0.211074
     4  H   -0.183505
     5  H    0.072206
     6  N   -0.401465
     7  H    0.018873
     8  H    0.052374
     9  N    0.314710
    10  O   -0.605043
    11  O   -0.627021
    12  N   -0.396681
    13  H    0.010791
    14  H    0.005880
    15  H   -0.692662
 Sum of Mulliken charges =  -1.00000

 Dipole moment (field-independent basis, Debye):
    X=              2.7363    Y=             -5.8302    Z=             -5.5228  Tot=              8.4841

 Test job not archived.
 1\1\GINC-SE131\SP\RHF\Aug-CC-pVDZ\C2H7Cl1N3O2(1-)\OHZDE\09-Apr-2025\0\
 \#t hf aug-cc-pvdz iop(5/13=1,5/36=2,99/5=2) pseudo=read geom=check gu
 ess=(read,tcheck) scf=(maxcycle=1)\\title\\-1,1\C,0,-0.062619,0.029301
 ,-0.057486\C,0,-0.311402,0.133869,-1.5632\Cl,0,1.756134,0.065902,0.187
 73\H,0,0.214014,-0.673777,-2.082698\H,0,-0.440327,0.935558,0.41627\N,0
 ,-0.643348,-1.100891,0.558099\H,0,-0.546459,-1.917079,-0.0368\H,0,-1.6
 69738,-0.892107,0.666723\N,0,0.382439,1.38191,-2.106681\O,0,0.168466,2
 .445042,-1.534331\O,0,1.07417,1.249215,-3.11814\N,0,-1.697082,0.236577

 Normal termination of Gaussian 16 at Wed Apr  9 02:39:03 2025.
