 Gaussian 16, Revision C.01,

 ----------------------------------------------------------------------
 #t hf aug-cc-pvdz symm=none int=(grid=ultrafine) guess=(read,tcheck) s
 table=(opt,rrhf)
 ----------------------------------------------------------------------
 -----
 title
 -----
 Symbolic Z-matrix:
 Charge = -1 Multiplicity = 1

 SCF Done:  E(RHF) =  -935.178189479     A.U. after   16 cycles
 Normal termination of Gaussian 16 at Wed Apr  9 02:58:39 2025.
 Gaussian 16:  ES64L-G16RevC.01  3-Jul-2019

 ----------------------------------------------------------------------
 #t hf aug-cc-pvdz iop(5/13=1,5/36=2,99/5=2) pseudo=read geom=check gue
 ss=(read,tcheck) scf=(maxcycle=1)
 ----------------------------------------------------------------------
 -----
 title
 -----
 Structure from the checkpoint file:  "E2SN2_55_mol1.chk"
 Charge = -1 Multiplicity = 1

                         Standard orientation:
 ---------------------------------------------------------------------
 Center     Atomic      Atomic             Coordinates (Angstroms)
 Number     Number       Type             X           Y           Z
 ---------------------------------------------------------------------
      1          6           0       -0.394053   -0.057896   -0.528625
      2          6           0        0.699428   -0.901919   -0.070929
      3         17           0       -2.139340   -0.552542    0.057324
      4          9           0        2.735315    0.551037   -0.113159
      5          1           0        1.765978   -0.177546   -0.313234
      6          1           0       -0.504186   -0.025536   -1.608880
      7          6           0        0.699499   -2.243983   -0.777347
      8          1           0        0.613532   -2.136768   -1.865278
      9          1           0        1.639503   -2.754931   -0.556701
     10          1           0       -0.121105   -2.887274   -0.428147
     11          7           0        0.838313   -1.062170    1.372134
     12          1           0       -0.050196   -0.910715    1.838371
     13          1           0        1.478304   -0.337742    1.677216
     14          7           0       -0.260754    1.376779   -0.102521
     15          8           0       -0.103382    2.194169   -1.009279
     16          8           0       -0.289499    1.641446    1.093617
 ---------------------------------------------------------------------

 SCF Done:  E(RHF) =  -935.340537979     A.U. after    2 cycles

 The electronic state is 1-A.
 Alpha  occ. eigenvalues -- -103.53073 -25.79954 -20.49384 -20.49245 -15.78685
 Alpha  occ. eigenvalues --  -15.45439 -11.24003 -11.09554 -11.09177 -10.56333
 Alpha  occ. eigenvalues --   -8.22030  -8.21782  -8.21774  -1.41617  -1.30280
 Alpha  occ. eigenvalues --   -1.23448  -1.05687  -0.99487  -0.91797  -0.84636
 Alpha  occ. eigenvalues --   -0.73648  -0.66999  -0.62374  -0.60421  -0.58154
 Alpha  occ. eigenvalues --   -0.54697  -0.48806  -0.46162  -0.45173  -0.42577
 Alpha  occ. eigenvalues --   -0.40712  -0.39300  -0.39216  -0.38894  -0.38287
 Alpha  occ. eigenvalues --   -0.37033  -0.34960  -0.33991  -0.33440  -0.25312
 Alpha  occ. eigenvalues --   -0.20812
 Alpha virt. eigenvalues --    0.12968   0.13910   0.14719   0.15398   0.16415
 Alpha virt. eigenvalues --    0.18139   0.18425   0.19471   0.20005   0.22151
 Alpha virt. eigenvalues --    0.24544   0.25469   0.25657   0.26334   0.26750

 Mulliken charges:
               1
     1  C    1.142527
     2  C   -0.682530
     3  Cl  -0.323858
     4  F   -0.681698
     5  H    0.407821
     6  H   -0.238238
     7  C    0.561746
     8  H   -0.012633
     9  H   -0.076138
    10  H   -0.042964
    11  N   -0.345502
    12  H    0.029226
    13  H    0.041432
    14  N    0.515271
    15  O   -0.648502
    16  O   -0.645959
 Sum of Mulliken charges =  -1.00000

 Dipole moment (field-independent basis, Debye):
    X=             -5.7975    Y=             -2.5791    Z=             -1.2025  Tot=              6.4583

 Test job not archived.
 1\1\GINC-SE228\SP\RHF\Aug-CC-pVDZ\C3H7Cl1F1N2O2(1-)\OHZDE\09-Apr-2025\
 0\\#t hf aug-cc-pvdz iop(5/13=1,5/36=2,99/5=2) pseudo=read geom=check
 guess=(read,tcheck) scf=(maxcycle=1)\\title\\-1,1\C,0,-0.0981399,-0.00
 029918,-0.30045778\C,0,-0.11965971,0.11096541,1.15030742\Cl,0,1.604098
 12,-0.32996105,-1.09276148\F,0,-2.44316543,-0.50899596,1.83927124\H,0,
 -1.392134,-0.00743246,1.44653198\H,0,-0.43342074,0.89479159,-0.8167203
 1\C,0,0.49711266,1.41541528,1.61738563\H,0,0.09430126,2.27901348,1.074
 77984\H,0,0.27728995,1.54527479,2.67954103\H,0,1.5904078,1.41331885,1.

 Normal termination of Gaussian 16 at Wed Apr  9 02:58:47 2025.
