 Gaussian 16, Revision C.01,

 ----------------------------------------------------------------------
 #t hf aug-cc-pvdz symm=none int=(grid=ultrafine) guess=(read,tcheck) s
 table=(opt,rrhf)
 ----------------------------------------------------------------------
 -----
 title
 -----
 Symbolic Z-matrix:
 Charge = -1 Multiplicity = 1

 SCF Done:  E(RHF) =  -403.486907029     A.U. after   15 cycles
 Normal termination of Gaussian 16 at Wed Apr  9 02:35:07 2025.
 Gaussian 16:  ES64L-G16RevC.01  3-Jul-2019

 ----------------------------------------------------------------------
 #t hf aug-cc-pvdz iop(5/13=1,5/36=2,99/5=2) pseudo=read geom=check gue
 ss=(read,tcheck) scf=(maxcycle=1)
 ----------------------------------------------------------------------
 -----
 title
 -----
 Structure from the checkpoint file:  "E2SN2_155_mol2.chk"
 Charge = -1 Multiplicity = 1

                         Standard orientation:
 ---------------------------------------------------------------------
 Center     Atomic      Atomic             Coordinates (Angstroms)
 Number     Number       Type             X           Y           Z
 ---------------------------------------------------------------------
      1          6           0       -0.759284   -0.268677   -0.103081
      2          6           0        0.447645    0.492925    0.484781
      3          9           0       -0.544054   -0.378735   -1.495954
      4          1           0        0.273353    0.413386    1.564988
      5          7           0       -0.892235   -1.585798    0.442857
      6          1           0       -0.004207   -2.069943    0.333666
      7          1           0       -1.012278   -1.420027    1.464675
      8          6           0       -2.049809    0.483500    0.121994
      9          1           0       -2.051576    1.438290   -0.407276
     10          1           0       -2.164715    0.631106    1.200781
     11          1           0       -2.866801   -0.137099   -0.249346
     12          6           0        0.571507    1.954276    0.047561
     13          1           0       -0.243643    2.539305    0.476121
     14          1           0        0.538553    2.037781   -1.041558
     15          1           0        1.512622    2.383249    0.400958
     16          6           0        1.676234   -0.229399    0.161921
     17          7           0        2.677278   -0.790104   -0.093653
     18          1           0       -0.897887   -0.371876    2.997084
 ---------------------------------------------------------------------

 SCF Done:  E(RHF) =  -403.613694562     A.U. after    2 cycles

 The electronic state is 1-A.
 Alpha  occ. eigenvalues --  -25.97541 -15.51785 -15.46739 -11.23142 -11.17154
 Alpha  occ. eigenvalues --  -11.14689 -11.13304 -11.10244  -1.50821  -1.06911
 Alpha  occ. eigenvalues --   -1.04272  -0.94528  -0.86341  -0.79328  -0.71111
 Alpha  occ. eigenvalues --   -0.62021  -0.60400  -0.59501  -0.54149  -0.50486
 Alpha  occ. eigenvalues --   -0.47935  -0.46099  -0.44254  -0.43619  -0.42455
 Alpha  occ. eigenvalues --   -0.41328  -0.40069  -0.38547  -0.33062  -0.32483
 Alpha  occ. eigenvalues --   -0.26920  -0.09710
 Alpha virt. eigenvalues --    0.12014   0.12924   0.14287   0.14625   0.15781
 Alpha virt. eigenvalues --    0.16661   0.17924   0.18693   0.19337   0.20080
 Alpha virt. eigenvalues --    0.21311   0.22259   0.23199   0.24273   0.25243

 Mulliken charges:
               1
     1  C   -0.391327
     2  C    0.324436
     3  F   -0.518199
     4  H   -0.049816
     5  N   -0.489609
     6  H   -0.048212
     7  H    0.200733
     8  C    0.842296
     9  H   -0.015973
    10  H    0.070393
    11  H   -0.022176
    12  C    0.685776
    13  H   -0.027433
    14  H    0.040736
    15  H   -0.117034
    16  C   -0.448043
    17  N   -0.283429
    18  H   -0.753120
 Sum of Mulliken charges =  -1.00000

 Dipole moment (field-independent basis, Debye):
    X=              0.3929    Y=              4.4116    Z=             -7.7690  Tot=              8.9428

 Test job not archived.
 1\1\GINC-SE227\SP\RHF\Aug-CC-pVDZ\C5H10F1N2(1-)\OHZDE\09-Apr-2025\0\\#
 t hf aug-cc-pvdz iop(5/13=1,5/36=2,99/5=2) pseudo=read geom=check gues
 s=(read,tcheck) scf=(maxcycle=1)\\title\\-1,1\C,0,-0.283825,0.003249,-
 1.452283\C,0,-0.026023,-0.00191,0.069495\F,0,-1.680995,0.113167,-1.637
 664\H,0,1.068436,0.050935,0.123508\N,0,0.351125,1.105516,-2.109838\H,0
 ,0.072496,1.963678,-1.639907\H,0,1.362812,0.970888,-1.899199\C,0,0.182
 95,-1.281207,-2.095848\H,0,-0.385153,-2.138853,-1.73053\H,0,1.249921,-
 1.393786,-1.877509\H,0,0.040211,-1.185571,-3.173341\C,0,-0.561272,-1.2

 Normal termination of Gaussian 16 at Wed Apr  9 02:35:15 2025.
