 Gaussian 16, Revision C.01,

 ----------------------------------------------------------------------
 #t hf aug-cc-pvdz symm=none int=(grid=ultrafine) guess=(read,tcheck) s
 table=(opt,rrhf)
 ----------------------------------------------------------------------
 -----
 title
 -----
 Symbolic Z-matrix:
 Charge = -1 Multiplicity = 1

 SCF Done:  E(RHF) =  -1238.60559402     A.U. after   15 cycles
 Normal termination of Gaussian 16 at Wed Apr  9 02:47:54 2025.
 Gaussian 16:  ES64L-G16RevC.01  3-Jul-2019

 ----------------------------------------------------------------------
 #t hf aug-cc-pvdz iop(5/13=1,5/36=2,99/5=2) pseudo=read geom=check gue
 ss=(read,tcheck) scf=(maxcycle=1)
 ----------------------------------------------------------------------
 -----
 title
 -----
 Structure from the checkpoint file:  "E2SN2_290_mol2.chk"
 Charge = -1 Multiplicity = 1

                         Standard orientation:
 ---------------------------------------------------------------------
 Center     Atomic      Atomic             Coordinates (Angstroms)
 Number     Number       Type             X           Y           Z
 ---------------------------------------------------------------------
      1          6           0       -0.929176    0.022000   -0.213008
      2          6           0       -0.130080   -0.174888    1.117593
      3         17           0       -2.289630   -1.173917   -0.252765
      4          1           0       -0.894995   -0.284453    1.896852
      5          6           0       -1.564159    1.342153   -0.189977
      6          7           0       -2.056699    2.408867   -0.153934
      7          6           0       -0.083937   -0.149643   -1.462577
      8          1           0       -0.669767    0.086198   -2.353081
      9          1           0        0.256229   -1.182818   -1.514500
     10          1           0        0.801930    0.485696   -1.411922
     11          7           0        0.724992    0.943209    1.462452
     12          1           0        1.567842    0.933221    0.888115
     13          1           0        0.256312    1.837555    1.386257
     14          7           0        0.608182   -1.413527    1.013917
     15          1           0        1.458331   -1.223086    0.478590
     16          1           0        0.923854   -1.650929    1.947472
     17         17           0        3.325457    0.067507   -0.517059
 ---------------------------------------------------------------------

 SCF Done:  E(RHF) =  -1238.72917073     A.U. after    2 cycles

 The electronic state is 1-A.
 Alpha  occ. eigenvalues -- -103.55872-103.38404 -15.55318 -15.48723 -15.48491
 Alpha  occ. eigenvalues --  -11.24334 -11.20360 -11.20316 -11.13008 -10.59187
 Alpha  occ. eigenvalues --  -10.41496  -8.24902  -8.24616  -8.24612  -8.07095
 Alpha  occ. eigenvalues --   -8.07069  -8.07062  -1.12415  -1.08293  -1.05813
 Alpha  occ. eigenvalues --   -0.97579  -0.92473  -0.83970  -0.81021  -0.72660
 Alpha  occ. eigenvalues --   -0.60719  -0.56224  -0.54643  -0.50601  -0.49872
 Alpha  occ. eigenvalues --   -0.47640  -0.46288  -0.43225  -0.42695  -0.40985
 Alpha  occ. eigenvalues --   -0.37303  -0.36840  -0.35518  -0.35094  -0.29331
 Alpha  occ. eigenvalues --   -0.27413  -0.21730  -0.21634  -0.21520
 Alpha virt. eigenvalues --    0.12466   0.12882   0.14315   0.14866   0.16068
 Alpha virt. eigenvalues --    0.17154   0.18084   0.18569   0.19713   0.20296
 Alpha virt. eigenvalues --    0.21469   0.22752   0.22937   0.24127   0.24510

 Mulliken charges:
               1
     1  C   -0.539829
     2  C    1.000776
     3  Cl  -0.179073
     4  H   -0.182452
     5  C   -0.206068
     6  N   -0.286354
     7  C    0.922601
     8  H   -0.114133
     9  H    0.011897
    10  H    0.046293
    11  N   -0.348667
    12  H    0.059308
    13  H   -0.027337
    14  N   -0.290534
    15  H    0.088380
    16  H   -0.019739
    17  Cl  -0.935070
 Sum of Mulliken charges =  -1.00000

 Dipole moment (field-independent basis, Debye):
    X=             -8.2472    Y=             -1.5425    Z=              1.2945  Tot=              8.4895

 Test job not archived.
 1\1\GINC-SE402\SP\RHF\Aug-CC-pVDZ\C4H8Cl2N3(1-)\OHZDE\09-Apr-2025\0\\#
 t hf aug-cc-pvdz iop(5/13=1,5/36=2,99/5=2) pseudo=read geom=check gues
 s=(read,tcheck) scf=(maxcycle=1)\\title\\-1,1\C,0,0.081385,0.005138,-0
 .034764\C,0,-0.523277,-0.462498,-1.399872\Cl,0,1.735402,-0.713101,0.14
 1285\H,0,0.291749,-0.351836,-2.126392\C,0,0.283366,1.455505,-0.081415\
 N,0,0.428298,2.620666,-0.137714\C,0,-0.757436,-0.385453,1.169034\H,0,-
 0.336044,0.042198,2.080822\H,0,-0.769012,-1.471449,1.248657\H,0,-1.788
 966,-0.054805,1.036371\N,0,-1.651995,0.329156,-1.846523\H,0,-2.490062,

 Normal termination of Gaussian 16 at Wed Apr  9 02:48:03 2025.
