 Gaussian 16, Revision C.01,

 ----------------------------------------------------------------------
 #t hf aug-cc-pvdz symm=none int=(grid=ultrafine) guess=(read,tcheck) s
 table=(opt,rrhf)
 ----------------------------------------------------------------------
 -----
 title
 -----
 Symbolic Z-matrix:
 Charge = -1 Multiplicity = 1

 SCF Done:  E(RHF) =  -366.722753758     A.U. after   15 cycles
 Normal termination of Gaussian 16 at Wed Apr  9 02:42:05 2025.
 Gaussian 16:  ES64L-G16RevC.01  3-Jul-2019

 ----------------------------------------------------------------------
 #t hf aug-cc-pvdz iop(5/13=1,5/36=2,99/5=2) pseudo=read geom=check gue
 ss=(read,tcheck) scf=(maxcycle=1)
 ----------------------------------------------------------------------
 -----
 title
 -----
 Structure from the checkpoint file:  "E2SN2_23_mol1.chk"
 Charge = -1 Multiplicity = 1

                         Standard orientation:
 ---------------------------------------------------------------------
 Center     Atomic      Atomic             Coordinates (Angstroms)
 Number     Number       Type             X           Y           Z
 ---------------------------------------------------------------------
      1          6           0       -0.599965   -0.001541   -0.085371
      2          6           0        0.858499    0.017159   -0.265345
      3          9           0       -0.963931   -0.140516    1.387979
      4          1           0        1.479105   -1.124425   -2.330574
      5          1           0        1.159644   -0.485216   -1.634117
      6          7           0       -1.205204   -1.140767   -0.724778
      7          1           0       -1.929932   -1.506960   -0.119482
      8          1           0       -0.494027   -1.849892   -0.856177
      9          7           0        1.521157   -1.101859    0.385385
     10          1           0        1.729583   -1.820153   -0.318521
     11          1           0        0.937398   -1.501334    1.110981
     12          6           0        1.559064    1.318965    0.045898
     13          1           0        1.485840    1.622257    1.106641
     14          1           0        2.624298    1.193041   -0.175912
     15          1           0        1.193513    2.151502   -0.568004
     16          6           0       -1.339939    1.262959   -0.467766
     17          1           0       -1.137153    1.498044   -1.514749
     18          1           0       -2.415210    1.102495   -0.345219
     19          1           0       -1.035299    2.098407    0.164583
 ---------------------------------------------------------------------

 SCF Done:  E(RHF) =  -366.839829920     A.U. after    2 cycles

 The electronic state is 1-A.
 Alpha  occ. eigenvalues --  -25.90926 -15.46185 -15.43002 -11.18444 -11.08860
 Alpha  occ. eigenvalues --  -11.06112 -11.03944  -1.42578  -1.03020  -0.95969
 Alpha  occ. eigenvalues --   -0.86156  -0.79609  -0.70791  -0.60824  -0.54564
 Alpha  occ. eigenvalues --   -0.53508  -0.52711  -0.49167  -0.47308  -0.46231
 Alpha  occ. eigenvalues --   -0.40987  -0.39682  -0.39231  -0.38653  -0.35139
 Alpha  occ. eigenvalues --   -0.33326  -0.31544  -0.26278  -0.21590  -0.07682
 Alpha virt. eigenvalues --    0.12823   0.13497   0.13992   0.15008   0.15802
 Alpha virt. eigenvalues --    0.16021   0.17046   0.17640   0.19149   0.19757
 Alpha virt. eigenvalues --    0.19910   0.21832   0.23274   0.24796   0.25466

 Mulliken charges:
               1
     1  C    0.044443
     2  C   -0.593979
     3  F   -0.605868
     4  H   -0.924586
     5  H    0.804921
     6  N   -0.378370
     7  H   -0.020737
     8  H    0.026492
     9  N   -0.394882
    10  H   -0.037963
    11  H    0.010523
    12  C    0.555579
    13  H   -0.012139
    14  H   -0.122809
    15  H   -0.030027
    16  C    0.584903
    17  H    0.089511
    18  H   -0.083586
    19  H    0.088574
 Sum of Mulliken charges =  -1.00000

 Dipole moment (field-independent basis, Debye):
    X=             -4.4696    Y=              1.9632    Z=              3.4747  Tot=              5.9921

 Test job not archived.
 1\1\GINC-SE249\SP\RHF\Aug-CC-pVDZ\C4H12F1N2(1-)\OHZDE\09-Apr-2025\0\\#
 t hf aug-cc-pvdz iop(5/13=1,5/36=2,99/5=2) pseudo=read geom=check gues
 s=(read,tcheck) scf=(maxcycle=1)\\title\\-1,1\C,0,-0.15573843,0.041351
 09,-0.31991294\C,0,-0.20407159,-0.13616694,1.13817063\F,0,1.2177954,0.
 53138698,-0.76242436\H,0,-2.40588246,0.46670957,1.99962547\H,0,-1.6182
 7438,0.02535129,1.57468724\N,0,-1.07262948,1.05711089,-0.76772455\H,0,
 -0.62288366,1.60602408,-1.49031315\H,0,-1.29227075,1.65897687,0.016757
 17\N,0,0.24573273,1.04063793,1.86451231\H,0,-0.57538914,1.5663232,2.18

 Normal termination of Gaussian 16 at Wed Apr  9 02:42:13 2025.
