 Gaussian 16, Revision C.01,

 ----------------------------------------------------------------------
 #t hf aug-cc-pvdz symm=none int=(grid=ultrafine) guess=(read,tcheck) s
 table=(opt,rrhf)
 ----------------------------------------------------------------------
 -----
 title
 -----
 Symbolic Z-matrix:
 Charge = -1 Multiplicity = 1

 SCF Done:  E(RHF) =  -777.177356351     A.U. after   16 cycles
 Normal termination of Gaussian 16 at Wed Apr  9 02:58:59 2025.
 Gaussian 16:  ES64L-G16RevC.01  3-Jul-2019

 ----------------------------------------------------------------------
 #t hf aug-cc-pvdz iop(5/13=1,5/36=2,99/5=2) pseudo=read geom=check gue
 ss=(read,tcheck) scf=(maxcycle=1)
 ----------------------------------------------------------------------
 -----
 title
 -----
 Structure from the checkpoint file:  "E2SN2_79_mol2.chk"
 Charge = -1 Multiplicity = 1

                         Standard orientation:
 ---------------------------------------------------------------------
 Center     Atomic      Atomic             Coordinates (Angstroms)
 Number     Number       Type             X           Y           Z
 ---------------------------------------------------------------------
      1          6           0       -0.336571   -0.192976    0.203335
      2          6           0        0.687677   -0.836712   -0.701832
      3         17           0       -0.443297    1.686684   -0.244321
      4          1           0        0.608124   -1.924615   -0.624284
      5          1           0        0.478463   -0.584954   -1.742788
      6          6           0       -1.695716   -0.652792   -0.099406
      7          7           0       -2.804389   -0.976167   -0.312992
      8          7           0       -0.051563   -0.379216    1.560162
      9          1           0       -0.697144    0.099451    2.171485
     10          1           0        0.909204   -0.155652    1.783839
     11          6           0        2.021826   -0.403733   -0.336788
     12          7           0        3.098618   -0.090314    0.017888
     13          1           0        0.475451   -3.470693   -0.682064
 ---------------------------------------------------------------------

 SCF Done:  E(RHF) =  -777.286894000     A.U. after    2 cycles

 The electronic state is 1-A.
 Alpha  occ. eigenvalues -- -103.55055 -15.55713 -15.55647 -15.53690 -11.30768
 Alpha  occ. eigenvalues --  -11.20541 -11.19108 -11.16062 -10.58363  -8.24045
 Alpha  occ. eigenvalues --   -8.23792  -8.23790  -1.15682  -1.08368  -1.07411
 Alpha  occ. eigenvalues --   -1.02390  -0.94559  -0.82822  -0.65439  -0.61129
 Alpha  occ. eigenvalues --   -0.56876  -0.55502  -0.49504  -0.47205  -0.45841
 Alpha  occ. eigenvalues --   -0.44091  -0.39194  -0.37413  -0.37040  -0.35133
 Alpha  occ. eigenvalues --   -0.34700  -0.33897  -0.32153  -0.08904
 Alpha virt. eigenvalues --    0.11574   0.13842   0.14969   0.16808   0.17928
 Alpha virt. eigenvalues --    0.18470   0.20109   0.21270   0.21466   0.22560
 Alpha virt. eigenvalues --    0.23398   0.23638   0.24240   0.25336   0.25569

 Mulliken charges:
               1
     1  C    0.462089
     2  C    1.374716
     3  Cl  -0.194147
     4  H   -0.550977
     5  H   -0.011071
     6  C   -0.388426
     7  N   -0.194370
     8  N   -0.342064
     9  H    0.003074
    10  H    0.029749
    11  C   -0.169817
    12  N   -0.335639
    13  H   -0.683118
 Sum of Mulliken charges =  -1.00000

 Dipole moment (field-independent basis, Debye):
    X=             -1.9261    Y=             11.8248    Z=              3.4451  Tot=             12.4661

 Test job not archived.
 1\1\GINC-SE455\SP\RHF\Aug-CC-pVDZ\C4H5Cl1N3(1-)\OHZDE\09-Apr-2025\0\\#
 t hf aug-cc-pvdz iop(5/13=1,5/36=2,99/5=2) pseudo=read geom=check gues
 s=(read,tcheck) scf=(maxcycle=1)\\title\\-1,1\C,0,-0.493081,0.017589,-
 1.426923\C,0,0.015171,-0.019773,-0.004569\Cl,0,-2.387267,0.411268,-1.3
 82407\H,0,1.10872,-0.018514,-0.009564\H,0,-0.292496,0.882229,0.526916\
 C,0,0.037075,1.169062,-2.164082\N,0,0.420361,2.083816,-2.7931\N,0,-0.2
 3414,-1.166987,-2.124507\H,0,-0.624267,-1.173451,-3.055835\H,0,-0.5072
 42,-1.987687,-1.600148\C,0,-0.482281,-1.19955,0.674659\N,0,-0.843784,-

 Normal termination of Gaussian 16 at Wed Apr  9 02:59:04 2025.
