 Gaussian 16, Revision C.01,

 ----------------------------------------------------------------------
 #t hf aug-cc-pvdz symm=none int=(grid=ultrafine) guess=(read,tcheck) s
 table=(opt,rrhf)
 ----------------------------------------------------------------------
 -----
 title
 -----
 Symbolic Z-matrix:
 Charge = -1 Multiplicity = 1

 SCF Done:  E(RHF) =  -931.190307861     A.U. after   16 cycles
 Normal termination of Gaussian 16 at Wed Apr  9 02:35:30 2025.
 Gaussian 16:  ES64L-G16RevC.01  3-Jul-2019

 ----------------------------------------------------------------------
 #t hf aug-cc-pvdz iop(5/13=1,5/36=2,99/5=2) pseudo=read geom=check gue
 ss=(read,tcheck) scf=(maxcycle=1)
 ----------------------------------------------------------------------
 -----
 title
 -----
 Structure from the checkpoint file:  "E2SN2_150_mol2.chk"
 Charge = -1 Multiplicity = 1

                         Standard orientation:
 ---------------------------------------------------------------------
 Center     Atomic      Atomic             Coordinates (Angstroms)
 Number     Number       Type             X           Y           Z
 ---------------------------------------------------------------------
      1          6           0       -0.439583   -0.035245   -0.385324
      2          6           0        0.686710    0.029354    0.667596
      3         17           0       -1.980457    0.675687    0.480061
      4          1           0        0.821752    1.107619    0.808514
      5          7           0       -0.048717    0.662991   -1.509878
      6          1           0        0.390718    1.604288   -1.161434
      7          1           0       -0.787729    0.739326   -2.195523
      8          6           0       -0.841068   -1.424386   -0.651870
      9          7           0       -1.117057   -2.545217   -0.875196
     10          6           0        1.927779   -0.477547    0.052792
     11          7           0        2.939997   -0.949019   -0.315104
     12          7           0        0.355027   -0.682241    1.890232
     13          1           0        0.575672   -1.666885    1.797791
     14          1           0        0.905252   -0.306131    2.650626
     15          9           0        0.983816    2.564050   -0.276728
 ---------------------------------------------------------------------

 SCF Done:  E(RHF) =  -931.343222036     A.U. after    2 cycles

 The electronic state is 1-A.
 Alpha  occ. eigenvalues -- -103.52039 -25.78891 -15.54396 -15.52365 -15.52316
 Alpha  occ. eigenvalues --  -15.48182 -11.27004 -11.19847 -11.19359 -11.17551
 Alpha  occ. eigenvalues --  -10.55346  -8.21037  -8.20779  -8.20770  -1.28550
 Alpha  occ. eigenvalues --   -1.12983  -1.07703  -1.06027  -1.04562  -0.98579
 Alpha  occ. eigenvalues --   -0.87231  -0.78665  -0.63622  -0.59581  -0.58280
 Alpha  occ. eigenvalues --   -0.52591  -0.49362  -0.47761  -0.46948  -0.44408
 Alpha  occ. eigenvalues --   -0.43135  -0.38895  -0.37685  -0.37552  -0.36575
 Alpha  occ. eigenvalues --   -0.34806  -0.34135  -0.34000  -0.32393  -0.32013
 Alpha  occ. eigenvalues --   -0.30328  -0.26539
 Alpha virt. eigenvalues --    0.12017   0.13684   0.14769   0.17232   0.17650
 Alpha virt. eigenvalues --    0.18498   0.19549   0.19691   0.21300   0.22535
 Alpha virt. eigenvalues --    0.23311   0.23516   0.24216   0.24879   0.25969

 Mulliken charges:
               1
     1  C    0.807498
     2  C    0.992644
     3  Cl  -0.214754
     4  H   -0.032577
     5  N   -0.605518
     6  H    0.260180
     7  H   -0.018356
     8  C   -0.330741
     9  N   -0.271907
    10  C   -0.026612
    11  N   -0.348665
    12  N   -0.366844
    13  H    0.019746
    14  H    0.039235
    15  F   -0.903329
 Sum of Mulliken charges =  -1.00000

 Dipole moment (field-independent basis, Debye):
    X=             -2.7018    Y=             -3.1710    Z=              2.4535  Tot=              4.8347

 Test job not archived.
 1\1\GINC-SE036\SP\RHF\Aug-CC-pVDZ\C4H5Cl1F1N4(1-)\OHZDE\09-Apr-2025\0\
 \#t hf aug-cc-pvdz iop(5/13=1,5/36=2,99/5=2) pseudo=read geom=check gu
 ess=(read,tcheck) scf=(maxcycle=1)\\title\\-1,1\C,0,-0.021537,-0.01415
 8,-1.513395\C,0,0.082904,0.101573,0.021873\Cl,0,0.39039,1.722356,-2.17
 9312\H,0,1.14971,0.299259,0.175482\N,0,0.832082,-1.006158,-1.951805\H,
 0,1.782615,-0.861089,-1.426451\H,0,0.88011,-1.058956,-2.96026\C,0,-1.4
 17071,-0.192321,-1.940818\N,0,-2.535952,-0.372247,-2.253932\C,0,-0.192
 398,-1.22352,0.607979\N,0,-0.487699,-2.211352,1.17296\N,0,-0.786078,1.

 Normal termination of Gaussian 16 at Wed Apr  9 02:35:39 2025.
