 Gaussian 16, Revision C.01,

 ----------------------------------------------------------------------
 #t hf aug-cc-pvdz symm=none int=(grid=ultrafine) guess=(read,tcheck) s
 table=(opt,rrhf)
 ----------------------------------------------------------------------
 -----
 title
 -----
 Symbolic Z-matrix:
 Charge = -1 Multiplicity = 1

 SCF Done:  E(RHF) =  -364.437719439     A.U. after   16 cycles
 Normal termination of Gaussian 16 at Wed Apr  9 02:37:45 2025.
 Gaussian 16:  ES64L-G16RevC.01  3-Jul-2019

 ----------------------------------------------------------------------
 #t hf aug-cc-pvdz iop(5/13=1,5/36=2,99/5=2) pseudo=read geom=check gue
 ss=(read,tcheck) scf=(maxcycle=1)
 ----------------------------------------------------------------------
 -----
 title
 -----
 Structure from the checkpoint file:  "E2SN2_190_mol2.chk"
 Charge = -1 Multiplicity = 1

                         Standard orientation:
 ---------------------------------------------------------------------
 Center     Atomic      Atomic             Coordinates (Angstroms)
 Number     Number       Type             X           Y           Z
 ---------------------------------------------------------------------
      1          6           0        1.003664    0.183849    0.100110
      2          6           0       -0.449326    0.472699    0.450469
      3          9           0        1.140317    0.151074   -1.305140
      4          1           0       -0.445368    0.612124    1.546686
      5          1           0        1.559605    1.050898    0.464966
      6          6           0        1.546976   -1.110031    0.655846
      7          1           0        1.493384   -1.086655    1.746938
      8          1           0        2.591514   -1.236639    0.360960
      9          1           0        0.972434   -1.962111    0.285233
     10          6           0       -1.316259   -0.653397    0.075012
     11          7           0       -1.982782   -1.574341   -0.223562
     12          7           0       -0.943466    1.730795   -0.081792
     13          1           0       -0.554578    2.408668    0.603656
     14          1           0       -0.500464    1.888740   -0.980551
     15          1           0        0.394026    2.511410    2.167235
 ---------------------------------------------------------------------

 SCF Done:  E(RHF) =  -364.552759518     A.U. after    2 cycles

 The electronic state is 1-A.
 Alpha  occ. eigenvalues --  -25.98748 -15.51658 -15.47006 -11.20397 -11.17078
 Alpha  occ. eigenvalues --  -11.16890 -11.12741  -1.51725  -1.06914  -1.03047
 Alpha  occ. eigenvalues --   -0.93247  -0.81673  -0.74754  -0.63856  -0.62077
 Alpha  occ. eigenvalues --   -0.59786  -0.54903  -0.49789  -0.48250  -0.44965
 Alpha  occ. eigenvalues --   -0.43504  -0.43111  -0.40883  -0.39146  -0.33188
 Alpha  occ. eigenvalues --   -0.32542  -0.27148  -0.09641
 Alpha virt. eigenvalues --    0.12112   0.14098   0.14779   0.15246   0.16779
 Alpha virt. eigenvalues --    0.17503   0.19162   0.19601   0.21320   0.22122
 Alpha virt. eigenvalues --    0.23729   0.24199   0.25067   0.25841   0.26091

 Mulliken charges:
               1
     1  C    0.621734
     2  C    0.307066
     3  F   -0.521083
     4  H   -0.094015
     5  H   -0.116685
     6  C    0.394221
     7  H    0.058454
     8  H   -0.031712
     9  H   -0.010790
    10  C   -0.397595
    11  N   -0.286559
    12  N   -0.354513
    13  H    0.143330
    14  H    0.029286
    15  H   -0.741140
 Sum of Mulliken charges =  -1.00000

 Dipole moment (field-independent basis, Debye):
    X=              2.5285    Y=             -6.7504    Z=             -5.2558  Tot=              8.9211

 Test job not archived.
 1\1\GINC-SE113\SP\RHF\Aug-CC-pVDZ\C4H8F1N2(1-)\OHZDE\09-Apr-2025\0\\#t
  hf aug-cc-pvdz iop(5/13=1,5/36=2,99/5=2) pseudo=read geom=check guess
 =(read,tcheck) scf=(maxcycle=1)\\title\\-1,1\C,0,-0.113537,-0.071019,0
 .043285\C,0,-0.657848,-0.191279,-1.37327\F,0,1.266592,0.222282,-0.0175
 16\H,0,-1.750726,-0.28714,-1.240693\H,0,-0.617393,0.801561,0.466012\C,
 0,-0.296044,-1.299253,0.901357\H,0,-1.362173,-1.517319,0.999931\H,0,0.
 11785,-1.126607,1.897817\H,0,0.208107,-2.160493,0.456846\C,0,-0.112376
 ,-1.377272,-2.048927\N,0,0.329537,-2.339566,-2.559067\N,0,-0.484997,1.

 Normal termination of Gaussian 16 at Wed Apr  9 02:37:50 2025.
