 Gaussian 16, Revision C.01,

 ----------------------------------------------------------------------
 #t hf aug-cc-pvdz symm=none int=(grid=ultrafine) guess=(read,tcheck) s
 table=(opt,rrhf)
 ----------------------------------------------------------------------
 -----
 title
 -----
 Symbolic Z-matrix:
 Charge = -1 Multiplicity = 1

 SCF Done:  E(RHF) =  -403.465465561     A.U. after   15 cycles
 Normal termination of Gaussian 16 at Wed Apr  9 02:34:08 2025.
 Gaussian 16:  ES64L-G16RevC.01  3-Jul-2019

 ----------------------------------------------------------------------
 #t hf aug-cc-pvdz iop(5/13=1,5/36=2,99/5=2) pseudo=read geom=check gue
 ss=(read,tcheck) scf=(maxcycle=1)
 ----------------------------------------------------------------------
 -----
 title
 -----
 Structure from the checkpoint file:  "E2SN2_148_mol2.chk"
 Charge = -1 Multiplicity = 1

                         Standard orientation:
 ---------------------------------------------------------------------
 Center     Atomic      Atomic             Coordinates (Angstroms)
 Number     Number       Type             X           Y           Z
 ---------------------------------------------------------------------
      1          6           0       -0.371177    0.388576    0.133000
      2          6           0        0.884337   -0.343029   -0.361752
      3          9           0       -0.404818    0.376527    1.539251
      4          1           0        0.811201   -0.385228   -1.462281
      5          6           0       -0.402471    1.830131   -0.323943
      6          1           0       -1.285104    2.337267    0.073329
      7          1           0       -0.401033    1.873878   -1.415458
      8          1           0        0.515523    2.290685    0.038164
      9          6           0       -1.595942   -0.317960   -0.301901
     10          7           0       -2.575429   -0.861575   -0.655361
     11          6           0        0.951174   -1.763945    0.186747
     12          1           0        1.093761   -1.744406    1.271356
     13          1           0        0.048290   -2.343180   -0.031240
     14          1           0        1.803916   -2.269969   -0.271578
     15          7           0        2.054237    0.455732   -0.057835
     16          1           0        2.524244    0.572551   -0.997957
     17          1           0        2.678868   -0.070063    0.543148
     18          1           0        2.706508    0.427987   -2.601283
 ---------------------------------------------------------------------

 SCF Done:  E(RHF) =  -403.592217113     A.U. after    2 cycles

 The electronic state is 1-A.
 Alpha  occ. eigenvalues --  -26.00659 -15.54531 -15.44854 -11.24990 -11.19106
 Alpha  occ. eigenvalues --  -11.14376 -11.12594 -11.11348  -1.53811  -1.08523
 Alpha  occ. eigenvalues --   -1.03387  -0.94664  -0.86428  -0.79376  -0.71170
 Alpha  occ. eigenvalues --   -0.67658  -0.62720  -0.59579  -0.52138  -0.51594
 Alpha  occ. eigenvalues --   -0.48531  -0.46818  -0.45486  -0.44543  -0.42874
 Alpha  occ. eigenvalues --   -0.40730  -0.38705  -0.36179  -0.35978  -0.34946
 Alpha  occ. eigenvalues --   -0.25010  -0.08867
 Alpha virt. eigenvalues --    0.12276   0.12665   0.14052   0.15310   0.15755
 Alpha virt. eigenvalues --    0.16171   0.16933   0.18489   0.18882   0.20311
 Alpha virt. eigenvalues --    0.21730   0.22116   0.22486   0.23566   0.24055

 Mulliken charges:
               1
     1  C   -0.001939
     2  C   -0.088274
     3  F   -0.512255
     4  H   -0.113517
     5  C    0.802682
     6  H    0.019154
     7  H    0.081112
     8  H    0.109104
     9  C   -0.437873
    10  N   -0.246341
    11  C    0.541140
    12  H   -0.000760
    13  H   -0.124847
    14  H   -0.016116
    15  N   -0.393930
    16  H    0.147429
    17  H    0.009539
    18  H   -0.774308
 Sum of Mulliken charges =  -1.00000

 Dipole moment (field-independent basis, Debye):
    X=             -6.6047    Y=             -0.9229    Z=              8.5625  Tot=             10.8531

 Test job not archived.
 1\1\GINC-SE419\SP\RHF\Aug-CC-pVDZ\C5H10F1N2(1-)\OHZDE\09-Apr-2025\0\\#
 t hf aug-cc-pvdz iop(5/13=1,5/36=2,99/5=2) pseudo=read geom=check gues
 s=(read,tcheck) scf=(maxcycle=1)\\title\\-1,1\C,0,-0.460389,-0.044249,
 -1.512633\C,0,0.054685,-0.121639,-0.068662\F,0,-1.857269,0.121704,-1.5
 10436\H,0,1.133849,-0.344908,-0.130706\C,0,0.147967,1.116123,-2.268474
 \H,0,-0.263905,1.171139,-3.279111\H,0,1.233916,1.004696,-2.308736\H,0,
 -0.082911,2.014072,-1.697224\C,0,-0.210226,-1.314763,-2.227892\N,0,-0.
 002206,-2.313204,-2.81072\C,0,-0.639092,-1.234197,0.709289\H,0,-1.6991

 Normal termination of Gaussian 16 at Wed Apr  9 02:34:16 2025.
