 Gaussian 16, Revision C.01,

 ----------------------------------------------------------------------
 #t hf aug-cc-pvdz symm=none int=(grid=ultrafine) guess=(read,tcheck) s
 table=(opt,rrhf)
 ----------------------------------------------------------------------
 -----
 title
 -----
 Symbolic Z-matrix:
 Charge = -1 Multiplicity = 1

 SCF Done:  E(RHF) =  -951.206062350     A.U. after   16 cycles
 Normal termination of Gaussian 16 at Wed Apr  9 03:00:29 2025.
 Gaussian 16:  ES64L-G16RevC.01  3-Jul-2019

 ----------------------------------------------------------------------
 #t hf aug-cc-pvdz iop(5/13=1,5/36=2,99/5=2) pseudo=read geom=check gue
 ss=(read,tcheck) scf=(maxcycle=1)
 ----------------------------------------------------------------------
 -----
 title
 -----
 Structure from the checkpoint file:  "E2SN2_92_mol2.chk"
 Charge = -1 Multiplicity = 1

                         Standard orientation:
 ---------------------------------------------------------------------
 Center     Atomic      Atomic             Coordinates (Angstroms)
 Number     Number       Type             X           Y           Z
 ---------------------------------------------------------------------
      1          6           0       -0.380010   -0.143166    0.327648
      2          6           0        0.773264   -0.972994   -0.239176
      3         17           0       -0.010013    1.638091    0.110141
      4          1           0        1.126280   -0.528947   -1.171128
      5          1           0        0.347609   -1.964349   -0.437128
      6          7           0       -1.663896   -0.312024   -0.476176
      7          8           0       -1.569379   -0.704109   -1.635402
      8          8           0       -2.714882   -0.022438    0.088827
      9          7           0       -0.630160   -0.516330    1.649197
     10          1           0       -1.191453    0.161514    2.144106
     11          1           0        0.306389   -0.634891    2.047031
     12          7           0        1.839110   -0.990187    0.751289
     13          1           0        2.605601   -0.389421    0.249731
     14          1           0        2.197529   -1.936398    0.800461
     15          9           0        3.319717    0.298230   -0.792652
 ---------------------------------------------------------------------

 SCF Done:  E(RHF) =  -951.372410590     A.U. after    2 cycles

 The electronic state is 1-A.
 Alpha  occ. eigenvalues -- -103.53695 -25.74702 -20.51483 -20.51154 -15.80327
 Alpha  occ. eigenvalues --  -15.51522 -15.43773 -11.27887 -11.13675 -10.57038
 Alpha  occ. eigenvalues --   -8.22750  -8.22460  -8.22447  -1.43678  -1.25486
 Alpha  occ. eigenvalues --   -1.23830  -1.13013  -1.01143  -0.98775  -0.89959
 Alpha  occ. eigenvalues --   -0.78031  -0.69621  -0.63426  -0.62584  -0.61816
 Alpha  occ. eigenvalues --   -0.56277  -0.53770  -0.49107  -0.45452  -0.44071
 Alpha  occ. eigenvalues --   -0.41339  -0.40117  -0.39819  -0.36621  -0.34986
 Alpha  occ. eigenvalues --   -0.34121  -0.33638  -0.33240  -0.30507  -0.30139
 Alpha  occ. eigenvalues --   -0.24118
 Alpha virt. eigenvalues --    0.12412   0.13320   0.14907   0.16998   0.17507
 Alpha virt. eigenvalues --    0.17975   0.19633   0.20234   0.21435   0.23023
 Alpha virt. eigenvalues --    0.24575   0.25544   0.26370   0.26659   0.28051

 Mulliken charges:
               1
     1  C    0.545818
     2  C    0.979633
     3  Cl  -0.130620
     4  H   -0.056206
     5  H   -0.013612
     6  N    0.314223
     7  O   -0.573155
     8  O   -0.622567
     9  N   -0.434960
    10  H    0.029208
    11  H    0.186711
    12  N   -0.623430
    13  H    0.291209
    14  H    0.012934
    15  F   -0.905185
 Sum of Mulliken charges =  -1.00000

 Dipole moment (field-independent basis, Debye):
    X=             -7.2978    Y=             -1.7515    Z=              3.7891  Tot=              8.4073

 Test job not archived.
 1\1\GINC-SE072\SP\RHF\Aug-CC-pVDZ\C2H6Cl1F1N3O2(1-)\OHZDE\09-Apr-2025\
 0\\#t hf aug-cc-pvdz iop(5/13=1,5/36=2,99/5=2) pseudo=read geom=check
 guess=(read,tcheck) scf=(maxcycle=1)\\title\\-1,1\C,0,-0.596159,-0.074
 286,-1.462971\C,0,-0.016552,-0.174356,-0.050885\Cl,0,0.579588,0.829775
 ,-2.538785\H,0,1.052884,-0.38388,-0.103236\H,0,-0.538428,-1.017547,0.4
 17972\N,0,-0.689263,-1.432771,-2.147704\O,0,0.03266,-2.335562,-1.73507
 3\O,0,-1.473013,-1.528025,-3.088088\N,0,-1.872799,0.488001,-1.414601\H
 ,0,-2.18876,0.811338,-2.317418\H,0,-1.778522,1.239809,-0.725146\N,0,-0

 Normal termination of Gaussian 16 at Wed Apr  9 03:00:36 2025.
