 Gaussian 16, Revision C.01,

 ----------------------------------------------------------------------
 #t hf aug-cc-pvdz symm=none int=(grid=ultrafine) guess=(read,tcheck) s
 table=(opt,rrhf)
 ----------------------------------------------------------------------
 -----
 title
 -----
 Symbolic Z-matrix:
 Charge = -1 Multiplicity = 1

 SCF Done:  E(RHF) =  -531.245514651     A.U. after   17 cycles
 Normal termination of Gaussian 16 at Wed Apr  9 02:56:30 2025.
 Gaussian 16:  ES64L-G16RevC.01  3-Jul-2019

 ----------------------------------------------------------------------
 #t hf aug-cc-pvdz iop(5/13=1,5/36=2,99/5=2) pseudo=read geom=check gue
 ss=(read,tcheck) scf=(maxcycle=1)
 ----------------------------------------------------------------------
 -----
 title
 -----
 Structure from the checkpoint file:  "E2SN2_39_mol2.chk"
 Charge = -1 Multiplicity = 1

                         Standard orientation:
 ---------------------------------------------------------------------
 Center     Atomic      Atomic             Coordinates (Angstroms)
 Number     Number       Type             X           Y           Z
 ---------------------------------------------------------------------
      1          6           0        0.135489    0.507510    0.102486
      2          6           0       -1.089878   -0.262177   -0.362317
      3          9           0        0.071872    0.671295    1.469642
      4          1           0       -1.007348   -0.393192   -1.445079
      5          7           0        1.361516   -0.346007   -0.162994
      6          8           0        2.014914   -0.756417    0.786955
      7          8           0        1.615174   -0.542236   -1.348129
      8          6           0        0.335675    1.854473   -0.540421
      9          1           0       -0.563984    2.439495   -0.359701
     10          1           0        0.475374    1.733558   -1.613582
     11          1           0        1.210123    2.347275   -0.107167
     12          7           0       -2.272141    0.554338   -0.126849
     13          1           0       -2.454952    0.530483    0.873936
     14          1           0       -3.019063   -0.026383   -0.559833
     15          7           0       -1.068085   -1.597260    0.215099
     16          1           0       -1.908715   -2.029713   -0.193743
     17          1           0       -1.247493   -1.506194    1.211667
     18          1           0       -3.608237   -1.624108   -1.219175
 ---------------------------------------------------------------------

 SCF Done:  E(RHF) =  -531.412232439     A.U. after    2 cycles

 The electronic state is 1-A.
 Alpha  occ. eigenvalues --  -26.03181 -20.51574 -20.51079 -15.80402 -15.46950
 Alpha  occ. eigenvalues --  -15.46796 -11.28521 -11.17775 -11.14893  -1.57189
 Alpha  occ. eigenvalues --   -1.43636  -1.25666  -1.08508  -0.99214  -0.95780
 Alpha  occ. eigenvalues --   -0.86073  -0.78230  -0.72977  -0.70049  -0.66051
 Alpha  occ. eigenvalues --   -0.64085  -0.61359  -0.60664  -0.55969  -0.52325
 Alpha  occ. eigenvalues --   -0.49179  -0.48316  -0.47626  -0.46315  -0.42322
 Alpha  occ. eigenvalues --   -0.41004  -0.39991  -0.37311  -0.36662  -0.32432
 Alpha  occ. eigenvalues --   -0.24798  -0.09367
 Alpha virt. eigenvalues --    0.11256   0.13162   0.13797   0.14947   0.16353
 Alpha virt. eigenvalues --    0.17554   0.18701   0.19303   0.19516   0.20566
 Alpha virt. eigenvalues --    0.21801   0.22819   0.22986   0.24315   0.24977

 Mulliken charges:
               1
     1  C   -0.254785
     2  C    1.039036
     3  F   -0.343132
     4  H   -0.098934
     5  N    0.410337
     6  O   -0.611163
     7  O   -0.621641
     8  C    0.577578
     9  H    0.113011
    10  H    0.115351
    11  H   -0.031754
    12  N   -0.389007
    13  H   -0.003159
    14  H    0.111287
    15  N   -0.275682
    16  H    0.095523
    17  H   -0.015601
    18  H   -0.817264
 Sum of Mulliken charges =  -1.00000

 Dipole moment (field-independent basis, Debye):
    X=              9.5064    Y=              7.7470    Z=              4.2734  Tot=             12.9866

 Test job not archived.
 1\1\GINC-SE097\SP\RHF\Aug-CC-pVDZ\C3H9F1N3O2(1-)\OHZDE\09-Apr-2025\0\\
 #t hf aug-cc-pvdz iop(5/13=1,5/36=2,99/5=2) pseudo=read geom=check gue
 ss=(read,tcheck) scf=(maxcycle=1)\\title\\-1,1\C,0,-0.578951,-0.037003
 ,-1.469588\C,0,0.233457,0.03501,-0.187094\F,0,-1.897606,-0.284299,-1.1
 53386\H,0,1.270042,0.248169,-0.463507\N,0,-0.552456,1.330611,-2.126126
 \O,0,-1.596385,1.962024,-2.222562\O,0,0.546491,1.691701,-2.537615\C,0,
 -0.11772,-1.062946,-2.470796\H,0,-0.120153,-2.030134,-1.971958\H,0,0.8
 94761,-0.830237,-2.797201\H,0,-0.790939,-1.071145,-3.33215\N,0,0.22828

 Normal termination of Gaussian 16 at Wed Apr  9 02:56:38 2025.
