 Gaussian 16, Revision C.01,

 ----------------------------------------------------------------------
 #t hf aug-cc-pvdz symm=none int=(grid=ultrafine) guess=(read,tcheck) s
 table=(opt,rrhf)
 ----------------------------------------------------------------------
 -----
 title
 -----
 Symbolic Z-matrix:
 Charge = -1 Multiplicity = 1

 SCF Done:  E(RHF) =  -419.422137669     A.U. after   17 cycles
 Normal termination of Gaussian 16 at Wed Apr  9 02:47:17 2025.
 Gaussian 16:  ES64L-G16RevC.01  3-Jul-2019

 ----------------------------------------------------------------------
 #t hf aug-cc-pvdz iop(5/13=1,5/36=2,99/5=2) pseudo=read geom=check gue
 ss=(read,tcheck) scf=(maxcycle=1)
 ----------------------------------------------------------------------
 -----
 title
 -----
 Structure from the checkpoint file:  "E2SN2_287_mol1.chk"
 Charge = -1 Multiplicity = 1

                         Standard orientation:
 ---------------------------------------------------------------------
 Center     Atomic      Atomic             Coordinates (Angstroms)
 Number     Number       Type             X           Y           Z
 ---------------------------------------------------------------------
      1          6           0       -0.361681   -0.190305    0.202068
      2          1           0        0.625226   -0.102250   -1.686222
      3          9           0       -0.580323    1.387772    0.719189
      4          1           0       -0.433392   -1.901860   -0.608096
      5          6           0        0.944403   -0.045112   -0.636749
      6          6           0       -1.598744   -0.293448   -0.530539
      7          7           0       -2.650601   -0.156926   -1.053560
      8          6           0       -0.284645   -0.762962    1.607374
      9          1           0       -0.119860   -1.834990    1.613990
     10          1           0        0.541938   -0.267626    2.120378
     11          1           0       -1.209718   -0.517589    2.133561
     12          7           0        1.897985   -1.089530   -0.273017
     13          1           0        2.685189   -0.996705   -0.907571
     14          1           0        1.409607   -1.961602   -0.464097
     15          7           0        1.677954    1.208201   -0.468326
     16          1           0        2.070408    1.170324    0.467964
     17          1           0        0.980145    1.941102   -0.431209
 ---------------------------------------------------------------------

 SCF Done:  E(RHF) =  -419.547677411     A.U. after    2 cycles

 The electronic state is 1-A.
 Alpha  occ. eigenvalues --  -25.87600 -15.46824 -15.46805 -15.46134 -11.21652
 Alpha  occ. eigenvalues --  -11.16757 -11.13858 -11.09897  -1.38232  -1.06725
 Alpha  occ. eigenvalues --   -1.00743  -0.95486  -0.90576  -0.77855  -0.68349
 Alpha  occ. eigenvalues --   -0.57654  -0.56133  -0.53088  -0.49571  -0.48044
 Alpha  occ. eigenvalues --   -0.45138  -0.43554  -0.41918  -0.40946  -0.39461
 Alpha  occ. eigenvalues --   -0.38766  -0.37262  -0.30815  -0.29302  -0.26944
 Alpha  occ. eigenvalues --   -0.25771  -0.12047
 Alpha virt. eigenvalues --    0.12697   0.13368   0.14472   0.15181   0.16270
 Alpha virt. eigenvalues --    0.16755   0.17462   0.18332   0.20282   0.21027
 Alpha virt. eigenvalues --    0.23208   0.24461   0.24974   0.25433   0.26157

 Mulliken charges:
               1
     1  C    0.191386
     2  H   -0.268896
     3  F   -0.715788
     4  H   -0.327161
     5  C    1.029408
     6  C   -0.692636
     7  N   -0.352991
     8  C    0.723190
     9  H   -0.013487
    10  H    0.040706
    11  H   -0.024452
    12  N   -0.255440
    13  H   -0.070096
    14  H    0.127433
    15  N   -0.497271
    16  H    0.033174
    17  H    0.072921
 Sum of Mulliken charges =  -1.00000

 Dipole moment (field-independent basis, Debye):
    X=              4.8643    Y=              0.7812    Z=              2.2688  Tot=              5.4239

 Test job not archived.
 1\1\GINC-SE208\SP\RHF\Aug-CC-pVDZ\C4H9F1N3(1-)\OHZDE\09-Apr-2025\0\\#t
  hf aug-cc-pvdz iop(5/13=1,5/36=2,99/5=2) pseudo=read geom=check guess
 =(read,tcheck) scf=(maxcycle=1)\\title\\-1,1\C,0,0.48938116,-0.0064139
 2,-0.06431425\H,0,1.37598343,1.70820841,-0.97061566\F,0,-1.00849395,-0
 .22516696,-0.78129632\H,0,2.32057873,0.06467225,0.41796293\C,0,0.64163
 438,1.54148704,-0.17094822\C,0,1.23719321,-0.80131241,-1.00590374\N,0,
 1.63862201,-1.49215901,-1.87778529\C,0,0.07498567,-0.62465351,1.260378
 89\H,0,0.87422106,-0.61785567,1.99360451\H,0,-0.77033342,-0.04925859,1

 Normal termination of Gaussian 16 at Wed Apr  9 02:47:24 2025.
