 Gaussian 16, Revision C.01,

 ----------------------------------------------------------------------
 #t hf aug-cc-pvdz symm=none int=(grid=ultrafine) guess=(read,tcheck) s
 table=(opt,rrhf)
 ----------------------------------------------------------------------
 -----
 title
 -----
 Symbolic Z-matrix:
 Charge = -1 Multiplicity = 1

 SCF Done:  E(RHF) =  -515.186785606     A.U. after   18 cycles
 Normal termination of Gaussian 16 at Wed Apr  9 02:55:48 2025.
 Gaussian 16:  ES64L-G16RevC.01  3-Jul-2019

 ----------------------------------------------------------------------
 #t hf aug-cc-pvdz iop(5/13=1,5/36=2,99/5=2) pseudo=read geom=check gue
 ss=(read,tcheck) scf=(maxcycle=1)
 ----------------------------------------------------------------------
 -----
 title
 -----
 Structure from the checkpoint file:  "E2SN2_380_mol2.chk"
 Charge = -1 Multiplicity = 1

                         Standard orientation:
 ---------------------------------------------------------------------
 Center     Atomic      Atomic             Coordinates (Angstroms)
 Number     Number       Type             X           Y           Z
 ---------------------------------------------------------------------
      1          6           0        0.056797   -0.380056    0.413462
      2          6           0       -0.992384    0.217622   -0.496453
      3          9           0       -0.072389    0.044974    1.723536
      4          1           0       -0.498169    0.233232   -1.498254
      5          7           0        0.047919   -1.812147    0.430282
      6          1           0        0.840769   -2.081860    1.008415
      7          1           0        0.313408   -2.075461   -0.516069
      8          7           0        1.412669    0.123420   -0.054058
      9          8           0        1.814343   -0.524312   -1.108965
     10          8           0        1.662704    1.342648    0.117178
     11          6           0       -1.319668    1.656407   -0.116965
     12          1           0       -1.987451    2.088668   -0.871142
     13          1           0       -1.816892    1.705275    0.856472
     14          1           0       -0.403057    2.243464   -0.072929
     15          6           0       -2.256162   -0.628866   -0.596498
     16          1           0       -2.968573   -0.139115   -1.270857
     17          1           0       -2.052097   -1.628090   -0.983078
     18          1           0       -2.732474   -0.744930    0.382753
     19          1           0        0.984040    0.077812   -2.467687
 ---------------------------------------------------------------------

 SCF Done:  E(RHF) =  -515.346721140     A.U. after    2 cycles

 The electronic state is 1-A.
 Alpha  occ. eigenvalues --  -25.98180 -20.47461 -20.37907 -15.63595 -15.49168
 Alpha  occ. eigenvalues --  -11.25278 -11.10285 -11.09900 -11.08425  -1.52091
 Alpha  occ. eigenvalues --   -1.29092  -1.12333  -1.05830  -0.93675  -0.83605
 Alpha  occ. eigenvalues --   -0.79515  -0.71816  -0.68269  -0.62084  -0.60834
 Alpha  occ. eigenvalues --   -0.57268  -0.52809  -0.51169  -0.50586  -0.49264
 Alpha  occ. eigenvalues --   -0.47295  -0.45504  -0.42021  -0.40819  -0.37027
 Alpha  occ. eigenvalues --   -0.35526  -0.34782  -0.34140  -0.32605  -0.28806
 Alpha  occ. eigenvalues --   -0.26404  -0.08259
 Alpha virt. eigenvalues --    0.12292   0.12963   0.13944   0.14598   0.15740
 Alpha virt. eigenvalues --    0.16177   0.17275   0.17957   0.18525   0.20281
 Alpha virt. eigenvalues --    0.21110   0.22739   0.24059   0.24552   0.24956

 Mulliken charges:
               1
     1  C    1.112141
     2  C   -1.082617
     3  F   -0.367917
     4  H   -0.137520
     5  N   -0.339631
     6  H   -0.056199
     7  H    0.166473
     8  N    0.196338
     9  O   -0.619542
    10  O   -0.855721
    11  C    0.675948
    12  H   -0.037362
    13  H   -0.015299
    14  H   -0.005743
    15  C    0.757243
    16  H   -0.057206
    17  H   -0.080310
    18  H   -0.029439
    19  H   -0.223639
 Sum of Mulliken charges =  -1.00000

 Dipole moment (field-independent basis, Debye):
    X=             -5.0752    Y=             -2.9326    Z=              3.6154  Tot=              6.8868

 Test job not archived.
 1\1\GINC-SE162\SP\RHF\Aug-CC-pVDZ\C4H10F1N2O2(1-)\OHZDE\09-Apr-2025\0\
 \#t hf aug-cc-pvdz iop(5/13=1,5/36=2,99/5=2) pseudo=read geom=check gu
 ess=(read,tcheck) scf=(maxcycle=1)\\title\\-1,1\C,0,0.004913,-0.019487
 ,-0.004561\C,0,-0.502213,-0.193202,-1.418276\F,0,1.33378,-0.379315,0.1
 30608\H,0,-1.596234,-0.378061,-1.287729\N,0,-0.122965,1.319853,0.48642
 \H,0,0.174529,1.282166,1.458876\H,0,-1.127482,1.477086,0.526687\N,0,-0
 .775549,-0.973341,0.885099\O,0,-1.961643,-0.505574,1.146064\O,0,-0.558
 926,-2.202161,0.738709\C,0,0.099851,-1.420847,-2.090314\H,0,-0.384443,

 Normal termination of Gaussian 16 at Wed Apr  9 02:55:57 2025.
