 Gaussian 16, Revision C.01,

 ----------------------------------------------------------------------
 #t hf aug-cc-pvdz symm=none int=(grid=ultrafine) guess=(read,tcheck) s
 table=(opt,rrhf)
 ----------------------------------------------------------------------
 -----
 title
 -----
 Symbolic Z-matrix:
 Charge = -1 Multiplicity = 1

 SCF Done:  E(RHF) =  -1183.50203670     A.U. after   15 cycles
 Normal termination of Gaussian 16 at Wed Apr  9 02:51:14 2025.
 Gaussian 16:  ES64L-G16RevC.01  3-Jul-2019

 ----------------------------------------------------------------------
 #t hf aug-cc-pvdz iop(5/13=1,5/36=2,99/5=2) pseudo=read geom=check gue
 ss=(read,tcheck) scf=(maxcycle=1)
 ----------------------------------------------------------------------
 -----
 title
 -----
 Structure from the checkpoint file:  "E2SN2_342_mol1.chk"
 Charge = -1 Multiplicity = 1

                         Standard orientation:
 ---------------------------------------------------------------------
 Center     Atomic      Atomic             Coordinates (Angstroms)
 Number     Number       Type             X           Y           Z
 ---------------------------------------------------------------------
      1          6           0       -0.060825   -0.173869   -0.295814
      2          1           0        0.805782    1.319395   -1.502726
      3         17           0       -2.492459   -0.039906   -0.125408
      4         17           0        2.331505   -0.397979   -0.144514
      5          6           0        0.091421    1.292370   -0.669870
      6          1           0       -0.869324    1.656877   -1.027686
      7          6           0       -0.101034   -1.220487   -1.390183
      8          1           0       -1.084183   -1.266615   -1.851544
      9          1           0        0.648567   -0.975076   -2.141598
     10          1           0        0.150000   -2.195854   -0.975186
     11          6           0       -0.129179   -0.568746    1.086404
     12          7           0       -0.144423   -0.945806    2.202588
     13          7           0        0.489471    2.086882    0.478022
     14          1           0        0.410854    3.069392    0.250662
     15          1           0        1.456902    1.872777    0.689255
 ---------------------------------------------------------------------

 SCF Done:  E(RHF) =  -1183.60775177     A.U. after    2 cycles

 The electronic state is 1-A.
 Alpha  occ. eigenvalues -- -103.43666-103.42344 -15.50505 -15.49288 -11.26971
 Alpha  occ. eigenvalues --  -11.16900 -11.16314 -11.13046 -10.46926 -10.45601
 Alpha  occ. eigenvalues --   -8.12553  -8.12443  -8.12433  -8.11224  -8.11112
 Alpha  occ. eigenvalues --   -8.11109  -1.06683  -1.03514  -0.96427  -0.89647
 Alpha  occ. eigenvalues --   -0.87174  -0.81442  -0.75726  -0.57637  -0.54602
 Alpha  occ. eigenvalues --   -0.51553  -0.48048  -0.46668  -0.43915  -0.42108
 Alpha  occ. eigenvalues --   -0.40662  -0.37275  -0.31854  -0.28590  -0.26985
 Alpha  occ. eigenvalues --   -0.26609  -0.25965  -0.25240  -0.24352  -0.23754
 Alpha virt. eigenvalues --    0.12009   0.13162   0.14884   0.15126   0.16172
 Alpha virt. eigenvalues --    0.16647   0.17200   0.17777   0.20269   0.21504
 Alpha virt. eigenvalues --    0.22413   0.22720   0.23565   0.25463   0.25839

 Mulliken charges:
               1
     1  C   -0.285732
     2  H   -0.005057
     3  Cl  -0.690928
     4  Cl  -0.684529
     5  C    1.171435
     6  H   -0.069388
     7  C    0.612617
     8  H    0.035561
     9  H    0.005845
    10  H   -0.033771
    11  C   -0.389898
    12  N   -0.371462
    13  N   -0.333964
    14  H   -0.027822
    15  H    0.067092
 Sum of Mulliken charges =  -1.00000

 Dipole moment (field-independent basis, Debye):
    X=              1.5835    Y=              2.6101    Z=             -4.5436  Tot=              5.4740

 Test job not archived.
 1\1\GINC-SE457\SP\RHF\Aug-CC-pVDZ\C4H7Cl2N2(1-)\OHZDE\09-Apr-2025\0\\#
 t hf aug-cc-pvdz iop(5/13=1,5/36=2,99/5=2) pseudo=read geom=check gues
 s=(read,tcheck) scf=(maxcycle=1)\\title\\-1,1\C,0,0.51945672,-0.043716
 97,-0.0044118\H,0,1.18753616,1.83343747,-0.68810963\Cl,0,-1.89327168,-
 0.3734993,-0.1770788\Cl,0,2.87853175,0.11132178,0.45065999\C,0,0.41038
 087,1.47320357,-0.00184919\H,0,-0.56147091,1.74814224,-0.40662181\C,0,
 0.80618906,-0.76672996,-1.30429903\H,0,-0.09365313,-0.85991024,-1.9069
 2946\H,0,1.5650067,-0.21349714,-1.85646138\H,0,1.20446055,-1.75836559,

 Normal termination of Gaussian 16 at Wed Apr  9 02:51:20 2025.
