 Gaussian 16, Revision C.01,

 ----------------------------------------------------------------------
 #t hf aug-cc-pvdz symm=none int=(grid=ultrafine) guess=(read,tcheck) s
 table=(opt,rrhf)
 ----------------------------------------------------------------------
 -----
 title
 -----
 Symbolic Z-matrix:
 Charge = -1 Multiplicity = 1

 SCF Done:  E(RHF) =  -1220.19238013     A.U. after   16 cycles
 Normal termination of Gaussian 16 at Wed Apr  9 02:45:12 2025.
 Gaussian 16:  ES64L-G16RevC.01  3-Jul-2019

 ----------------------------------------------------------------------
 #t hf aug-cc-pvdz iop(5/13=1,5/36=2,99/5=2) pseudo=read geom=check gue
 ss=(read,tcheck) scf=(maxcycle=1)
 ----------------------------------------------------------------------
 -----
 title
 -----
 Structure from the checkpoint file:  "E2SN2_271_mol1.chk"
 Charge = -1 Multiplicity = 1

                         Standard orientation:
 ---------------------------------------------------------------------
 Center     Atomic      Atomic             Coordinates (Angstroms)
 Number     Number       Type             X           Y           Z
 ---------------------------------------------------------------------
      1          6           0        0.002123    0.141696   -0.086474
      2          1           0       -0.884572   -0.478380   -1.923771
      3         17           0        2.360592    0.162070    0.051384
      4         17           0       -2.355076    0.185757    0.057946
      5          6           0       -0.005547   -0.739172   -1.335810
      6          1           0        0.883212   -0.502631   -1.919225
      7          6           0        0.009444    1.571325   -0.243588
      8          7           0        0.014786    2.733025   -0.436095
      9          6           0        0.001981   -0.413029    1.242218
     10          7           0        0.000674   -0.910345    2.309610
     11          6           0       -0.025946   -2.216247   -0.981435
     12          1           0        0.860164   -2.483804   -0.403164
     13          1           0       -0.917363   -2.458731   -0.400502
     14          1           0       -0.035764   -2.815725   -1.896022
 ---------------------------------------------------------------------

 SCF Done:  E(RHF) =  -1220.30772187     A.U. after    2 cycles

 The electronic state is 1-A.
 Alpha  occ. eigenvalues -- -103.45853-103.45837 -15.53942 -15.53318 -11.31463
 Alpha  occ. eigenvalues --  -11.20055 -11.19772 -11.15598 -11.12837 -10.49080
 Alpha  occ. eigenvalues --  -10.49062  -8.14717  -8.14701  -8.14563  -8.14561
 Alpha  occ. eigenvalues --   -8.14547  -8.14545  -1.09438  -1.06635  -1.00932
 Alpha  occ. eigenvalues --   -0.92162  -0.91400  -0.87786  -0.76210  -0.69893
 Alpha  occ. eigenvalues --   -0.55429  -0.53762  -0.45510  -0.44418  -0.44125
 Alpha  occ. eigenvalues --   -0.43475  -0.41722  -0.40549  -0.37378  -0.35422
 Alpha  occ. eigenvalues --   -0.34591  -0.28673  -0.28647  -0.28480  -0.27445
 Alpha  occ. eigenvalues --   -0.26854  -0.25549
 Alpha virt. eigenvalues --    0.11525   0.13644   0.13976   0.15125   0.15591
 Alpha virt. eigenvalues --    0.16943   0.17976   0.19308   0.21215   0.21490
 Alpha virt. eigenvalues --    0.21654   0.22625   0.24044   0.24451   0.24970

 Mulliken charges:
               1
     1  C    1.012502
     2  H   -0.034708
     3  Cl  -0.575734
     4  Cl  -0.575165
     5  C    0.769485
     6  H   -0.036040
     7  C   -0.997076
     8  N   -0.237628
     9  C   -0.528587
    10  N   -0.324846
    11  C    0.648938
    12  H   -0.007160
    13  H   -0.007348
    14  H   -0.106631
 Sum of Mulliken charges =  -1.00000

 Dipole moment (field-independent basis, Debye):
    X=             -0.0407    Y=             -3.3178    Z=             -3.5979  Tot=              4.8943

 Test job not archived.
 1\1\GINC-SE292\SP\RHF\Aug-CC-pVDZ\C5H5Cl2N2(1-)\OHZDE\09-Apr-2025\0\\#
 t hf aug-cc-pvdz iop(5/13=1,5/36=2,99/5=2) pseudo=read geom=check gues
 s=(read,tcheck) scf=(maxcycle=1)\\title\\-1,1\C,0,0.57549908,-0.050507
 49,-0.01363937\H,0,1.39818581,1.85513801,-0.50157974\Cl,0,-1.75035927,
 -0.3554116,-0.29509146\Cl,0,2.90295672,-0.00950878,0.38691534\C,0,0.47
 242685,1.4735295,-0.07292979\H,0,-0.34894519,1.72905854,-0.74096544\C,
 0,0.80781492,-0.77971298,-1.23136876\N,0,0.99897157,-1.32045717,-2.259
 80927\C,0,0.44789171,-0.77967073,1.22134202\N,0,0.33805218,-1.33446962

 Normal termination of Gaussian 16 at Wed Apr  9 02:45:18 2025.
