 Gaussian 16, Revision C.01,

 ----------------------------------------------------------------------
 #t hf aug-cc-pvdz symm=none int=(grid=ultrafine) guess=(read,tcheck) s
 table=(opt,rrhf)
 ----------------------------------------------------------------------
 -----
 title
 -----
 Symbolic Z-matrix:
 Charge = -1 Multiplicity = 1

 SCF Done:  E(RHF) =  -1334.32244902     A.U. after   16 cycles
 Normal termination of Gaussian 16 at Wed Apr  9 02:28:54 2025.
 Gaussian 16:  ES64L-G16RevC.01  3-Jul-2019

 ----------------------------------------------------------------------
 #t hf aug-cc-pvdz iop(5/13=1,5/36=2,99/5=2) pseudo=read geom=check gue
 ss=(read,tcheck) scf=(maxcycle=1)
 ----------------------------------------------------------------------
 -----
 title
 -----
 Structure from the checkpoint file:  "E2SN2_109_mol1.chk"
 Charge = -1 Multiplicity = 1

                         Standard orientation:
 ---------------------------------------------------------------------
 Center     Atomic      Atomic             Coordinates (Angstroms)
 Number     Number       Type             X           Y           Z
 ---------------------------------------------------------------------
      1          6           0       -0.558412   -0.738635    0.290128
      2          6           0        0.147796    0.243685   -0.389983
      3         17           0       -2.860113   -0.096081   -0.205008
      4         17           0        2.967487   -0.892051   -0.131657
      5          1           0        1.640323   -0.448116   -0.157762
      6          6           0       -0.649333   -2.079335   -0.385998
      7          1           0       -0.725752   -1.981875   -1.464454
      8          1           0        0.267646   -2.637678   -0.147946
      9          1           0       -1.507992   -2.631111   -0.006748
     10          6           0       -0.691105   -0.789398    1.782408
     11          1           0       -1.433024   -1.545400    2.040875
     12          1           0        0.275533   -1.059924    2.224243
     13          1           0       -0.994898    0.164650    2.202038
     14          7           0        0.030591    0.294142   -1.794013
     15          1           0        0.639917    1.008283   -2.168507
     16          1           0       -0.936428    0.540521   -2.006966
     17          7           0        0.390786    1.534049    0.264751
     18          8           0        0.371167    2.547274   -0.446225
     19          8           0        0.692082    1.549435    1.462980
 ---------------------------------------------------------------------

 SCF Done:  E(RHF) =  -1334.47782466     A.U. after    2 cycles

 The electronic state is 1-A.
 Alpha  occ. eigenvalues -- -103.50799-103.41736 -20.47878 -20.47646 -15.77584
 Alpha  occ. eigenvalues --  -15.49737 -11.21269 -11.17549 -11.12481 -11.12371
 Alpha  occ. eigenvalues --  -10.54106 -10.44923  -8.19816  -8.19598  -8.19589
 Alpha  occ. eigenvalues --   -8.10544  -8.10462  -8.10452  -1.40082  -1.21686
 Alpha  occ. eigenvalues --   -1.08048  -0.98872  -0.97261  -0.88794  -0.87035
 Alpha  occ. eigenvalues --   -0.83623  -0.75146  -0.66365  -0.60324  -0.60244
 Alpha  occ. eigenvalues --   -0.57865  -0.53502  -0.52042  -0.48983  -0.46385
 Alpha  occ. eigenvalues --   -0.46033  -0.44094  -0.43049  -0.40716  -0.38546
 Alpha  occ. eigenvalues --   -0.37315  -0.34199  -0.33316  -0.33043  -0.32201
 Alpha  occ. eigenvalues --   -0.27592  -0.24986  -0.24806  -0.19644
 Alpha virt. eigenvalues --    0.12437   0.13125   0.14118   0.14763   0.15850
 Alpha virt. eigenvalues --    0.16613   0.16764   0.16875   0.18290   0.19120
 Alpha virt. eigenvalues --    0.22213   0.22839   0.23129   0.23897   0.24681

 Mulliken charges:
               1
     1  C   -1.774149
     2  C    0.832241
     3  Cl  -0.760767
     4  Cl  -0.437124
     5  H    0.666605
     6  C    0.722581
     7  H   -0.019715
     8  H    0.069227
     9  H   -0.042488
    10  C    0.795280
    11  H   -0.023080
    12  H    0.104837
    13  H    0.078576
    14  N   -0.266105
    15  H   -0.018139
    16  H    0.054568
    17  N    0.353512
    18  O   -0.659995
    19  O   -0.675865
 Sum of Mulliken charges =  -1.00000

 Dipole moment (field-independent basis, Debye):
    X=              2.3997    Y=             -3.0654    Z=              0.1382  Tot=              3.8955

 Test job not archived.
 1\1\GINC-SE366\SP\RHF\Aug-CC-pVDZ\C4H9Cl2N2O2(1-)\OHZDE\09-Apr-2025\0\
 \#t hf aug-cc-pvdz iop(5/13=1,5/36=2,99/5=2) pseudo=read geom=check gu
 ess=(read,tcheck) scf=(maxcycle=1)\\title\\-1,1\C,0,-0.4049291,0.04572
 514,-0.24487462\C,0,-0.19226831,-0.08839111,1.12005076\Cl,0,1.87100729
 ,-0.15993826,-1.1014237\Cl,0,-3.08574142,-0.30571922,2.06231846\H,0,-1
 .80255004,-0.16025873,1.52251602\C,0,-0.92321167,-1.17266793,-0.958870
 98\H,0,-0.51072779,-2.08755829,-0.54506221\H,0,-2.01587133,-1.19334413
 ,-0.83666771\H,0,-0.68702016,-1.11205052,-2.02006013\C,0,-0.74394414,1

 Normal termination of Gaussian 16 at Wed Apr  9 02:29:04 2025.
