 Gaussian 16, Revision C.01,

 ----------------------------------------------------------------------
 #t hf aug-cc-pvdz symm=none int=(grid=ultrafine) guess=(read,tcheck) s
 table=(opt,rrhf)
 ----------------------------------------------------------------------
 -----
 title
 -----
 Symbolic Z-matrix:
 Charge = -1 Multiplicity = 1

 SCF Done:  E(RHF) =  -862.486331709     A.U. after   15 cycles
 Normal termination of Gaussian 16 at Wed Apr  9 02:51:43 2025.
 Gaussian 16:  ES64L-G16RevC.01  3-Jul-2019

 ----------------------------------------------------------------------
 #t hf aug-cc-pvdz iop(5/13=1,5/36=2,99/5=2) pseudo=read geom=check gue
 ss=(read,tcheck) scf=(maxcycle=1)
 ----------------------------------------------------------------------
 -----
 title
 -----
 Structure from the checkpoint file:  "E2SN2_340_mol2.chk"
 Charge = -1 Multiplicity = 1

                         Standard orientation:
 ---------------------------------------------------------------------
 Center     Atomic      Atomic             Coordinates (Angstroms)
 Number     Number       Type             X           Y           Z
 ---------------------------------------------------------------------
      1          6           0       -0.526213    0.053486    0.186728
      2          6           0        0.423038   -0.337145   -0.993865
      3         17           0       -2.015829   -1.019826    0.122690
      4          1           0       -0.233676   -0.452756   -1.868139
      5          6           0        0.117122   -0.047336    1.558595
      6          1           0       -0.485581    0.472818    2.307085
      7          1           0        0.185494   -1.100786    1.835782
      8          1           0        1.156817    0.332791    1.498577
      9          6           0       -1.033848    1.406829   -0.053452
     10          7           0       -1.430884    2.493774   -0.261147
     11          6           0        1.145469   -1.643716   -0.686677
     12          1           0        1.630366   -1.992840   -1.601537
     13          1           0        1.920084   -1.410332    0.049529
     14          1           0        0.469632   -2.422465   -0.324420
     15          7           0        1.429625    0.662991   -1.264679
     16          1           0        1.012729    1.576488   -1.400159
     17          1           0        2.096985    0.674911   -0.457373
     18          9           0        2.863515    0.329905    0.943081
 ---------------------------------------------------------------------

 SCF Done:  E(RHF) =  -862.623471274     A.U. after    2 cycles

 The electronic state is 1-A.
 Alpha  occ. eigenvalues -- -103.54440 -25.75592 -15.53406 -15.44449 -11.22570
 Alpha  occ. eigenvalues --  -11.18612 -11.15211 -11.10043 -11.08771 -10.57757
 Alpha  occ. eigenvalues --   -8.23463  -8.23197  -8.23192  -1.24660  -1.09461
 Alpha  occ. eigenvalues --   -1.05295  -1.01131  -0.90280  -0.84163  -0.78005
 Alpha  occ. eigenvalues --   -0.67677  -0.56809  -0.53701  -0.51440  -0.47522
 Alpha  occ. eigenvalues --   -0.45210  -0.44701  -0.42484  -0.40686  -0.40124
 Alpha  occ. eigenvalues --   -0.38373  -0.37521  -0.36037  -0.35883  -0.34119
 Alpha  occ. eigenvalues --   -0.33468  -0.33167  -0.31863  -0.31674  -0.23636
 Alpha virt. eigenvalues --    0.12786   0.13298   0.14302   0.15074   0.15956
 Alpha virt. eigenvalues --    0.16384   0.18008   0.18455   0.19280   0.19781
 Alpha virt. eigenvalues --    0.20990   0.22145   0.23349   0.24056   0.25055

 Mulliken charges:
               1
     1  C   -0.423622
     2  C    0.442447
     3  Cl  -0.204810
     4  H   -0.285870
     5  C    1.031175
     6  H   -0.144425
     7  H   -0.033642
     8  H   -0.003048
     9  C   -0.447040
    10  N   -0.259303
    11  C    0.807299
    12  H   -0.103989
    13  H   -0.039207
    14  H   -0.077957
    15  N   -0.429247
    16  H   -0.052690
    17  H    0.186837
    18  F   -0.962909
 Sum of Mulliken charges =  -1.00000

 Dipole moment (field-independent basis, Debye):
    X=             -6.4784    Y=             -3.2233    Z=             -1.1011  Tot=              7.3193

 Test job not archived.
 1\1\GINC-SE335\SP\RHF\Aug-CC-pVDZ\C5H9Cl1F1N2(1-)\OHZDE\09-Apr-2025\0\
 \#t hf aug-cc-pvdz iop(5/13=1,5/36=2,99/5=2) pseudo=read geom=check gu
 ess=(read,tcheck) scf=(maxcycle=1)\\title\\-1,1\C,0,0.072855,-0.032423
 ,-0.0315\C,0,-0.477354,-0.156404,-1.490736\Cl,0,1.811107,0.557333,-0.1
 07137\H,0,0.327522,-0.638198,-2.06436\C,0,-0.740291,0.888332,0.861288\
 H,0,-0.4766,0.740199,1.911323\H,0,-0.521272,1.922236,0.58864\H,0,-1.81
 8387,0.728515,0.658231\C,0,0.161972,-1.37558,0.547207\N,0,0.226247,-2.
 460189,0.996336\C,0,-0.793387,1.221862,-2.059861\H,0,-0.971482,1.11910

 Normal termination of Gaussian 16 at Wed Apr  9 02:51:51 2025.
