 Gaussian 16, Revision C.01,

 ----------------------------------------------------------------------
 #t hf aug-cc-pvdz symm=none int=(grid=ultrafine) guess=(read,tcheck) s
 table=(opt,rrhf)
 ----------------------------------------------------------------------
 -----
 title
 -----
 Symbolic Z-matrix:
 Charge = -1 Multiplicity = 1

 SCF Done:  E(RHF) =  -1236.20633648     A.U. after   16 cycles
 Normal termination of Gaussian 16 at Wed Apr  9 02:47:42 2025.
 Gaussian 16:  ES64L-G16RevC.01  3-Jul-2019

 ----------------------------------------------------------------------
 #t hf aug-cc-pvdz iop(5/13=1,5/36=2,99/5=2) pseudo=read geom=check gue
 ss=(read,tcheck) scf=(maxcycle=1)
 ----------------------------------------------------------------------
 -----
 title
 -----
 Structure from the checkpoint file:  "E2SN2_296_mol1.chk"
 Charge = -1 Multiplicity = 1

                         Standard orientation:
 ---------------------------------------------------------------------
 Center     Atomic      Atomic             Coordinates (Angstroms)
 Number     Number       Type             X           Y           Z
 ---------------------------------------------------------------------
      1          6           0        0.032176   -0.469117   -0.246054
      2          1           0       -0.897376    0.708131   -1.761378
      3         17           0        2.395198   -0.343298   -0.106586
      4         17           0       -2.334688   -0.548850   -0.104115
      5          6           0       -0.030042    0.787338   -1.107694
      6          1           0        0.866220    0.829638   -1.724747
      7          6           0        0.031439   -0.409596    1.198758
      8          7           0        0.032103   -0.412365    2.377183
      9          7           0        0.087006   -1.707144   -0.964510
     10          1           0       -0.725601   -2.258422   -0.725093
     11          1           0        0.936046   -2.193319   -0.711185
     12          6           0       -0.130651    2.022873   -0.340845
     13          7           0       -0.208465    3.046865    0.227233
 ---------------------------------------------------------------------

 SCF Done:  E(RHF) =  -1236.32410897     A.U. after    2 cycles

 The electronic state is 1-A.
 Alpha  occ. eigenvalues -- -103.45390-103.45337 -15.53413 -15.53258 -15.52865
 Alpha  occ. eigenvalues --  -11.32906 -11.19107 -11.18911 -11.18674 -10.48673
 Alpha  occ. eigenvalues --  -10.48621  -8.14302  -8.14250  -8.14176  -8.14168
 Alpha  occ. eigenvalues --   -8.14125  -8.14116  -1.11930  -1.07214  -1.05508
 Alpha  occ. eigenvalues --   -0.96386  -0.92238  -0.90393  -0.81662  -0.66208
 Alpha  occ. eigenvalues --   -0.58624  -0.54674  -0.54351  -0.53210  -0.43979
 Alpha  occ. eigenvalues --   -0.43485  -0.40007  -0.35716  -0.35022  -0.34797
 Alpha  occ. eigenvalues --   -0.32321  -0.28979  -0.28809  -0.28566  -0.28101
 Alpha  occ. eigenvalues --   -0.26595  -0.26164
 Alpha virt. eigenvalues --    0.12758   0.13498   0.15271   0.15523   0.16909
 Alpha virt. eigenvalues --    0.17814   0.18949   0.20936   0.21730   0.22577
 Alpha virt. eigenvalues --    0.23475   0.24408   0.24980   0.25082   0.26041

 Mulliken charges:
               1
     1  C    0.537975
     2  H    0.074401
     3  Cl  -0.618404
     4  Cl  -0.619577
     5  C    0.730714
     6  H    0.065212
     7  C   -0.322976
     8  N   -0.318248
     9  N   -0.519050
    10  H    0.100414
    11  H    0.098601
    12  C    0.094733
    13  N   -0.303795
 Sum of Mulliken charges =  -1.00000

 Dipole moment (field-independent basis, Debye):
    X=              0.1547    Y=             -2.3181    Z=             -4.1736  Tot=              4.7767

 Test job not archived.
 1\1\GINC-SE044\SP\RHF\Aug-CC-pVDZ\C4H4Cl2N3(1-)\OHZDE\09-Apr-2025\0\\#
 t hf aug-cc-pvdz iop(5/13=1,5/36=2,99/5=2) pseudo=read geom=check gues
 s=(read,tcheck) scf=(maxcycle=1)\\title\\-1,1\C,0,0.631653,-0.0725355,
 0.00551919\H,0,1.45367647,1.83427462,0.48980908\Cl,0,-1.72059474,-0.29
 281347,0.19933187\Cl,0,2.95816609,0.03132768,-0.44735705\C,0,0.5386080
 6,1.44895828,0.04256644\H,0,-0.30156639,1.72988431,0.67582527\C,0,0.51
 186459,-0.81887637,-1.22722206\N,0,0.42189683,-1.47023621,-2.20514304\
 N,0,0.84913558,-0.70778505,1.27084718\H,0,1.72499905,-1.21097433,1.235

 Normal termination of Gaussian 16 at Wed Apr  9 02:47:49 2025.
