 Gaussian 16, Revision C.01,

 ----------------------------------------------------------------------
 #t hf aug-cc-pvdz symm=none int=(grid=ultrafine) guess=(read,tcheck) s
 table=(opt,rrhf)
 ----------------------------------------------------------------------
 -----
 title
 -----
 Symbolic Z-matrix:
 Charge = -1 Multiplicity = 1

 SCF Done:  E(RHF) =  -852.247665954     A.U. after   16 cycles
 Normal termination of Gaussian 16 at Wed Apr  9 02:58:01 2025.
 Gaussian 16:  ES64L-G16RevC.01  3-Jul-2019

 ----------------------------------------------------------------------
 #t hf aug-cc-pvdz iop(5/13=1,5/36=2,99/5=2) pseudo=read geom=check gue
 ss=(read,tcheck) scf=(maxcycle=1)
 ----------------------------------------------------------------------
 -----
 title
 -----
 Structure from the checkpoint file:  "E2SN2_46_mol2.chk"
 Charge = -1 Multiplicity = 1

                         Standard orientation:
 ---------------------------------------------------------------------
 Center     Atomic      Atomic             Coordinates (Angstroms)
 Number     Number       Type             X           Y           Z
 ---------------------------------------------------------------------
      1          6           0        0.052254   -0.041342    0.250071
      2          6           0        1.146978   -0.879287   -0.422241
      3         17           0        0.090850    1.674515   -0.410720
      4          1           0        1.215899   -0.614336   -1.480062
      5          1           0        0.808529   -1.918627   -0.346239
      6          7           0       -1.347755   -0.499568   -0.145085
      7          8           0       -1.473270   -1.110347   -1.201950
      8          8           0       -2.264196   -0.203692    0.616227
      9          7           0        0.173661   -0.118679    1.635370
     10          1           0       -0.369150    0.583309    2.117084
     11          1           0        1.179618   -0.046173    1.805747
     12          7           0        2.401699   -0.635352    0.263258
     13          1           0        3.072244   -0.231406   -0.481817
     14          1           0        2.808865   -1.528976    0.516061
     15          1           0        3.850631    0.100736   -1.704531
 ---------------------------------------------------------------------

 SCF Done:  E(RHF) =  -852.385016823     A.U. after    2 cycles

 The electronic state is 1-A.
 Alpha  occ. eigenvalues -- -103.54933 -20.52426 -20.52137 -15.81333 -15.52688
 Alpha  occ. eigenvalues --  -15.45821 -11.29205 -11.15365 -10.58273  -8.23982
 Alpha  occ. eigenvalues --   -8.23695  -8.23685  -1.44665  -1.26491  -1.14166
 Alpha  occ. eigenvalues --   -1.02356  -1.00563  -0.91062  -0.79521  -0.70708
 Alpha  occ. eigenvalues --   -0.64568  -0.63832  -0.62835  -0.57390  -0.54742
 Alpha  occ. eigenvalues --   -0.49962  -0.46920  -0.45358  -0.42282  -0.41253
 Alpha  occ. eigenvalues --   -0.39615  -0.37140  -0.35901  -0.34980  -0.31490
 Alpha  occ. eigenvalues --   -0.26757  -0.08909
 Alpha virt. eigenvalues --    0.12006   0.13250   0.14852   0.16403   0.17374
 Alpha virt. eigenvalues --    0.17508   0.19195   0.20535   0.21014   0.22688
 Alpha virt. eigenvalues --    0.23389   0.24344   0.25124   0.25999   0.26514

 Mulliken charges:
               1
     1  C    0.614644
     2  C    0.707685
     3  Cl  -0.132676
     4  H   -0.044279
     5  H   -0.032657
     6  N    0.320597
     7  O   -0.569525
     8  O   -0.616012
     9  N   -0.433428
    10  H    0.036390
    11  H    0.173757
    12  N   -0.377995
    13  H    0.107849
    14  H    0.039619
    15  H   -0.793969
 Sum of Mulliken charges =  -1.00000

 Dipole moment (field-independent basis, Debye):
    X=            -10.3467    Y=             -0.8315    Z=              7.1431  Tot=             12.6003

 Test job not archived.
 1\1\GINC-SE015\SP\RHF\Aug-CC-pVDZ\C2H7Cl1N3O2(1-)\OHZDE\09-Apr-2025\0\
 \#t hf aug-cc-pvdz iop(5/13=1,5/36=2,99/5=2) pseudo=read geom=check gu
 ess=(read,tcheck) scf=(maxcycle=1)\\title\\-1,1\C,0,-0.617022,-0.01338
 1,-1.493911\C,0,0.093842,-0.181961,-0.145271\Cl,0,0.419452,1.008788,-2
 .617828\H,0,1.165757,-0.317174,-0.308517\H,0,-0.310567,-1.104596,0.285
 716\N,0,-0.713102,-1.327376,-2.262241\O,0,0.100367,-2.206812,-1.996479
 \O,0,-1.590508,-1.407687,-3.117057\N,0,-1.9027,0.485011,-1.297921\H,0,
 -2.326209,0.825015,-2.149107\H,0,-1.788181,1.206097,-0.581573\N,0,-0.1

 Normal termination of Gaussian 16 at Wed Apr  9 02:58:07 2025.
