 Gaussian 16, Revision C.01,

 ----------------------------------------------------------------------
 #t hf aug-cc-pvdz symm=none int=(grid=ultrafine) guess=(read,tcheck) s
 table=(opt,rrhf)
 ----------------------------------------------------------------------
 -----
 title
 -----
 Symbolic Z-matrix:
 Charge = -1 Multiplicity = 1

 SCF Done:  E(RHF) =  -403.417788038     A.U. after   17 cycles
 Normal termination of Gaussian 16 at Wed Apr  9 02:51:19 2025.
 Gaussian 16:  ES64L-G16RevC.01  3-Jul-2019

 ----------------------------------------------------------------------
 #t hf aug-cc-pvdz iop(5/13=1,5/36=2,99/5=2) pseudo=read geom=check gue
 ss=(read,tcheck) scf=(maxcycle=1)
 ----------------------------------------------------------------------
 -----
 title
 -----
 Structure from the checkpoint file:  "E2SN2_337_mol1.chk"
 Charge = -1 Multiplicity = 1

                         Standard orientation:
 ---------------------------------------------------------------------
 Center     Atomic      Atomic             Coordinates (Angstroms)
 Number     Number       Type             X           Y           Z
 ---------------------------------------------------------------------
      1          6           0       -0.329133    0.407560   -0.210181
      2          1           0        1.113874   -0.283348   -1.631337
      3          9           0       -0.074344    0.489526    1.439723
      4          1           0       -0.964814    0.085243   -1.975204
      5          6           0        0.972494   -0.340740   -0.554031
      6          6           0       -0.369562    1.895435   -0.522769
      7          1           0        0.125257    2.424023    0.293656
      8          1           0        0.143677    2.115939   -1.455670
      9          1           0       -1.404681    2.229969   -0.605920
     10          6           0       -1.564929   -0.326852   -0.202183
     11          7           0       -2.546739   -0.912943    0.115113
     12          6           0        0.868907   -1.804428   -0.136736
     13          1           0        0.637981   -1.860891    0.928818
     14          1           0        0.078160   -2.313121   -0.693645
     15          1           0        1.818007   -2.319157   -0.328546
     16          7           0        2.092941    0.382031    0.068019
     17          1           0        2.935942   -0.163542   -0.078306
     18          1           0        1.895620    0.409684    1.062122
 ---------------------------------------------------------------------

 SCF Done:  E(RHF) =  -403.540080769     A.U. after    2 cycles

 The electronic state is 1-A.
 Alpha  occ. eigenvalues --  -25.87479 -15.47285 -15.44680 -11.20975 -11.13650
 Alpha  occ. eigenvalues --  -11.13017 -11.09290 -11.09178  -1.38056  -1.03324
 Alpha  occ. eigenvalues --   -0.99437  -0.90675  -0.84641  -0.75039  -0.68577
 Alpha  occ. eigenvalues --   -0.58435  -0.52850  -0.50139  -0.47493  -0.46274
 Alpha  occ. eigenvalues --   -0.45395  -0.43546  -0.42149  -0.41399  -0.39304
 Alpha  occ. eigenvalues --   -0.36602  -0.36439  -0.35356  -0.30043  -0.27270
 Alpha  occ. eigenvalues --   -0.25706  -0.10529
 Alpha virt. eigenvalues --    0.11941   0.13185   0.14309   0.14583   0.16140
 Alpha virt. eigenvalues --    0.16572   0.17108   0.17298   0.17802   0.20875
 Alpha virt. eigenvalues --    0.21803   0.22250   0.24188   0.24954   0.25569

 Mulliken charges:
               1
     1  C   -0.290712
     2  H   -0.217356
     3  F   -0.742956
     4  H   -0.211434
     5  C   -0.016186
     6  C    0.688791
     7  H    0.088705
     8  H    0.010189
     9  H   -0.045195
    10  C   -0.283198
    11  N   -0.469612
    12  C    0.759800
    13  H    0.073406
    14  H    0.019723
    15  H   -0.114402
    16  N   -0.294232
    17  H   -0.067089
    18  H    0.111756
 Sum of Mulliken charges =  -1.00000

 Dipole moment (field-independent basis, Debye):
    X=              6.5581    Y=              0.3869    Z=              1.1373  Tot=              6.6673

 Test job not archived.
 1\1\GINC-SE366\SP\RHF\Aug-CC-pVDZ\C5H10F1N2(1-)\OHZDE\09-Apr-2025\0\\#
 t hf aug-cc-pvdz iop(5/13=1,5/36=2,99/5=2) pseudo=read geom=check gues
 s=(read,tcheck) scf=(maxcycle=1)\\title\\-1,1\C,0,0.47310545,-0.037925
 49,-0.05064934\H,0,1.58239006,1.77253387,-0.31717195\F,0,-1.19472432,-
 0.14386808,-0.08127536\H,0,2.32919348,-0.11215614,0.3649395\C,0,0.5542
 1053,1.49973865,-0.08847975\C,0,0.78593221,-0.77463614,-1.34390709\H,0
 ,-0.11263168,-0.76341219,-1.96298457\H,0,1.5990088,-0.29503726,-1.8835
 6683\H,0,1.07130224,-1.80474293,-1.12540727\C,0,0.70985279,-0.71018342

 Normal termination of Gaussian 16 at Wed Apr  9 02:51:25 2025.
