 Gaussian 16, Revision C.01,

 ----------------------------------------------------------------------
 #t hf aug-cc-pvdz symm=none int=(grid=ultrafine) guess=(read,tcheck) s
 table=(opt,rrhf)
 ----------------------------------------------------------------------
 -----
 title
 -----
 Symbolic Z-matrix:
 Charge = -1 Multiplicity = 1

 SCF Done:  E(RHF) =  -726.825250837     A.U. after   14 cycles
 Normal termination of Gaussian 16 at Wed Apr  9 02:29:06 2025.
 Gaussian 16:  ES64L-G16RevC.01  3-Jul-2019

 ----------------------------------------------------------------------
 #t hf aug-cc-pvdz iop(5/13=1,5/36=2,99/5=2) pseudo=read geom=check gue
 ss=(read,tcheck) scf=(maxcycle=1)
 ----------------------------------------------------------------------
 -----
 title
 -----
 Structure from the checkpoint file:  "E2SN2_113_mol2.chk"
 Charge = -1 Multiplicity = 1

                         Standard orientation:
 ---------------------------------------------------------------------
 Center     Atomic      Atomic             Coordinates (Angstroms)
 Number     Number       Type             X           Y           Z
 ---------------------------------------------------------------------
      1          6           0       -0.453073    0.407872   -0.037482
      2          6           0        1.076884    0.312811   -0.024399
      3         17           0       -1.115627   -1.354921    0.007210
      4          1           0        1.344388    1.371833   -0.145928
      5          6           0       -1.005091    1.125183    1.172032
      6          1           0       -0.563585    2.130496    1.157505
      7          1           0       -0.779142    0.607891    2.105199
      8          1           0       -2.086817    1.212196    1.059317
      9          7           0       -0.938123    1.046423   -1.215824
     10          1           0       -0.600710    2.033042   -1.106915
     11          1           0       -0.394300    0.665041   -1.986849
     12          7           0        1.527710   -0.388738   -1.229653
     13          1           0        2.491990   -0.138251   -1.412523
     14          1           0        1.485125   -1.389480   -1.069123
     15          6           0        1.692320   -0.234890    1.259736
     16          1           0        2.781978   -0.270835    1.154243
     17          1           0        1.465679    0.397016    2.121397
     18          1           0        1.333348   -1.248563    1.464149
     19          1           0        0.494350    3.393619   -0.564016
 ---------------------------------------------------------------------

 SCF Done:  E(RHF) =  -726.924291300     A.U. after    2 cycles

 The electronic state is 1-A.
 Alpha  occ. eigenvalues -- -103.49853 -15.48899 -15.44975 -11.19705 -11.13490
 Alpha  occ. eigenvalues --  -11.11159 -11.09274 -10.53225  -8.18914  -8.18693
 Alpha  occ. eigenvalues --   -8.18683  -1.07892  -1.01452  -0.96300  -0.87936
 Alpha  occ. eigenvalues --   -0.83226  -0.73819  -0.61657  -0.56040  -0.51522
 Alpha  occ. eigenvalues --   -0.51104  -0.47570  -0.46321  -0.42992  -0.42576
 Alpha  occ. eigenvalues --   -0.39669  -0.38732  -0.37345  -0.34205  -0.31187
 Alpha  occ. eigenvalues --   -0.30816  -0.27455  -0.25127  -0.08372
 Alpha virt. eigenvalues --    0.11581   0.12905   0.13636   0.14598   0.15372
 Alpha virt. eigenvalues --    0.16169   0.16463   0.18090   0.18901   0.19421
 Alpha virt. eigenvalues --    0.20875   0.21771   0.23390   0.23643   0.24685

 Mulliken charges:
               1
     1  C   -0.933969
     2  C    0.310023
     3  Cl  -0.392593
     4  H    0.025713
     5  C    0.921718
     6  H    0.035891
     7  H   -0.068121
     8  H   -0.035220
     9  N   -0.468193
    10  H    0.133207
    11  H    0.045537
    12  N   -0.416957
    13  H   -0.007419
    14  H    0.080846
    15  C    0.761966
    16  H   -0.088473
    17  H   -0.080723
    18  H   -0.002508
    19  H   -0.820725
 Sum of Mulliken charges =  -1.00000

 Dipole moment (field-independent basis, Debye):
    X=              1.6136    Y=            -10.5460    Z=              3.2060  Tot=             11.1400

 Test job not archived.
 1\1\GINC-SE036\SP\RHF\Aug-CC-pVDZ\C4H12Cl1N2(1-)\OHZDE\09-Apr-2025\0\\
 #t hf aug-cc-pvdz iop(5/13=1,5/36=2,99/5=2) pseudo=read geom=check gue
 ss=(read,tcheck) scf=(maxcycle=1)\\title\\-1,1\C,0,-0.206509,-0.024405
 ,-1.436782\C,0,-0.001748,0.000828,0.082234\Cl,0,-2.058844,-0.181436,-1
 .741105\H,0,1.09594,-0.000867,0.136405\C,0,0.252298,1.247662,-2.110226
 \H,0,1.319909,1.349049,-1.874176\H,0,-0.309922,2.122277,-1.780982\H,0,
 0.138155,1.129134,-3.188804\N,0,0.450131,-1.133351,-2.045529\H,0,1.465
 673,-0.912841,-1.907048\H,0,0.269099,-1.933169,-1.442874\N,0,-0.465425

 Normal termination of Gaussian 16 at Wed Apr  9 02:29:16 2025.
