 Gaussian 16, Revision C.01,

 ----------------------------------------------------------------------
 #t hf aug-cc-pvdz symm=none int=(grid=ultrafine) guess=(read,tcheck) s
 table=(opt,rrhf)
 ----------------------------------------------------------------------
 -----
 title
 -----
 Symbolic Z-matrix:
 Charge = -1 Multiplicity = 1

 SCF Done:  E(RHF) =  -685.462289333     A.U. after   15 cycles
 Normal termination of Gaussian 16 at Wed Apr  9 02:39:59 2025.
 Gaussian 16:  ES64L-G16RevC.01  3-Jul-2019

 ----------------------------------------------------------------------
 #t hf aug-cc-pvdz iop(5/13=1,5/36=2,99/5=2) pseudo=read geom=check gue
 ss=(read,tcheck) scf=(maxcycle=1)
 ----------------------------------------------------------------------
 -----
 title
 -----
 Structure from the checkpoint file:  "E2SN2_21_mol2.chk"
 Charge = -1 Multiplicity = 1

                         Standard orientation:
 ---------------------------------------------------------------------
 Center     Atomic      Atomic             Coordinates (Angstroms)
 Number     Number       Type             X           Y           Z
 ---------------------------------------------------------------------
      1          6           0        0.614273    0.358334   -0.344693
      2          6           0       -0.594018    0.867499    0.422521
      3         17           0        0.887426   -1.436318    0.080180
      4          1           0       -0.626231    1.944344    0.221808
      5          1           0        0.381152    0.289219   -1.413991
      6          1           0       -0.406904    0.737545    1.490777
      7          7           0        1.722753    1.147044    0.019532
      8          1           0        1.397506    2.167352   -0.010797
      9          1           0        2.466460    1.037030   -0.661029
     10          6           0       -1.844182    0.219349    0.052712
     11          7           0       -2.862779   -0.282207   -0.247316
     12          1           0        0.625522    3.516960   -0.178574
 ---------------------------------------------------------------------

 SCF Done:  E(RHF) =  -685.547720383     A.U. after    2 cycles

 The electronic state is 1-A.
 Alpha  occ. eigenvalues -- -103.51939 -15.52513 -15.47304 -11.22479 -11.18025
 Alpha  occ. eigenvalues --  -11.15314 -10.55304  -8.20998  -8.20748  -8.20738
 Alpha  occ. eigenvalues --   -1.08413  -1.06094  -0.98293  -0.90882  -0.71432
 Alpha  occ. eigenvalues --   -0.60793  -0.54376  -0.50571  -0.49110  -0.44429
 Alpha  occ. eigenvalues --   -0.42706  -0.40321  -0.34385  -0.33445  -0.33077
 Alpha  occ. eigenvalues --   -0.32336  -0.26964  -0.10524
 Alpha virt. eigenvalues --    0.13726   0.14251   0.15379   0.17328   0.18341
 Alpha virt. eigenvalues --    0.19579   0.20717   0.21870   0.23286   0.24171
 Alpha virt. eigenvalues --    0.25210   0.25649   0.26710   0.27375   0.27712

 Mulliken charges:
               1
     1  C    0.339529
     2  C    0.618427
     3  Cl  -0.254331
     4  H   -0.034881
     5  H   -0.121156
     6  H    0.020915
     7  N   -0.421892
     8  H    0.087946
     9  H   -0.019190
    10  C   -0.196829
    11  N   -0.286196
    12  H   -0.732342
 Sum of Mulliken charges =  -1.00000

 Dipole moment (field-independent basis, Debye):
    X=              0.5715    Y=             -8.4648    Z=              0.0695  Tot=              8.4844

 Test job not archived.
 1\1\GINC-SE165\SP\RHF\Aug-CC-pVDZ\C3H6Cl1N2(1-)\OHZDE\09-Apr-2025\0\\#
 t hf aug-cc-pvdz iop(5/13=1,5/36=2,99/5=2) pseudo=read geom=check gues
 s=(read,tcheck) scf=(maxcycle=1)\\title\\-1,1\C,0,-0.204606,-0.051934,
 -1.455414\C,0,-0.016584,0.058558,0.048007\Cl,0,-1.995623,-0.425039,-1.
 814514\H,0,1.064958,0.158556,0.193556\H,0,-0.096246,0.933968,-1.923148
 \H,0,-0.324365,-0.883842,0.506509\N,0,0.637977,-1.078906,-1.923211\H,0
 ,1.593102,-0.92697,-1.462357\H,0,0.76019,-0.99842,-2.926681\C,0,-0.740
 07,1.167476,0.653511\N,0,-1.303988,2.06809,1.153517\H,0,2.836117,-0.41

 Normal termination of Gaussian 16 at Wed Apr  9 02:40:07 2025.
