 Gaussian 16, Revision C.01,

 ----------------------------------------------------------------------
 #t hf aug-cc-pvdz symm=none int=(grid=ultrafine) guess=(read,tcheck) s
 table=(opt,rrhf)
 ----------------------------------------------------------------------
 -----
 title
 -----
 Symbolic Z-matrix:
 Charge = -1 Multiplicity = 1

 SCF Done:  E(RHF) =  -611.830647891     A.U. after   17 cycles
 Normal termination of Gaussian 16 at Wed Apr  9 02:58:35 2025.
 Gaussian 16:  ES64L-G16RevC.01  3-Jul-2019

 ----------------------------------------------------------------------
 #t hf aug-cc-pvdz iop(5/13=1,5/36=2,99/5=2) pseudo=read geom=check gue
 ss=(read,tcheck) scf=(maxcycle=1)
 ----------------------------------------------------------------------
 -----
 title
 -----
 Structure from the checkpoint file:  "E2SN2_59_mol2.chk"
 Charge = -1 Multiplicity = 1

                         Standard orientation:
 ---------------------------------------------------------------------
 Center     Atomic      Atomic             Coordinates (Angstroms)
 Number     Number       Type             X           Y           Z
 ---------------------------------------------------------------------
      1          6           0       -0.084837   -0.125612   -0.349184
      2          6           0       -0.898534   -1.232135    0.277040
      3          9           0       -0.093352   -0.323877   -1.745698
      4          1           0       -0.586067   -1.278055    1.331894
      5          1           0       -0.624880   -2.157472   -0.238616
      6          6           0       -0.557769    1.233921   -0.087626
      7          7           0       -1.094002    2.257330   -0.331305
      8          7           0        1.390133   -0.236671   -0.020431
      9          8           0        1.800384   -1.321144    0.380513
     10          8           0        2.090589    0.720719   -0.321901
     11          6           0       -2.390248   -0.946659    0.162023
     12          1           0       -2.645640   -0.090924    0.788287
     13          1           0       -2.971039   -1.810340    0.498950
     14          1           0       -2.678422   -0.720090   -0.867918
     15          9           0        0.081538    0.672608    1.797603
 ---------------------------------------------------------------------

 SCF Done:  E(RHF) =  -612.019245959     A.U. after    2 cycles

 The electronic state is 1-A.
 Alpha  occ. eigenvalues --  -26.01665 -25.77864 -20.48799 -20.48783 -15.78623
 Alpha  occ. eigenvalues --  -15.48666 -11.29788 -11.16660 -11.12441 -11.11805
 Alpha  occ. eigenvalues --   -1.54929  -1.41252  -1.27292  -1.23212  -1.04063
 Alpha  occ. eigenvalues --   -0.98614  -0.89662  -0.77301  -0.74519  -0.68489
 Alpha  occ. eigenvalues --   -0.67054  -0.62335  -0.60479  -0.58926  -0.56265
 Alpha  occ. eigenvalues --   -0.50432  -0.49010  -0.43739  -0.41362  -0.40667
 Alpha  occ. eigenvalues --   -0.39506  -0.38938  -0.38508  -0.37495  -0.36346
 Alpha  occ. eigenvalues --   -0.35355  -0.33980  -0.30611  -0.27273
 Alpha virt. eigenvalues --    0.11751   0.13933   0.14294   0.16798   0.17227
 Alpha virt. eigenvalues --    0.19375   0.20495   0.21038   0.22015   0.23230
 Alpha virt. eigenvalues --    0.24531   0.24681   0.25031   0.25799   0.25910

 Mulliken charges:
               1
     1  C    1.082325
     2  C    0.154751
     3  F   -0.513453
     4  H    0.162758
     5  H    0.018980
     6  C   -0.050162
     7  N   -0.411677
     8  N    0.533498
     9  O   -0.630860
    10  O   -0.646808
    11  C    0.357966
    12  H    0.015787
    13  H   -0.111401
    14  H   -0.023453
    15  F   -0.938250
 Sum of Mulliken charges =  -1.00000

 Dipole moment (field-independent basis, Debye):
    X=             -2.5061    Y=             -5.3212    Z=             -3.2541  Tot=              6.7219

 Test job not archived.
 1\1\GINC-SE435\SP\RHF\Aug-CC-pVDZ\C4H5F2N2O2(1-)\OHZDE\09-Apr-2025\0\\
 #t hf aug-cc-pvdz iop(5/13=1,5/36=2,99/5=2) pseudo=read geom=check gue
 ss=(read,tcheck) scf=(maxcycle=1)\\title\\-1,1\C,0,-0.231772,0.045026,
 -1.353197\C,0,-0.151646,-0.103939,0.146817\F,0,-1.591421,-0.033082,-1.
 720466\H,0,0.884946,-0.403434,0.366455\H,0,-0.843053,-0.90563,0.423011
 \C,0,0.306908,1.292597,-1.895229\N,0,0.262956,2.381188,-2.350563\N,0,0
 .364416,-1.141047,-2.083771\O,0,0.509238,-2.181483,-1.450002\O,0,0.517
 986,-1.017626,-3.291787\C,0,-0.501431,1.203292,0.845911\H,0,0.276492,1

 Normal termination of Gaussian 16 at Wed Apr  9 02:58:42 2025.
