 Gaussian 16, Revision C.01,

 ----------------------------------------------------------------------
 #t hf aug-cc-pvdz symm=none int=(grid=ultrafine) guess=(read,tcheck) s
 table=(opt,rrhf)
 ----------------------------------------------------------------------
 -----
 title
 -----
 Symbolic Z-matrix:
 Charge = -1 Multiplicity = 1

 SCF Done:  E(RHF) =  -528.874075474     A.U. after   17 cycles
 Normal termination of Gaussian 16 at Wed Apr  9 02:58:43 2025.
 Gaussian 16:  ES64L-G16RevC.01  3-Jul-2019

 ----------------------------------------------------------------------
 #t hf aug-cc-pvdz iop(5/13=1,5/36=2,99/5=2) pseudo=read geom=check gue
 ss=(read,tcheck) scf=(maxcycle=1)
 ----------------------------------------------------------------------
 -----
 title
 -----
 Structure from the checkpoint file:  "E2SN2_61_mol2.chk"
 Charge = -1 Multiplicity = 1

                         Standard orientation:
 ---------------------------------------------------------------------
 Center     Atomic      Atomic             Coordinates (Angstroms)
 Number     Number       Type             X           Y           Z
 ---------------------------------------------------------------------
      1          6           0        0.155813   -0.337010    0.236598
      2          6           0       -0.931581   -1.005576   -0.590164
      3          9           0       -0.058016   -0.467662    1.564469
      4          1           0       -0.998787   -2.050448   -0.251493
      5          1           0       -0.592012   -0.993187   -1.631748
      6          6           0        1.512905   -0.818928   -0.079716
      7          7           0        2.576682   -1.243032   -0.340446
      8          7           0        0.154468    1.160817   -0.078354
      9          8           0       -0.075353    1.941849    0.828924
     10          8           0        0.387488    1.438721   -1.250179
     11          7           0       -2.187410   -0.351809   -0.334139
     12          1           0       -2.569658   -0.010342   -1.207927
     13          1           0       -2.812870   -1.156461   -0.011392
     14          1           0       -3.230616   -2.617914    0.262643
 ---------------------------------------------------------------------

 SCF Done:  E(RHF) =  -529.038720843     A.U. after    2 cycles

 The electronic state is 1-A.
 Alpha  occ. eigenvalues --  -26.06201 -20.54350 -20.53497 -15.83248 -15.58825
 Alpha  occ. eigenvalues --  -15.46598 -11.34539 -11.23066 -11.17043  -1.60710
 Alpha  occ. eigenvalues --   -1.46355  -1.28530  -1.12303  -1.06030  -0.98900
 Alpha  occ. eigenvalues --   -0.84158  -0.78493  -0.74322  -0.72625  -0.66613
 Alpha  occ. eigenvalues --   -0.64340  -0.63620  -0.61569  -0.54482  -0.51666
 Alpha  occ. eigenvalues --   -0.49224  -0.46167  -0.44431  -0.42698  -0.40453
 Alpha  occ. eigenvalues --   -0.40052  -0.38497  -0.38365  -0.27478  -0.09754
 Alpha virt. eigenvalues --    0.13439   0.14434   0.15874   0.16352   0.17610
 Alpha virt. eigenvalues --    0.18526   0.19856   0.21020   0.21598   0.21930
 Alpha virt. eigenvalues --    0.22828   0.23232   0.23712   0.24819   0.25594

 Mulliken charges:
               1
     1  C    0.965068
     2  C    0.646462
     3  F   -0.249162
     4  H   -0.010669
     5  H   -0.104706
     6  C   -0.348614
     7  N   -0.185031
     8  N    0.426291
     9  O   -0.552621
    10  O   -0.615654
    11  N   -0.361985
    12  H    0.043753
    13  H    0.134648
    14  H   -0.787781
 Sum of Mulliken charges =  -1.00000

 Dipole moment (field-independent basis, Debye):
    X=              9.1735    Y=              7.0045    Z=             -2.2107  Tot=             11.7517

 Test job not archived.
 1\1\GINC-SE021\SP\RHF\Aug-CC-pVDZ\C3H5F1N3O2(1-)\OHZDE\09-Apr-2025\0\\
 #t hf aug-cc-pvdz iop(5/13=1,5/36=2,99/5=2) pseudo=read geom=check gue
 ss=(read,tcheck) scf=(maxcycle=1)\\title\\-1,1\C,0,-0.534094,-0.484784
 ,-1.451855\C,0,0.049351,-0.190312,-0.078603\F,0,0.064918,0.233817,-2.4
 26961\H,0,1.135537,-0.353009,-0.147182\H,0,-0.375144,-0.927382,0.61196
 9\C,0,-0.489946,-1.913435,-1.813802\N,0,-0.416861,-3.055298,-2.078893\
 N,0,-2.014321,-0.095471,-1.444976\O,0,-2.387454,0.771181,-2.216771\O,0
 ,-2.702216,-0.708864,-0.635499\N,0,-0.194629,1.188702,0.251338\H,0,-0.

 Normal termination of Gaussian 16 at Wed Apr  9 02:58:48 2025.
