 Gaussian 16, Revision C.01,

 ----------------------------------------------------------------------
 #t hf aug-cc-pvdz symm=none int=(grid=ultrafine) guess=(read,tcheck) s
 table=(opt,rrhf)
 ----------------------------------------------------------------------
 -----
 title
 -----
 Symbolic Z-matrix:
 Charge = -1 Multiplicity = 1

 SCF Done:  E(RHF) =  -943.980968704     A.U. after   17 cycles
 Normal termination of Gaussian 16 at Wed Apr  9 02:34:07 2025.
 Gaussian 16:  ES64L-G16RevC.01  3-Jul-2019

 ----------------------------------------------------------------------
 #t hf aug-cc-pvdz iop(5/13=1,5/36=2,99/5=2) pseudo=read geom=check gue
 ss=(read,tcheck) scf=(maxcycle=1)
 ----------------------------------------------------------------------
 -----
 title
 -----
 Structure from the checkpoint file:  "E2SN2_141_mol1.chk"
 Charge = -1 Multiplicity = 1

                         Standard orientation:
 ---------------------------------------------------------------------
 Center     Atomic      Atomic             Coordinates (Angstroms)
 Number     Number       Type             X           Y           Z
 ---------------------------------------------------------------------
      1          6           0        0.779209   -0.194303   -0.261002
      2          6           0       -0.699027   -0.448662   -0.504876
      3         17           0        1.219761   -0.496258    1.498262
      4          1           0       -0.581335   -1.012833   -2.901832
      5          1           0       -0.776101   -0.376472   -1.707263
      6          7           0        1.586490   -1.091350   -1.066759
      7          1           0        1.132050   -1.083773   -1.995302
      8          1           0        1.433257   -2.028554   -0.708168
      9          6           0        1.207876    1.171971   -0.587283
     10          7           0        1.608468    2.225410   -0.918253
     11          7           0       -1.140235   -1.774652   -0.294140
     12          1           0       -0.630919   -2.264475    0.428739
     13          1           0       -1.099964   -2.256872   -1.193228
     14          7           0       -1.595040    0.534614    0.136348
     15          8           0       -1.087061    1.541988    0.649897
     16          8           0       -2.807819    0.336410    0.065753
 ---------------------------------------------------------------------

 SCF Done:  E(RHF) =  -944.141134844     A.U. after    2 cycles

 The electronic state is 1-A.
 Alpha  occ. eigenvalues -- -103.55776 -20.48635 -20.48626 -15.78043 -15.53414
 Alpha  occ. eigenvalues --  -15.51954 -15.50775 -11.28173 -11.20025 -11.18708
 Alpha  occ. eigenvalues --  -10.59097  -8.24805  -8.24532  -8.24516  -1.40829
 Alpha  occ. eigenvalues --   -1.22462  -1.14409  -1.06934  -1.05318  -1.01954
 Alpha  occ. eigenvalues --   -0.91521  -0.82591  -0.70759  -0.64917  -0.63572
 Alpha  occ. eigenvalues --   -0.60894  -0.58267  -0.56639  -0.53867  -0.51715
 Alpha  occ. eigenvalues --   -0.47194  -0.43911  -0.41347  -0.39384  -0.38749
 Alpha  occ. eigenvalues --   -0.37319  -0.36792  -0.35185  -0.34047  -0.33452
 Alpha  occ. eigenvalues --   -0.31916  -0.29908  -0.14087
 Alpha virt. eigenvalues --    0.12020   0.14247   0.15545   0.17117   0.17926
 Alpha virt. eigenvalues --    0.18491   0.18966   0.20287   0.21000   0.21625
 Alpha virt. eigenvalues --    0.22140   0.24008   0.24325   0.24745   0.25257

 Mulliken charges:
               1
     1  C    1.192475
     2  C    0.883314
     3  Cl  -0.260592
     4  H   -0.423323
     5  H   -0.110529
     6  N   -0.529212
     7  H    0.077320
     8  H    0.058602
     9  C   -0.516764
    10  N   -0.232382
    11  N   -0.211820
    12  H   -0.008488
    13  H    0.081455
    14  N    0.220356
    15  O   -0.627474
    16  O   -0.592939
 Sum of Mulliken charges =  -1.00000

 Dipole moment (field-independent basis, Debye):
    X=              2.4512    Y=             -3.3777    Z=              5.8409  Tot=              7.1787

 Test job not archived.
 1\1\GINC-SE029\SP\RHF\Aug-CC-pVDZ\C3H6Cl1N4O2(1-)\OHZDE\09-Apr-2025\0\
 \#t hf aug-cc-pvdz iop(5/13=1,5/36=2,99/5=2) pseudo=read geom=check gu
 ess=(read,tcheck) scf=(maxcycle=1)\\title\\-1,1\C,0,-0.09646848,0.0402
 6531,-0.36389243\C,0,-0.14723814,0.11116227,1.15325981\Cl,0,1.62052697
 ,-0.24880479,-0.95434606\H,0,-2.48420607,-0.60535906,1.4737503\H,0,-1.
 33469705,0.12781369,1.36901605\N,0,-0.90851116,-1.06135309,-0.84624488
 \H,0,-1.77631731,-1.00647237,-0.28707848\H,0,-0.45515656,-1.9172154,-0
 .54229076\C,0,-0.58633652,1.25334792,-1.03125979\N,0,-1.05061304,2.168

 Normal termination of Gaussian 16 at Wed Apr  9 02:34:16 2025.
