 Gaussian 16, Revision C.01,

 ----------------------------------------------------------------------
 #t hf aug-cc-pvdz symm=none int=(grid=ultrafine) guess=(read,tcheck) s
 table=(opt,rrhf)
 ----------------------------------------------------------------------
 -----
 title
 -----
 Symbolic Z-matrix:
 Charge = -1 Multiplicity = 1

 SCF Done:  E(RHF) =  -891.256062530     A.U. after   17 cycles
 Normal termination of Gaussian 16 at Wed Apr  9 02:58:40 2025.
 Gaussian 16:  ES64L-G16RevC.01  3-Jul-2019

 ----------------------------------------------------------------------
 #t hf aug-cc-pvdz iop(5/13=1,5/36=2,99/5=2) pseudo=read geom=check gue
 ss=(read,tcheck) scf=(maxcycle=1)
 ----------------------------------------------------------------------
 -----
 title
 -----
 Structure from the checkpoint file:  "E2SN2_49_mol1.chk"
 Charge = -1 Multiplicity = 1

                         Standard orientation:
 ---------------------------------------------------------------------
 Center     Atomic      Atomic             Coordinates (Angstroms)
 Number     Number       Type             X           Y           Z
 ---------------------------------------------------------------------
      1          6           0       -0.003756    0.122475    0.395123
      2          6           0        0.985215   -0.814521   -0.129474
      3         17           0        0.132750    1.929519   -0.386730
      4          1           0        1.074851   -2.259843    1.816774
      5          1           0        0.851491   -1.741717    0.750647
      6          7           0       -1.402341   -0.358702    0.009414
      7          8           0       -1.829208   -0.124863   -1.117443
      8          8           0       -1.972850   -1.047242    0.852775
      9          7           0        0.016078    0.327681    1.798442
     10          1           0        0.761688    0.976157    2.011521
     11          1           0        0.274648   -0.588632    2.204191
     12          7           0        2.349160   -0.441230    0.196855
     13          1           0        2.544937   -0.807336    1.131085
     14          1           0        2.457109    0.567714    0.202706
     15          6           0        0.846224   -1.302352   -1.551428
     16          1           0       -0.101567   -1.814987   -1.732801
     17          1           0        0.928276   -0.479450   -2.272565
     18          1           0        1.661913   -2.004750   -1.738099
 ---------------------------------------------------------------------

 SCF Done:  E(RHF) =  -891.402585499     A.U. after    2 cycles

 The electronic state is 1-A.
 Alpha  occ. eigenvalues -- -103.51517 -20.49644 -20.49346 -15.78608 -15.49805
 Alpha  occ. eigenvalues --  -15.47467 -11.27723 -11.11490 -11.09400 -10.54755
 Alpha  occ. eigenvalues --   -8.20439  -8.20208  -8.20201  -1.41801  -1.23580
 Alpha  occ. eigenvalues --   -1.10737  -1.01196  -0.97815  -0.90262  -0.83877
 Alpha  occ. eigenvalues --   -0.73502  -0.67473  -0.61483  -0.60787  -0.59151
 Alpha  occ. eigenvalues --   -0.55097  -0.53000  -0.50486  -0.44804  -0.42836
 Alpha  occ. eigenvalues --   -0.41430  -0.40203  -0.38713  -0.37208  -0.35215
 Alpha  occ. eigenvalues --   -0.33824  -0.32713  -0.32449  -0.29697  -0.26549
 Alpha  occ. eigenvalues --   -0.11286
 Alpha virt. eigenvalues --    0.13046   0.13273   0.14965   0.15142   0.16605
 Alpha virt. eigenvalues --    0.17237   0.18750   0.19213   0.19442   0.20252
 Alpha virt. eigenvalues --    0.21388   0.22797   0.23607   0.25296   0.25935

 Mulliken charges:
               1
     1  C    1.272566
     2  C   -0.367541
     3  Cl  -0.328064
     4  H   -0.536029
     5  H    0.262054
     6  N    0.132041
     7  O   -0.627329
     8  O   -0.544467
     9  N   -0.470759
    10  H    0.053108
    11  H    0.117693
    12  N   -0.310390
    13  H    0.048639
    14  H    0.014129
    15  C    0.395054
    16  H   -0.007463
    17  H   -0.024264
    18  H   -0.078978
 Sum of Mulliken charges =  -1.00000

 Dipole moment (field-independent basis, Debye):
    X=              0.2591    Y=              4.7627    Z=             -2.4813  Tot=              5.3766

 Test job not archived.
 1\1\GINC-SE123\SP\RHF\Aug-CC-pVDZ\C3H9Cl1N3O2(1-)\OHZDE\09-Apr-2025\0\
 \#t hf aug-cc-pvdz iop(5/13=1,5/36=2,99/5=2) pseudo=read geom=check gu
 ess=(read,tcheck) scf=(maxcycle=1)\\title\\-1,1\C,0,-0.23846431,0.1019
 1075,-0.30441143\C,0,-0.01951276,-0.11660071,1.12231251\Cl,0,1.4118487
 3,0.53671183,-1.29574846\H,0,-2.24291259,0.51780192,1.85641022\H,0,-1.
 24350587,-0.06261331,1.51104517\N,0,-0.73703281,-1.19649077,-0.9383880
 8\O,0,0.07197221,-2.07180005,-1.23172932\O,0,-1.9584803,-1.30624234,-1
 .02111301\N,0,-1.15210742,1.13252811,-0.64336512\H,0,-0.6700061,2.0179

 Normal termination of Gaussian 16 at Wed Apr  9 02:58:49 2025.
