 Gaussian 16, Revision C.01,

 ----------------------------------------------------------------------
 #t hf aug-cc-pvdz symm=none int=(grid=ultrafine) guess=(read,tcheck) s
 table=(opt,rrhf)
 ----------------------------------------------------------------------
 -----
 title
 -----
 Symbolic Z-matrix:
 Charge = -1 Multiplicity = 1

 SCF Done:  E(RHF) =  -935.191869146     A.U. after   16 cycles
 Normal termination of Gaussian 16 at Wed Apr  9 02:42:20 2025.
 Gaussian 16:  ES64L-G16RevC.01  3-Jul-2019

 ----------------------------------------------------------------------
 #t hf aug-cc-pvdz iop(5/13=1,5/36=2,99/5=2) pseudo=read geom=check gue
 ss=(read,tcheck) scf=(maxcycle=1)
 ----------------------------------------------------------------------
 -----
 title
 -----
 Structure from the checkpoint file:  "E2SN2_244_mol1.chk"
 Charge = -1 Multiplicity = 1

                         Standard orientation:
 ---------------------------------------------------------------------
 Center     Atomic      Atomic             Coordinates (Angstroms)
 Number     Number       Type             X           Y           Z
 ---------------------------------------------------------------------
      1          6           0       -0.131648   -0.163831    0.185396
      2          1           0       -1.143964    0.296848   -1.648329
      3          9           0        0.224272   -2.092243    0.329844
      4         17           0       -0.245223    2.031781    0.029957
      5          6           0       -1.170177   -0.469768   -0.875950
      6          1           0       -0.893700   -1.419404   -1.323758
      7          7           0        1.307136   -0.169976   -0.290689
      8          8           0        1.501474   -0.279395   -1.494335
      9          8           0        2.176358   -0.049427    0.563016
     10          7           0       -0.381578   -0.191381    1.572160
     11          1           0        0.113671    0.563712    2.022384
     12          1           0       -0.027514   -1.093448    1.868390
     13          6           0       -2.551438   -0.557541   -0.249166
     14          1           0       -2.569603   -1.362665    0.485390
     15          1           0       -2.808582    0.373977    0.256855
     16          1           0       -3.301953   -0.762187   -1.020217
 ---------------------------------------------------------------------

 SCF Done:  E(RHF) =  -935.351009726     A.U. after    2 cycles

 The electronic state is 1-A.
 Alpha  occ. eigenvalues -- -103.45064 -25.81238 -20.47309 -20.47214 -15.77510
 Alpha  occ. eigenvalues --  -15.48808 -11.29970 -11.10801 -11.09993 -10.48381
 Alpha  occ. eigenvalues --   -8.14032  -8.13876  -8.13868  -1.40186  -1.31251
 Alpha  occ. eigenvalues --   -1.21892  -1.07319  -0.93628  -0.90273  -0.86151
 Alpha  occ. eigenvalues --   -0.74093  -0.65908  -0.61417  -0.59468  -0.58582
 Alpha  occ. eigenvalues --   -0.54855  -0.50009  -0.48416  -0.43034  -0.41305
 Alpha  occ. eigenvalues --   -0.40804  -0.40003  -0.38331  -0.37615  -0.36033
 Alpha  occ. eigenvalues --   -0.35314  -0.33011  -0.29300  -0.28172  -0.27660
 Alpha  occ. eigenvalues --   -0.27318
 Alpha virt. eigenvalues --    0.12454   0.13605   0.15264   0.15378   0.16700
 Alpha virt. eigenvalues --    0.17281   0.18325   0.19363   0.21469   0.22258
 Alpha virt. eigenvalues --    0.24041   0.25267   0.25895   0.26764   0.27108

 Mulliken charges:
               1
     1  C    0.232523
     2  H   -0.048895
     3  F   -0.795910
     4  Cl  -0.553912
     5  C    0.606877
     6  H    0.018360
     7  N    0.704948
     8  O   -0.689580
     9  O   -0.701022
    10  N   -0.243914
    11  H    0.086790
    12  H    0.135489
    13  C    0.391040
    14  H   -0.011978
    15  H   -0.037632
    16  H   -0.093185
 Sum of Mulliken charges =  -1.00000

 Dipole moment (field-independent basis, Debye):
    X=             -2.9477    Y=              0.6038    Z=              0.5119  Tot=              3.0521

 Test job not archived.
 1\1\GINC-SE070\SP\RHF\Aug-CC-pVDZ\C3H7Cl1F1N2O2(1-)\OHZDE\09-Apr-2025\
 0\\#t hf aug-cc-pvdz iop(5/13=1,5/36=2,99/5=2) pseudo=read geom=check
 guess=(read,tcheck) scf=(maxcycle=1)\\title\\-1,1\C,0,0.68402101,-0.03
 361,0.07627129\H,0,1.41860655,1.89924998,-0.49293461\F,0,-1.21228807,-
 0.23690786,-0.40226679\Cl,0,2.85894441,-0.02482392,0.43320693\C,0,0.52
 059132,1.46801763,-0.05411267\H,0,-0.3098334,1.63749226,-0.73267933\N,
 0,0.8538692,-0.7857293,-1.2284366\O,0,0.98399609,-0.12150911,-2.248428
 16\O,0,0.86428789,-2.00851602,-1.16864986\N,0,0.38192355,-0.76703141,1

 Normal termination of Gaussian 16 at Wed Apr  9 02:42:28 2025.
