 Gaussian 16, Revision C.01,

 ----------------------------------------------------------------------
 #t hf aug-cc-pvdz symm=none int=(grid=ultrafine) guess=(read,tcheck) s
 table=(opt,rrhf)
 ----------------------------------------------------------------------
 -----
 title
 -----
 Symbolic Z-matrix:
 Charge = -1 Multiplicity = 1

 SCF Done:  E(RHF) =  -990.239266026     A.U. after   16 cycles
 Normal termination of Gaussian 16 at Wed Apr  9 02:33:58 2025.
 Gaussian 16:  ES64L-G16RevC.01  3-Jul-2019

 ----------------------------------------------------------------------
 #t hf aug-cc-pvdz iop(5/13=1,5/36=2,99/5=2) pseudo=read geom=check gue
 ss=(read,tcheck) scf=(maxcycle=1)
 ----------------------------------------------------------------------
 -----
 title
 -----
 Structure from the checkpoint file:  "E2SN2_133_mol2.chk"
 Charge = -1 Multiplicity = 1

                         Standard orientation:
 ---------------------------------------------------------------------
 Center     Atomic      Atomic             Coordinates (Angstroms)
 Number     Number       Type             X           Y           Z
 ---------------------------------------------------------------------
      1          6           0        0.593718    0.270840    0.296658
      2          6           0       -0.868718   -0.070040   -0.047196
      3         17           0        1.058841    1.803582   -0.488556
      4          1           0       -1.045373    0.183583   -1.093809
      5          7           0        0.903136    0.388308    1.689764
      6          1           0        0.744483   -0.513498    2.125977
      7          1           0        0.210330    1.045994    2.038797
      8          7           0        1.469711   -0.826834   -0.291990
      9          8           0        1.584931   -0.868444   -1.510795
     10          8           0        1.907885   -1.667213    0.491625
     11          7           0       -1.732687    0.786451    0.752688
     12          1           0       -2.649513    0.663079    0.213024
     13          1           0       -1.908366    0.284374    1.621912
     14          6           0       -1.211825   -1.549735    0.117138
     15          1           0       -2.280008   -1.563912   -0.123872
     16          1           0       -0.661931   -2.208729   -0.561892
     17          1           0       -1.050177   -1.888647    1.148556
     18          9           0       -3.651382   -0.079973   -0.684746
 ---------------------------------------------------------------------

 SCF Done:  E(RHF) =  -990.416458826     A.U. after    2 cycles

 The electronic state is 1-A.
 Alpha  occ. eigenvalues -- -103.55243 -25.74992 -20.52041 -20.51937 -15.81001
 Alpha  occ. eigenvalues --  -15.52774 -15.44623 -11.28574 -11.14813 -11.09354
 Alpha  occ. eigenvalues --  -10.58614  -8.24342  -8.24034  -8.24028  -1.44434
 Alpha  occ. eigenvalues --   -1.26251  -1.23951  -1.13977  -1.02536  -1.01046
 Alpha  occ. eigenvalues --   -0.91356  -0.83905  -0.74758  -0.69856  -0.64174
 Alpha  occ. eigenvalues --   -0.63552  -0.61758  -0.55612  -0.54681  -0.49910
 Alpha  occ. eigenvalues --   -0.45847  -0.45447  -0.43645  -0.41881  -0.41346
 Alpha  occ. eigenvalues --   -0.40083  -0.37960  -0.37209  -0.35628  -0.34487
 Alpha  occ. eigenvalues --   -0.33964  -0.33220  -0.31569  -0.30736  -0.24887
 Alpha virt. eigenvalues --    0.12148   0.13882   0.15034   0.15277   0.16744
 Alpha virt. eigenvalues --    0.17298   0.17525   0.18732   0.19131   0.19499
 Alpha virt. eigenvalues --    0.21210   0.23817   0.24467   0.24804   0.25645

 Mulliken charges:
               1
     1  C    1.176005
     2  C    0.107062
     3  Cl  -0.164036
     4  H   -0.168317
     5  N   -0.523239
     6  H    0.070801
     7  H    0.138224
     8  N    0.323170
     9  O   -0.639635
    10  O   -0.631143
    11  N   -0.483702
    12  H    0.154029
    13  H    0.047538
    14  C    0.667087
    15  H    0.031490
    16  H   -0.059846
    17  H   -0.097309
    18  F   -0.948179
 Sum of Mulliken charges =  -1.00000

 Dipole moment (field-independent basis, Debye):
    X=              8.0240    Y=             -0.2205    Z=              3.9265  Tot=              8.9359

 Test job not archived.
 1\1\GINC-SE247\SP\RHF\Aug-CC-pVDZ\C3H8Cl1F1N3O2(1-)\OHZDE\09-Apr-2025\
 0\\#t hf aug-cc-pvdz iop(5/13=1,5/36=2,99/5=2) pseudo=read geom=check
 guess=(read,tcheck) scf=(maxcycle=1)\\title\\-1,1\C,0,-0.711374,0.0309
 51,-1.553682\C,0,0.117676,0.0146,-0.25539\Cl,0,0.120076,-0.917756,-2.8
 1497\H,0,1.173232,0.100441,-0.51876\N,0,-2.050761,-0.465219,-1.452985\
 H,0,-2.563853,0.136435,-0.817804\H,0,-1.940459,-1.378679,-1.019651\N,0
 ,-0.775947,1.473544,-2.036915\O,0,0.251666,1.969094,-2.482936\O,0,-1.8
 2779,2.078835,-1.83808\N,0,-0.061195,-1.283649,0.378952\H,0,0.765635,-

 Normal termination of Gaussian 16 at Wed Apr  9 02:34:09 2025.
