 Gaussian 16, Revision C.01,

 ----------------------------------------------------------------------
 #t hf aug-cc-pvdz symm=none int=(grid=ultrafine) guess=(read,tcheck) s
 table=(opt,rrhf)
 ----------------------------------------------------------------------
 -----
 title
 -----
 Symbolic Z-matrix:
 Charge = -1 Multiplicity = 1

 SCF Done:  E(RHF) =  -1136.33056164     A.U. after   18 cycles
 Normal termination of Gaussian 16 at Wed Apr  9 02:38:10 2025.
 Gaussian 16:  ES64L-G16RevC.01  3-Jul-2019

 ----------------------------------------------------------------------
 #t hf aug-cc-pvdz iop(5/13=1,5/36=2,99/5=2) pseudo=read geom=check gue
 ss=(read,tcheck) scf=(maxcycle=1)
 ----------------------------------------------------------------------
 -----
 title
 -----
 Structure from the checkpoint file:  "E2SN2_175_mol1.chk"
 Charge = -1 Multiplicity = 1

                         Standard orientation:
 ---------------------------------------------------------------------
 Center     Atomic      Atomic             Coordinates (Angstroms)
 Number     Number       Type             X           Y           Z
 ---------------------------------------------------------------------
      1          6           0        0.830417   -0.519584    0.374879
      2          1           0       -0.347342   -0.714073   -1.423737
      3          9           0       -0.324163   -0.134424    1.935479
      4         17           0        2.129580   -0.977850   -1.180664
      5          6           0       -0.403168   -0.234554   -0.449756
      6          1           0        0.834091   -1.500869    0.818378
      7          6           0        1.624376    0.493231    1.025904
      8          7           0        2.403242    1.233316    1.503152
      9          7           0       -0.680792    1.202093   -0.756152
     10          8           0       -1.305574    1.376385   -1.803613
     11          8           0       -0.317408    2.075496    0.018508
     12          7           0       -1.645071   -0.828259    0.173721
     13          8           0       -2.619229   -0.116096    0.348367
     14          8           0       -1.585733   -2.040333    0.325004
 ---------------------------------------------------------------------

 SCF Done:  E(RHF) =  -1136.54708698     A.U. after    2 cycles

 The electronic state is 1-A.
 Alpha  occ. eigenvalues -- -103.51498 -25.82686 -20.53670 -20.52715 -20.52413
 Alpha  occ. eigenvalues --  -20.51855 -15.82887 -15.82862 -15.52009 -11.29642
 Alpha  occ. eigenvalues --  -11.29070 -11.18897 -10.54769  -8.20435  -8.20237
 Alpha  occ. eigenvalues --   -8.20221  -1.46375  -1.44582  -1.32784  -1.27464
 Alpha  occ. eigenvalues --   -1.27124  -1.08729  -1.05265  -0.99254  -0.88586
 Alpha  occ. eigenvalues --   -0.85768  -0.74648  -0.70506  -0.68716  -0.66556
 Alpha  occ. eigenvalues --   -0.63832  -0.63241  -0.61088  -0.58598  -0.54361
 Alpha  occ. eigenvalues --   -0.47874  -0.44574  -0.43136  -0.43032  -0.42678
 Alpha  occ. eigenvalues --   -0.42359  -0.41453  -0.39889  -0.38043  -0.36972
 Alpha  occ. eigenvalues --   -0.35019  -0.33884  -0.33460  -0.33004  -0.30867
 Alpha virt. eigenvalues --    0.13524   0.14335   0.15838   0.17391   0.18299
 Alpha virt. eigenvalues --    0.18981   0.20937   0.21218   0.22217   0.22754
 Alpha virt. eigenvalues --    0.23768   0.24484   0.25117   0.25377   0.26214

 Mulliken charges:
               1
     1  C    1.123525
     2  H   -0.137230
     3  F   -0.836537
     4  Cl  -0.413752
     5  C    1.669338
     6  H   -0.191099
     7  C   -0.382649
     8  N   -0.239571
     9  N    0.223671
    10  O   -0.599476
    11  O   -0.498715
    12  N    0.511513
    13  O   -0.596814
    14  O   -0.632206
 Sum of Mulliken charges =  -1.00000

 Dipole moment (field-independent basis, Debye):
    X=             -0.6689    Y=             -2.3106    Z=             -4.4631  Tot=              5.0700

 Test job not archived.
 1\1\GINC-SE036\SP\RHF\Aug-CC-pVDZ\C3H2Cl1F1N3O4(1-)\OHZDE\09-Apr-2025\
 0\\#t hf aug-cc-pvdz iop(5/13=1,5/36=2,99/5=2) pseudo=read geom=check
 guess=(read,tcheck) scf=(maxcycle=1)\\title\\-1,1\C,0,0.78314757,-0.05
 729167,0.06378102\H,0,1.65124916,1.88078488,-0.32379892\F,0,-1.1749783
 3,-0.02259146,-0.22154658\Cl,0,2.83648944,-0.22250528,0.3358842\C,0,0.
 6975903,1.44819275,-0.03209309\H,0,0.75546656,-0.55149255,-0.89257834\
 C,0,0.35305908,-0.82435104,1.20686663\N,0,0.14113365,-1.53794003,2.116
 81328\N,0,0.32580576,2.17416113,1.22076546\O,0,0.76939059,3.32194719,1

 Normal termination of Gaussian 16 at Wed Apr  9 02:38:20 2025.
