 Gaussian 16, Revision C.01,

 ----------------------------------------------------------------------
 #t hf aug-cc-pvdz symm=none int=(grid=ultrafine) guess=(read,tcheck) s
 table=(opt,rrhf)
 ----------------------------------------------------------------------
 -----
 title
 -----
 Symbolic Z-matrix:
 Charge = -1 Multiplicity = 1

 SCF Done:  E(RHF) =  -1238.53853666     A.U. after   17 cycles
 Normal termination of Gaussian 16 at Wed Apr  9 02:58:52 2025.
 Gaussian 16:  ES64L-G16RevC.01  3-Jul-2019

 ----------------------------------------------------------------------
 #t hf aug-cc-pvdz iop(5/13=1,5/36=2,99/5=2) pseudo=read geom=check gue
 ss=(read,tcheck) scf=(maxcycle=1)
 ----------------------------------------------------------------------
 -----
 title
 -----
 Structure from the checkpoint file:  "E2SN2_58_mol1.chk"
 Charge = -1 Multiplicity = 1

                         Standard orientation:
 ---------------------------------------------------------------------
 Center     Atomic      Atomic             Coordinates (Angstroms)
 Number     Number       Type             X           Y           Z
 ---------------------------------------------------------------------
      1          6           0        0.449651    0.251924    0.410426
      2          6           0       -0.303020   -0.638653   -0.361277
      3         17           0        2.697695   -0.407511   -0.052043
      4         17           0       -3.082062    0.125304    0.189265
      5          1           0       -1.552865   -0.169907    0.007000
      6          6           0        0.572097    1.581585   -0.126911
      7          7           0        0.617413    2.684593   -0.538996
      8          7           0       -0.300750   -1.982127    0.120649
      9          1           0        0.653157   -2.331046    0.026571
     10          1           0       -0.908889   -2.524365   -0.480453
     11          7           0       -0.332857   -0.494020   -1.796583
     12          1           0        0.635658   -0.463905   -2.116095
     13          1           0       -0.775817    0.381946   -2.051575
     14          6           0        0.477969    0.149656    1.906659
     15          1           0       -0.485438    0.502060    2.297522
     16          1           0        0.620088   -0.886245    2.202313
     17          1           0        1.281532    0.762787    2.313057
 ---------------------------------------------------------------------

 SCF Done:  E(RHF) =  -1238.66167345     A.U. after    2 cycles

 The electronic state is 1-A.
 Alpha  occ. eigenvalues -- -103.45336-103.44532 -15.54847 -15.49833 -15.49524
 Alpha  occ. eigenvalues --  -11.24207 -11.19744 -11.17251 -11.14277 -10.48618
 Alpha  occ. eigenvalues --  -10.47688  -8.14276  -8.14120  -8.14115  -8.13316
 Alpha  occ. eigenvalues --   -8.13208  -8.13202  -1.11201  -1.07597  -0.99005
 Alpha  occ. eigenvalues --   -0.97297  -0.92556  -0.89639  -0.82136  -0.71973
 Alpha  occ. eigenvalues --   -0.60207  -0.56263  -0.53060  -0.50446  -0.48857
 Alpha  occ. eigenvalues --   -0.47927  -0.45743  -0.43853  -0.42295  -0.38250
 Alpha  occ. eigenvalues --   -0.35725  -0.31954  -0.30137  -0.28660  -0.28349
 Alpha  occ. eigenvalues --   -0.28062  -0.27271  -0.27096  -0.19125
 Alpha virt. eigenvalues --    0.12617   0.13117   0.14154   0.15225   0.15698
 Alpha virt. eigenvalues --    0.15937   0.17291   0.17712   0.18800   0.20064
 Alpha virt. eigenvalues --    0.21464   0.22460   0.23730   0.24071   0.24994

 Mulliken charges:
               1
     1  C   -0.055679
     2  C    0.483424
     3  Cl  -0.700596
     4  Cl  -0.694097
     5  H    0.635300
     6  C   -0.707443
     7  N   -0.270620
     8  N   -0.347364
     9  H    0.064901
    10  H   -0.039999
    11  N   -0.362515
    12  H    0.053740
    13  H    0.028664
    14  C    0.694678
    15  H    0.144163
    16  H    0.051183
    17  H    0.022259
 Sum of Mulliken charges =  -1.00000

 Dipole moment (field-independent basis, Debye):
    X=              0.7568    Y=             -1.3955    Z=              1.0384  Tot=              1.8969

 Test job not archived.
 1\1\GINC-SE402\SP\RHF\Aug-CC-pVDZ\C4H8Cl2N3(1-)\OHZDE\09-Apr-2025\0\\#
 t hf aug-cc-pvdz iop(5/13=1,5/36=2,99/5=2) pseudo=read geom=check gues
 s=(read,tcheck) scf=(maxcycle=1)\\title\\-1,1\C,0,-0.43732183,0.010216
 07,-0.23573586\C,0,-0.32869855,0.15612777,1.15065393\Cl,0,1.84076477,-
 0.11884323,-0.94007937\Cl,0,-3.11223608,0.3358355,2.06138171\H,0,-1.68
 44024,0.23707052,1.42079334\C,0,-0.80720534,-1.30456439,-0.68989512\N,
 0,-1.17063343,-2.36481715,-1.05359762\N,0,0.16674365,1.42675666,1.5716
 306\H,0,1.13175661,1.49274582,1.24770264\H,0,0.15929911,1.4384833,2.58

 Normal termination of Gaussian 16 at Wed Apr  9 02:59:01 2025.
