 Gaussian 16, Revision C.01,

 ----------------------------------------------------------------------
 #t hf aug-cc-pvdz symm=none int=(grid=ultrafine) guess=(read,tcheck) s
 table=(opt,rrhf)
 ----------------------------------------------------------------------
 -----
 title
 -----
 Symbolic Z-matrix:
 Charge = -1 Multiplicity = 1

 SCF Done:  E(RHF) =  -516.031260331     A.U. after   16 cycles
 Normal termination of Gaussian 16 at Wed Apr  9 02:45:00 2025.
 Gaussian 16:  ES64L-G16RevC.01  3-Jul-2019

 ----------------------------------------------------------------------
 #t hf aug-cc-pvdz iop(5/13=1,5/36=2,99/5=2) pseudo=read geom=check gue
 ss=(read,tcheck) scf=(maxcycle=1)
 ----------------------------------------------------------------------
 -----
 title
 -----
 Structure from the checkpoint file:  "E2SN2_267_mol1.chk"
 Charge = -1 Multiplicity = 1

                         Standard orientation:
 ---------------------------------------------------------------------
 Center     Atomic      Atomic             Coordinates (Angstroms)
 Number     Number       Type             X           Y           Z
 ---------------------------------------------------------------------
      1          6           0        0.139286   -0.032137    0.051658
      2          1           0       -0.745279   -0.835744    1.807067
      3          9           0       -0.288927   -0.620407   -1.545545
      4          9           0        0.748036    0.673223    1.625525
      5          6           0       -0.797781   -1.018324    0.737369
      6          1           0       -0.392844   -2.015569    0.513135
      7          6           0       -0.308086    1.308014   -0.282227
      8          7           0       -0.667127    2.383411   -0.588240
      9          6           0        1.524492   -0.400611   -0.182873
     10          7           0        2.626865   -0.751026   -0.386426
     11          7           0       -2.164073   -0.815407    0.266668
     12          1           0       -2.766336   -1.502291    0.704024
     13          1           0       -2.144635   -0.982235   -0.731621
 ---------------------------------------------------------------------

 SCF Done:  E(RHF) =  -516.184224113     A.U. after    2 cycles

 The electronic state is 1-A.
 Alpha  occ. eigenvalues --  -25.88050 -25.84484 -15.51053 -15.50692 -15.49205
 Alpha  occ. eigenvalues --  -11.29278 -11.17562 -11.17107 -11.15999  -1.38581
 Alpha  occ. eigenvalues --   -1.34756  -1.06251  -1.04397  -1.03675  -0.92711
 Alpha  occ. eigenvalues --   -0.77256  -0.68413  -0.58859  -0.54071  -0.50645
 Alpha  occ. eigenvalues --   -0.49243  -0.48381  -0.46474  -0.44040  -0.43714
 Alpha  occ. eigenvalues --   -0.42178  -0.41447  -0.40263  -0.38645  -0.33141
 Alpha  occ. eigenvalues --   -0.32353  -0.31947  -0.31608  -0.27842
 Alpha virt. eigenvalues --    0.11723   0.14443   0.14730   0.16742   0.18661
 Alpha virt. eigenvalues --    0.20065   0.20723   0.22461   0.23238   0.23566
 Alpha virt. eigenvalues --    0.24832   0.25577   0.25924   0.27102   0.27454

 Mulliken charges:
               1
     1  C    1.886131
     2  H   -0.014267
     3  F   -0.731710
     4  F   -0.766808
     5  C    1.050667
     6  H    0.022024
     7  C   -0.766134
     8  N   -0.233090
     9  C   -0.915519
    10  N   -0.234425
    11  N   -0.350305
    12  H   -0.031550
    13  H    0.084986
 Sum of Mulliken charges =  -1.00000

 Dipole moment (field-independent basis, Debye):
    X=             -3.6511    Y=             -4.3008    Z=              0.9403  Tot=              5.7194

 Test job not archived.
 1\1\GINC-SE108\SP\RHF\Aug-CC-pVDZ\C4H4F2N3(1-)\OHZDE\09-Apr-2025\0\\#t
  hf aug-cc-pvdz iop(5/13=1,5/36=2,99/5=2) pseudo=read geom=check guess
 =(read,tcheck) scf=(maxcycle=1)\\title\\-1,1\C,0,0.63232631,-0.0165355
 5,-0.02792327\H,0,1.77236411,1.77488227,-0.05680466\F,0,-1.12259575,0.
 0104696,-0.03054009\F,0,2.4461348,-0.24468184,0.02875675\C,0,0.7205798
 7,1.50434232,-0.02673175\H,0,0.28452477,1.82494701,0.93025367\C,0,0.65
 892271,-0.76099607,-1.27399505\N,0,0.64535695,-1.37349999,-2.27583785\
 C,0,0.62038692,-0.73711648,1.23310545\N,0,0.5767565,-1.27916606,2.2741

 Normal termination of Gaussian 16 at Wed Apr  9 02:45:05 2025.
