 Gaussian 16, Revision C.01,

 ----------------------------------------------------------------------
 #t hf aug-cc-pvdz symm=none int=(grid=ultrafine) guess=(read,tcheck) s
 table=(opt,rrhf)
 ----------------------------------------------------------------------
 -----
 title
 -----
 Symbolic Z-matrix:
 Charge = -1 Multiplicity = 1

 SCF Done:  E(RHF) =  -366.720987539     A.U. after   16 cycles
 Normal termination of Gaussian 16 at Wed Apr  9 02:28:41 2025.
 Gaussian 16:  ES64L-G16RevC.01  3-Jul-2019

 ----------------------------------------------------------------------
 #t hf aug-cc-pvdz iop(5/13=1,5/36=2,99/5=2) pseudo=read geom=check gue
 ss=(read,tcheck) scf=(maxcycle=1)
 ----------------------------------------------------------------------
 -----
 title
 -----
 Structure from the checkpoint file:  "E2SN2_112_mol1.chk"
 Charge = -1 Multiplicity = 1

                         Standard orientation:
 ---------------------------------------------------------------------
 Center     Atomic      Atomic             Coordinates (Angstroms)
 Number     Number       Type             X           Y           Z
 ---------------------------------------------------------------------
      1          6           0        0.593387    0.029416    0.040522
      2          6           0       -0.853715    0.019513    0.217021
      3          9           0        1.011410   -0.033264   -1.422287
      4          1           0       -1.565128   -0.619889    2.500572
      5          1           0       -1.194613   -0.280269    1.711881
      6          6           0        1.253798    1.299880    0.534025
      7          1           0        0.760556    2.155821    0.077291
      8          1           0        1.143311    1.378785    1.620253
      9          1           0        2.318991    1.295644    0.278665
     10          6           0        1.256847   -1.208261    0.618761
     11          1           0        2.342011   -1.163171    0.480240
     12          1           0        1.025347   -1.286798    1.686218
     13          1           0        0.886468   -2.108085    0.125474
     14          7           0       -1.537202   -1.140528   -0.330228
     15          1           0       -1.735493   -1.811731    0.415481
     16          1           0       -0.980596   -1.603603   -1.041184
     17          7           0       -1.516397    1.275310   -0.098574
     18          1           0       -2.321012    1.347079    0.522975
     19          1           0       -1.909239    1.208834   -1.037635
 ---------------------------------------------------------------------

 SCF Done:  E(RHF) =  -366.838270746     A.U. after    2 cycles

 The electronic state is 1-A.
 Alpha  occ. eigenvalues --  -25.89709 -15.43234 -15.42992 -11.14790 -11.08057
 Alpha  occ. eigenvalues --  -11.07419 -11.04900  -1.41138  -1.00640  -0.91331
 Alpha  occ. eigenvalues --   -0.90006  -0.78818  -0.70215  -0.59684  -0.53080
 Alpha  occ. eigenvalues --   -0.51851  -0.50176  -0.48186  -0.45766  -0.44204
 Alpha  occ. eigenvalues --   -0.43680  -0.39876  -0.38792  -0.38255  -0.35154
 Alpha  occ. eigenvalues --   -0.33091  -0.32484  -0.24071  -0.21192  -0.07611
 Alpha virt. eigenvalues --    0.13005   0.13638   0.14126   0.15000   0.15777
 Alpha virt. eigenvalues --    0.16328   0.17110   0.17275   0.18208   0.19086
 Alpha virt. eigenvalues --    0.19606   0.22122   0.23767   0.25686   0.26424

 Mulliken charges:
               1
     1  C   -1.318759
     2  C    0.585530
     3  F   -0.641854
     4  H   -0.992053
     5  H    0.812564
     6  C    0.743695
     7  H    0.034223
     8  H    0.082372
     9  H   -0.000066
    10  C    0.612379
    11  H   -0.007242
    12  H    0.072344
    13  H   -0.058391
    14  N   -0.444974
    15  H   -0.020254
    16  H    0.019578
    17  N   -0.491181
    18  H    0.009019
    19  H    0.003070
 Sum of Mulliken charges =  -1.00000

 Dipole moment (field-independent basis, Debye):
    X=              3.5829    Y=              0.0090    Z=             -2.2395  Tot=              4.2252

 Test job not archived.
 1\1\GINC-SE195\SP\RHF\Aug-CC-pVDZ\C4H12F1N2(1-)\OHZDE\09-Apr-2025\0\\#
 t hf aug-cc-pvdz iop(5/13=1,5/36=2,99/5=2) pseudo=read geom=check gues
 s=(read,tcheck) scf=(maxcycle=1)\\title\\-1,1\C,0,-0.18580768,0.003038
 23,-0.35329606\C,0,-0.27974229,-0.14309445,1.09417657\F,0,1.24612017,0
 .18559302,-0.83779598\H,0,-2.5468765,0.29837032,1.98566954\H,0,-1.7653
 121,0.04053501,1.54144623\C,0,-0.6550464,-1.21848915,-1.1158265\H,0,-0
 .13063241,-2.09442452,-0.73865806\H,0,-1.72820427,-1.36594734,-0.95798
 818\H,0,-0.46135694,-1.09278891,-2.18659566\C,0,-0.85929855,1.26896656

 Normal termination of Gaussian 16 at Wed Apr  9 02:28:49 2025.
