 Gaussian 16, Revision C.01,

 ----------------------------------------------------------------------
 #t hf aug-cc-pvdz symm=none int=(grid=ultrafine) guess=(read,tcheck) s
 table=(opt,rrhf)
 ----------------------------------------------------------------------
 -----
 title
 -----
 Symbolic Z-matrix:
 Charge = -1 Multiplicity = 1

 SCF Done:  E(RHF) =  -518.381932608     A.U. after   15 cycles
 Normal termination of Gaussian 16 at Wed Apr  9 02:56:34 2025.
 Gaussian 16:  ES64L-G16RevC.01  3-Jul-2019

 ----------------------------------------------------------------------
 #t hf aug-cc-pvdz iop(5/13=1,5/36=2,99/5=2) pseudo=read geom=check gue
 ss=(read,tcheck) scf=(maxcycle=1)
 ----------------------------------------------------------------------
 -----
 title
 -----
 Structure from the checkpoint file:  "E2SN2_405_mol1.chk"
 Charge = -1 Multiplicity = 1

                         Standard orientation:
 ---------------------------------------------------------------------
 Center     Atomic      Atomic             Coordinates (Angstroms)
 Number     Number       Type             X           Y           Z
 ---------------------------------------------------------------------
      1          6           0       -0.692889   -0.086219    0.137181
      2          1           0        0.316758    0.047379   -1.733218
      3          9           0        0.169040    0.516143    1.630261
      4          9           0       -1.580742   -0.653087   -1.410488
      5          6           0        0.528282    0.330124   -0.703203
      6          7           0       -1.730179    0.877057    0.357605
      7          1           0       -1.878177    0.928486    1.354961
      8          1           0       -2.537937    0.529720   -0.138233
      9          6           0       -0.782869   -1.511890    0.649228
     10          1           0       -1.832376   -1.804961    0.653190
     11          1           0       -0.261807   -2.188135   -0.028864
     12          1           0       -0.356211   -1.584462    1.647893
     13          6           0        1.716715   -0.435572   -0.265675
     14          7           0        2.721579   -0.995032   -0.022482
     15          7           0        0.757952    1.773190   -0.632430
     16          1           0        1.714566    1.957249   -0.916178
     17          1           0        0.679601    1.982055    0.358456
 ---------------------------------------------------------------------

 SCF Done:  E(RHF) =  -518.535910331     A.U. after    2 cycles

 The electronic state is 1-A.
 Alpha  occ. eigenvalues --  -25.82677 -25.80657 -15.49919 -15.47343 -15.46102
 Alpha  occ. eigenvalues --  -11.23818 -11.16450 -11.15362 -11.08605  -1.33388
 Alpha  occ. eigenvalues --   -1.31032  -1.05979  -1.02706  -1.00114  -0.86955
 Alpha  occ. eigenvalues --   -0.79935  -0.66175  -0.56815  -0.54378  -0.53879
 Alpha  occ. eigenvalues --   -0.49570  -0.48331  -0.45216  -0.43968  -0.41676
 Alpha  occ. eigenvalues --   -0.41366  -0.40337  -0.39428  -0.38376  -0.37605
 Alpha  occ. eigenvalues --   -0.36435  -0.35834  -0.32351  -0.30934  -0.27554
 Alpha  occ. eigenvalues --   -0.24651
 Alpha virt. eigenvalues --    0.13331   0.13706   0.14324   0.15082   0.16323
 Alpha virt. eigenvalues --    0.17077   0.17786   0.18619   0.19298   0.22642
 Alpha virt. eigenvalues --    0.23885   0.24802   0.25099   0.26278   0.27590

 Mulliken charges:
               1
     1  C   -0.325188
     2  H    0.037349
     3  F   -0.810051
     4  F   -0.814737
     5  C    1.358136
     6  N   -0.376567
     7  H    0.028775
     8  H    0.027120
     9  C    0.736287
    10  H   -0.069217
    11  H    0.023956
    12  H    0.071510
    13  C   -0.295504
    14  N   -0.316597
    15  N   -0.392282
    16  H   -0.028451
    17  H    0.145460
 Sum of Mulliken charges =  -1.00000

 Dipole moment (field-independent basis, Debye):
    X=             -0.7304    Y=              0.5163    Z=              0.6566  Tot=              1.1096

 Test job not archived.
 1\1\GINC-SE435\SP\RHF\Aug-CC-pVDZ\C4H8F2N3(1-)\OHZDE\09-Apr-2025\0\\#t
  hf aug-cc-pvdz iop(5/13=1,5/36=2,99/5=2) pseudo=read geom=check guess
 =(read,tcheck) scf=(maxcycle=1)\\title\\-1,1\C,0,0.61417243,-0.0474300
 3,-0.00720715\H,0,1.72017371,1.76961603,0.09637896\F,0,-1.20695554,0.0
 5262216,-0.09957052\F,0,2.48394675,-0.12999764,0.0378316\C,0,0.671288,
 1.49119699,0.00727343\N,0,0.63304198,-0.71923346,-1.27242706\H,0,-0.16
 470177,-1.33774527,-1.29015774\H,0,1.51123363,-1.21576965,-1.30709097\
 C,0,0.60043146,-0.79620882,1.31262941\H,0,1.14637049,-1.72964757,1.178

 Normal termination of Gaussian 16 at Wed Apr  9 02:56:42 2025.
