 Gaussian 16, Revision C.01,

 ----------------------------------------------------------------------
 #t hf aug-cc-pvdz symm=none int=(grid=ultrafine) guess=(read,tcheck) s
 table=(opt,rrhf)
 ----------------------------------------------------------------------
 -----
 title
 -----
 Symbolic Z-matrix:
 Charge = -1 Multiplicity = 1

 SCF Done:  E(RHF) =  -931.151823383     A.U. after   16 cycles
 Normal termination of Gaussian 16 at Wed Apr  9 02:55:35 2025.
 Gaussian 16:  ES64L-G16RevC.01  3-Jul-2019

 ----------------------------------------------------------------------
 #t hf aug-cc-pvdz iop(5/13=1,5/36=2,99/5=2) pseudo=read geom=check gue
 ss=(read,tcheck) scf=(maxcycle=1)
 ----------------------------------------------------------------------
 -----
 title
 -----
 Structure from the checkpoint file:  "E2SN2_396_mol1.chk"
 Charge = -1 Multiplicity = 1

                         Standard orientation:
 ---------------------------------------------------------------------
 Center     Atomic      Atomic             Coordinates (Angstroms)
 Number     Number       Type             X           Y           Z
 ---------------------------------------------------------------------
      1          6           0        0.510389    0.026853    0.399413
      2          1           0       -0.504060   -1.668249    0.973338
      3         17           0       -0.617268    1.911045   -0.228916
      4          9           0        1.633243   -1.459103    0.760857
      5          6           0       -0.565668   -1.020910    0.090656
      6          7           0        0.622066    0.444148    1.761471
      7          1           0        0.696566    1.449615    1.805800
      8          1           0        1.455221   -0.007782    2.116761
      9          6           0        1.508267    0.367951   -0.601358
     10          7           0        2.374127    0.650334   -1.346178
     11          7           0       -0.229014   -1.704311   -1.152963
     12          1           0       -0.928782   -2.411545   -1.344784
     13          1           0        0.658055   -2.158539   -0.960212
     14          6           0       -1.960506   -0.564145    0.031236
     15          7           0       -3.129683   -0.449862    0.013850
 ---------------------------------------------------------------------

 SCF Done:  E(RHF) =  -931.301682071     A.U. after    2 cycles

 The electronic state is 1-A.
 Alpha  occ. eigenvalues -- -103.44543 -25.86103 -15.52082 -15.51507 -15.51140
 Alpha  occ. eigenvalues --  -15.50973 -11.31112 -11.21258 -11.17698 -11.17614
 Alpha  occ. eigenvalues --  -10.47871  -8.13505  -8.13368  -8.13355  -1.36413
 Alpha  occ. eigenvalues --   -1.10955  -1.07021  -1.04347  -1.04124  -0.91939
 Alpha  occ. eigenvalues --   -0.87452  -0.80152  -0.64728  -0.59262  -0.58070
 Alpha  occ. eigenvalues --   -0.54566  -0.51167  -0.48621  -0.47021  -0.45036
 Alpha  occ. eigenvalues --   -0.44074  -0.42363  -0.42019  -0.35794  -0.34341
 Alpha  occ. eigenvalues --   -0.33911  -0.32966  -0.31191  -0.30019  -0.27465
 Alpha  occ. eigenvalues --   -0.27014  -0.25808
 Alpha virt. eigenvalues --    0.12466   0.13005   0.14615   0.15763   0.16796
 Alpha virt. eigenvalues --    0.18784   0.19552   0.20220   0.21382   0.22768
 Alpha virt. eigenvalues --    0.23661   0.24326   0.25089   0.25278   0.26208

 Mulliken charges:
               1
     1  C    0.741651
     2  H    0.189420
     3  Cl  -0.563941
     4  F   -0.778063
     5  C    1.141583
     6  N   -0.512517
     7  H    0.076856
     8  H    0.110424
     9  C   -0.070960
    10  N   -0.370074
    11  N   -0.408806
    12  H   -0.019555
    13  H    0.131287
    14  C   -0.378303
    15  N   -0.289003
 Sum of Mulliken charges =  -1.00000

 Dipole moment (field-independent basis, Debye):
    X=              0.2095    Y=             -2.9275    Z=              2.3056  Tot=              3.7323

 Test job not archived.
 1\1\GINC-SE457\SP\RHF\Aug-CC-pVDZ\C4H5Cl1F1N4(1-)\OHZDE\09-Apr-2025\0\
 \#t hf aug-cc-pvdz iop(5/13=1,5/36=2,99/5=2) pseudo=read geom=check gu
 ess=(read,tcheck) scf=(maxcycle=1)\\title\\-1,1\C,0,0.48239795,-0.0796
 239,-0.03953628\H,0,1.50709647,1.58848,-0.67143212\Cl,0,-1.71813123,-0
 .37573995,-0.57486328\F,0,2.25859648,0.02994092,0.61820315\C,0,0.55866
 103,1.44851508,-0.13959435\N,0,0.94603074,-0.81689181,-1.17235964\H,0,
 0.28882174,-1.54951827,-1.39555104\H,0,1.84623524,-1.1927235,-0.902174
 96\C,0,0.19154934,-0.71600161,1.23485858\N,0,0.01305005,-1.29384594,2.

 Normal termination of Gaussian 16 at Wed Apr  9 02:55:43 2025.
