 Gaussian 16, Revision C.01,

 ----------------------------------------------------------------------
 #t hf aug-cc-pvdz symm=none int=(grid=ultrafine) guess=(read,tcheck) s
 table=(opt,rrhf)
 ----------------------------------------------------------------------
 -----
 title
 -----
 Symbolic Z-matrix:
 Charge = -1 Multiplicity = 1

 SCF Done:  E(RHF) =  -740.479285469     A.U. after   15 cycles
 Normal termination of Gaussian 16 at Wed Apr  9 02:59:29 2025.
 Gaussian 16:  ES64L-G16RevC.01  3-Jul-2019

 ----------------------------------------------------------------------
 #t hf aug-cc-pvdz iop(5/13=1,5/36=2,99/5=2) pseudo=read geom=check gue
 ss=(read,tcheck) scf=(maxcycle=1)
 ----------------------------------------------------------------------
 -----
 title
 -----
 Structure from the checkpoint file:  "E2SN2_82_mol2.chk"
 Charge = -1 Multiplicity = 1

                         Standard orientation:
 ---------------------------------------------------------------------
 Center     Atomic      Atomic             Coordinates (Angstroms)
 Number     Number       Type             X           Y           Z
 ---------------------------------------------------------------------
      1          6           0       -0.206558   -0.173011    0.203160
      2          6           0        0.923818   -0.818049   -0.638138
      3         17           0       -0.206866    1.653454   -0.117282
      4          1           0        0.919274   -0.372394   -1.638858
      5          1           0        0.649628   -1.877674   -0.722873
      6          6           0       -1.532302   -0.623732   -0.232020
      7          7           0       -2.579920   -1.021282   -0.585737
      8          7           0        0.013948   -0.484733    1.563914
      9          1           0        1.019535   -0.337575    1.691833
     10          1           0       -0.532445    0.104461    2.178555
     11          7           0        2.191662   -0.598660    0.012839
     12          1           0        2.821112   -0.098252   -0.714791
     13          1           0        2.635604   -1.494643    0.180297
     14          1           0        3.514433    0.388840   -1.915495
 ---------------------------------------------------------------------

 SCF Done:  E(RHF) =  -740.579908296     A.U. after    2 cycles

 The electronic state is 1-A.
 Alpha  occ. eigenvalues -- -103.53992 -15.55087 -15.52662 -15.45587 -11.26786
 Alpha  occ. eigenvalues --  -11.20074 -11.15530 -10.57324  -8.23023  -8.22748
 Alpha  occ. eigenvalues --   -8.22743  -1.13687  -1.07799  -1.01207  -1.00408
 Alpha  occ. eigenvalues --   -0.86088  -0.73801  -0.62234  -0.56116  -0.54978
 Alpha  occ. eigenvalues --   -0.49703  -0.46836  -0.45729  -0.44499  -0.39231
 Alpha  occ. eigenvalues --   -0.37763  -0.36241  -0.34658  -0.33805  -0.31075
 Alpha  occ. eigenvalues --   -0.26241  -0.08951
 Alpha virt. eigenvalues --    0.11835   0.13477   0.14548   0.16661   0.17378
 Alpha virt. eigenvalues --    0.18284   0.18784   0.20761   0.21493   0.22451
 Alpha virt. eigenvalues --    0.22994   0.23481   0.23930   0.25229   0.26127

 Mulliken charges:
               1
     1  C    0.522020
     2  C    0.704330
     3  Cl  -0.154796
     4  H   -0.050187
     5  H   -0.133707
     6  C   -0.433457
     7  N   -0.207774
     8  N   -0.403321
     9  H    0.172107
    10  H   -0.007810
    11  N   -0.362890
    12  H    0.118013
    13  H    0.035702
    14  H   -0.798231
 Sum of Mulliken charges =  -1.00000

 Dipole moment (field-independent basis, Debye):
    X=             -9.0405    Y=             -1.8332    Z=              7.7966  Tot=             12.0780

 Test job not archived.
 1\1\GINC-SE165\SP\RHF\Aug-CC-pVDZ\C3H7Cl1N3(1-)\OHZDE\09-Apr-2025\0\\#
 t hf aug-cc-pvdz iop(5/13=1,5/36=2,99/5=2) pseudo=read geom=check gues
 s=(read,tcheck) scf=(maxcycle=1)\\title\\-1,1\C,0,-0.661736,-0.123006,
 -1.519753\C,0,0.117898,-0.189996,-0.18211\Cl,0,0.227382,1.038732,-2.65
 9267\H,0,1.190129,-0.246918,-0.399252\H,0,-0.197237,-1.131165,0.286991
 \C,0,-0.64778,-1.410367,-2.221631\N,0,-0.641036,-2.46024,-2.749256\N,0
 ,-1.984959,0.291833,-1.246924\H,0,-1.871025,1.057939,-0.576607\H,0,-2.
 464936,0.594619,-2.084433\N,0,-0.181923,0.978848,0.607347\H,0,0.771235

 Normal termination of Gaussian 16 at Wed Apr  9 02:59:35 2025.
