 Gaussian 16, Revision C.01,

 ----------------------------------------------------------------------
 #t hf aug-cc-pvdz symm=none int=(grid=ultrafine) guess=(read,tcheck) s
 table=(opt,rrhf)
 ----------------------------------------------------------------------
 -----
 title
 -----
 Symbolic Z-matrix:
 Charge = -1 Multiplicity = 1

 SCF Done:  E(RHF) =  -664.538816596     A.U. after   18 cycles
 Normal termination of Gaussian 16 at Wed Apr  9 02:41:29 2025.
 Gaussian 16:  ES64L-G16RevC.01  3-Jul-2019

 ----------------------------------------------------------------------
 #t hf aug-cc-pvdz iop(5/13=1,5/36=2,99/5=2) pseudo=read geom=check gue
 ss=(read,tcheck) scf=(maxcycle=1)
 ----------------------------------------------------------------------
 -----
 title
 -----
 Structure from the checkpoint file:  "E2SN2_225_mol2.chk"
 Charge = -1 Multiplicity = 1

                         Standard orientation:
 ---------------------------------------------------------------------
 Center     Atomic      Atomic             Coordinates (Angstroms)
 Number     Number       Type             X           Y           Z
 ---------------------------------------------------------------------
      1          6           0       -0.028557   -0.031570   -0.302737
      2          6           0        0.915779   -0.827187    0.575049
      3          9           0        0.255241   -0.316320   -1.642616
      4          1           0        0.633118   -0.505451    1.587603
      5          1           0        0.691238   -1.885960    0.436093
      6          7           0       -1.461078   -0.507909   -0.158150
      7          8           0       -2.324083    0.255706   -0.565222
      8          8           0       -1.629075   -1.675318    0.173657
      9          6           0        0.051707    1.415363   -0.121360
     10          7           0        0.283105    2.561822   -0.247612
     11          6           0        2.307545   -0.563209    0.238713
     12          7           0        3.441932   -0.378178   -0.001519
     13          9           0       -0.813647    0.544964    1.822815
 ---------------------------------------------------------------------

 SCF Done:  E(RHF) =  -664.739894131     A.U. after    2 cycles

 The electronic state is 1-A.
 Alpha  occ. eigenvalues --  -26.04827 -25.78840 -20.50787 -20.50725 -15.81148
 Alpha  occ. eigenvalues --  -15.54457 -15.52937 -11.33928 -11.19864 -11.19000
 Alpha  occ. eigenvalues --  -11.18129  -1.58360  -1.43474  -1.28356  -1.25480
 Alpha  occ. eigenvalues --   -1.08960  -1.07059  -1.01879  -0.90510  -0.79551
 Alpha  occ. eigenvalues --   -0.72166  -0.69741  -0.67546  -0.62709  -0.61885
 Alpha  occ. eigenvalues --   -0.59425  -0.58438  -0.52261  -0.50616  -0.45103
 Alpha  occ. eigenvalues --   -0.43662  -0.41646  -0.40642  -0.40031  -0.38601
 Alpha  occ. eigenvalues --   -0.37585  -0.35934  -0.35647  -0.34325  -0.33720
 Alpha  occ. eigenvalues --   -0.32070
 Alpha virt. eigenvalues --    0.12931   0.15802   0.17191   0.18468   0.18953
 Alpha virt. eigenvalues --    0.19304   0.22061   0.22171   0.22684   0.23426
 Alpha virt. eigenvalues --    0.24371   0.24851   0.25199   0.26153   0.26644

 Mulliken charges:
               1
     1  C    1.036622
     2  C    0.319648
     3  F   -0.500436
     4  H    0.200902
     5  H    0.181046
     6  N    0.671062
     7  O   -0.645729
     8  O   -0.653150
     9  C   -0.095145
    10  N   -0.317361
    11  C    0.037654
    12  N   -0.293306
    13  F   -0.941808
 Sum of Mulliken charges =  -1.00000

 Dipole moment (field-independent basis, Debye):
    X=              1.1242    Y=             -4.1631    Z=             -2.7307  Tot=              5.1042

 Test job not archived.
 1\1\GINC-SE112\SP\RHF\Aug-CC-pVDZ\C4H2F2N3O2(1-)\OHZDE\09-Apr-2025\0\\
 #t hf aug-cc-pvdz iop(5/13=1,5/36=2,99/5=2) pseudo=read geom=check gue
 ss=(read,tcheck) scf=(maxcycle=1)\\title\\-1,1\C,0,-0.03735,-0.002854,
 -0.010995\C,0,-0.434518,-0.066657,-1.471636\F,0,1.358402,0.035629,0.07
 4428\H,0,-1.531032,-0.128291,-1.421292\H,0,-0.127639,0.867943,-1.94394
 5\N,0,-0.44529,1.313401,0.622235\O,0,-0.46125,1.338861,1.843992\O,0,-0
 .541066,2.282915,-0.120754\C,0,-0.508581,-1.12699,0.793501\N,0,-0.5842
 94,-2.126928,1.408517\C,0,0.189893,-1.195896,-2.145987\N,0,0.673724,-2

 Normal termination of Gaussian 16 at Wed Apr  9 02:41:35 2025.
