 Gaussian 16, Revision C.01,

 ----------------------------------------------------------------------
 #t hf aug-cc-pvdz symm=none int=(grid=ultrafine) guess=(read,tcheck) s
 table=(opt,rrhf)
 ----------------------------------------------------------------------
 -----
 title
 -----
 Symbolic Z-matrix:
 Charge = -1 Multiplicity = 1

 SCF Done:  E(RHF) =  -571.087411709     A.U. after   16 cycles
 Normal termination of Gaussian 16 at Wed Apr  9 02:49:33 2025.
 Gaussian 16:  ES64L-G16RevC.01  3-Jul-2019

 ----------------------------------------------------------------------
 #t hf aug-cc-pvdz iop(5/13=1,5/36=2,99/5=2) pseudo=read geom=check gue
 ss=(read,tcheck) scf=(maxcycle=1)
 ----------------------------------------------------------------------
 -----
 title
 -----
 Structure from the checkpoint file:  "E2SN2_312_mol1.chk"
 Charge = -1 Multiplicity = 1

                         Standard orientation:
 ---------------------------------------------------------------------
 Center     Atomic      Atomic             Coordinates (Angstroms)
 Number     Number       Type             X           Y           Z
 ---------------------------------------------------------------------
      1          6           0       -0.435317   -0.343066    0.082333
      2          1           0        0.645479   -0.068143   -1.725324
      3          9           0        0.099357    0.469303    1.555423
      4          9           0       -1.121365   -1.101448   -1.432519
      5          6           0        0.705687    0.304251   -0.704197
      6          6           0       -1.716997    0.354778    0.175695
      7          7           0       -2.767094    0.859907    0.326985
      8          7           0       -0.235208   -1.640360    0.646664
      9          1           0       -0.913162   -2.255002    0.221844
     10          1           0       -0.349791   -1.564688    1.646889
     11          6           0        2.002881   -0.128158   -0.137661
     12          7           0        3.103003   -0.367244    0.198685
     13          7           0        0.551305    1.752650   -0.713312
     14          1           0        1.324268    2.171320   -1.216485
     15          1           0        0.589713    2.044315    0.256784
 ---------------------------------------------------------------------

 SCF Done:  E(RHF) =  -571.255048606     A.U. after    2 cycles

 The electronic state is 1-A.
 Alpha  occ. eigenvalues --  -25.87086 -25.84184 -15.51241 -15.50296 -15.49904
 Alpha  occ. eigenvalues --  -15.49482 -11.29390 -11.19400 -11.16698 -11.16298
 Alpha  occ. eigenvalues --   -1.37971  -1.34731  -1.08773  -1.05286  -1.03497
 Alpha  occ. eigenvalues --   -1.02884  -0.87163  -0.78635  -0.61216  -0.59625
 Alpha  occ. eigenvalues --   -0.58155  -0.57683  -0.49984  -0.48936  -0.47840
 Alpha  occ. eigenvalues --   -0.44611  -0.43667  -0.42929  -0.42119  -0.41756
 Alpha  occ. eigenvalues --   -0.41665  -0.38979  -0.33820  -0.33588  -0.31891
 Alpha  occ. eigenvalues --   -0.30967  -0.29773  -0.28515
 Alpha virt. eigenvalues --    0.12546   0.13490   0.14142   0.16697   0.17430
 Alpha virt. eigenvalues --    0.17620   0.19714   0.21446   0.22726   0.23510
 Alpha virt. eigenvalues --    0.24490   0.24772   0.25046   0.26687   0.26921

 Mulliken charges:
               1
     1  C    1.494302
     2  H    0.004949
     3  F   -0.744135
     4  F   -0.781774
     5  C    0.882770
     6  C   -0.649672
     7  N   -0.231099
     8  N   -0.521817
     9  H    0.074747
    10  H    0.073711
    11  C   -0.104686
    12  N   -0.292335
    13  N   -0.290641
    14  H   -0.022238
    15  H    0.107917
 Sum of Mulliken charges =  -1.00000

 Dipole moment (field-independent basis, Debye):
    X=              1.7895    Y=              0.4163    Z=             -0.4067  Tot=              1.8818

 Test job not archived.
 1\1\GINC-SE336\SP\RHF\Aug-CC-pVDZ\C4H5F2N4(1-)\OHZDE\09-Apr-2025\0\\#t
  hf aug-cc-pvdz iop(5/13=1,5/36=2,99/5=2) pseudo=read geom=check guess
 =(read,tcheck) scf=(maxcycle=1)\\title\\-1,1\C,0,0.66843631,-0.0396051
 4,0.0141352\H,0,1.73456312,1.79641262,0.07527794\F,0,-1.09658215,-0.02
 799759,-0.00558992\F,0,2.49043444,-0.11953676,-0.1063467\C,0,0.6912193
 1,1.48973046,0.02648131\C,0,0.6673468,-0.73809267,-1.27059102\N,0,0.63
 350448,-1.37708954,-2.25612827\N,0,0.71540536,-0.74038653,1.2583954\H,
 0,1.55463398,-1.30030661,1.25049348\H,0,-0.12399728,-1.29635594,1.3332

 Normal termination of Gaussian 16 at Wed Apr  9 02:49:41 2025.
