 Gaussian 16, Revision C.01,

 ----------------------------------------------------------------------
 #t hf aug-cc-pvdz symm=none int=(grid=ultrafine) guess=(read,tcheck) s
 table=(opt,rrhf)
 ----------------------------------------------------------------------
 -----
 title
 -----
 Symbolic Z-matrix:
 Charge = -1 Multiplicity = 1

 SCF Done:  E(RHF) =  -1334.29608865     A.U. after   16 cycles
 Normal termination of Gaussian 16 at Wed Apr  9 02:43:02 2025.
 Gaussian 16:  ES64L-G16RevC.01  3-Jul-2019

 ----------------------------------------------------------------------
 #t hf aug-cc-pvdz iop(5/13=1,5/36=2,99/5=2) pseudo=read geom=check gue
 ss=(read,tcheck) scf=(maxcycle=1)
 ----------------------------------------------------------------------
 -----
 title
 -----
 Structure from the checkpoint file:  "E2SN2_235_mol1.chk"
 Charge = -1 Multiplicity = 1

                         Standard orientation:
 ---------------------------------------------------------------------
 Center     Atomic      Atomic             Coordinates (Angstroms)
 Number     Number       Type             X           Y           Z
 ---------------------------------------------------------------------
      1          6           0        0.087955   -0.009124    0.288143
      2          1           0        0.805169    1.094786   -1.336553
      3         17           0       -2.371058   -0.285322    0.481444
      4         17           0        2.419308   -0.381554    0.029423
      5          6           0        0.197882    1.320451   -0.456681
      6          7           0       -0.074289   -1.234217   -0.557968
      7          8           0       -0.219763   -1.046569   -1.762699
      8          8           0       -0.028871   -2.325183   -0.009895
      9          6           0        0.125912   -0.123369    1.785189
     10          1           0        1.115440    0.121034    2.161444
     11          1           0       -0.598474    0.565754    2.209795
     12          1           0       -0.133227   -1.141536    2.065244
     13          7           0        0.857555    2.265807    0.450560
     14          1           0        0.864256    3.172767   -0.002041
     15          1           0        1.821141    1.965411    0.555054
     16          6           0       -1.084043    1.964745   -0.966757
     17          1           0       -1.633654    1.279361   -1.605438
     18          1           0       -1.726143    2.269894   -0.143848
     19          1           0       -0.794794    2.846096   -1.555149
 ---------------------------------------------------------------------

 SCF Done:  E(RHF) =  -1334.44902595     A.U. after    2 cycles

 The electronic state is 1-A.
 Alpha  occ. eigenvalues -- -103.44605-103.42099 -20.48529 -20.48421 -15.79582
 Alpha  occ. eigenvalues --  -15.49859 -11.29666 -11.17258 -11.11892 -11.11003
 Alpha  occ. eigenvalues --  -10.47904 -10.45394  -8.13537  -8.13416  -8.13407
 Alpha  occ. eigenvalues --   -8.11022  -8.10914  -8.10913  -1.41580  -1.23274
 Alpha  occ. eigenvalues --   -1.07199  -0.98622  -0.90916  -0.87490  -0.87180
 Alpha  occ. eigenvalues --   -0.83984  -0.75118  -0.67159  -0.60803  -0.59758
 Alpha  occ. eigenvalues --   -0.58975  -0.55521  -0.50629  -0.49470  -0.46684
 Alpha  occ. eigenvalues --   -0.44861  -0.42373  -0.40211  -0.39888  -0.38037
 Alpha  occ. eigenvalues --   -0.37797  -0.34343  -0.30107  -0.28297  -0.27501
 Alpha  occ. eigenvalues --   -0.27220  -0.25252  -0.24921  -0.24254
 Alpha virt. eigenvalues --    0.11430   0.12844   0.14088   0.14795   0.14954
 Alpha virt. eigenvalues --    0.16094   0.16591   0.16938   0.17543   0.18034
 Alpha virt. eigenvalues --    0.21457   0.21832   0.22927   0.23723   0.24336

 Mulliken charges:
               1
     1  C   -0.599289
     2  H   -0.048777
     3  Cl  -0.716189
     4  Cl  -0.638291
     5  C    0.258538
     6  N    0.696472
     7  O   -0.683217
     8  O   -0.677883
     9  C    0.956072
    10  H   -0.032024
    11  H    0.135634
    12  H   -0.005507
    13  N   -0.309441
    14  H   -0.031806
    15  H    0.071729
    16  C    0.668996
    17  H    0.028253
    18  H    0.057218
    19  H   -0.130488
 Sum of Mulliken charges =  -1.00000

 Dipole moment (field-independent basis, Debye):
    X=              1.5254    Y=              5.0922    Z=              0.2451  Tot=              5.3214

 Test job not archived.
 1\1\GINC-SE149\SP\RHF\Aug-CC-pVDZ\C4H9Cl2N2O2(1-)\OHZDE\09-Apr-2025\0\
 \#t hf aug-cc-pvdz iop(5/13=1,5/36=2,99/5=2) pseudo=read geom=check gu
 ess=(read,tcheck) scf=(maxcycle=1)\\title\\-1,1\C,0,0.61214649,-0.0604
 0322,0.00082045\H,0,1.64773117,1.58172477,-0.77611643\Cl,0,-1.67233451
 ,-0.48374034,-0.8722935\Cl,0,2.91430811,-0.22307638,0.56156444\C,0,0.7
 4251348,1.45140695,-0.17820722\N,0,0.97007074,-0.90391909,-1.18385256\
 O,0,1.22350653,-0.30084276,-2.22299726\O,0,1.01000728,-2.11638677,-1.0
 3900722\C,0,0.14505018,-0.7045469,1.2746104\H,0,0.88296238,-0.5735026,

 Normal termination of Gaussian 16 at Wed Apr  9 02:43:15 2025.
