 Gaussian 16, Revision C.01,

 ----------------------------------------------------------------------
 #t hf aug-cc-pvdz symm=none int=(grid=ultrafine) guess=(read,tcheck) s
 table=(opt,rrhf)
 ----------------------------------------------------------------------
 -----
 title
 -----
 Symbolic Z-matrix:
 Charge = -1 Multiplicity = 1

 SCF Done:  E(RHF) =  -685.461624410     A.U. after   15 cycles
 Normal termination of Gaussian 16 at Wed Apr  9 02:31:19 2025.
 Gaussian 16:  ES64L-G16RevC.01  3-Jul-2019

 ----------------------------------------------------------------------
 #t hf aug-cc-pvdz iop(5/13=1,5/36=2,99/5=2) pseudo=read geom=check gue
 ss=(read,tcheck) scf=(maxcycle=1)
 ----------------------------------------------------------------------
 -----
 title
 -----
 Structure from the checkpoint file:  "E2SN2_123_mol2.chk"
 Charge = -1 Multiplicity = 1

                         Standard orientation:
 ---------------------------------------------------------------------
 Center     Atomic      Atomic             Coordinates (Angstroms)
 Number     Number       Type             X           Y           Z
 ---------------------------------------------------------------------
      1          6           0        0.608848    0.626399    0.263019
      2          6           0       -0.716647    0.340337    0.971402
      3         17           0        1.477929   -0.953761   -0.033259
      4          1           0       -1.075094    1.345593    1.207012
      5          1           0        1.226120    1.177502    0.973146
      6          1           0       -0.568074   -0.232828    1.891218
      7          7           0        0.508250    1.408664   -0.917343
      8          1           0       -0.238499    1.047463   -1.503941
      9          1           0        0.204764    2.334180   -0.530337
     10          6           0       -1.674906   -0.352874    0.120323
     11          7           0       -2.450368   -0.903353   -0.569100
     12          1           0       -0.382952    3.321672    0.804946
 ---------------------------------------------------------------------

 SCF Done:  E(RHF) =  -685.547238612     A.U. after    2 cycles

 The electronic state is 1-A.
 Alpha  occ. eigenvalues -- -103.52563 -15.52756 -15.47495 -11.21727 -11.18221
 Alpha  occ. eigenvalues --  -11.15678 -10.55935  -8.21641  -8.21378  -8.21375
 Alpha  occ. eigenvalues --   -1.08902  -1.06199  -0.98856  -0.90872  -0.72440
 Alpha  occ. eigenvalues --   -0.58158  -0.54616  -0.52292  -0.48802  -0.45664
 Alpha  occ. eigenvalues --   -0.43053  -0.39404  -0.34961  -0.33995  -0.33016
 Alpha  occ. eigenvalues --   -0.32657  -0.27402  -0.10078
 Alpha virt. eigenvalues --    0.13118   0.15518   0.15648   0.17605   0.18114
 Alpha virt. eigenvalues --    0.19220   0.20024   0.22138   0.23100   0.24222
 Alpha virt. eigenvalues --    0.24660   0.25477   0.26176   0.27166   0.27709

 Mulliken charges:
               1
     1  C    0.229342
     2  C    0.484895
     3  Cl  -0.250062
     4  H    0.076632
     5  H   -0.015246
     6  H   -0.016620
     7  N   -0.441816
     8  H   -0.008944
     9  H    0.164663
    10  C   -0.126254
    11  N   -0.306136
    12  H   -0.790453
 Sum of Mulliken charges =  -1.00000

 Dipole moment (field-independent basis, Debye):
    X=              1.8315    Y=             -8.8153    Z=              0.0432  Tot=              9.0037

 Test job not archived.
 1\1\GINC-SE250\SP\RHF\Aug-CC-pVDZ\C3H6Cl1N2(1-)\OHZDE\09-Apr-2025\0\\#
 t hf aug-cc-pvdz iop(5/13=1,5/36=2,99/5=2) pseudo=read geom=check gues
 s=(read,tcheck) scf=(maxcycle=1)\\title\\-1,1\C,0,-0.480675,-0.405268,
 -1.213596\C,0,0.024767,-0.122334,0.202403\Cl,0,-1.558972,-1.880357,-1.
 176482\H,0,0.745757,0.681771,0.034697\H,0,0.392198,-0.688846,-1.802404
 \H,0,0.524887,-0.99382,0.63489\N,0,-1.10149,0.692319,-1.865673\H,0,-1.
 768182,1.13071,-1.23676\H,0,-0.291704,1.3451,-1.994438\C,0,-1.031517,0
 .323487,1.101649\N,0,-1.881609,0.691792,1.823708\H,0,1.37585,1.806737,

 Normal termination of Gaussian 16 at Wed Apr  9 02:31:24 2025.
