 Gaussian 16, Revision C.01,

 ----------------------------------------------------------------------
 #t hf aug-cc-pvdz symm=none int=(grid=ultrafine) guess=(read,tcheck) s
 table=(opt,rrhf)
 ----------------------------------------------------------------------
 -----
 title
 -----
 Symbolic Z-matrix:
 Charge = -1 Multiplicity = 1

 SCF Done:  E(RHF) =  -682.849429958     A.U. after   16 cycles
 Normal termination of Gaussian 16 at Wed Apr  9 02:57:41 2025.
 Gaussian 16:  ES64L-G16RevC.01  3-Jul-2019

 ----------------------------------------------------------------------
 #t hf aug-cc-pvdz iop(5/13=1,5/36=2,99/5=2) pseudo=read geom=check gue
 ss=(read,tcheck) scf=(maxcycle=1)
 ----------------------------------------------------------------------
 -----
 title
 -----
 Structure from the checkpoint file:  "E2SN2_409_mol1.chk"
 Charge = -1 Multiplicity = 1

                         Standard orientation:
 ---------------------------------------------------------------------
 Center     Atomic      Atomic             Coordinates (Angstroms)
 Number     Number       Type             X           Y           Z
 ---------------------------------------------------------------------
      1          6           0       -1.010089    0.062171    0.101850
      2          1           0        0.205085   -0.223016   -1.634964
      3          9           0       -0.334884    1.071003    1.432057
      4          9           0       -1.676139   -0.952728   -1.191238
      5          6           0        0.361021    0.091679   -0.606401
      6          7           0       -1.876513    1.139749   -0.279676
      7          1           0       -2.032775    1.708255    0.538924
      8          1           0       -2.721329    0.736906   -0.655796
      9          7           0       -1.252777   -0.983191    1.048858
     10          1           0       -2.031318   -1.531409    0.719600
     11          1           0       -1.402031   -0.559134    1.950668
     12          7           0        1.265088   -0.950711   -0.013650
     13          8           0        1.219715   -2.059774   -0.540172
     14          8           0        1.969286   -0.646415    0.942587
     15          6           0        1.029771    1.388869   -0.581633
     16          7           0        1.619252    2.393741   -0.725248
 ---------------------------------------------------------------------

 SCF Done:  E(RHF) =  -683.053026092     A.U. after    2 cycles

 The electronic state is 1-A.
 Alpha  occ. eigenvalues --  -25.85103 -25.83855 -20.49119 -20.48912 -15.78705
 Alpha  occ. eigenvalues --  -15.51643 -15.48608 -15.48080 -11.29839 -11.21643
 Alpha  occ. eigenvalues --  -11.17488  -1.41545  -1.36260  -1.34898  -1.23205
 Alpha  occ. eigenvalues --   -1.07870  -1.05438  -0.99157  -0.97427  -0.77580
 Alpha  occ. eigenvalues --   -0.71223  -0.65490  -0.62196  -0.59419  -0.58917
 Alpha  occ. eigenvalues --   -0.56262  -0.54838  -0.53050  -0.50425  -0.45128
 Alpha  occ. eigenvalues --   -0.43846  -0.43090  -0.42140  -0.41445  -0.41225
 Alpha  occ. eigenvalues --   -0.38952  -0.38511  -0.37996  -0.34413  -0.33488
 Alpha  occ. eigenvalues --   -0.32837  -0.30428  -0.26631
 Alpha virt. eigenvalues --    0.12464   0.13691   0.14275   0.15489   0.17785
 Alpha virt. eigenvalues --    0.19199   0.20358   0.21945   0.22317   0.23111
 Alpha virt. eigenvalues --    0.24560   0.24869   0.25703   0.26392   0.27215

 Mulliken charges:
               1
     1  C    0.292412
     2  H    0.034497
     3  F   -0.741607
     4  F   -0.733657
     5  C    2.124657
     6  N   -0.374247
     7  H    0.045577
     8  H    0.014387
     9  N   -0.223460
    10  H    0.001988
    11  H    0.008533
    12  N    0.364402
    13  O   -0.623438
    14  O   -0.608452
    15  C   -0.317602
    16  N   -0.263990
 Sum of Mulliken charges =  -1.00000

 Dipole moment (field-independent basis, Debye):
    X=             -3.0516    Y=             -0.8592    Z=             -0.0822  Tot=              3.1713

 Test job not archived.
 1\1\GINC-SE021\SP\RHF\Aug-CC-pVDZ\C3H5F2N4O2(1-)\OHZDE\09-Apr-2025\0\\
 #t hf aug-cc-pvdz iop(5/13=1,5/36=2,99/5=2) pseudo=read geom=check gue
 ss=(read,tcheck) scf=(maxcycle=1)\\title\\-1,1\C,0,0.68166904,-0.10068
 227,-0.01644032\H,0,1.52800099,1.83648182,-0.34143171\F,0,-1.10620086,
 -0.26136715,-0.16064968\F,0,2.44086168,0.04990656,0.15173075\C,0,0.544
 2454,1.43351925,-0.11529426\N,0,0.84515334,-0.74538984,-1.2872872\H,0,
 0.03914526,-1.33374162,-1.43532778\H,0,1.71529306,-1.25507814,-1.26409
 06\N,0,0.60751406,-0.69782286,1.282185\H,0,1.48278097,-1.16193863,1.46

 Normal termination of Gaussian 16 at Wed Apr  9 02:57:50 2025.
