 Gaussian 16, Revision C.01,

 ----------------------------------------------------------------------
 #t hf aug-cc-pvdz symm=none int=(grid=ultrafine) guess=(read,tcheck) s
 table=(opt,rrhf)
 ----------------------------------------------------------------------
 -----
 title
 -----
 Symbolic Z-matrix:
 Charge = -1 Multiplicity = 1

 SCF Done:  E(RHF) =  -1026.95289101     A.U. after   16 cycles
 Normal termination of Gaussian 16 at Wed Apr  9 02:56:13 2025.
 Gaussian 16:  ES64L-G16RevC.01  3-Jul-2019

 ----------------------------------------------------------------------
 #t hf aug-cc-pvdz iop(5/13=1,5/36=2,99/5=2) pseudo=read geom=check gue
 ss=(read,tcheck) scf=(maxcycle=1)
 ----------------------------------------------------------------------
 -----
 title
 -----
 Structure from the checkpoint file:  "E2SN2_379_mol2.chk"
 Charge = -1 Multiplicity = 1

                         Standard orientation:
 ---------------------------------------------------------------------
 Center     Atomic      Atomic             Coordinates (Angstroms)
 Number     Number       Type             X           Y           Z
 ---------------------------------------------------------------------
      1          6           0        0.201235   -0.181431   -0.337156
      2          6           0       -0.871808    0.364895    0.629305
      3         17           0        0.072853   -1.994871   -0.421090
      4          1           0       -0.588834    1.441427    0.639001
      5          7           0        0.209780    0.385431   -1.619092
      6          1           0       -0.654882    0.139939   -2.088172
      7          1           0        0.219845    1.437906   -1.381288
      8          7           0        1.608843    0.089635    0.254529
      9          8           0        2.558035   -0.205479   -0.455284
     10          8           0        1.686525    0.564941    1.382671
     11          6           0       -1.025635   -0.276314    2.009224
     12          1           0       -1.770174    0.284368    2.580750
     13          1           0       -0.083440   -0.247111    2.549725
     14          1           0       -1.364815   -1.310876    1.927422
     15          6           0       -2.150342    0.274440   -0.073047
     16          7           0       -3.197953    0.175054   -0.596672
     17          9           0        0.197993    2.627897   -0.458811
 ---------------------------------------------------------------------

 SCF Done:  E(RHF) =  -1027.13873225     A.U. after    2 cycles

 The electronic state is 1-A.
 Alpha  occ. eigenvalues -- -103.55459 -25.78364 -20.49902 -20.49828 -15.79217
 Alpha  occ. eigenvalues --  -15.52882 -15.47829 -11.29485 -11.18288 -11.16808
 Alpha  occ. eigenvalues --  -11.13433 -10.58819  -8.24534  -8.24252  -8.24244
 Alpha  occ. eigenvalues --   -1.42457  -1.27886  -1.24285  -1.12564  -1.06800
 Alpha  occ. eigenvalues --   -1.01313  -0.95566  -0.87163  -0.79791  -0.70330
 Alpha  occ. eigenvalues --   -0.62503  -0.62266  -0.60234  -0.58134  -0.53788
 Alpha  occ. eigenvalues --   -0.53245  -0.48744  -0.45644  -0.45287  -0.43093
 Alpha  occ. eigenvalues --   -0.42545  -0.40087  -0.39464  -0.37723  -0.37353
 Alpha  occ. eigenvalues --   -0.36670  -0.35816  -0.34460  -0.34341  -0.34014
 Alpha  occ. eigenvalues --   -0.32420  -0.27510
 Alpha virt. eigenvalues --    0.12094   0.13883   0.14548   0.15185   0.17463
 Alpha virt. eigenvalues --    0.18013   0.18326   0.19486   0.19820   0.21955
 Alpha virt. eigenvalues --    0.22665   0.22964   0.24512   0.25067   0.25253

 Mulliken charges:
               1
     1  C    1.208854
     2  C    0.090948
     3  Cl  -0.257655
     4  H    0.185129
     5  N   -0.735909
     6  H    0.054862
     7  H    0.200694
     8  N    0.253038
     9  O   -0.600130
    10  O   -0.606744
    11  C    0.848279
    12  H    0.015185
    13  H   -0.029035
    14  H   -0.032504
    15  C   -0.343005
    16  N   -0.327073
    17  F   -0.924935
 Sum of Mulliken charges =  -1.00000

 Dipole moment (field-independent basis, Debye):
    X=             -1.2989    Y=             -6.1469    Z=              2.8625  Tot=              6.9040

 Test job not archived.
 1\1\GINC-SE029\SP\RHF\Aug-CC-pVDZ\C4H6Cl1F1N3O2(1-)\OHZDE\09-Apr-2025\
 0\\#t hf aug-cc-pvdz iop(5/13=1,5/36=2,99/5=2) pseudo=read geom=check
 guess=(read,tcheck) scf=(maxcycle=1)\\title\\-1,1\C,0,-0.021116,-0.003
 349,-0.001517\C,0,-0.526174,-0.1811,-1.449709\Cl,0,1.796667,0.084725,-
 0.001277\H,0,-1.614024,-0.316676,-1.256599\N,0,-0.580001,1.06725,0.709
 982\H,0,-0.294321,1.934304,0.268909\H,0,-1.633347,0.896266,0.550038\N,
 0,-0.356684,-1.27665,0.817645\O,0,-0.098777,-1.233688,2.010763\O,0,-0.
 841774,-2.238028,0.230198\C,0,0.112702,-1.253,-2.333936\H,0,-0.418568,

 Normal termination of Gaussian 16 at Wed Apr  9 02:56:24 2025.
