 Gaussian 16, Revision C.01,

 ----------------------------------------------------------------------
 #t hf aug-cc-pvdz symm=none int=(grid=ultrafine) guess=(read,tcheck) s
 table=(opt,rrhf)
 ----------------------------------------------------------------------
 -----
 title
 -----
 Symbolic Z-matrix:
 Charge = -1 Multiplicity = 1

 SCF Done:  E(RHF) =  -784.416122729     A.U. after   15 cycles
 Normal termination of Gaussian 16 at Wed Apr  9 02:35:29 2025.
 Gaussian 16:  ES64L-G16RevC.01  3-Jul-2019

 ----------------------------------------------------------------------
 #t hf aug-cc-pvdz iop(5/13=1,5/36=2,99/5=2) pseudo=read geom=check gue
 ss=(read,tcheck) scf=(maxcycle=1)
 ----------------------------------------------------------------------
 -----
 title
 -----
 Structure from the checkpoint file:  "E2SN2_16_mol1.chk"
 Charge = -1 Multiplicity = 1

                         Standard orientation:
 ---------------------------------------------------------------------
 Center     Atomic      Atomic             Coordinates (Angstroms)
 Number     Number       Type             X           Y           Z
 ---------------------------------------------------------------------
      1          6           0        0.001412   -0.545386    0.429122
      2          6           0       -0.245939    0.736191   -0.362673
      3         17           0        1.519058   -1.363276   -0.210258
      4          9           0       -2.867259    0.425465   -0.217088
      5          1           0       -1.354137    0.957901   -0.199472
      6          1           0        0.259472   -0.312766    1.463739
      7          1           0       -0.162061    0.520721   -1.432202
      8          7           0       -1.102615   -1.458757    0.402165
      9          1           0       -1.631965   -1.260339   -0.445528
     10          1           0       -1.767971   -1.074437    1.068304
     11          6           0        0.666989    1.807545   -0.014381
     12          7           0        1.403077    2.676661    0.277967
 ---------------------------------------------------------------------

 SCF Done:  E(RHF) =  -784.530078442     A.U. after    2 cycles

 The electronic state is 1-A.
 Alpha  occ. eigenvalues -- -103.51785 -25.76081 -15.51216 -15.47594 -11.21749
 Alpha  occ. eigenvalues --  -11.16932 -11.12695 -10.55160  -8.20863  -8.20602
 Alpha  occ. eigenvalues --   -8.20599  -1.24994  -1.07901  -1.05111  -0.98512
 Alpha  occ. eigenvalues --   -0.89154  -0.71386  -0.58979  -0.52809  -0.50675
 Alpha  occ. eigenvalues --   -0.47832  -0.43556  -0.42157  -0.39313  -0.35944
 Alpha  occ. eigenvalues --   -0.35563  -0.34820  -0.33806  -0.32639  -0.32073
 Alpha  occ. eigenvalues --   -0.28895  -0.26955
 Alpha virt. eigenvalues --    0.14196   0.14597   0.16338   0.17161   0.18232
 Alpha virt. eigenvalues --    0.18941   0.19788   0.23369   0.24302   0.25616
 Alpha virt. eigenvalues --    0.25701   0.26319   0.26913   0.27597   0.28331

 Mulliken charges:
               1
     1  C    0.065966
     2  C    0.875842
     3  Cl  -0.249154
     4  F   -0.935120
     5  H    0.053764
     6  H   -0.075691
     7  H   -0.015824
     8  N   -0.435645
     9  H    0.146090
    10  H    0.111699
    11  C   -0.257627
    12  N   -0.284301
 Sum of Mulliken charges =  -1.00000

 Dipole moment (field-independent basis, Debye):
    X=              4.3920    Y=             -2.3891    Z=              0.3963  Tot=              5.0154

 Test job not archived.
 1\1\GINC-SE412\SP\RHF\Aug-CC-pVDZ\C3H5Cl1F1N2(1-)\OHZDE\09-Apr-2025\0\
 \#t hf aug-cc-pvdz iop(5/13=1,5/36=2,99/5=2) pseudo=read geom=check gu
 ess=(read,tcheck) scf=(maxcycle=1)\\title\\-1,1\C,0,-0.0837594,0.00805
 246,-0.37869466\C,0,-0.09444564,-0.0517658,1.14671339\Cl,0,1.64807164,
 0.21833452,-0.95967856\F,0,-2.41152941,1.21525035,1.26859805\H,0,-1.16
 763769,0.21539093,1.43092801\H,0,-0.37450144,-0.95499813,-0.80194549\H
 ,0,0.50906359,0.77014033,1.54370455\N,0,-0.91652216,1.04204538,-0.9183
 3735\H,0,-1.00647446,1.75738655,-0.19836533\H,0,-1.86031357,0.66877152

 Normal termination of Gaussian 16 at Wed Apr  9 02:35:34 2025.
