 Gaussian 16, Revision C.01,

 ----------------------------------------------------------------------
 #t hf aug-cc-pvdz symm=none int=(grid=ultrafine) guess=(read,tcheck) s
 table=(opt,rrhf)
 ----------------------------------------------------------------------
 -----
 title
 -----
 Symbolic Z-matrix:
 Charge = -1 Multiplicity = 1

 SCF Done:  E(RHF) =  -823.413996500     A.U. after   16 cycles
 Normal termination of Gaussian 16 at Wed Apr  9 02:32:58 2025.
 Gaussian 16:  ES64L-G16RevC.01  3-Jul-2019

 ----------------------------------------------------------------------
 #t hf aug-cc-pvdz iop(5/13=1,5/36=2,99/5=2) pseudo=read geom=check gue
 ss=(read,tcheck) scf=(maxcycle=1)
 ----------------------------------------------------------------------
 -----
 title
 -----
 Structure from the checkpoint file:  "E2SN2_139_mol1.chk"
 Charge = -1 Multiplicity = 1

                         Standard orientation:
 ---------------------------------------------------------------------
 Center     Atomic      Atomic             Coordinates (Angstroms)
 Number     Number       Type             X           Y           Z
 ---------------------------------------------------------------------
      1          6           0       -0.199883    0.148401    0.087110
      2          6           0        0.770457   -0.332867   -0.865792
      3         17           0       -1.913308   -0.938430    0.127311
      4          9           0        2.745197    0.732641    0.307247
      5          1           0        1.873169    0.385183   -0.382192
      6          1           0        0.493042   -0.113412   -1.899125
      7          7           0        0.178288    0.146170    1.491928
      8          1           0        1.171249    0.390302    1.482478
      9          1           0        0.088341   -0.801222    1.836922
     10          6           0       -0.736505    1.459813   -0.291707
     11          7           0       -1.131059    2.520220   -0.611014
     12          6           0        1.268745   -1.748364   -0.652221
     13          1           0        0.461259   -2.491657   -0.692315
     14          1           0        2.008688   -2.000677   -1.417390
     15          1           0        1.776221   -1.835606    0.311376
 ---------------------------------------------------------------------

 SCF Done:  E(RHF) =  -823.540080950     A.U. after    2 cycles

 The electronic state is 1-A.
 Alpha  occ. eigenvalues -- -103.48818 -25.84637 -15.51564 -15.49083 -11.24750
 Alpha  occ. eigenvalues --  -11.16852 -11.09588 -11.06285 -10.52086  -8.17755
 Alpha  occ. eigenvalues --   -8.17548  -8.17537  -1.35524  -1.08409  -1.03931
 Alpha  occ. eigenvalues --   -0.95305  -0.89373  -0.81278  -0.67954  -0.56667
 Alpha  occ. eigenvalues --   -0.54744  -0.52473  -0.49309  -0.44932  -0.43993
 Alpha  occ. eigenvalues --   -0.43109  -0.42659  -0.40356  -0.39589  -0.36318
 Alpha  occ. eigenvalues --   -0.32917  -0.32642  -0.30686  -0.29718  -0.28744
 Alpha  occ. eigenvalues --   -0.20120
 Alpha virt. eigenvalues --    0.12884   0.13958   0.15171   0.15331   0.16830
 Alpha virt. eigenvalues --    0.17878   0.18416   0.19476   0.20403   0.22723
 Alpha virt. eigenvalues --    0.23250   0.24432   0.25300   0.25640   0.26191

 Mulliken charges:
               1
     1  C    1.014165
     2  C   -0.483911
     3  Cl  -0.369120
     4  F   -0.614293
     5  H    0.558637
     6  H   -0.341486
     7  N   -0.468499
     8  H    0.088072
     9  H    0.088843
    10  C   -0.627441
    11  N   -0.223637
    12  C    0.607112
    13  H   -0.030447
    14  H   -0.060125
    15  H   -0.137869
 Sum of Mulliken charges =  -1.00000

 Dipole moment (field-independent basis, Debye):
    X=             -0.9913    Y=             -4.0586    Z=             -0.0087  Tot=              4.1779

 Test job not archived.
 1\1\GINC-SE460\SP\RHF\Aug-CC-pVDZ\C4H7Cl1F1N2(1-)\OHZDE\09-Apr-2025\0\
 \#t hf aug-cc-pvdz iop(5/13=1,5/36=2,99/5=2) pseudo=read geom=check gu
 ess=(read,tcheck) scf=(maxcycle=1)\\title\\-1,1\C,0,-0.22060486,0.0387
 4223,-0.32212117\C,0,-0.13301269,0.07857945,1.1173025\Cl,0,1.57742519,
 -0.1473873,-1.24466551\F,0,-2.52333022,-0.67264827,1.48194946\H,0,-1.4
 9045653,-0.14250769,1.38915848\H,0,0.26505627,1.02467743,1.49058077\N,
 0,-0.96864345,-1.05614288,-0.92061526\H,0,-1.74710053,-1.20751767,-0.2
 7505268\H,0,-0.3802561,-1.8797008,-0.90589127\C,0,-0.66395707,1.320698

 Normal termination of Gaussian 16 at Wed Apr  9 02:33:05 2025.
