 Gaussian 16, Revision C.01,

 ----------------------------------------------------------------------
 #t hf aug-cc-pvdz symm=none int=(grid=ultrafine) guess=(read,tcheck) s
 table=(opt,rrhf)
 ----------------------------------------------------------------------
 -----
 title
 -----
 Symbolic Z-matrix:
 Charge = -1 Multiplicity = 1

 SCF Done:  E(RHF) =  -915.160775149     A.U. after   16 cycles
 Normal termination of Gaussian 16 at Wed Apr  9 02:56:41 2025.
 Gaussian 16:  ES64L-G16RevC.01  3-Jul-2019

 ----------------------------------------------------------------------
 #t hf aug-cc-pvdz iop(5/13=1,5/36=2,99/5=2) pseudo=read geom=check gue
 ss=(read,tcheck) scf=(maxcycle=1)
 ----------------------------------------------------------------------
 -----
 title
 -----
 Structure from the checkpoint file:  "E2SN2_403_mol1.chk"
 Charge = -1 Multiplicity = 1

                         Standard orientation:
 ---------------------------------------------------------------------
 Center     Atomic      Atomic             Coordinates (Angstroms)
 Number     Number       Type             X           Y           Z
 ---------------------------------------------------------------------
      1          6           0        0.865688   -0.053834   -0.018902
      2          1           0       -0.052757    0.700881   -1.738040
      3         17           0       -0.340828   -0.784972    1.784675
      4          9           0        1.822191    0.565432   -1.609231
      5          6           0       -0.424095    0.341138   -0.772183
      6          7           0        1.362239   -1.357343   -0.315595
      7          1           0        1.600436   -1.839520    0.538776
      8          1           0        2.161020   -1.207160   -0.917713
      9          6           0        1.604643    0.960548    0.832314
     10          1           0        2.316089    1.481001    0.196465
     11          1           0        0.915715    1.666851    1.294212
     12          1           0        2.122545    0.436909    1.635769
     13          6           0       -1.167178    1.437493   -0.151397
     14          7           0       -1.745102    2.371607    0.263868
     15          6           0       -1.310097   -0.793033   -1.038137
     16          7           0       -2.057489   -1.633865   -1.373422
 ---------------------------------------------------------------------

 SCF Done:  E(RHF) =  -915.306959098     A.U. after    2 cycles

 The electronic state is 1-A.
 Alpha  occ. eigenvalues -- -103.43554 -25.83413 -15.53714 -15.52497 -15.49941
 Alpha  occ. eigenvalues --  -11.28711 -11.21248 -11.19337 -11.18403 -11.11904
 Alpha  occ. eigenvalues --  -10.46922  -8.12554  -8.12439  -8.12424  -1.33756
 Alpha  occ. eigenvalues --   -1.09562  -1.06841  -1.05829  -0.96502  -0.90636
 Alpha  occ. eigenvalues --   -0.86920  -0.70438  -0.65087  -0.58644  -0.56273
 Alpha  occ. eigenvalues --   -0.53411  -0.50269  -0.48275  -0.44792  -0.43427
 Alpha  occ. eigenvalues --   -0.42637  -0.42164  -0.41447  -0.39391  -0.36006
 Alpha  occ. eigenvalues --   -0.35497  -0.33930  -0.33066  -0.29209  -0.27286
 Alpha  occ. eigenvalues --   -0.26830  -0.26351
 Alpha virt. eigenvalues --    0.12732   0.13785   0.14043   0.15562   0.16333
 Alpha virt. eigenvalues --    0.17153   0.18364   0.19214   0.21384   0.22115
 Alpha virt. eigenvalues --    0.22947   0.23877   0.24226   0.24776   0.25494

 Mulliken charges:
               1
     1  C   -0.792384
     2  H    0.191852
     3  Cl  -0.639808
     4  F   -0.834068
     5  C    1.292887
     6  N   -0.375501
     7  H    0.040811
     8  H    0.094559
     9  C    1.017469
    10  H    0.069108
    11  H   -0.019482
    12  H   -0.034675
    13  C   -0.236177
    14  N   -0.283645
    15  C   -0.202147
    16  N   -0.288798
 Sum of Mulliken charges =  -1.00000

 Dipole moment (field-independent basis, Debye):
    X=              3.3682    Y=              0.6075    Z=              0.3114  Tot=              3.4367

 Test job not archived.
 1\1\GINC-SE366\SP\RHF\Aug-CC-pVDZ\C5H6Cl1F1N3(1-)\OHZDE\09-Apr-2025\0\
 \#t hf aug-cc-pvdz iop(5/13=1,5/36=2,99/5=2) pseudo=read geom=check gu
 ess=(read,tcheck) scf=(maxcycle=1)\\title\\-1,1\C,0,0.5536841,-0.11367
 668,0.01641617\H,0,1.72108543,1.61718825,-0.08283562\Cl,0,-1.73456531,
 -0.0381831,0.05313863\F,0,2.50902952,-0.09397457,-0.04498728\C,0,0.643
 85954,1.42826726,-0.01895876\N,0,0.59140148,-0.74945738,-1.25954912\H,
 0,-0.1344998,-1.44851314,-1.31930388\H,0,1.52102061,-1.141072,-1.33437
 179\C,0,0.5930634,-0.85982285,1.33600327\H,0,1.63269931,-1.06625876,1.

 Normal termination of Gaussian 16 at Wed Apr  9 02:56:49 2025.
