 Gaussian 16, Revision C.01,

 ----------------------------------------------------------------------
 #t hf aug-cc-pvdz symm=none int=(grid=ultrafine) guess=(read,tcheck) s
 table=(opt,rrhf)
 ----------------------------------------------------------------------
 -----
 title
 -----
 Symbolic Z-matrix:
 Charge = -1 Multiplicity = 1

 SCF Done:  E(RHF) =  -380.390440113     A.U. after   17 cycles
 Normal termination of Gaussian 16 at Wed Apr  9 02:34:40 2025.
 Gaussian 16:  ES64L-G16RevC.01  3-Jul-2019

 ----------------------------------------------------------------------
 #t hf aug-cc-pvdz iop(5/13=1,5/36=2,99/5=2) pseudo=read geom=check gue
 ss=(read,tcheck) scf=(maxcycle=1)
 ----------------------------------------------------------------------
 -----
 title
 -----
 Structure from the checkpoint file:  "E2SN2_153_mol1.chk"
 Charge = -1 Multiplicity = 1

                         Standard orientation:
 ---------------------------------------------------------------------
 Center     Atomic      Atomic             Coordinates (Angstroms)
 Number     Number       Type             X           Y           Z
 ---------------------------------------------------------------------
      1          6           0       -0.304301   -0.378988   -0.058332
      2          6           0        1.063623   -0.589840    0.421175
      3          9           0       -0.505782   -0.666173   -1.474466
      4          1           0        0.535889   -0.106894    2.815875
      5          1           0        0.843412   -0.304072    1.831292
      6          7           0       -1.303972   -1.161187    0.642342
      7          1           0       -1.185566   -0.907424    1.628449
      8          1           0       -0.985486   -2.124524    0.572644
      9          6           0       -0.658201    1.059411    0.045979
     10          7           0       -0.898167    2.205711    0.133858
     11          7           0        2.109788    0.237927   -0.156992
     12          1           0        2.160115    1.113172    0.354466
     13          1           0        1.914873    0.465484   -1.127232
     14          1           0        1.308537   -1.660846    0.407310
 ---------------------------------------------------------------------

 SCF Done:  E(RHF) =  -380.508881307     A.U. after    2 cycles

 The electronic state is 1-A.
 Alpha  occ. eigenvalues --  -25.96001 -15.51261 -15.49281 -15.46311 -11.24584
 Alpha  occ. eigenvalues --  -11.16027 -11.06848  -1.48379  -1.07135  -1.03505
 Alpha  occ. eigenvalues --   -0.98974  -0.83494  -0.71492  -0.63765  -0.58594
 Alpha  occ. eigenvalues --   -0.56102  -0.50249  -0.49918  -0.48668  -0.46439
 Alpha  occ. eigenvalues --   -0.42614  -0.39270  -0.35217  -0.32947  -0.32625
 Alpha  occ. eigenvalues --   -0.30621  -0.24147  -0.10130
 Alpha virt. eigenvalues --    0.13402   0.14082   0.15644   0.16612   0.17798
 Alpha virt. eigenvalues --    0.19430   0.20050   0.20801   0.22104   0.23797
 Alpha virt. eigenvalues --    0.24505   0.25432   0.25866   0.26696   0.28532

 Mulliken charges:
               1
     1  C    1.035209
     2  C    0.585124
     3  F   -0.520617
     4  H   -0.964318
     5  H    0.602806
     6  N   -0.531463
     7  H    0.072392
     8  H    0.053074
     9  C   -0.430806
    10  N   -0.238992
    11  N   -0.455278
    12  H    0.008215
    13  H    0.010320
    14  H   -0.225667
 Sum of Mulliken charges =  -1.00000

 Dipole moment (field-independent basis, Debye):
    X=             -0.6411    Y=             -1.9549    Z=             -4.4862  Tot=              4.9355

 Test job not archived.
 1\1\GINC-SE149\SP\RHF\Aug-CC-pVDZ\C3H7F1N3(1-)\OHZDE\09-Apr-2025\0\\#t
  hf aug-cc-pvdz iop(5/13=1,5/36=2,99/5=2) pseudo=read geom=check guess
 =(read,tcheck) scf=(maxcycle=1)\\title\\-1,1\C,0,-0.10291741,0.0540257
 2,-0.3118645\C,0,-0.07182731,0.0028461,1.15169796\F,0,1.2039341,0.1913
 3525,-0.94573274\H,0,-2.52158171,-0.41897423,1.4107375\H,0,-1.48976215
 ,-0.22474943,1.38886598\N,0,-0.71492155,-1.10512627,-0.93149314\H,0,-1
 .65075722,-1.15574477,-0.51619543\H,0,-0.21090232,-1.90493118,-0.55654
 296\C,0,-0.82196972,1.27438441,-0.75774025\N,0,-1.3875536,2.254492,-1.

 Normal termination of Gaussian 16 at Wed Apr  9 02:34:45 2025.
