 Gaussian 16, Revision C.01,

 ----------------------------------------------------------------------
 #t hf aug-cc-pvdz symm=none int=(grid=ultrafine) guess=(read,tcheck) s
 table=(opt,rrhf)
 ----------------------------------------------------------------------
 -----
 title
 -----
 Symbolic Z-matrix:
 Charge = -1 Multiplicity = 1

 SCF Done:  E(RHF) =  -364.424582392     A.U. after   16 cycles
 Normal termination of Gaussian 16 at Wed Apr  9 02:30:38 2025.
 Gaussian 16:  ES64L-G16RevC.01  3-Jul-2019

 ----------------------------------------------------------------------
 #t hf aug-cc-pvdz iop(5/13=1,5/36=2,99/5=2) pseudo=read geom=check gue
 ss=(read,tcheck) scf=(maxcycle=1)
 ----------------------------------------------------------------------
 -----
 title
 -----
 Structure from the checkpoint file:  "E2SN2_11_mol1.chk"
 Charge = -1 Multiplicity = 1

                         Standard orientation:
 ---------------------------------------------------------------------
 Center     Atomic      Atomic             Coordinates (Angstroms)
 Number     Number       Type             X           Y           Z
 ---------------------------------------------------------------------
      1          6           0        0.995451    0.101937    0.204462
      2          6           0       -0.449785    0.453046    0.391894
      3          9           0        1.428525    0.334136   -1.133611
      4          1           0       -0.240042    1.274796    2.695780
      5          1           0       -0.475795    0.607071    1.625965
      6          1           0        1.561154    0.812670    0.819461
      7          6           0        1.343782   -1.320020    0.569877
      8          1           0        2.415370   -1.495313    0.443493
      9          1           0        1.075194   -1.493596    1.615150
     10          1           0        0.792541   -2.021485   -0.059669
     11          6           0       -1.364115   -0.550753   -0.097547
     12          7           0       -2.095732   -1.407560   -0.448547
     13          7           0       -0.806295    1.796876   -0.032678
     14          1           0       -0.640452    2.382659    0.791674
     15          1           0       -0.182511    2.095496   -0.772896
 ---------------------------------------------------------------------

 SCF Done:  E(RHF) =  -364.539658651     A.U. after    2 cycles

 The electronic state is 1-A.
 Alpha  occ. eigenvalues --  -25.97130 -15.48847 -15.47206 -11.19229 -11.14599
 Alpha  occ. eigenvalues --  -11.12607 -11.11347  -1.49855  -1.04694  -1.01114
 Alpha  occ. eigenvalues --   -0.92160  -0.79872  -0.73029  -0.61939  -0.60450
 Alpha  occ. eigenvalues --   -0.57954  -0.53279  -0.49026  -0.47759  -0.43455
 Alpha  occ. eigenvalues --   -0.41889  -0.40592  -0.38396  -0.37520  -0.30688
 Alpha  occ. eigenvalues --   -0.29911  -0.26593  -0.10711
 Alpha virt. eigenvalues --    0.12440   0.13821   0.15071   0.15597   0.17058
 Alpha virt. eigenvalues --    0.17382   0.18422   0.20456   0.20976   0.22338
 Alpha virt. eigenvalues --    0.24016   0.24677   0.25936   0.26119   0.26333

 Mulliken charges:
               1
     1  C    0.579209
     2  C    0.256680
     3  F   -0.553143
     4  H   -0.550712
     5  H    0.007676
     6  H   -0.126018
     7  C    0.419327
     8  H   -0.053528
     9  H    0.072082
    10  H    0.018062
    11  C   -0.506181
    12  N   -0.322680
    13  N   -0.340367
    14  H    0.070821
    15  H    0.028774
 Sum of Mulliken charges =  -1.00000

 Dipole moment (field-independent basis, Debye):
    X=              4.6690    Y=             -1.8679    Z=             -4.8703  Tot=              7.0006

 Test job not archived.
 1\1\GINC-SE333\SP\RHF\Aug-CC-pVDZ\C4H8F1N2(1-)\OHZDE\09-Apr-2025\0\\#t
  hf aug-cc-pvdz iop(5/13=1,5/36=2,99/5=2) pseudo=read geom=check guess
 =(read,tcheck) scf=(maxcycle=1)\\title\\-1,1\C,0,-0.14663403,0.0904333
 9,-0.39887936\C,0,-0.08945004,0.06229184,1.09880303\F,0,1.13024235,-0.
 15471623,-0.9831697\H,0,-2.31353753,-0.9182758,1.44387493\H,0,-1.28716
 72,-0.15355105,1.35612853\H,0,-0.7687855,-0.76368857,-0.69347991\C,0,-
 0.68845092,1.37420761,-0.97782789\H,0,-0.73539765,1.31161693,-2.068185
 55\H,0,-1.69529853,1.54246803,-0.58691857\H,0,-0.05320892,2.21691652,-

 Normal termination of Gaussian 16 at Wed Apr  9 02:30:43 2025.
