 Gaussian 16, Revision C.01,

 ----------------------------------------------------------------------
 #t hf aug-cc-pvdz symm=none int=(grid=ultrafine) guess=(read,tcheck) s
 table=(opt,rrhf)
 ----------------------------------------------------------------------
 -----
 title
 -----
 Symbolic Z-matrix:
 Charge = -1 Multiplicity = 1

 SCF Done:  E(RHF) =  -1292.98736935     A.U. after   16 cycles
 Normal termination of Gaussian 16 at Wed Apr  9 02:35:47 2025.
 Gaussian 16:  ES64L-G16RevC.01  3-Jul-2019

 ----------------------------------------------------------------------
 #t hf aug-cc-pvdz iop(5/13=1,5/36=2,99/5=2) pseudo=read geom=check gue
 ss=(read,tcheck) scf=(maxcycle=1)
 ----------------------------------------------------------------------
 -----
 title
 -----
 Structure from the checkpoint file:  "E2SN2_170_mol2.chk"
 Charge = -1 Multiplicity = 1

                         Standard orientation:
 ---------------------------------------------------------------------
 Center     Atomic      Atomic             Coordinates (Angstroms)
 Number     Number       Type             X           Y           Z
 ---------------------------------------------------------------------
      1          6           0       -0.275647   -0.300877   -0.193220
      2          6           0       -0.524963    0.746030    0.870579
      3         17           0       -1.783934   -1.112943   -0.695450
      4          1           0        0.447581    1.215919    1.056825
      5          1           0        0.229125    0.111104   -1.062861
      6          1           0       -0.904175    0.274633    1.778392
      7          7           0        0.633860   -1.383498    0.335257
      8          8           0        1.174442   -2.086265   -0.507182
      9          8           0        0.724655   -1.513226    1.552627
     10          6           0       -1.470274    1.756451    0.410128
     11          7           0       -2.242591    2.573370    0.073886
     12         17           0        2.367529    1.445622   -0.453070
 ---------------------------------------------------------------------

 SCF Done:  E(RHF) =  -1293.12992553     A.U. after    2 cycles

 The electronic state is 1-A.
 Alpha  occ. eigenvalues -- -103.58418-103.38293 -20.52276 -20.52227 -15.81838
 Alpha  occ. eigenvalues --  -15.54520 -11.27811 -11.19948 -11.19038 -10.61753
 Alpha  occ. eigenvalues --  -10.41385  -8.27481  -8.27175  -8.27161  -8.06984
 Alpha  occ. eigenvalues --   -8.06956  -8.06947  -1.44758  -1.26695  -1.11982
 Alpha  occ. eigenvalues --   -1.08225  -0.98103  -0.89681  -0.83678  -0.73854
 Alpha  occ. eigenvalues --   -0.66945  -0.64537  -0.63041  -0.59613  -0.55919
 Alpha  occ. eigenvalues --   -0.50958  -0.46767  -0.45127  -0.42930  -0.41722
 Alpha  occ. eigenvalues --   -0.38769  -0.37901  -0.37030  -0.35522  -0.35247
 Alpha  occ. eigenvalues --   -0.21918  -0.21485  -0.21455
 Alpha virt. eigenvalues --    0.12651   0.14774   0.16154   0.16984   0.17953
 Alpha virt. eigenvalues --    0.18304   0.21425   0.21749   0.23290   0.23753
 Alpha virt. eigenvalues --    0.24756   0.25273   0.25474   0.26142   0.26313

 Mulliken charges:
               1
     1  C    0.618617
     2  C    0.503272
     3  Cl  -0.139399
     4  H    0.158051
     5  H   -0.193432
     6  H    0.114285
     7  N    0.520132
     8  O   -0.607212
     9  O   -0.620151
    10  C   -0.137669
    11  N   -0.277475
    12  Cl  -0.939018
 Sum of Mulliken charges =  -1.00000

 Dipole moment (field-independent basis, Debye):
    X=             -7.1876    Y=             -4.9364    Z=              1.9952  Tot=              8.9449

 Test job not archived.
 1\1\GINC-SE365\SP\RHF\Aug-CC-pVDZ\C3H3Cl2N2O2(1-)\OHZDE\09-Apr-2025\0\
 \#t hf aug-cc-pvdz iop(5/13=1,5/36=2,99/5=2) pseudo=read geom=check gu
 ess=(read,tcheck) scf=(maxcycle=1)\\title\\-1,1\C,0,-0.11777,-0.020914
 ,0.003506\C,0,-0.52758,0.014963,-1.452725\Cl,0,1.632753,0.261088,0.210
 289\H,0,-1.616729,-0.107775,-1.456603\H,0,-0.679652,0.68882,0.604642\H
 ,0,-0.047142,-0.799212,-1.997188\N,0,-0.402287,-1.378885,0.598084\O,0,
 -0.436165,-1.431468,1.819518\O,0,-0.525902,-2.327719,-0.171004\C,0,-0.
 182148,1.290002,-2.070408\N,0,0.100756,2.298652,-2.599064\Cl,0,-3.2444

 Normal termination of Gaussian 16 at Wed Apr  9 02:35:53 2025.
