 Gaussian 16, Revision C.01,

 ----------------------------------------------------------------------
 #t hf aug-cc-pvdz symm=none int=(grid=ultrafine) guess=(read,tcheck) s
 table=(opt,rrhf)
 ----------------------------------------------------------------------
 -----
 title
 -----
 Symbolic Z-matrix:
 Charge = -1 Multiplicity = 1

 SCF Done:  E(RHF) =  -740.453263187     A.U. after   17 cycles
 Normal termination of Gaussian 16 at Wed Apr  9 02:59:31 2025.
 Gaussian 16:  ES64L-G16RevC.01  3-Jul-2019

 ----------------------------------------------------------------------
 #t hf aug-cc-pvdz iop(5/13=1,5/36=2,99/5=2) pseudo=read geom=check gue
 ss=(read,tcheck) scf=(maxcycle=1)
 ----------------------------------------------------------------------
 -----
 title
 -----
 Structure from the checkpoint file:  "E2SN2_82_mol1.chk"
 Charge = -1 Multiplicity = 1

                         Standard orientation:
 ---------------------------------------------------------------------
 Center     Atomic      Atomic             Coordinates (Angstroms)
 Number     Number       Type             X           Y           Z
 ---------------------------------------------------------------------
      1          6           0       -0.004428    0.120461    0.420738
      2          6           0       -0.986973   -0.943226    0.406084
      3         17           0        1.738778   -0.464531   -0.453573
      4          1           0       -2.427805    0.055762    2.183286
      5          1           0       -1.846140   -0.435422    1.211829
      6          1           0       -0.632348   -1.789655    1.015141
      7          6           0       -0.389101    1.255823   -0.417358
      8          7           0       -0.716438    2.197122   -1.040289
      9          7           0        0.368194    0.567873    1.730943
     10          1           0        0.778964   -0.229118    2.208183
     11          1           0       -0.545491    0.729232    2.198969
     12          7           0       -1.534067   -1.257927   -0.892446
     13          1           0       -2.467192   -1.635630   -0.783714
     14          1           0       -0.960020   -1.945970   -1.367192
 ---------------------------------------------------------------------

 SCF Done:  E(RHF) =  -740.552429690     A.U. after    2 cycles

 The electronic state is 1-A.
 Alpha  occ. eigenvalues -- -103.49742 -15.51778 -15.50136 -15.48872 -11.25298
 Alpha  occ. eigenvalues --  -11.16929 -11.11379 -10.52969  -8.18636  -8.18424
 Alpha  occ. eigenvalues --   -8.18417  -1.10044  -1.04219  -1.01994  -0.96083
 Alpha  occ. eigenvalues --   -0.84643  -0.73265  -0.57233  -0.54745  -0.52723
 Alpha  occ. eigenvalues --   -0.49763  -0.47101  -0.42660  -0.41070  -0.36153
 Alpha  occ. eigenvalues --   -0.33069  -0.32891  -0.31346  -0.30410  -0.29986
 Alpha  occ. eigenvalues --   -0.26999  -0.10874
 Alpha virt. eigenvalues --    0.12510   0.13607   0.15372   0.15470   0.18181
 Alpha virt. eigenvalues --    0.18520   0.19671   0.20374   0.22511   0.23007
 Alpha virt. eigenvalues --    0.23767   0.23883   0.25281   0.25553   0.26613

 Mulliken charges:
               1
     1  C    0.633899
     2  C    1.026038
     3  Cl  -0.379822
     4  H   -0.716267
     5  H    0.025333
     6  H   -0.095833
     7  C   -0.442612
     8  N   -0.253284
     9  N   -0.525770
    10  H    0.069378
    11  H    0.063835
    12  N   -0.437007
    13  H    0.015617
    14  H    0.016495
 Sum of Mulliken charges =  -1.00000

 Dipole moment (field-independent basis, Debye):
    X=              4.1188    Y=             -4.3622    Z=             -2.5466  Tot=              6.5176

 Test job not archived.
 1\1\GINC-SE108\SP\RHF\Aug-CC-pVDZ\C3H7Cl1N3(1-)\OHZDE\09-Apr-2025\0\\#
 t hf aug-cc-pvdz iop(5/13=1,5/36=2,99/5=2) pseudo=read geom=check gues
 s=(read,tcheck) scf=(maxcycle=1)\\title\\-1,1\C,0,-0.23542122,-0.00631
 269,-0.29491695\C,0,-0.32310623,-0.1342742,1.14486617\Cl,0,1.69885944,
 0.1451501,-0.91218364\H,0,-2.7331902,0.50225094,1.28179832\H,0,-1.5842
 0404,0.05156125,1.28753974\H,0,0.05932239,0.77947595,1.62648915\C,0,-0
 .6761891,-1.21161472,-0.99662666\N,0,-1.08384078,-2.15257687,-1.570773
 94\N,0,-0.88859813,1.15250147,-0.82986815\H,0,-0.42769382,1.96261333,-

 Normal termination of Gaussian 16 at Wed Apr  9 02:59:36 2025.
