 Gaussian 16, Revision C.01,

 ----------------------------------------------------------------------
 #t hf aug-cc-pvdz symm=none int=(grid=ultrafine) guess=(read,tcheck) s
 table=(opt,rrhf)
 ----------------------------------------------------------------------
 -----
 title
 -----
 Symbolic Z-matrix:
 Charge = -1 Multiplicity = 1

 SCF Done:  E(RHF) =  -1175.37011388     A.U. after   18 cycles
 Normal termination of Gaussian 16 at Wed Apr  9 02:47:52 2025.
 Gaussian 16:  ES64L-G16RevC.01  3-Jul-2019

 ----------------------------------------------------------------------
 #t hf aug-cc-pvdz iop(5/13=1,5/36=2,99/5=2) pseudo=read geom=check gue
 ss=(read,tcheck) scf=(maxcycle=1)
 ----------------------------------------------------------------------
 -----
 title
 -----
 Structure from the checkpoint file:  "E2SN2_280_mol2.chk"
 Charge = -1 Multiplicity = 1

                         Standard orientation:
 ---------------------------------------------------------------------
 Center     Atomic      Atomic             Coordinates (Angstroms)
 Number     Number       Type             X           Y           Z
 ---------------------------------------------------------------------
      1          6           0        0.888935   -0.414008   -0.238051
      2          6           0       -0.471192    0.222533   -0.510346
      3         17           0        2.029487    0.797677   -1.094751
      4          1           0       -0.504757    0.510063   -1.560959
      5          6           0        1.367666   -0.486398    1.142174
      6          7           0        2.118291   -0.444807    2.050926
      7          6           0        1.077632   -1.742905   -0.954106
      8          1           0        2.131264   -2.019586   -0.883147
      9          1           0        0.795960   -1.659559   -2.004772
     10          1           0        0.453057   -2.459488   -0.429335
     11          7           0       -0.706032    1.502682    0.229469
     12          8           0       -0.307692    1.607882    1.380480
     13          8           0       -1.324777    2.357723   -0.405871
     14          7           0       -1.717041   -0.617753   -0.339488
     15          8           0       -2.593616   -0.209001    0.402653
     16          8           0       -1.811992   -1.535506   -1.144233
     17          9           0       -0.457439   -1.584102    1.266707
 ---------------------------------------------------------------------

 SCF Done:  E(RHF) =  -1175.59923218     A.U. after    2 cycles

 The electronic state is 1-A.
 Alpha  occ. eigenvalues -- -103.56042 -25.78816 -20.53060 -20.52196 -20.50914
 Alpha  occ. eigenvalues --  -20.50308 -15.82225 -15.81883 -15.49318 -11.28754
 Alpha  occ. eigenvalues --  -11.27334 -11.17423 -11.13782 -10.59345  -8.25045
 Alpha  occ. eigenvalues --   -8.24786  -8.24771  -1.45570  -1.43409  -1.28641
 Alpha  occ. eigenvalues --   -1.26856  -1.25732  -1.11120  -1.03420  -1.02158
 Alpha  occ. eigenvalues --   -0.92553  -0.84597  -0.79523  -0.73992  -0.68785
 Alpha  occ. eigenvalues --   -0.68533  -0.65339  -0.62533  -0.61974  -0.60308
 Alpha  occ. eigenvalues --   -0.53509  -0.52732  -0.49973  -0.46687  -0.45319
 Alpha  occ. eigenvalues --   -0.42643  -0.41988  -0.41449  -0.40249  -0.39995
 Alpha  occ. eigenvalues --   -0.38550  -0.37765  -0.37697  -0.37142  -0.36573
 Alpha  occ. eigenvalues --   -0.35831  -0.35410  -0.30951  -0.28485
 Alpha virt. eigenvalues --    0.12073   0.13166   0.14898   0.16480   0.16550
 Alpha virt. eigenvalues --    0.17180   0.19315   0.19905   0.20534   0.21800
 Alpha virt. eigenvalues --    0.22620   0.23218   0.24166   0.24545   0.24901

 Mulliken charges:
               1
     1  C   -0.449570
     2  C    1.917872
     3  Cl  -0.224799
     4  H   -0.147293
     5  C   -0.110760
     6  N   -0.369121
     7  C    0.755924
     8  H   -0.044898
     9  H    0.009827
    10  H    0.221491
    11  N    0.260377
    12  O   -0.525997
    13  O   -0.618648
    14  N    0.551691
    15  O   -0.609105
    16  O   -0.677566
    17  F   -0.939426
 Sum of Mulliken charges =  -1.00000

 Dipole moment (field-independent basis, Debye):
    X=              1.5918    Y=              1.8297    Z=             -7.4063  Tot=              7.7933

 Test job not archived.
 1\1\GINC-SE366\SP\RHF\Aug-CC-pVDZ\C4H4Cl1F1N3O4(1-)\OHZDE\09-Apr-2025\
 0\\#t hf aug-cc-pvdz iop(5/13=1,5/36=2,99/5=2) pseudo=read geom=check
 guess=(read,tcheck) scf=(maxcycle=1)\\title\\-1,1\C,0,-0.053528,-0.030
 899,-0.003929\C,0,-0.332185,-0.122234,-1.501689\Cl,0,1.809116,0.152061
 ,0.003405\H,0,0.38732,-0.815368,-1.936966\C,0,-0.558773,1.125249,0.735
 999\N,0,-0.580066,2.01037,1.51517\C,0,-0.348725,-1.326933,0.735979\H,0
 ,0.072055,-1.247391,1.740142\H,0,0.101793,-2.177122,0.221783\H,0,-1.43
 0477,-1.412038,0.775194\N,0,-0.106293,1.157739,-2.244588\O,0,-0.429246

 Normal termination of Gaussian 16 at Wed Apr  9 02:48:04 2025.
