 Gaussian 16, Revision C.01,

 ----------------------------------------------------------------------
 #t hf aug-cc-pvdz symm=none int=(grid=ultrafine) guess=(read,tcheck) s
 table=(opt,rrhf)
 ----------------------------------------------------------------------
 -----
 title
 -----
 Symbolic Z-matrix:
 Charge = -1 Multiplicity = 1

 SCF Done:  E(RHF) =  -839.460262336     A.U. after   15 cycles
 Normal termination of Gaussian 16 at Wed Apr  9 02:36:54 2025.
 Gaussian 16:  ES64L-G16RevC.01  3-Jul-2019

 ----------------------------------------------------------------------
 #t hf aug-cc-pvdz iop(5/13=1,5/36=2,99/5=2) pseudo=read geom=check gue
 ss=(read,tcheck) scf=(maxcycle=1)
 ----------------------------------------------------------------------
 -----
 title
 -----
 Structure from the checkpoint file:  "E2SN2_183_mol2.chk"
 Charge = -1 Multiplicity = 1

                         Standard orientation:
 ---------------------------------------------------------------------
 Center     Atomic      Atomic             Coordinates (Angstroms)
 Number     Number       Type             X           Y           Z
 ---------------------------------------------------------------------
      1          6           0       -0.413171    0.034395    0.192152
      2          6           0        0.656798    0.120474   -0.919872
      3         17           0       -1.347034   -1.509009    0.081288
      4          1           0        0.157289    0.112713   -1.897821
      5          1           0        0.190626    0.013601    1.121871
      6          6           0       -1.364393    1.133667    0.146900
      7          7           0       -2.166242    1.992380    0.114034
      8          7           0        1.623998   -0.962597   -0.855226
      9          1           0        1.987622   -0.879948    0.107371
     10          1           0        1.148955   -1.854983   -0.944556
     11          7           0        1.292735    1.403473   -0.677211
     12          1           0        1.729425    1.255623    0.246657
     13          1           0        2.046739    1.481501   -1.352665
     14          9           0        1.901120    0.084515    1.639000
 ---------------------------------------------------------------------

 SCF Done:  E(RHF) =  -839.589438464     A.U. after    2 cycles

 The electronic state is 1-A.
 Alpha  occ. eigenvalues -- -103.54114 -25.77258 -15.51792 -15.45864 -15.45861
 Alpha  occ. eigenvalues --  -11.19320 -11.17413 -11.17363 -10.57419  -8.23137
 Alpha  occ. eigenvalues --   -8.22866  -8.22847  -1.26386  -1.09182  -1.05211
 Alpha  occ. eigenvalues --   -1.03091  -0.94780  -0.85408  -0.69889  -0.60266
 Alpha  occ. eigenvalues --   -0.53404  -0.51720  -0.48299  -0.46873  -0.43120
 Alpha  occ. eigenvalues --   -0.41646  -0.40120  -0.37293  -0.35845  -0.35029
 Alpha  occ. eigenvalues --   -0.34688  -0.34391  -0.32741  -0.30947  -0.26803
 Alpha  occ. eigenvalues --   -0.25081
 Alpha virt. eigenvalues --    0.13315   0.14333   0.14693   0.16387   0.18759
 Alpha virt. eigenvalues --    0.19089   0.19616   0.19867   0.22501   0.23478
 Alpha virt. eigenvalues --    0.24952   0.25377   0.26390   0.27109   0.27719

 Mulliken charges:
               1
     1  C    0.626211
     2  C    0.705055
     3  Cl  -0.211651
     4  H   -0.175613
     5  H    0.051187
     6  C   -0.280534
     7  N   -0.239298
     8  N   -0.384103
     9  H    0.127150
    10  H    0.017639
    11  N   -0.365110
    12  H    0.140996
    13  H   -0.029603
    14  F   -0.982326
 Sum of Mulliken charges =  -1.00000

 Dipole moment (field-independent basis, Debye):
    X=             -2.2950    Y=             -2.8249    Z=             -3.9079  Tot=              5.3403

 Test job not archived.
 1\1\GINC-SE080\SP\RHF\Aug-CC-pVDZ\C3H6Cl1F1N3(1-)\OHZDE\09-Apr-2025\0\
 \#t hf aug-cc-pvdz iop(5/13=1,5/36=2,99/5=2) pseudo=read geom=check gu
 ess=(read,tcheck) scf=(maxcycle=1)\\title\\-1,1\C,0,-0.230229,-0.14800
 8,0.077655\C,0,-0.492427,-0.242088,-1.442622\Cl,0,1.095001,1.026291,0.
 439973\H,0,0.41427,-0.612274,-1.939428\H,0,-1.181336,0.262892,0.472542
 \C,0,0.1348,-1.426135,0.667922\N,0,0.463831,-2.438835,1.165523\N,0,-0.
 885805,1.029953,-2.025599\H,0,-1.706454,1.291895,-1.456769\H,0,-0.1560
 68,1.718917,-1.87457\N,0,-1.566134,-1.215263,-1.539938\H,0,-2.340506,-

 Normal termination of Gaussian 16 at Wed Apr  9 02:37:00 2025.
