 Gaussian 16, Revision C.01,

 ----------------------------------------------------------------------
 #t hf aug-cc-pvdz symm=none int=(grid=ultrafine) guess=(read,tcheck) s
 table=(opt,rrhf)
 ----------------------------------------------------------------------
 -----
 title
 -----
 Symbolic Z-matrix:
 Charge = -1 Multiplicity = 1

 SCF Done:  E(RHF) =  -876.131168635     A.U. after   16 cycles
 Normal termination of Gaussian 16 at Wed Apr  9 02:39:03 2025.
 Gaussian 16:  ES64L-G16RevC.01  3-Jul-2019

 ----------------------------------------------------------------------
 #t hf aug-cc-pvdz iop(5/13=1,5/36=2,99/5=2) pseudo=read geom=check gue
 ss=(read,tcheck) scf=(maxcycle=1)
 ----------------------------------------------------------------------
 -----
 title
 -----
 Structure from the checkpoint file:  "E2SN2_201_mol1.chk"
 Charge = -1 Multiplicity = 1

                         Standard orientation:
 ---------------------------------------------------------------------
 Center     Atomic      Atomic             Coordinates (Angstroms)
 Number     Number       Type             X           Y           Z
 ---------------------------------------------------------------------
      1          6           0       -0.562903   -0.348029    0.483133
      2          1           0       -0.115633    0.508762   -1.440105
      3          9           0        1.047755   -0.658811    1.577847
      4         17           0       -2.409470    0.327573   -0.413819
      5          6           0        0.407725    0.307615   -0.500121
      6          1           0       -0.812464    0.185540    1.382598
      7          7           0       -0.735856   -1.746845    0.307989
      8          1           0       -1.659364   -2.010044    0.623728
      9          1           0       -0.023097   -2.139394    0.916256
     10          6           0        1.548464   -0.559897   -0.823452
     11          7           0        2.434396   -1.198268   -1.253683
     12          6           0        0.880533    1.587319    0.032243
     13          7           0        1.229866    2.644206    0.402981
 ---------------------------------------------------------------------

 SCF Done:  E(RHF) =  -876.266357105     A.U. after    2 cycles

 The electronic state is 1-A.
 Alpha  occ. eigenvalues -- -103.46381 -25.81600 -15.53471 -15.52306 -15.50491
 Alpha  occ. eigenvalues --  -11.26777 -11.22045 -11.19076 -11.18545 -10.49715
 Alpha  occ. eigenvalues --   -8.15359  -8.15216  -8.15199  -1.31722  -1.09439
 Alpha  occ. eigenvalues --   -1.06770  -1.05821  -0.96636  -0.92806  -0.75124
 Alpha  occ. eigenvalues --   -0.66037  -0.59401  -0.57023  -0.53289  -0.51271
 Alpha  occ. eigenvalues --   -0.44251  -0.43344  -0.41747  -0.40804  -0.40282
 Alpha  occ. eigenvalues --   -0.36010  -0.34991  -0.33771  -0.33185  -0.31292
 Alpha  occ. eigenvalues --   -0.29352  -0.29005  -0.28331
 Alpha virt. eigenvalues --    0.13235   0.13786   0.15508   0.16675   0.18589
 Alpha virt. eigenvalues --    0.19223   0.20247   0.21949   0.23203   0.23624
 Alpha virt. eigenvalues --    0.23972   0.25107   0.25527   0.26266   0.26743

 Mulliken charges:
               1
     1  C    0.515599
     2  H    0.123414
     3  F   -0.845289
     4  Cl  -0.557571
     5  C    1.074131
     6  H   -0.148652
     7  N   -0.417137
     8  H    0.045603
     9  H    0.151775
    10  C   -0.133203
    11  N   -0.327935
    12  C   -0.200908
    13  N   -0.279828
 Sum of Mulliken charges =  -1.00000

 Dipole moment (field-independent basis, Debye):
    X=             -2.7293    Y=             -1.0818    Z=             -1.0601  Tot=              3.1214

 Test job not archived.
 1\1\GINC-SE412\SP\RHF\Aug-CC-pVDZ\C4H4Cl1F1N3(1-)\OHZDE\09-Apr-2025\0\
 \#t hf aug-cc-pvdz iop(5/13=1,5/36=2,99/5=2) pseudo=read geom=check gu
 ess=(read,tcheck) scf=(maxcycle=1)\\title\\-1,1\C,0,0.79215005,-0.0726
 2128,0.03539835\H,0,1.64514683,1.89538758,0.21518617\F,0,-1.17812601,-
 0.06543079,0.12004595\Cl,0,2.88320178,-0.17900577,-0.50028126\C,0,0.65
 555663,1.45012254,0.0724086\H,0,0.53952848,-0.58325267,-0.87644204\N,0
 ,0.86265784,-0.69669454,1.30930373\H,0,1.39418827,-1.55298541,1.231374
 08\H,0,-0.1117391,-0.89657898,1.51595627\C,0,-0.18462394,1.91006918,1.

 Normal termination of Gaussian 16 at Wed Apr  9 02:39:09 2025.
