 Gaussian 16, Revision C.01,

 ----------------------------------------------------------------------
 #t hf aug-cc-pvdz symm=none int=(grid=ultrafine) guess=(read,tcheck) s
 table=(opt,rrhf)
 ----------------------------------------------------------------------
 -----
 title
 -----
 Symbolic Z-matrix:
 Charge = -1 Multiplicity = 1

 SCF Done:  E(RHF) =  -364.392226767     A.U. after   17 cycles
 Normal termination of Gaussian 16 at Wed Apr  9 02:36:46 2025.
 Gaussian 16:  ES64L-G16RevC.01  3-Jul-2019

 ----------------------------------------------------------------------
 #t hf aug-cc-pvdz iop(5/13=1,5/36=2,99/5=2) pseudo=read geom=check gue
 ss=(read,tcheck) scf=(maxcycle=1)
 ----------------------------------------------------------------------
 -----
 title
 -----
 Structure from the checkpoint file:  "E2SN2_17_mol1.chk"
 Charge = -1 Multiplicity = 1

                         Standard orientation:
 ---------------------------------------------------------------------
 Center     Atomic      Atomic             Coordinates (Angstroms)
 Number     Number       Type             X           Y           Z
 ---------------------------------------------------------------------
      1          6           0        0.294762   -0.378063   -0.071543
      2          6           0       -1.080379   -0.528979    0.407869
      3          9           0        0.480498   -0.631291   -1.494478
      4          1           0       -0.534221   -0.531639    2.846420
      5          1           0       -0.850584   -0.458699    1.836369
      6          1           0       -1.372368   -1.584864    0.322221
      7          7           0        1.256265   -1.250614    0.584484
      8          1           0        0.943372   -2.193714    0.369568
      9          1           0        1.075485   -1.127578    1.586988
     10          6           0       -2.115289    0.427544   -0.145110
     11          1           0       -2.261977    0.362306   -1.234227
     12          1           0       -3.087615    0.244835    0.327956
     13          1           0       -1.846063    1.465618    0.082577
     14          6           0        0.755208    1.025135    0.089194
     15          7           0        1.098545    2.140833    0.219798
 ---------------------------------------------------------------------

 SCF Done:  E(RHF) =  -364.506842911     A.U. after    2 cycles

 The electronic state is 1-A.
 Alpha  occ. eigenvalues --  -25.95659 -15.50961 -15.48480 -11.24462 -11.15776
 Alpha  occ. eigenvalues --  -11.08716 -11.04668  -1.48072  -1.06343  -1.03009
 Alpha  occ. eigenvalues --   -0.88738  -0.79656  -0.69475  -0.63306  -0.57969
 Alpha  occ. eigenvalues --   -0.55237  -0.49546  -0.47334  -0.46283  -0.43053
 Alpha  occ. eigenvalues --   -0.41571  -0.39838  -0.35818  -0.33887  -0.32294
 Alpha  occ. eigenvalues --   -0.32205  -0.27823  -0.09779
 Alpha virt. eigenvalues --    0.13007   0.13766   0.15139   0.15615   0.17228
 Alpha virt. eigenvalues --    0.17984   0.19593   0.20047   0.21102   0.22623
 Alpha virt. eigenvalues --    0.23634   0.24813   0.25427   0.25820   0.26589

 Mulliken charges:
               1
     1  C    0.964804
     2  C    0.105346
     3  F   -0.538998
     4  H   -0.967157
     5  H    0.670011
     6  H   -0.233163
     7  N   -0.498091
     8  H    0.036471
     9  H    0.073596
    10  C    0.338169
    11  H   -0.075069
    12  H   -0.055976
    13  H   -0.111344
    14  C   -0.461374
    15  N   -0.247225
 Sum of Mulliken charges =  -1.00000

 Dipole moment (field-independent basis, Debye):
    X=             -0.8806    Y=             -1.7422    Z=             -4.7945  Tot=              5.1767

 Test job not archived.
 1\1\GINC-SE250\SP\RHF\Aug-CC-pVDZ\C4H8F1N2(1-)\OHZDE\09-Apr-2025\0\\#t
  hf aug-cc-pvdz iop(5/13=1,5/36=2,99/5=2) pseudo=read geom=check guess
 =(read,tcheck) scf=(maxcycle=1)\\title\\-1,1\C,0,-0.10969225,0.0412324
 7,-0.35603087\C,0,-0.12473922,-0.05049384,1.10512825\F,0,1.21753146,0.
 11106873,-0.9534977\H,0,-2.55662895,0.44471636,1.39753972\H,0,-1.53857
 904,0.15016004,1.3483359\H,0,0.2668079,0.88701241,1.52376866\N,0,-0.81
 329551,1.19697886,-0.89025621\H,0,-0.31937328,2.0016315,-0.51329093\H,
 0,-1.72196715,1.18982729,-0.41370691\C,0,0.48606738,-1.28796786,1.7274

 Normal termination of Gaussian 16 at Wed Apr  9 02:36:51 2025.
