 Gaussian 16, Revision C.01,

 ----------------------------------------------------------------------
 #t hf aug-cc-pvdz symm=none int=(grid=ultrafine) guess=(read,tcheck) s
 table=(opt,rrhf)
 ----------------------------------------------------------------------
 -----
 title
 -----
 Symbolic Z-matrix:
 Charge = -1 Multiplicity = 1

 SCF Done:  E(RHF) =  -380.427341263     A.U. after   16 cycles
 Normal termination of Gaussian 16 at Wed Apr  9 02:40:47 2025.
 Gaussian 16:  ES64L-G16RevC.01  3-Jul-2019

 ----------------------------------------------------------------------
 #t hf aug-cc-pvdz iop(5/13=1,5/36=2,99/5=2) pseudo=read geom=check gue
 ss=(read,tcheck) scf=(maxcycle=1)
 ----------------------------------------------------------------------
 -----
 title
 -----
 Structure from the checkpoint file:  "E2SN2_22_mol1.chk"
 Charge = -1 Multiplicity = 1

                         Standard orientation:
 ---------------------------------------------------------------------
 Center     Atomic      Atomic             Coordinates (Angstroms)
 Number     Number       Type             X           Y           Z
 ---------------------------------------------------------------------
      1          6           0        0.814635   -0.517240   -0.381826
      2          6           0       -0.313595    0.461047   -0.194819
      3          9           0        0.849221   -1.468934    0.658932
      4          1           0        0.109425    2.315736   -1.748101
      5          1           0       -0.180594    1.278083   -1.163064
      6          1           0        0.672507   -1.086423   -1.307847
      7          7           0        2.096960    0.136061   -0.408139
      8          1           0        2.055317    0.793222    0.369554
      9          1           0        2.087242    0.726847   -1.238673
     10          7           0       -0.058921    1.391964    0.897080
     11          1           0       -0.692602    1.251376    1.671910
     12          1           0       -0.190105    2.330754    0.510057
     13          6           0       -1.624029   -0.127865   -0.206293
     14          7           0       -2.718930   -0.568716   -0.249883
 ---------------------------------------------------------------------

 SCF Done:  E(RHF) =  -380.546351361     A.U. after    2 cycles

 The electronic state is 1-A.
 Alpha  occ. eigenvalues --  -25.96287 -15.49566 -15.48443 -15.47775 -11.21555
 Alpha  occ. eigenvalues --  -11.15202 -11.12552  -1.49479  -1.06541  -1.03135
 Alpha  occ. eigenvalues --   -1.00116  -0.84227  -0.72899  -0.62310  -0.60110
 Alpha  occ. eigenvalues --   -0.59116  -0.55081  -0.51748  -0.48150  -0.45276
 Alpha  occ. eigenvalues --   -0.41449  -0.39999  -0.39123  -0.32840  -0.31265
 Alpha  occ. eigenvalues --   -0.27724  -0.27024  -0.11336
 Alpha virt. eigenvalues --    0.13401   0.14191   0.15166   0.16628   0.17614
 Alpha virt. eigenvalues --    0.18451   0.20194   0.20655   0.22527   0.24389
 Alpha virt. eigenvalues --    0.24780   0.25544   0.26338   0.26974   0.27572

 Mulliken charges:
               1
     1  C    0.956833
     2  C    0.941317
     3  F   -0.469085
     4  H   -0.662562
     5  H    0.145899
     6  H   -0.232729
     7  N   -0.468744
     8  H    0.097759
     9  H    0.089598
    10  N   -0.538946
    11  H   -0.005298
    12  H    0.052006
    13  C   -0.637383
    14  N   -0.268665
 Sum of Mulliken charges =  -1.00000

 Dipole moment (field-independent basis, Debye):
    X=              1.6595    Y=             -2.6609    Z=              3.6701  Tot=              4.8275

 Test job not archived.
 1\1\GINC-SE253\SP\RHF\Aug-CC-pVDZ\C3H7F1N3(1-)\OHZDE\09-Apr-2025\0\\#t
  hf aug-cc-pvdz iop(5/13=1,5/36=2,99/5=2) pseudo=read geom=check guess
 =(read,tcheck) scf=(maxcycle=1)\\title\\-1,1\C,0,-0.02462382,0.0036549
 1,-0.45899158\C,0,-0.16771381,-0.00204575,1.03914475\F,0,1.33150955,-0
 .01504571,-0.84712648\H,0,-2.50587675,0.5779984,1.51668432\H,0,-1.4245
 3403,0.07530671,1.23190012\H,0,-0.4740488,-0.90062014,-0.88559184\N,0,
 -0.6248918,1.16863051,-1.0542738\H,0,-0.31068635,1.93738713,-0.4637730
 2\H,0,-1.6226904,1.09291871,-0.86043257\N,0,0.21089879,1.2739717,1.632

 Normal termination of Gaussian 16 at Wed Apr  9 02:40:51 2025.
