 Gaussian 16, Revision C.01,

 ----------------------------------------------------------------------
 #t hf aug-cc-pvdz symm=none int=(grid=ultrafine) guess=(read,tcheck) s
 table=(opt,rrhf)
 ----------------------------------------------------------------------
 -----
 title
 -----
 Symbolic Z-matrix:
 Charge = -1 Multiplicity = 1

 SCF Done:  E(RHF) =  -492.218502849     A.U. after   15 cycles
 Normal termination of Gaussian 16 at Wed Apr  9 02:38:52 2025.
 Gaussian 16:  ES64L-G16RevC.01  3-Jul-2019

 ----------------------------------------------------------------------
 #t hf aug-cc-pvdz iop(5/13=1,5/36=2,99/5=2) pseudo=read geom=check gue
 ss=(read,tcheck) scf=(maxcycle=1)
 ----------------------------------------------------------------------
 -----
 title
 -----
 Structure from the checkpoint file:  "E2SN2_198_mol2.chk"
 Charge = -1 Multiplicity = 1

                         Standard orientation:
 ---------------------------------------------------------------------
 Center     Atomic      Atomic             Coordinates (Angstroms)
 Number     Number       Type             X           Y           Z
 ---------------------------------------------------------------------
      1          6           0       -1.015630   -0.493043    0.318853
      2          6           0       -0.049916    0.504163   -0.309293
      3          9           0       -0.605133   -1.782040   -0.129471
      4          1           0       -0.166058    0.465619   -1.393018
      5          1           0       -0.856604   -0.531736    1.402994
      6          7           0       -2.334006   -0.210486   -0.065233
      7          1           0       -2.977740   -0.216095    0.710301
      8          1           0       -2.444840    0.668377   -0.608927
      9          7           0        1.351041    0.018582   -0.035100
     10          8           0        2.078507   -0.260435   -0.985134
     11          8           0        1.685632   -0.046030    1.147967
     12          7           0       -0.164676    1.854067    0.136358
     13          1           0       -0.396039    1.865997    1.123872
     14          1           0       -0.975592    2.250876   -0.390537
     15          1           0       -2.423276    2.285187   -1.291649
 ---------------------------------------------------------------------

 SCF Done:  E(RHF) =  -492.373870310     A.U. after    2 cycles

 The electronic state is 1-A.
 Alpha  occ. eigenvalues --  -25.97727 -20.50223 -20.49725 -15.78569 -15.48545
 Alpha  occ. eigenvalues --  -15.48233 -11.24047 -11.21031  -1.50782  -1.42008
 Alpha  occ. eigenvalues --   -1.23855  -1.08891  -1.02580  -0.90340  -0.79552
 Alpha  occ. eigenvalues --   -0.71257  -0.65928  -0.63549  -0.61850  -0.61048
 Alpha  occ. eigenvalues --   -0.58435  -0.57346  -0.53145  -0.51033  -0.47590
 Alpha  occ. eigenvalues --   -0.46562  -0.40734  -0.39225  -0.38625  -0.35477
 Alpha  occ. eigenvalues --   -0.29502  -0.28309  -0.11344
 Alpha virt. eigenvalues --    0.12417   0.14408   0.15216   0.16106   0.19312
 Alpha virt. eigenvalues --    0.19851   0.20394   0.21682   0.22151   0.22302
 Alpha virt. eigenvalues --    0.23803   0.24780   0.25753   0.26082   0.27594

 Mulliken charges:
               1
     1  C    1.032337
     2  C    1.131232
     3  F   -0.419909
     4  H   -0.155983
     5  H   -0.162019
     6  N   -0.456618
     7  H    0.015404
     8  H    0.016130
     9  N    0.288366
    10  O   -0.605633
    11  O   -0.617941
    12  N   -0.414915
    13  H    0.016765
    14  H    0.061922
    15  H   -0.729138
 Sum of Mulliken charges =  -1.00000

 Dipole moment (field-independent basis, Debye):
    X=              3.2800    Y=             -4.7766    Z=              5.6104  Tot=              8.0654

 Test job not archived.
 1\1\GINC-SE120\SP\RHF\Aug-CC-pVDZ\C2H7F1N3O2(1-)\OHZDE\09-Apr-2025\0\\
 #t hf aug-cc-pvdz iop(5/13=1,5/36=2,99/5=2) pseudo=read geom=check gue
 ss=(read,tcheck) scf=(maxcycle=1)\\title\\-1,1\C,0,0.129353,0.045675,-
 0.001725\C,0,-0.411862,0.196379,-1.418046\F,0,1.423694,-0.536883,-0.12
 9486\H,0,-0.524946,-0.796545,-1.854794\H,0,0.330279,1.034867,0.426384\
 N,0,-0.722993,-0.758307,0.768075\H,0,-0.922824,-0.362803,1.67335\H,0,-
 1.610162,-1.021332,0.294748\N,0,0.648454,0.882322,-2.241978\O,0,1.1243
 01,0.290269,-3.207723\O,0,0.956678,2.023067,-1.896329\N,0,-1.634853,0.

 Normal termination of Gaussian 16 at Wed Apr  9 02:38:58 2025.
