 Gaussian 16, Revision C.01,

 ----------------------------------------------------------------------
 #t hf aug-cc-pvdz symm=none int=(grid=ultrafine) guess=(read,tcheck) s
 table=(opt,rrhf)
 ----------------------------------------------------------------------
 -----
 title
 -----
 Symbolic Z-matrix:
 Charge = -1 Multiplicity = 1

 SCF Done:  E(RHF) =  -515.187531604     A.U. after   17 cycles
 Normal termination of Gaussian 16 at Wed Apr  9 02:51:41 2025.
 Gaussian 16:  ES64L-G16RevC.01  3-Jul-2019

 ----------------------------------------------------------------------
 #t hf aug-cc-pvdz iop(5/13=1,5/36=2,99/5=2) pseudo=read geom=check gue
 ss=(read,tcheck) scf=(maxcycle=1)
 ----------------------------------------------------------------------
 -----
 title
 -----
 Structure from the checkpoint file:  "E2SN2_343_mol1.chk"
 Charge = -1 Multiplicity = 1

                         Standard orientation:
 ---------------------------------------------------------------------
 Center     Atomic      Atomic             Coordinates (Angstroms)
 Number     Number       Type             X           Y           Z
 ---------------------------------------------------------------------
      1          6           0        1.074589    0.175546   -0.146729
      2          1           0       -0.304088   -0.190214   -1.786077
      3          9           0        0.492838   -0.034421    1.414766
      4          1           0        1.672444    0.261175   -2.069487
      5          6           0       -0.198726   -0.445153   -0.737973
      6          6           0        2.326665   -0.670430    0.048339
      7          1           0        2.560555   -0.707735    1.119557
      8          1           0        2.161121   -1.680140   -0.323173
      9          1           0        3.152879   -0.241539   -0.508477
     10          6           0        1.244283    1.684748   -0.149037
     11          1           0        2.294997    1.927093   -0.306626
     12          1           0        0.669466    2.157987   -0.937445
     13          1           0        0.918242    2.076013    0.820663
     14          7           0       -1.454795    0.235799   -0.087222
     15          8           0       -2.249460   -0.462319    0.541191
     16          8           0       -1.634867    1.426983   -0.329245
     17          7           0       -0.240943   -1.847400   -0.513532
     18          1           0       -1.135172   -2.216352   -0.807795
     19          1           0       -0.162071   -1.980882    0.488068
 ---------------------------------------------------------------------

 SCF Done:  E(RHF) =  -515.345897046     A.U. after    2 cycles

 The electronic state is 1-A.
 Alpha  occ. eigenvalues --  -25.87697 -20.47730 -20.47567 -15.76042 -15.49350
 Alpha  occ. eigenvalues --  -11.20556 -11.20018 -11.08414 -11.08358  -1.39925
 Alpha  occ. eigenvalues --   -1.38299  -1.21503  -1.06765  -0.92266  -0.85608
 Alpha  occ. eigenvalues --   -0.79792  -0.72157  -0.65614  -0.61986  -0.59694
 Alpha  occ. eigenvalues --   -0.57817  -0.54737  -0.51081  -0.49281  -0.47697
 Alpha  occ. eigenvalues --   -0.47517  -0.43565  -0.41260  -0.39035  -0.38752
 Alpha  occ. eigenvalues --   -0.38552  -0.36967  -0.36038  -0.35366  -0.33363
 Alpha  occ. eigenvalues --   -0.28971  -0.09550
 Alpha virt. eigenvalues --    0.12935   0.13492   0.14298   0.14933   0.16008
 Alpha virt. eigenvalues --    0.16364   0.17162   0.18111   0.18853   0.20795
 Alpha virt. eigenvalues --    0.22413   0.23195   0.23695   0.24488   0.24966

 Mulliken charges:
               1
     1  C   -2.114982
     2  H   -0.205943
     3  F   -0.720778
     4  H   -0.427078
     5  C    1.653390
     6  C    0.671168
     7  H    0.057761
     8  H    0.015606
     9  H   -0.095401
    10  C    1.040552
    11  H   -0.019348
    12  H   -0.001340
    13  H    0.082817
    14  N    0.472839
    15  O   -0.671108
    16  O   -0.624002
    17  N   -0.186902
    18  H   -0.028109
    19  H    0.100858
 Sum of Mulliken charges =  -1.00000

 Dipole moment (field-independent basis, Debye):
    X=             -2.0071    Y=             -1.8588    Z=              2.8331  Tot=              3.9383

 Test job not archived.
 1\1\GINC-SE460\SP\RHF\Aug-CC-pVDZ\C4H10F1N2O2(1-)\OHZDE\09-Apr-2025\0\
 \#t hf aug-cc-pvdz iop(5/13=1,5/36=2,99/5=2) pseudo=read geom=check gu
 ess=(read,tcheck) scf=(maxcycle=1)\\title\\-1,1\C,0,0.51433098,-0.0504
 9643,0.00938364\H,0,1.679663,1.74059645,0.40432793\F,0,-1.15795241,0.1
 0375587,-0.01214887\H,0,2.52830808,-0.06228522,-0.06489336\C,0,0.68540
 327,1.47389724,0.06530431\C,0,0.61047496,-0.78958258,-1.31949837\H,0,-
 0.35472369,-1.2694237,-1.52382249\H,0,0.84757096,-0.09325371,-2.121901
 84\H,0,1.40289714,-1.52895911,-1.27463717\C,0,0.67306358,-0.87020919,1

 Normal termination of Gaussian 16 at Wed Apr  9 02:51:51 2025.
