 Gaussian 16, Revision C.01,

 ----------------------------------------------------------------------
 #t hf aug-cc-pvdz symm=none int=(grid=ultrafine) guess=(read,tcheck) s
 table=(opt,rrhf)
 ----------------------------------------------------------------------
 -----
 title
 -----
 Symbolic Z-matrix:
 Charge = -1 Multiplicity = 1

 SCF Done:  E(RHF) =  -417.130342471     A.U. after   16 cycles
 Normal termination of Gaussian 16 at Wed Apr  9 02:59:57 2025.
 Gaussian 16:  ES64L-G16RevC.01  3-Jul-2019

 ----------------------------------------------------------------------
 #t hf aug-cc-pvdz iop(5/13=1,5/36=2,99/5=2) pseudo=read geom=check gue
 ss=(read,tcheck) scf=(maxcycle=1)
 ----------------------------------------------------------------------
 -----
 title
 -----
 Structure from the checkpoint file:  "E2SN2_86_mol1.chk"
 Charge = -1 Multiplicity = 1

                         Standard orientation:
 ---------------------------------------------------------------------
 Center     Atomic      Atomic             Coordinates (Angstroms)
 Number     Number       Type             X           Y           Z
 ---------------------------------------------------------------------
      1          6           0       -0.397555    0.232678    0.078664
      2          6           0        0.560093   -0.846421   -0.377889
      3          9           0       -0.260674    1.406311   -0.681424
      4          1           0        0.016270   -2.229322    1.674899
      5          1           0        0.356642   -1.685332    0.525991
      6          7           0       -0.254165    0.586815    1.463873
      7          1           0        0.692093    0.945135    1.570809
      8          1           0       -0.274388   -0.319824    1.959604
      9          6           0        1.927369   -0.407764   -0.300230
     10          7           0        3.052545   -0.078738   -0.179155
     11          6           0       -1.786113   -0.236154   -0.157055
     12          7           0       -2.881675   -0.589916   -0.384040
     13          1           0        0.315743   -1.248621   -1.364169
 ---------------------------------------------------------------------

 SCF Done:  E(RHF) =  -417.257935536     A.U. after    2 cycles

 The electronic state is 1-A.
 Alpha  occ. eigenvalues --  -26.00908 -15.53984 -15.51492 -15.50350 -11.29226
 Alpha  occ. eigenvalues --  -11.18487 -11.17307 -11.13379  -1.54320  -1.09766
 Alpha  occ. eigenvalues --   -1.06345  -1.05015  -0.91839  -0.81709  -0.69154
 Alpha  occ. eigenvalues --   -0.64097  -0.62179  -0.55125  -0.52999  -0.51403
 Alpha  occ. eigenvalues --   -0.48444  -0.45058  -0.43694  -0.42141  -0.35780
 Alpha  occ. eigenvalues --   -0.35603  -0.33320  -0.32309  -0.30388  -0.12330
 Alpha virt. eigenvalues --    0.13399   0.14433   0.17189   0.18249   0.18726
 Alpha virt. eigenvalues --    0.18842   0.20183   0.20787   0.22676   0.23091
 Alpha virt. eigenvalues --    0.23889   0.24672   0.26072   0.26562   0.26832

 Mulliken charges:
               1
     1  C    0.866287
     2  C    0.748923
     3  F   -0.453083
     4  H   -0.600408
     5  H    0.027166
     6  N   -0.439389
     7  H    0.029197
     8  H    0.150929
     9  C   -0.233924
    10  N   -0.341870
    11  C   -0.434668
    12  N   -0.199338
    13  H   -0.119822
 Sum of Mulliken charges =  -1.00000

 Dipole moment (field-independent basis, Debye):
    X=             -0.1866    Y=              4.3868    Z=             -3.6561  Tot=              5.7137

 Test job not archived.
 1\1\GINC-SE040\SP\RHF\Aug-CC-pVDZ\C4H5F1N3(1-)\OHZDE\09-Apr-2025\0\\#t
  hf aug-cc-pvdz iop(5/13=1,5/36=2,99/5=2) pseudo=read geom=check guess
 =(read,tcheck) scf=(maxcycle=1)\\title\\-1,1\C,0,-0.09885161,0.0954608
 7,-0.38770352\C,0,-0.08891982,0.02422359,1.12385569\F,0,1.20100648,0.1
 8256486,-0.91369529\H,0,-2.59662218,0.38528956,1.18003374\H,0,-1.31773
 19,0.11558936,1.33322744\N,0,-0.85960076,1.19637301,-0.91118412\H,0,-0
 .41469918,2.04250885,-0.56283242\H,0,-1.76845304,1.12962952,-0.4236536
 9\C,0,0.56348917,1.16736487,1.70306752\N,0,1.03940481,2.13095071,2.186

 Normal termination of Gaussian 16 at Wed Apr  9 03:00:02 2025.
