 Gaussian 16, Revision C.01,

 ----------------------------------------------------------------------
 #t hf aug-cc-pvdz symm=none int=(grid=ultrafine) guess=(read,tcheck) s
 table=(opt,rrhf)
 ----------------------------------------------------------------------
 -----
 title
 -----
 Symbolic Z-matrix:
 Charge = -1 Multiplicity = 1

 SCF Done:  E(RHF) =  -779.540294891     A.U. after   17 cycles
 Normal termination of Gaussian 16 at Wed Apr  9 02:29:12 2025.
 Gaussian 16:  ES64L-G16RevC.01  3-Jul-2019

 ----------------------------------------------------------------------
 #t hf aug-cc-pvdz iop(5/13=1,5/36=2,99/5=2) pseudo=read geom=check gue
 ss=(read,tcheck) scf=(maxcycle=1)
 ----------------------------------------------------------------------
 -----
 title
 -----
 Structure from the checkpoint file:  "E2SN2_114_mol2.chk"
 Charge = -1 Multiplicity = 1

                         Standard orientation:
 ---------------------------------------------------------------------
 Center     Atomic      Atomic             Coordinates (Angstroms)
 Number     Number       Type             X           Y           Z
 ---------------------------------------------------------------------
      1          6           0       -0.577066    0.383743    0.252916
      2          6           0        0.790114    0.392041   -0.455504
      3         17           0       -1.459795   -1.195016   -0.561628
      4          1           0        0.567733    0.397211   -1.535541
      5          6           0       -0.534248    0.026090    1.721725
      6          1           0       -0.133006   -0.974233    1.884685
      7          1           0       -1.540792    0.073315    2.145055
      8          1           0        0.101016    0.768983    2.210072
      9          7           0       -1.217959    1.555537   -0.023157
     10          1           0       -0.967631    2.030969   -0.925859
     11          1           0       -2.170892    1.634488    0.295981
     12          6           0        1.566009   -0.807790   -0.135131
     13          7           0        2.248740   -1.731428    0.111281
     14          7           0        1.529679    1.590599   -0.049796
     15          1           0        2.488383    1.476459   -0.370645
     16          1           0        1.116919    2.322267   -0.656998
     17          1           0       -0.037290    2.718357   -2.071396
 ---------------------------------------------------------------------

 SCF Done:  E(RHF) =  -779.651692662     A.U. after    2 cycles

 The electronic state is 1-A.
 Alpha  occ. eigenvalues -- -103.49042 -15.52800 -15.48786 -15.48479 -11.23569
 Alpha  occ. eigenvalues --  -11.19069 -11.17982 -11.12637 -10.52396  -8.18065
 Alpha  occ. eigenvalues --   -8.17862  -8.17852  -1.10834  -1.06550  -1.02343
 Alpha  occ. eigenvalues --   -0.96606  -0.88145  -0.83364  -0.68948  -0.60676
 Alpha  occ. eigenvalues --   -0.55154  -0.53065  -0.51973  -0.47953  -0.46854
 Alpha  occ. eigenvalues --   -0.44073  -0.42577  -0.42216  -0.38979  -0.34733
 Alpha  occ. eigenvalues --   -0.33890  -0.31280  -0.30762  -0.28182  -0.25286
 Alpha  occ. eigenvalues --   -0.11468
 Alpha virt. eigenvalues --    0.12095   0.13649   0.14219   0.14845   0.15779
 Alpha virt. eigenvalues --    0.16911   0.18964   0.19614   0.20002   0.20744
 Alpha virt. eigenvalues --    0.21428   0.22995   0.24104   0.24818   0.25154

 Mulliken charges:
               1
     1  C   -0.244368
     2  C    0.994160
     3  Cl  -0.367832
     4  H   -0.006034
     5  C    0.772326
     6  H   -0.065371
     7  H   -0.050667
     8  H    0.084104
     9  N   -0.269970
    10  H   -0.011556
    11  H   -0.087179
    12  C   -0.474661
    13  N   -0.284608
    14  N   -0.480631
    15  H   -0.023663
    16  H    0.184937
    17  H   -0.668987
 Sum of Mulliken charges =  -1.00000

 Dipole moment (field-independent basis, Debye):
    X=             -1.0924    Y=             -3.8495    Z=              6.4076  Tot=              7.5544

 Test job not archived.
 1\1\GINC-SE149\SP\RHF\Aug-CC-pVDZ\C4H9Cl1N3(1-)\OHZDE\09-Apr-2025\0\\#
 t hf aug-cc-pvdz iop(5/13=1,5/36=2,99/5=2) pseudo=read geom=check gues
 s=(read,tcheck) scf=(maxcycle=1)\\title\\-1,1\C,0,-0.316894,0.002992,-
 1.498137\C,0,0.004225,-0.10402,0.004041\Cl,0,-0.008127,-1.853788,-2.12
 44\H,0,1.019404,-0.530424,0.063624\C,0,-1.775523,0.23153,-1.825736\H,0
 ,-2.404951,-0.582645,-1.466378\H,0,-1.903515,0.322407,-2.907368\H,0,-2
 .064796,1.169222,-1.345124\N,0,0.535464,0.905683,-2.062668\H,0,1.46877
 5,1.031098,-1.597079\H,0,0.500455,0.99249,-3.066363\C,0,-0.929529,-1.0

 Normal termination of Gaussian 16 at Wed Apr  9 02:29:20 2025.
