 Gaussian 16, Revision C.01,

 ----------------------------------------------------------------------
 #t hf aug-cc-pvdz symm=none int=(grid=ultrafine) guess=(read,tcheck) s
 table=(opt,rrhf)
 ----------------------------------------------------------------------
 -----
 title
 -----
 Symbolic Z-matrix:
 Charge = -1 Multiplicity = 1

 SCF Done:  E(RHF) =  -1222.59903164     A.U. after   15 cycles
 Normal termination of Gaussian 16 at Wed Apr  9 03:00:58 2025.
 Gaussian 16:  ES64L-G16RevC.01  3-Jul-2019

 ----------------------------------------------------------------------
 #t hf aug-cc-pvdz iop(5/13=1,5/36=2,99/5=2) pseudo=read geom=check gue
 ss=(read,tcheck) scf=(maxcycle=1)
 ----------------------------------------------------------------------
 -----
 title
 -----
 Structure from the checkpoint file:  "E2SN2_8_mol2.chk"
 Charge = -1 Multiplicity = 1

                         Standard orientation:
 ---------------------------------------------------------------------
 Center     Atomic      Atomic             Coordinates (Angstroms)
 Number     Number       Type             X           Y           Z
 ---------------------------------------------------------------------
      1          6           0       -1.118103    0.053022    0.381978
      2          6           0        0.324053   -0.003097   -0.168997
      3         17           0       -2.157746   -1.146867   -0.498178
      4          1           0        0.897530    0.718311    0.432470
      5          6           0       -1.160346   -0.287721    1.864089
      6          1           0       -0.579206    0.457733    2.413859
      7          1           0       -2.187024   -0.294879    2.234720
      8          1           0       -0.691324   -1.261693    1.991264
      9          6           0       -1.718575    1.368302    0.149642
     10          7           0       -2.184084    2.436577   -0.003410
     11          6           0        0.440093    0.419746   -1.627714
     12          1           0       -0.059140   -0.302384   -2.281211
     13          1           0        1.504806    0.450056   -1.864928
     14          1           0        0.012734    1.410027   -1.811548
     15          7           0        0.887921   -1.310331    0.121542
     16          1           0        0.758084   -1.911737   -0.685036
     17          1           0        1.893570   -1.152634    0.228179
     18         17           0        3.741298    0.246982    0.199432
 ---------------------------------------------------------------------

 SCF Done:  E(RHF) =  -1222.71912448     A.U. after    2 cycles

 The electronic state is 1-A.
 Alpha  occ. eigenvalues -- -103.56557-103.37268 -15.55669 -15.47612 -11.25018
 Alpha  occ. eigenvalues --  -11.20640 -11.16710 -11.15040 -11.11139 -10.59884
 Alpha  occ. eigenvalues --  -10.40330  -8.25597  -8.25319  -8.25314  -8.05927
 Alpha  occ. eigenvalues --   -8.05899  -8.05895  -1.11996  -1.07879  -1.03311
 Alpha  occ. eigenvalues --   -0.94080  -0.87412  -0.82440  -0.79682  -0.71392
 Alpha  occ. eigenvalues --   -0.60419  -0.54700  -0.52761  -0.50417  -0.48120
 Alpha  occ. eigenvalues --   -0.47278  -0.45419  -0.43900  -0.43208  -0.40764
 Alpha  occ. eigenvalues --   -0.38665  -0.37378  -0.36562  -0.35528  -0.35130
 Alpha  occ. eigenvalues --   -0.27540  -0.20544  -0.20340  -0.20273
 Alpha virt. eigenvalues --    0.11496   0.12872   0.13811   0.14400   0.15329
 Alpha virt. eigenvalues --    0.16206   0.16363   0.17793   0.18444   0.19303
 Alpha virt. eigenvalues --    0.19744   0.20798   0.21423   0.23501   0.24083

 Mulliken charges:
               1
     1  C   -0.673860
     2  C    0.171630
     3  Cl  -0.220936
     4  H   -0.173191
     5  C    0.961428
     6  H    0.037799
     7  H   -0.039278
     8  H    0.066785
     9  C   -0.313296
    10  N   -0.262802
    11  C    0.737646
    12  H   -0.037703
    13  H    0.033143
    14  H   -0.097381
    15  N   -0.416150
    16  H    0.053960
    17  H    0.122825
    18  Cl  -0.950617
 Sum of Mulliken charges =  -1.00000

 Dipole moment (field-independent basis, Debye):
    X=            -10.8294    Y=             -2.7781    Z=             -0.3215  Tot=             11.1847

 Test job not archived.
 1\1\GINC-SE113\SP\RHF\Aug-CC-pVDZ\C5H9Cl2N2(1-)\OHZDE\09-Apr-2025\0\\#
 t hf aug-cc-pvdz iop(5/13=1,5/36=2,99/5=2) pseudo=read geom=check gues
 s=(read,tcheck) scf=(maxcycle=1)\\title\\-1,1\C,0,-0.469603,0.022613,-
 1.579357\C,0,0.141056,-0.054784,-0.162444\Cl,0,-2.25319,0.339243,-1.46
 1761\H,0,1.219802,-0.210399,-0.314623\C,0,0.153945,1.14713,-2.392494\H
 ,0,1.221201,0.943341,-2.515403\H,0,-0.316834,1.227674,-3.374007\H,0,0.
 035821,2.068276,-1.824768\C,0,-0.322228,-1.25186,-2.285407\N,0,-0.1681
 25,-2.26339,-2.863674\C,0,-0.379208,-1.221874,0.666618\H,0,-1.438584,-

 Normal termination of Gaussian 16 at Wed Apr  9 03:01:08 2025.
