 Gaussian 16, Revision C.01,

 ----------------------------------------------------------------------
 #t hf aug-cc-pvdz symm=none int=(grid=ultrafine) guess=(read,tcheck) s
 table=(opt,rrhf)
 ----------------------------------------------------------------------
 -----
 title
 -----
 Symbolic Z-matrix:
 Charge = -1 Multiplicity = 1

 SCF Done:  E(RHF) =  -453.819632967     A.U. after   16 cycles
 Normal termination of Gaussian 16 at Wed Apr  9 02:58:23 2025.
 Gaussian 16:  ES64L-G16RevC.01  3-Jul-2019

 ----------------------------------------------------------------------
 #t hf aug-cc-pvdz iop(5/13=1,5/36=2,99/5=2) pseudo=read geom=check gue
 ss=(read,tcheck) scf=(maxcycle=1)
 ----------------------------------------------------------------------
 -----
 title
 -----
 Structure from the checkpoint file:  "E2SN2_62_mol2.chk"
 Charge = -1 Multiplicity = 1

                         Standard orientation:
 ---------------------------------------------------------------------
 Center     Atomic      Atomic             Coordinates (Angstroms)
 Number     Number       Type             X           Y           Z
 ---------------------------------------------------------------------
      1          6           0        0.470904   -0.885502    0.156036
      2          6           0       -0.529208    0.206839    0.508516
      3          9           0        0.275673   -1.412759   -1.113687
      4          1           0       -0.393423    0.198533    1.600924
      5          1           0        0.328921   -1.670837    0.907254
      6          6           0        1.852756   -0.392000    0.240845
      7          7           0        2.973094   -0.042479    0.254378
      8          6           0       -1.884286   -0.235993    0.225875
      9          7           0       -2.988550   -0.603604    0.060849
     10          6           0       -0.255412    1.493963   -0.100340
     11          7           0       -0.027260    2.563257   -0.536122
     12          1           0       -0.046072   -0.356918    2.875674
 ---------------------------------------------------------------------

 SCF Done:  E(RHF) =  -453.957117855     A.U. after    2 cycles

 The electronic state is 1-A.
 Alpha  occ. eigenvalues --  -26.04352 -15.56118 -15.55013 -15.54914 -11.29216
 Alpha  occ. eigenvalues --  -11.20664 -11.20566 -11.20334 -11.20306  -1.57739
 Alpha  occ. eigenvalues --   -1.10789  -1.09119  -1.07946  -1.01656  -0.88577
 Alpha  occ. eigenvalues --   -0.72574  -0.69348  -0.67257  -0.65087  -0.58359
 Alpha  occ. eigenvalues --   -0.52671  -0.51457  -0.46090  -0.45796  -0.44878
 Alpha  occ. eigenvalues --   -0.38043  -0.37425  -0.37051  -0.36927  -0.35400
 Alpha  occ. eigenvalues --   -0.34531  -0.12631
 Alpha virt. eigenvalues --    0.14177   0.15521   0.17123   0.17800   0.18907
 Alpha virt. eigenvalues --    0.19369   0.20548   0.21702   0.21916   0.23009
 Alpha virt. eigenvalues --    0.23631   0.24193   0.24835   0.25258   0.25516

 Mulliken charges:
               1
     1  C    1.134281
     2  C    0.981781
     3  F   -0.445675
     4  H   -0.179682
     5  H   -0.049972
     6  C   -0.321509
     7  N   -0.215641
     8  C   -0.340196
     9  N   -0.250523
    10  C   -0.535132
    11  N   -0.235220
    12  H   -0.542510
 Sum of Mulliken charges =  -1.00000

 Dipole moment (field-independent basis, Debye):
    X=              0.3867    Y=             -1.3875    Z=             -6.2733  Tot=              6.4366

 Test job not archived.
 1\1\GINC-SE092\SP\RHF\Aug-CC-pVDZ\C5H3F1N3(1-)\OHZDE\09-Apr-2025\0\\#t
  hf aug-cc-pvdz iop(5/13=1,5/36=2,99/5=2) pseudo=read geom=check guess
 =(read,tcheck) scf=(maxcycle=1)\\title\\-1,1\C,0,-0.185197,-0.077749,-
 1.461846\C,0,-0.006898,0.032879,0.046016\F,0,-1.459584,-0.488204,-1.83
 0323\H,0,1.093495,0.022739,0.075926\H,0,0.551171,-0.818606,-1.793706\C
 ,0,0.09569,1.201861,-2.128143\N,0,0.269786,2.206656,-2.709162\C,0,-0.4
 80325,-1.174251,0.702466\N,0,-0.80144,-2.168594,1.240923\C,0,-0.592373
 ,1.22064,0.636609\N,0,-1.009427,2.201786,1.135375\H,0,2.416154,-0.2669

 Normal termination of Gaussian 16 at Wed Apr  9 02:58:30 2025.
