 Gaussian 16, Revision C.01,

 ----------------------------------------------------------------------
 #t hf aug-cc-pvdz symm=none int=(grid=ultrafine) guess=(read,tcheck) s
 table=(opt,rrhf)
 ----------------------------------------------------------------------
 -----
 title
 -----
 Symbolic Z-matrix:
 Charge = -1 Multiplicity = 1

 SCF Done:  E(RHF) =  -967.848821953     A.U. after   17 cycles
 Normal termination of Gaussian 16 at Wed Apr  9 02:49:54 2025.
 Gaussian 16:  ES64L-G16RevC.01  3-Jul-2019

 ----------------------------------------------------------------------
 #t hf aug-cc-pvdz iop(5/13=1,5/36=2,99/5=2) pseudo=read geom=check gue
 ss=(read,tcheck) scf=(maxcycle=1)
 ----------------------------------------------------------------------
 -----
 title
 -----
 Structure from the checkpoint file:  "E2SN2_309_mol1.chk"
 Charge = -1 Multiplicity = 1

                         Standard orientation:
 ---------------------------------------------------------------------
 Center     Atomic      Atomic             Coordinates (Angstroms)
 Number     Number       Type             X           Y           Z
 ---------------------------------------------------------------------
      1          6           0       -0.421410   -0.304102    0.333702
      2          1           0        0.447798   -0.510668   -1.638885
      3          9           0        0.870587    0.336930    1.634850
      4         17           0       -1.940496   -0.788609   -1.147054
      5          6           0        0.731911   -0.091679   -0.669341
      6          6           0       -1.171797    0.839427    0.824111
      7          7           0       -1.849507    1.710278    1.232102
      8          7           0       -0.444511   -1.567102    0.992511
      9          1           0       -1.398745   -1.874537    1.117894
     10          1           0        0.021344   -1.408681    1.878686
     11          6           0        1.947190   -0.797970   -0.245431
     12          7           0        2.938628   -1.403312   -0.076927
     13          6           0        1.026066    1.328356   -0.871547
     14          7           0        1.271244    2.449232   -1.119168
 ---------------------------------------------------------------------

 SCF Done:  E(RHF) =  -968.007779755     A.U. after    2 cycles

 The electronic state is 1-A.
 Alpha  occ. eigenvalues -- -103.48909 -25.85011 -15.54844 -15.53801 -15.52974
 Alpha  occ. eigenvalues --  -15.52846 -11.33279 -11.24431 -11.20182 -11.19914
 Alpha  occ. eigenvalues --  -11.19045 -10.52230  -8.17878  -8.17713  -8.17699
 Alpha  occ. eigenvalues --   -1.35485  -1.12464  -1.08735  -1.07370  -1.05711
 Alpha  occ. eigenvalues --   -0.98850  -0.95107  -0.83166  -0.68744  -0.63519
 Alpha  occ. eigenvalues --   -0.60777  -0.57855  -0.55333  -0.47587  -0.45479
 Alpha  occ. eigenvalues --   -0.44580  -0.44325  -0.43528  -0.43460  -0.37564
 Alpha  occ. eigenvalues --   -0.36419  -0.36395  -0.35443  -0.35120  -0.33928
 Alpha  occ. eigenvalues --   -0.32483  -0.31395  -0.31092  -0.29700
 Alpha virt. eigenvalues --    0.12664   0.13091   0.15909   0.17604   0.17788
 Alpha virt. eigenvalues --    0.18445   0.19100   0.20773   0.21601   0.22445
 Alpha virt. eigenvalues --    0.22917   0.23150   0.23758   0.24653   0.25181

 Mulliken charges:
               1
     1  C    0.954461
     2  H    0.076456
     3  F   -0.779761
     4  Cl  -0.471346
     5  C    1.063631
     6  C   -0.363900
     7  N   -0.273930
     8  N   -0.504697
     9  H    0.051738
    10  H    0.149717
    11  C   -0.117280
    12  N   -0.309519
    13  C   -0.234904
    14  N   -0.240665
 Sum of Mulliken charges =  -1.00000

 Dipole moment (field-independent basis, Debye):
    X=             -1.5144    Y=             -3.5079    Z=             -1.3919  Tot=              4.0665

 Test job not archived.
 1\1\GINC-SE132\SP\RHF\Aug-CC-pVDZ\C5H3Cl1F1N4(1-)\OHZDE\09-Apr-2025\0\
 \#t hf aug-cc-pvdz iop(5/13=1,5/36=2,99/5=2) pseudo=read geom=check gu
 ess=(read,tcheck) scf=(maxcycle=1)\\title\\-1,1\C,0,0.81187476,-0.0741
 4984,0.0089742\H,0,1.65099778,1.91464968,0.1817213\F,0,-1.12992623,-0.
 05124243,0.05426183\Cl,0,2.9675464,-0.1029335,-0.28641861\C,0,0.665364
 12,1.46170267,0.0415296\C,0,0.5676705,-0.7968403,-1.22768449\N,0,0.427
 40841,-1.44453497,-2.19976807\N,0,0.82468514,-0.72211186,1.27771896\H,
 0,1.46750458,-1.50142434,1.26174784\H,0,-0.13144039,-1.02350434,1.4274

 Normal termination of Gaussian 16 at Wed Apr  9 02:50:02 2025.
