 Gaussian 16, Revision C.01,

 ----------------------------------------------------------------------
 #t hf aug-cc-pvdz symm=none int=(grid=ultrafine) guess=(read,tcheck) s
 table=(opt,rrhf)
 ----------------------------------------------------------------------
 -----
 title
 -----
 Symbolic Z-matrix:
 Charge = -1 Multiplicity = 1

 SCF Done:  E(RHF) =  -528.913805886     A.U. after   17 cycles
 Normal termination of Gaussian 16 at Wed Apr  9 02:32:52 2025.
 Gaussian 16:  ES64L-G16RevC.01  3-Jul-2019

 ----------------------------------------------------------------------
 #t hf aug-cc-pvdz iop(5/13=1,5/36=2,99/5=2) pseudo=read geom=check gue
 ss=(read,tcheck) scf=(maxcycle=1)
 ----------------------------------------------------------------------
 -----
 title
 -----
 Structure from the checkpoint file:  "E2SN2_135_mol2.chk"
 Charge = -1 Multiplicity = 1

                         Standard orientation:
 ---------------------------------------------------------------------
 Center     Atomic      Atomic             Coordinates (Angstroms)
 Number     Number       Type             X           Y           Z
 ---------------------------------------------------------------------
      1          6           0       -0.424925    0.549673    0.176397
      2          6           0        0.815169    0.853101   -0.671116
      3          9           0       -0.057670    0.594406    1.486644
      4          1           0        0.972757    1.928354   -0.545576
      5          1           0        0.562854    0.691183   -1.720615
      6          7           0       -1.531355    1.375611   -0.050221
      7          1           0       -1.933424    1.131878   -0.949301
      8          1           0       -1.134091    2.375584   -0.159652
      9          7           0       -0.836613   -0.913696   -0.095751
     10          8           0       -1.213391   -1.148658   -1.243608
     11          8           0       -0.764414   -1.730520    0.812822
     12          6           0        1.982459    0.059905   -0.309856
     13          7           0        2.929060   -0.578025   -0.032575
     14          1           0       -0.290488    3.593468   -0.481089
 ---------------------------------------------------------------------

 SCF Done:  E(RHF) =  -529.078532470     A.U. after    2 cycles

 The electronic state is 1-A.
 Alpha  occ. eigenvalues --  -26.02828 -20.52876 -20.52104 -15.80918 -15.54311
 Alpha  occ. eigenvalues --  -15.49341 -11.32819 -11.19605 -11.17943  -1.57498
 Alpha  occ. eigenvalues --   -1.44446  -1.26574  -1.09861  -1.07867  -0.95181
 Alpha  occ. eigenvalues --   -0.88627  -0.76144  -0.71090  -0.67165  -0.65752
 Alpha  occ. eigenvalues --   -0.62660  -0.61597  -0.59808  -0.53853  -0.52323
 Alpha  occ. eigenvalues --   -0.49471  -0.49187  -0.44896  -0.42172  -0.40109
 Alpha  occ. eigenvalues --   -0.37782  -0.36185  -0.35097  -0.30467  -0.11776
 Alpha virt. eigenvalues --    0.13425   0.14762   0.16046   0.17434   0.18571
 Alpha virt. eigenvalues --    0.18919   0.19835   0.21157   0.22021   0.23150
 Alpha virt. eigenvalues --    0.23540   0.24649   0.25022   0.26087   0.26386

 Mulliken charges:
               1
     1  C    1.216658
     2  C    0.415525
     3  F   -0.316554
     4  H    0.016242
     5  H    0.054336
     6  N   -0.551367
     7  H    0.077992
     8  H    0.074679
     9  N    0.280101
    10  O   -0.612597
    11  O   -0.557541
    12  C   -0.163851
    13  N   -0.269821
    14  H   -0.663802
 Sum of Mulliken charges =  -1.00000

 Dipole moment (field-independent basis, Debye):
    X=             -0.6257    Y=             -7.2684    Z=             -1.2051  Tot=              7.3941

 Test job not archived.
 1\1\GINC-SE292\SP\RHF\Aug-CC-pVDZ\C3H5F1N3O2(1-)\OHZDE\09-Apr-2025\0\\
 #t hf aug-cc-pvdz iop(5/13=1,5/36=2,99/5=2) pseudo=read geom=check gue
 ss=(read,tcheck) scf=(maxcycle=1)\\title\\-1,1\C,0,-0.185929,0.014104,
 -1.45975\C,0,0.003676,0.058245,0.060211\F,0,-0.099157,1.288985,-1.9296
 13\H,0,1.072798,0.247148,0.194584\H,0,-0.193982,-0.937642,0.460798\N,0
 ,0.690828,-0.824911,-2.156218\H,0,0.427559,-1.787056,-1.970812\H,0,1.6
 59608,-0.684318,-1.696392\N,0,-1.634425,-0.441012,-1.742111\O,0,-1.902
 465,-1.589331,-1.389603\O,0,-2.409094,0.339786,-2.278918\C,0,-0.83744,

 Normal termination of Gaussian 16 at Wed Apr  9 02:32:58 2025.
