 Gaussian 16, Revision C.01,

 ----------------------------------------------------------------------
 #t hf aug-cc-pvdz symm=none int=(grid=ultrafine) guess=(read,tcheck) s
 table=(opt,rrhf)
 ----------------------------------------------------------------------
 -----
 title
 -----
 Symbolic Z-matrix:
 Charge = -1 Multiplicity = 1

 SCF Done:  E(RHF) =  -839.454646559     A.U. after   15 cycles
 Normal termination of Gaussian 16 at Wed Apr  9 03:00:42 2025.
 Gaussian 16:  ES64L-G16RevC.01  3-Jul-2019

 ----------------------------------------------------------------------
 #t hf aug-cc-pvdz iop(5/13=1,5/36=2,99/5=2) pseudo=read geom=check gue
 ss=(read,tcheck) scf=(maxcycle=1)
 ----------------------------------------------------------------------
 -----
 title
 -----
 Structure from the checkpoint file:  "E2SN2_9_mol2.chk"
 Charge = -1 Multiplicity = 1

                         Standard orientation:
 ---------------------------------------------------------------------
 Center     Atomic      Atomic             Coordinates (Angstroms)
 Number     Number       Type             X           Y           Z
 ---------------------------------------------------------------------
      1          6           0        0.280952   -0.378542    0.000508
      2          6           0       -0.609262    0.623650   -0.752730
      3         17           0        0.575675    0.170151    1.703076
      4          1           0       -0.698935    0.171485   -1.753282
      5          1           0       -0.374268   -1.297449    0.041006
      6          6           0        1.564545   -0.596914   -0.640577
      7          7           0        2.589195   -0.811333   -1.176030
      8          7           0        0.049238    1.915918   -0.881544
      9          1           0        0.246279    2.260114    0.053267
     10          1           0       -0.642217    2.544695   -1.277263
     11          7           0       -1.956026    0.686786   -0.218569
     12          1           0       -1.887387    0.985238    0.751375
     13          1           0       -2.239106   -0.315505   -0.199726
     14          9           0       -1.820568   -1.963322   -0.253097
 ---------------------------------------------------------------------

 SCF Done:  E(RHF) =  -839.583787258     A.U. after    2 cycles

 The electronic state is 1-A.
 Alpha  occ. eigenvalues -- -103.53887 -25.76915 -15.51943 -15.49139 -15.45419
 Alpha  occ. eigenvalues --  -11.18620 -11.17670 -11.17397 -10.57191  -8.22907
 Alpha  occ. eigenvalues --   -8.22644  -8.22624  -1.26062  -1.09507  -1.05506
 Alpha  occ. eigenvalues --   -1.02823  -0.96248  -0.86092  -0.69952  -0.58641
 Alpha  occ. eigenvalues --   -0.56944  -0.51864  -0.47768  -0.46843  -0.44104
 Alpha  occ. eigenvalues --   -0.42924  -0.39374  -0.37323  -0.35926  -0.35163
 Alpha  occ. eigenvalues --   -0.34933  -0.34154  -0.32714  -0.29722  -0.28572
 Alpha  occ. eigenvalues --   -0.25213
 Alpha virt. eigenvalues --    0.12304   0.14217   0.15302   0.16074   0.17763
 Alpha virt. eigenvalues --    0.19062   0.19317   0.20170   0.22903   0.23442
 Alpha virt. eigenvalues --    0.24769   0.25399   0.26131   0.27374   0.27707

 Mulliken charges:
               1
     1  C    0.718686
     2  C    0.721392
     3  Cl  -0.231778
     4  H   -0.154509
     5  H    0.109760
     6  C   -0.386489
     7  N   -0.221533
     8  N   -0.348441
     9  H    0.028194
    10  H   -0.022016
    11  N   -0.466514
    12  H    0.019234
    13  H    0.167735
    14  F   -0.933721
 Sum of Mulliken charges =  -1.00000

 Dipole moment (field-independent basis, Debye):
    X=              1.7127    Y=              5.8496    Z=              2.2667  Tot=              6.5030

 Test job not archived.
 1\1\GINC-SE051\SP\RHF\Aug-CC-pVDZ\C3H6Cl1F1N3(1-)\OHZDE\09-Apr-2025\0\
 \#t hf aug-cc-pvdz iop(5/13=1,5/36=2,99/5=2) pseudo=read geom=check gu
 ess=(read,tcheck) scf=(maxcycle=1)\\title\\-1,1\C,0,-0.126928,0.044412
 ,-1.3689\C,0,0.11592,-0.294477,0.111106\Cl,0,-1.791947,0.718592,-1.613
 556\H,0,1.144397,-0.689227,0.108934\H,0,0.614141,0.877421,-1.5485\C,0,
 0.041447,-1.095524,-2.251217\N,0,0.21715,-2.003783,-2.977019\N,0,-0.78
 624,-1.34413,0.56333\H,0,-1.737971,-1.014611,0.433737\H,0,-0.645345,-1
 .422406,1.565371\N,0,0.139539,0.882696,0.957742\H,0,-0.767383,1.336171

 Normal termination of Gaussian 16 at Wed Apr  9 03:00:48 2025.
