 Gaussian 16, Revision C.01,

 ----------------------------------------------------------------------
 #t hf aug-cc-pvdz symm=none int=(grid=ultrafine) guess=(read,tcheck) s
 table=(opt,rrhf)
 ----------------------------------------------------------------------
 -----
 title
 -----
 Symbolic Z-matrix:
 Charge = -1 Multiplicity = 1

 SCF Done:  E(RHF) =  -974.243372345     A.U. after   16 cycles
 Normal termination of Gaussian 16 at Wed Apr  9 03:00:24 2025.
 Gaussian 16:  ES64L-G16RevC.01  3-Jul-2019

 ----------------------------------------------------------------------
 #t hf aug-cc-pvdz iop(5/13=1,5/36=2,99/5=2) pseudo=read geom=check gue
 ss=(read,tcheck) scf=(maxcycle=1)
 ----------------------------------------------------------------------
 -----
 title
 -----
 Structure from the checkpoint file:  "E2SN2_78_mol2.chk"
 Charge = -1 Multiplicity = 1

                         Standard orientation:
 ---------------------------------------------------------------------
 Center     Atomic      Atomic             Coordinates (Angstroms)
 Number     Number       Type             X           Y           Z
 ---------------------------------------------------------------------
      1          6           0       -0.211043    0.045845   -0.362238
      2          6           0        0.692960   -0.447756    0.794832
      3         17           0       -1.213265   -1.302776   -1.003531
      4          1           0        1.197233    0.476196    1.122744
      5          7           0       -1.157197    1.084801    0.229801
      6          8           0       -2.348594    0.837591    0.395774
      7          8           0       -0.606141    2.132849    0.560379
      8          6           0        0.575483    0.689731   -1.486021
      9          1           0       -0.070022    1.343228   -2.079255
     10          1           0        1.466876    1.184476   -1.064565
     11          1           0        0.958085   -0.102729   -2.129495
     12          7           0        1.768102   -1.303136    0.349060
     13          1           0        2.475876   -0.628462   -0.025138
     14          1           0        1.445173   -1.953253   -0.358458
     15          6           0       -0.102722   -1.069286    1.936056
     16          1           0       -0.895448   -0.416611    2.314310
     17          1           0       -0.554332   -2.014811    1.626288
     18          1           0        0.597519   -1.279123    2.746385
     19          9           0        3.070892    0.887990   -0.232200
 ---------------------------------------------------------------------

 SCF Done:  E(RHF) =  -974.416141614     A.U. after    2 cycles

 The electronic state is 1-A.
 Alpha  occ. eigenvalues -- -103.54743 -25.74896 -20.50760 -20.50459 -15.79766
 Alpha  occ. eigenvalues --  -15.44540 -11.24833 -11.14580 -11.10545 -11.10149
 Alpha  occ. eigenvalues --  -10.58116  -8.23834  -8.23556  -8.23550  -1.43000
 Alpha  occ. eigenvalues --   -1.24746  -1.23872  -1.09083  -1.00845  -0.93408
 Alpha  occ. eigenvalues --   -0.86119  -0.82013  -0.72970  -0.67812  -0.62490
 Alpha  occ. eigenvalues --   -0.60799  -0.60126  -0.52902  -0.50624  -0.47058
 Alpha  occ. eigenvalues --   -0.46495  -0.44817  -0.42274  -0.41076  -0.39943
 Alpha  occ. eigenvalues --   -0.38996  -0.37679  -0.37178  -0.35436  -0.35036
 Alpha  occ. eigenvalues --   -0.34505  -0.33349  -0.32245  -0.31287  -0.24145
 Alpha virt. eigenvalues --    0.12743   0.13201   0.14196   0.15034   0.15630
 Alpha virt. eigenvalues --    0.16854   0.17927   0.18363   0.19510   0.19762
 Alpha virt. eigenvalues --    0.20161   0.21704   0.23068   0.25043   0.25549

 Mulliken charges:
               1
     1  C   -0.346659
     2  C    0.247429
     3  Cl  -0.228144
     4  H   -0.028732
     5  N    0.296052
     6  O   -0.642496
     7  O   -0.585311
     8  C    0.993451
     9  H   -0.026032
    10  H    0.066854
    11  H   -0.044390
    12  N   -0.515970
    13  H    0.185028
    14  H    0.015809
    15  C    0.703720
    16  H   -0.026956
    17  H   -0.050734
    18  H   -0.054230
    19  F   -0.958690
 Sum of Mulliken charges =  -1.00000

 Dipole moment (field-independent basis, Debye):
    X=             -7.1735    Y=             -3.3134    Z=             -1.0263  Tot=              7.9681

 Test job not archived.
 1\1\GINC-SE073\SP\RHF\Aug-CC-pVDZ\C4H9Cl1F1N2O2(1-)\OHZDE\09-Apr-2025\
 0\\#t hf aug-cc-pvdz iop(5/13=1,5/36=2,99/5=2) pseudo=read geom=check
 guess=(read,tcheck) scf=(maxcycle=1)\\title\\-1,1\C,0,-0.222855,0.0123
 76,-1.502618\C,0,0.043885,0.141064,0.017896\Cl,0,-1.953901,-0.36382,-1
 .813171\H,0,1.108632,0.424486,0.056524\N,0,0.072477,1.375433,-2.119061
 \O,0,-0.833274,2.099553,-2.523231\O,0,1.263723,1.679183,-2.114787\C,0,
 0.661999,-1.023002,-2.16679\H,0,0.729729,-0.835384,-3.241906\H,0,1.633
 035,-1.055684,-1.644295\H,0,0.212749,-2.003817,-2.009909\N,0,-0.015013

 Normal termination of Gaussian 16 at Wed Apr  9 03:00:36 2025.
