 Gaussian 16, Revision C.01,

 ----------------------------------------------------------------------
 #t hf aug-cc-pvdz symm=none int=(grid=ultrafine) guess=(read,tcheck) s
 table=(opt,rrhf)
 ----------------------------------------------------------------------
 -----
 title
 -----
 Symbolic Z-matrix:
 Charge = -1 Multiplicity = 1

 SCF Done:  E(RHF) =  -1292.94658986     A.U. after   16 cycles
 Normal termination of Gaussian 16 at Wed Apr  9 02:36:15 2025.
 Gaussian 16:  ES64L-G16RevC.01  3-Jul-2019

 ----------------------------------------------------------------------
 #t hf aug-cc-pvdz iop(5/13=1,5/36=2,99/5=2) pseudo=read geom=check gue
 ss=(read,tcheck) scf=(maxcycle=1)
 ----------------------------------------------------------------------
 -----
 title
 -----
 Structure from the checkpoint file:  "E2SN2_174_mol1.chk"
 Charge = -1 Multiplicity = 1

                         Standard orientation:
 ---------------------------------------------------------------------
 Center     Atomic      Atomic             Coordinates (Angstroms)
 Number     Number       Type             X           Y           Z
 ---------------------------------------------------------------------
      1          6           0       -0.577786    0.072185   -0.172394
      2          1           0        0.379228   -1.012352    1.425918
      3         17           0       -0.139598    2.335484   -0.446779
      4         17           0       -0.995706   -2.202855   -0.394402
      5          6           0        0.523672   -0.110298    0.835756
      6          1           0       -0.395982    0.023788   -1.227590
      7          1           0        0.624675    0.755379    1.484502
      8          6           0       -1.888348    0.326444    0.349831
      9          7           0       -2.944576    0.531327    0.826902
     10          7           0        1.858379   -0.274940    0.185128
     11          8           0        2.808914   -0.324462    0.964224
     12          8           0        1.934887   -0.368814   -1.032490
 ---------------------------------------------------------------------

 SCF Done:  E(RHF) =  -1293.08581327     A.U. after    2 cycles

 The electronic state is 1-A.
 Alpha  occ. eigenvalues -- -103.45693-103.45647 -20.52385 -20.51491 -15.81585
 Alpha  occ. eigenvalues --  -15.54384 -11.28545 -11.22647 -11.20290 -10.48937
 Alpha  occ. eigenvalues --  -10.48888  -8.14574  -8.14524  -8.14436  -8.14426
 Alpha  occ. eigenvalues --   -8.14388  -8.14378  -1.44469  -1.26271  -1.08730
 Alpha  occ. eigenvalues --   -1.03381  -0.93405  -0.92114  -0.86765  -0.75103
 Alpha  occ. eigenvalues --   -0.67527  -0.64747  -0.63915  -0.61719  -0.52709
 Alpha  occ. eigenvalues --   -0.51883  -0.44987  -0.41599  -0.41270  -0.40838
 Alpha  occ. eigenvalues --   -0.37468  -0.35513  -0.31672  -0.28827  -0.28392
 Alpha  occ. eigenvalues --   -0.28300  -0.27582  -0.25124
 Alpha virt. eigenvalues --    0.13799   0.14971   0.15134   0.16240   0.18386
 Alpha virt. eigenvalues --    0.18557   0.20518   0.21726   0.21902   0.22493
 Alpha virt. eigenvalues --    0.24215   0.25444   0.26123   0.26498   0.27037

 Mulliken charges:
               1
     1  C    0.996401
     2  H   -0.034836
     3  Cl  -0.623551
     4  Cl  -0.621105
     5  C    1.265559
     6  H   -0.362264
     7  H   -0.085217
     8  C   -0.541159
     9  N   -0.239838
    10  N    0.458015
    11  O   -0.632295
    12  O   -0.579710
 Sum of Mulliken charges =  -1.00000

 Dipole moment (field-independent basis, Debye):
    X=              2.0111    Y=             -0.4113    Z=              1.9672  Tot=              2.8432

 Test job not archived.
 1\1\GINC-SE115\SP\RHF\Aug-CC-pVDZ\C3H3Cl2N2O2(1-)\OHZDE\09-Apr-2025\0\
 \#t hf aug-cc-pvdz iop(5/13=1,5/36=2,99/5=2) pseudo=read geom=check gu
 ess=(read,tcheck) scf=(maxcycle=1)\\title\\-1,1\C,0,0.53886501,-0.0602
 0021,0.04961533\H,0,1.56400291,1.81752093,0.31410333\Cl,0,-1.77057912,
 -0.14788142,0.27006608\Cl,0,2.77244713,-0.2829096,-0.55143559\C,0,0.57
 30569,1.44359706,0.06699134\H,0,0.36152379,-0.61413664,-0.8506835\H,0,
 -0.16831704,1.8564661,0.74549894\C,0,0.74531603,-0.72007929,1.30535282
 \N,0,0.92094614,-1.21491109,2.35867527\N,0,0.25401624,2.02770918,-1.27

 Normal termination of Gaussian 16 at Wed Apr  9 02:36:22 2025.
