 Gaussian 16, Revision C.01,

 ----------------------------------------------------------------------
 #t hf aug-cc-pvdz symm=none int=(grid=ultrafine) guess=(read,tcheck) s
 table=(opt,rrhf)
 ----------------------------------------------------------------------
 -----
 title
 -----
 Symbolic Z-matrix:
 Charge = -1 Multiplicity = 1

 SCF Done:  E(RHF) =  -500.035835878     A.U. after   15 cycles
 Normal termination of Gaussian 16 at Wed Apr  9 02:45:03 2025.
 Gaussian 16:  ES64L-G16RevC.01  3-Jul-2019

 ----------------------------------------------------------------------
 #t hf aug-cc-pvdz iop(5/13=1,5/36=2,99/5=2) pseudo=read geom=check gue
 ss=(read,tcheck) scf=(maxcycle=1)
 ----------------------------------------------------------------------
 -----
 title
 -----
 Structure from the checkpoint file:  "E2SN2_269_mol1.chk"
 Charge = -1 Multiplicity = 1

                         Standard orientation:
 ---------------------------------------------------------------------
 Center     Atomic      Atomic             Coordinates (Angstroms)
 Number     Number       Type             X           Y           Z
 ---------------------------------------------------------------------
      1          6           0       -0.179967   -0.066995    0.003429
      2          1           0        0.426046   -1.867388    0.938514
      3          9           0       -0.186396    0.003014   -1.780570
      4          9           0       -0.217694    0.065280    1.783886
      5          6           0        0.681230   -1.321557    0.030624
      6          1           0        0.414159   -1.913327   -0.844605
      7          6           0       -1.624670   -0.214579   -0.006413
      8          7           0       -2.787414   -0.380649   -0.013373
      9          6           0        0.388844    1.271311   -0.013977
     10          7           0        0.879104    2.338608   -0.028950
     11          6           0        2.162196   -0.978316    0.011616
     12          1           0        2.402726   -0.415379   -0.891792
     13          1           0        2.417163   -0.374488    0.884344
     14          1           0        2.769082   -1.888954    0.028278
 ---------------------------------------------------------------------

 SCF Done:  E(RHF) =  -500.185606492     A.U. after    2 cycles

 The electronic state is 1-A.
 Alpha  occ. eigenvalues --  -25.85847 -25.85827 -15.51256 -15.50631 -11.29008
 Alpha  occ. eigenvalues --  -11.17518 -11.17204 -11.12808 -11.11400  -1.36574
 Alpha  occ. eigenvalues --   -1.35847  -1.05766  -1.04374  -0.96525  -0.86916
 Alpha  occ. eigenvalues --   -0.74129  -0.67418  -0.55352  -0.53912  -0.50282
 Alpha  occ. eigenvalues --   -0.47652  -0.44996  -0.44370  -0.43932  -0.43358
 Alpha  occ. eigenvalues --   -0.42102  -0.41070  -0.39607  -0.37692  -0.36972
 Alpha  occ. eigenvalues --   -0.33135  -0.32451  -0.32250  -0.31548
 Alpha virt. eigenvalues --    0.11814   0.14356   0.15079   0.15857   0.17081
 Alpha virt. eigenvalues --    0.18099   0.19655   0.22139   0.22589   0.22639
 Alpha virt. eigenvalues --    0.23465   0.24629   0.24981   0.25547   0.26056

 Mulliken charges:
               1
     1  C    2.038546
     2  H    0.036512
     3  F   -0.730529
     4  F   -0.732663
     5  C    0.352495
     6  H    0.039953
     7  C   -1.195436
     8  N   -0.169037
     9  C   -0.920327
    10  N   -0.222877
    11  C    0.581897
    12  H    0.019119
    13  H    0.015351
    14  H   -0.113005
 Sum of Mulliken charges =  -1.00000

 Dipole moment (field-independent basis, Debye):
    X=              3.4630    Y=             -3.7161    Z=              0.0673  Tot=              5.0800

 Test job not archived.
 1\1\GINC-SE059\SP\RHF\Aug-CC-pVDZ\C5H5F2N2(1-)\OHZDE\09-Apr-2025\0\\#t
  hf aug-cc-pvdz iop(5/13=1,5/36=2,99/5=2) pseudo=read geom=check guess
 =(read,tcheck) scf=(maxcycle=1)\\title\\-1,1\C,0,0.5960888,-0.04177383
 ,-0.0070711\H,0,1.42953805,1.85176847,-0.45752887\F,0,-1.15758786,-0.2
 76381,-0.24618033\F,0,2.35156306,0.00408864,0.31720277\C,0,0.48292613,
 1.47459102,-0.0715496\H,0,-0.32068695,1.70714991,-0.76988119\C,0,0.852
 00344,-0.7734664,-1.23515007\N,0,1.05956608,-1.32428751,-2.25157317\C,
 0,0.45684106,-0.78382316,1.23586249\N,0,0.33803417,-1.35417825,2.25580

 Normal termination of Gaussian 16 at Wed Apr  9 02:45:09 2025.
