 Gaussian 16, Revision C.01,

 ----------------------------------------------------------------------
 #t hf aug-cc-pvdz symm=none int=(grid=ultrafine) guess=(read,tcheck) s
 table=(opt,rrhf)
 ----------------------------------------------------------------------
 -----
 title
 -----
 Symbolic Z-matrix:
 Charge = -1 Multiplicity = 1

 SCF Done:  E(RHF) =  -931.164890643     A.U. after   15 cycles
 Normal termination of Gaussian 16 at Wed Apr  9 02:57:32 2025.
 Gaussian 16:  ES64L-G16RevC.01  3-Jul-2019

 ----------------------------------------------------------------------
 #t hf aug-cc-pvdz iop(5/13=1,5/36=2,99/5=2) pseudo=read geom=check gue
 ss=(read,tcheck) scf=(maxcycle=1)
 ----------------------------------------------------------------------
 -----
 title
 -----
 Structure from the checkpoint file:  "E2SN2_417_mol1.chk"
 Charge = -1 Multiplicity = 1

                         Standard orientation:
 ---------------------------------------------------------------------
 Center     Atomic      Atomic             Coordinates (Angstroms)
 Number     Number       Type             X           Y           Z
 ---------------------------------------------------------------------
      1          6           0        0.865547   -0.009793    0.002026
      2          1           0       -0.053615    1.103645   -1.515763
      3         17           0       -0.320404   -1.152998    1.565203
      4          9           0        1.868374    0.966151   -1.328505
      5          6           0       -0.421497    0.499725   -0.680112
      6          7           0        1.428903   -1.204389   -0.545154
      7          1           0        1.612003   -1.876193    0.184606
      8          1           0        2.266085   -0.912631   -1.030657
      9          7           0        1.443442    0.858920    0.978846
     10          1           0        2.273157    1.240454    0.545457
     11          1           0        1.641372    0.353310    1.828878
     12          6           0       -1.225600    1.377306    0.171344
     13          7           0       -1.904991    2.138650    0.751591
     14          6           0       -1.248402   -0.567743   -1.244651
     15          7           0       -1.957039   -1.336031   -1.779006
 ---------------------------------------------------------------------

 SCF Done:  E(RHF) =  -931.315095102     A.U. after    2 cycles

 The electronic state is 1-A.
 Alpha  occ. eigenvalues -- -103.44124 -25.84399 -15.52576 -15.52571 -15.50185
 Alpha  occ. eigenvalues --  -15.50156 -11.31623 -11.21022 -11.18390 -11.18380
 Alpha  occ. eigenvalues --  -10.47507  -8.13140  -8.13022  -8.13003  -1.34943
 Alpha  occ. eigenvalues --   -1.11388  -1.07058  -1.05793  -1.00939  -0.95748
 Alpha  occ. eigenvalues --   -0.90683  -0.72414  -0.65284  -0.59564  -0.57180
 Alpha  occ. eigenvalues --   -0.55441  -0.53298  -0.52713  -0.44306  -0.43045
 Alpha  occ. eigenvalues --   -0.42853  -0.42705  -0.41941  -0.35399  -0.34987
 Alpha  occ. eigenvalues --   -0.34424  -0.33681  -0.31768  -0.28161  -0.28007
 Alpha  occ. eigenvalues --   -0.27335  -0.26830
 Alpha virt. eigenvalues --    0.12269   0.13607   0.14071   0.15686   0.17594
 Alpha virt. eigenvalues --    0.18586   0.19356   0.20550   0.21749   0.23232
 Alpha virt. eigenvalues --    0.24142   0.24161   0.24857   0.25279   0.25917

 Mulliken charges:
               1
     1  C    0.008776
     2  H    0.149995
     3  Cl  -0.606137
     4  F   -0.798592
     5  C    1.304770
     6  N   -0.277735
     7  H    0.066589
     8  H    0.078438
     9  N   -0.277872
    10  H    0.082014
    11  H    0.066029
    12  C   -0.093597
    13  N   -0.301043
    14  C   -0.101584
    15  N   -0.300051
 Sum of Mulliken charges =  -1.00000

 Dipole moment (field-independent basis, Debye):
    X=              4.1260    Y=             -0.2456    Z=              0.2452  Tot=              4.1406

 Test job not archived.
 1\1\GINC-SE365\SP\RHF\Aug-CC-pVDZ\C4H5Cl1F1N4(1-)\OHZDE\09-Apr-2025\0\
 \#t hf aug-cc-pvdz iop(5/13=1,5/36=2,99/5=2) pseudo=read geom=check gu
 ess=(read,tcheck) scf=(maxcycle=1)\\title\\-1,1\C,0,0.57749468,-0.1335
 8004,-0.00129999\H,0,1.69890426,1.63571721,-0.01904412\Cl,0,-1.6932680
 5,-0.13839197,0.02178438\F,0,2.50830487,-0.12294186,-0.01863664\C,0,0.
 62813642,1.40876857,-0.00117213\N,0,0.63524277,-0.75810819,-1.28600474
 \H,0,-0.10930279,-1.43112884,-1.38645545\H,0,1.55387149,-1.17576156,-1
 .34428378\N,0,0.65857625,-0.76362412,1.27904027\H,0,1.5836496,-1.16865

 Normal termination of Gaussian 16 at Wed Apr  9 02:57:39 2025.
