 Gaussian 16, Revision C.01,

 ----------------------------------------------------------------------
 #t hf aug-cc-pvdz symm=none int=(grid=ultrafine) guess=(read,tcheck) s
 table=(opt,rrhf)
 ----------------------------------------------------------------------
 -----
 title
 -----
 Symbolic Z-matrix:
 Charge = -1 Multiplicity = 1

 SCF Done:  E(RHF) =  -836.223019784     A.U. after   17 cycles
 Normal termination of Gaussian 16 at Wed Apr  9 02:54:19 2025.
 Gaussian 16:  ES64L-G16RevC.01  3-Jul-2019

 ----------------------------------------------------------------------
 #t hf aug-cc-pvdz iop(5/13=1,5/36=2,99/5=2) pseudo=read geom=check gue
 ss=(read,tcheck) scf=(maxcycle=1)
 ----------------------------------------------------------------------
 -----
 title
 -----
 Structure from the checkpoint file:  "E2SN2_36_mol1.chk"
 Charge = -1 Multiplicity = 1

                         Standard orientation:
 ---------------------------------------------------------------------
 Center     Atomic      Atomic             Coordinates (Angstroms)
 Number     Number       Type             X           Y           Z
 ---------------------------------------------------------------------
      1          6           0       -0.137110   -0.202951    0.440535
      2          6           0       -0.206099    1.164276    0.992783
      3         17           0       -1.630493   -0.705045   -0.603492
      4          1           0        2.168348    1.761315    1.764048
      5          1           0        0.904979    1.362768    1.456651
      6          1           0       -0.906709    1.157785    1.835580
      7          7           0        1.020879   -0.292964   -0.533358
      8          8           0        1.974414   -1.001904   -0.212708
      9          8           0        0.973717    0.404024   -1.543647
     10          6           0        0.015848   -1.238315    1.524232
     11          1           0        0.145607   -2.238262    1.111475
     12          1           0        0.889713   -0.974634    2.125761
     13          1           0       -0.879174   -1.218714    2.147511
     14          7           0       -0.425405    2.284829    0.106869
     15          1           0       -0.883093    1.987303   -0.745538
     16          1           0        0.489509    2.650132   -0.145163
 ---------------------------------------------------------------------

 SCF Done:  E(RHF) =  -836.355311645     A.U. after    2 cycles

 The electronic state is 1-A.
 Alpha  occ. eigenvalues -- -103.54128 -20.49958 -20.49489 -15.78978 -15.46679
 Alpha  occ. eigenvalues --  -11.25629 -11.13545 -11.11274 -10.57405  -8.23104
 Alpha  occ. eigenvalues --   -8.22845  -8.22843  -1.41979  -1.23775  -1.07494
 Alpha  occ. eigenvalues --   -1.00505  -0.94570  -0.84278  -0.77458  -0.68619
 Alpha  occ. eigenvalues --   -0.61611  -0.60387  -0.58838  -0.52773  -0.50360
 Alpha  occ. eigenvalues --   -0.47704  -0.46597  -0.42485  -0.41006  -0.39971
 Alpha  occ. eigenvalues --   -0.38271  -0.36007  -0.35261  -0.34350  -0.34029
 Alpha  occ. eigenvalues --   -0.25467  -0.08637
 Alpha virt. eigenvalues --    0.12263   0.13650   0.14482   0.15776   0.16216
 Alpha virt. eigenvalues --    0.17488   0.18668   0.19372   0.20778   0.22583
 Alpha virt. eigenvalues --    0.23006   0.23855   0.24844   0.25455   0.25740

 Mulliken charges:
               1
     1  C   -0.444256
     2  C    0.840908
     3  Cl  -0.308671
     4  H   -0.656785
     5  H   -0.279800
     6  H   -0.115476
     7  N    0.446777
     8  O   -0.600672
     9  O   -0.636273
    10  C    0.770221
    11  H    0.011110
    12  H    0.231618
    13  H    0.004073
    14  N   -0.397703
    15  H    0.044621
    16  H    0.090308
 Sum of Mulliken charges =  -1.00000

 Dipole moment (field-independent basis, Debye):
    X=             -7.5373    Y=             -6.6094    Z=             -3.0563  Tot=             10.4803

 Test job not archived.
 1\1\GINC-SE165\SP\RHF\Aug-CC-pVDZ\C3H8Cl1N2O2(1-)\OHZDE\09-Apr-2025\0\
 \#t hf aug-cc-pvdz iop(5/13=1,5/36=2,99/5=2) pseudo=read geom=check gu
 ess=(read,tcheck) scf=(maxcycle=1)\\title\\-1,1\C,0,-0.18528704,0.0599
 8108,-0.28577714\C,0,-0.2163275,0.08876498,1.18977494\Cl,0,1.52740611,
 -0.23116843,-1.0302227\H,0,-2.67754615,-0.1639056,1.87377858\H,0,-1.40
 390617,0.09009819,1.47034866\H,0,0.19054844,1.0507706,1.5217404\N,0,-0
 .99172554,-1.12375618,-0.78169069\O,0,-2.03398897,-0.88183171,-1.38980
 38\O,0,-0.5998418,-2.24850938,-0.48159767\C,0,-0.71825066,1.33641489,-

 Normal termination of Gaussian 16 at Wed Apr  9 02:54:30 2025.
