 Gaussian 16, Revision C.01,

 ----------------------------------------------------------------------
 #t hf aug-cc-pvdz symm=none int=(grid=ultrafine) guess=(read,tcheck) s
 table=(opt,rrhf)
 ----------------------------------------------------------------------
 -----
 title
 -----
 Symbolic Z-matrix:
 Charge = -1 Multiplicity = 1

 SCF Done:  E(RHF) =  -927.978580364     A.U. after   18 cycles
 Normal termination of Gaussian 16 at Wed Apr  9 02:45:55 2025.
 Gaussian 16:  ES64L-G16RevC.01  3-Jul-2019

 ----------------------------------------------------------------------
 #t hf aug-cc-pvdz iop(5/13=1,5/36=2,99/5=2) pseudo=read geom=check gue
 ss=(read,tcheck) scf=(maxcycle=1)
 ----------------------------------------------------------------------
 -----
 title
 -----
 Structure from the checkpoint file:  "E2SN2_26_mol1.chk"
 Charge = -1 Multiplicity = 1

                         Standard orientation:
 ---------------------------------------------------------------------
 Center     Atomic      Atomic             Coordinates (Angstroms)
 Number     Number       Type             X           Y           Z
 ---------------------------------------------------------------------
      1          6           0        0.339597   -0.486964    0.171836
      2          6           0       -1.039203   -0.021176    0.592045
      3         17           0        0.393798   -1.111813   -1.536548
      4          1           0       -0.652968   -0.481345    3.056424
      5          1           0       -0.886235    0.081766    1.785822
      6          7           0        1.257935    0.758365    0.215118
      7          8           0        1.790974    0.970962    1.297118
      8          8           0        1.330936    1.474313   -0.777730
      9          6           0       -2.077772   -1.134051    0.540021
     10          1           0       -3.049888   -0.727154    0.828842
     11          1           0       -2.161224   -1.590716   -0.449151
     12          1           0       -1.808650   -1.882805    1.290368
     13          6           0       -1.502532    1.184857   -0.047796
     14          7           0       -1.948845    2.167120   -0.522395
     15          7           0        0.901475   -1.455342    1.043010
     16          1           0        0.529037   -1.237042    1.992086
     17          1           0        0.565597   -2.371082    0.775059
 ---------------------------------------------------------------------

 SCF Done:  E(RHF) =  -928.135832350     A.U. after    2 cycles

 The electronic state is 1-A.
 Alpha  occ. eigenvalues -- -103.55749 -20.50399 -20.50248 -15.79344 -15.51647
 Alpha  occ. eigenvalues --  -15.50698 -11.29956 -11.17116 -11.15351 -11.13033
 Alpha  occ. eigenvalues --  -10.59097  -8.24812  -8.24525  -8.24521  -1.42767
 Alpha  occ. eigenvalues --   -1.24691  -1.13203  -1.05616  -1.01909  -0.95388
 Alpha  occ. eigenvalues --   -0.88664  -0.77971  -0.70222  -0.64675  -0.62400
 Alpha  occ. eigenvalues --   -0.61735  -0.58897  -0.54152  -0.52401  -0.46626
 Alpha  occ. eigenvalues --   -0.45977  -0.43668  -0.41880  -0.40899  -0.40261
 Alpha  occ. eigenvalues --   -0.39199  -0.36479  -0.36183  -0.35704  -0.32998
 Alpha  occ. eigenvalues --   -0.32075  -0.30009  -0.12305
 Alpha virt. eigenvalues --    0.12181   0.13630   0.14674   0.16010   0.17683
 Alpha virt. eigenvalues --    0.18134   0.18575   0.19386   0.19646   0.19690
 Alpha virt. eigenvalues --    0.21820   0.23195   0.23862   0.24546   0.25346

 Mulliken charges:
               1
     1  C    1.077302
     2  C    0.068813
     3  Cl  -0.181752
     4  H   -0.337918
     5  H   -0.036276
     6  N    0.204324
     7  O   -0.523332
     8  O   -0.600146
     9  C    0.861671
    10  H   -0.052062
    11  H   -0.013400
    12  H   -0.061251
    13  C   -0.918745
    14  N   -0.261565
    15  N   -0.420224
    16  H    0.140033
    17  H    0.054528
 Sum of Mulliken charges =  -1.00000

 Dipole moment (field-independent basis, Debye):
    X=              0.3089    Y=             -4.5534    Z=             -6.1205  Tot=              7.6347

 Test job not archived.
 1\1\GINC-SE208\SP\RHF\Aug-CC-pVDZ\C4H7Cl1N3O2(1-)\OHZDE\09-Apr-2025\0\
 \#t hf aug-cc-pvdz iop(5/13=1,5/36=2,99/5=2) pseudo=read geom=check gu
 ess=(read,tcheck) scf=(maxcycle=1)\\title\\-1,1\C,0,0.08959587,-0.0069
 9475,-0.42469624\C,0,-0.18231476,0.00034706,1.06548266\Cl,0,1.8608074,
 -0.11641386,-0.8281664\H,0,-2.35257123,1.29670377,0.85680926\H,0,-1.34
 110999,0.34107032,1.07963025\N,0,-0.57069276,-1.28909461,-0.98710078\O
 ,0,-1.74176429,-1.1634532,-1.32304201\O,0,0.07176784,-2.333557,-0.9884
 5468\C,0,0.46356022,1.18269004,1.7759305\H,0,0.25112127,1.11420764,2.8

 Normal termination of Gaussian 16 at Wed Apr  9 02:46:05 2025.
