 Gaussian 16, Revision C.01,

 ----------------------------------------------------------------------
 #t hf aug-cc-pvdz symm=none int=(grid=ultrafine) guess=(read,tcheck) s
 table=(opt,rrhf)
 ----------------------------------------------------------------------
 -----
 title
 -----
 Symbolic Z-matrix:
 Charge = -1 Multiplicity = 1

 SCF Done:  E(RHF) =  -453.805267662     A.U. after   18 cycles
 Normal termination of Gaussian 16 at Wed Apr  9 02:58:24 2025.
 Gaussian 16:  ES64L-G16RevC.01  3-Jul-2019

 ----------------------------------------------------------------------
 #t hf aug-cc-pvdz iop(5/13=1,5/36=2,99/5=2) pseudo=read geom=check gue
 ss=(read,tcheck) scf=(maxcycle=1)
 ----------------------------------------------------------------------
 -----
 title
 -----
 Structure from the checkpoint file:  "E2SN2_62_mol1.chk"
 Charge = -1 Multiplicity = 1

                         Standard orientation:
 ---------------------------------------------------------------------
 Center     Atomic      Atomic             Coordinates (Angstroms)
 Number     Number       Type             X           Y           Z
 ---------------------------------------------------------------------
      1          6           0       -0.704876   -0.241826   -0.474031
      2          6           0        0.571603    0.160184    0.230993
      3          9           0       -0.730334   -1.621206   -0.639080
      4          1           0       -1.135724    0.180753    1.686467
      5          1           0       -0.027017    0.208414    1.399060
      6          6           0       -1.924292    0.137050    0.437551
      7          7           0       -3.091646    0.340479    0.274410
      8          6           0        1.000268    1.493667   -0.092888
      9          7           0        1.312617    2.607235   -0.320066
     10          6           0        1.634853   -0.802246    0.262210
     11          7           0        2.508600   -1.590672    0.322162
     12          1           0       -0.836590    0.221423   -1.452362
 ---------------------------------------------------------------------

 SCF Done:  E(RHF) =  -453.940010031     A.U. after    2 cycles

 The electronic state is 1-A.
 Alpha  occ. eigenvalues --  -26.00346 -15.53880 -15.53265 -15.44621 -11.23935
 Alpha  occ. eigenvalues --  -11.19681 -11.19377 -11.18980 -11.14111  -1.53712
 Alpha  occ. eigenvalues --   -1.08848  -1.06747  -1.01122  -0.97219  -0.82865
 Alpha  occ. eigenvalues --   -0.68401  -0.67400  -0.63673  -0.60886  -0.56063
 Alpha  occ. eigenvalues --   -0.50246  -0.44805  -0.44306  -0.44022  -0.38611
 Alpha  occ. eigenvalues --   -0.37098  -0.36312  -0.34812  -0.34457  -0.30371
 Alpha  occ. eigenvalues --   -0.28545  -0.14962
 Alpha virt. eigenvalues --    0.13929   0.14685   0.16554   0.17833   0.18316
 Alpha virt. eigenvalues --    0.20287   0.21081   0.21299   0.22373   0.23124
 Alpha virt. eigenvalues --    0.24407   0.25338   0.25655   0.25740   0.26027

 Mulliken charges:
               1
     1  C    0.547056
     2  C    0.640608
     3  F   -0.410235
     4  H   -0.016285
     5  H    0.374876
     6  C   -0.046490
     7  N   -0.556844
     8  C   -0.273691
     9  N   -0.286921
    10  C   -0.501521
    11  N   -0.243012
    12  H   -0.227539
 Sum of Mulliken charges =  -1.00000

 Dipole moment (field-independent basis, Debye):
    X=              3.0424    Y=             -0.4861    Z=             -1.6299  Tot=              3.4855

 Test job not archived.
 1\1\GINC-SE051\SP\RHF\Aug-CC-pVDZ\C5H3F1N3(1-)\OHZDE\09-Apr-2025\0\\#t
  hf aug-cc-pvdz iop(5/13=1,5/36=2,99/5=2) pseudo=read geom=check guess
 =(read,tcheck) scf=(maxcycle=1)\\title\\-1,1\C,0,0.27429061,-0.3977575
 4,-0.17563399\C,0,0.11343976,-0.15815417,1.30921786\F,0,0.82558968,-1.
 65558168,-0.38665151\H,0,-1.87014376,-0.69776399,0.41032588\H,0,-1.150
 65244,-0.51370693,1.28271051\C,0,-1.14592485,-0.39795755,-0.84233681\N
 ,0,-1.58104644,-0.22593934,-1.94315083\C,0,0.16591987,1.23350511,1.666
 09276\N,0,0.15319285,2.3793434,1.94195373\C,0,0.84724952,-1.01499878,2

 Normal termination of Gaussian 16 at Wed Apr  9 02:58:30 2025.
