 Gaussian 16, Revision C.01,

 ----------------------------------------------------------------------
 #t hf aug-cc-pvdz symm=none int=(grid=ultrafine) guess=(read,tcheck) s
 table=(opt,rrhf)
 ----------------------------------------------------------------------
 -----
 title
 -----
 Symbolic Z-matrix:
 Charge = -1 Multiplicity = 1

 SCF Done:  E(RHF) =  -583.953147645     A.U. after   17 cycles
 Normal termination of Gaussian 16 at Wed Apr  9 02:43:32 2025.
 Gaussian 16:  ES64L-G16RevC.01  3-Jul-2019

 ----------------------------------------------------------------------
 #t hf aug-cc-pvdz iop(5/13=1,5/36=2,99/5=2) pseudo=read geom=check gue
 ss=(read,tcheck) scf=(maxcycle=1)
 ----------------------------------------------------------------------
 -----
 title
 -----
 Structure from the checkpoint file:  "E2SN2_247_mol2.chk"
 Charge = -1 Multiplicity = 1

                         Standard orientation:
 ---------------------------------------------------------------------
 Center     Atomic      Atomic             Coordinates (Angstroms)
 Number     Number       Type             X           Y           Z
 ---------------------------------------------------------------------
      1          6           0        0.322088    0.516126    0.205138
      2          6           0       -1.042167    0.261872   -0.446033
      3          9           0        0.239267    0.230137    1.574620
      4          1           0       -0.871335    0.246959   -1.528117
      5          7           0        1.349615   -0.553808   -0.257398
      6          8           0        1.039621   -1.322225   -1.165714
      7          8           0        2.449633   -0.511907    0.290208
      8          7           0        0.759297    1.791216   -0.036391
      9          1           0        1.754407    1.901556    0.104669
     10          1           0        0.369533    2.196215   -0.962935
     11          7           0       -2.001064    1.321901   -0.191389
     12          1           0       -1.858317    1.670790    0.750132
     13          1           0       -1.727355    2.064545   -0.848851
     14          6           0       -1.578709   -1.038257   -0.016635
     15          7           0       -2.040404   -2.055909    0.343037
     16          1           0       -0.413754    2.559509   -2.142266
 ---------------------------------------------------------------------

 SCF Done:  E(RHF) =  -584.132398676     A.U. after    2 cycles

 The electronic state is 1-A.
 Alpha  occ. eigenvalues --  -26.02428 -20.52309 -20.51680 -15.80453 -15.53065
 Alpha  occ. eigenvalues --  -15.49939 -15.49929 -11.32411 -11.20894 -11.18227
 Alpha  occ. eigenvalues --   -1.56184  -1.43753  -1.25909  -1.11950  -1.07160
 Alpha  occ. eigenvalues --   -1.03817  -0.92103  -0.84136  -0.75240  -0.69987
 Alpha  occ. eigenvalues --   -0.67179  -0.65780  -0.62885  -0.62312  -0.59269
 Alpha  occ. eigenvalues --   -0.57598  -0.52881  -0.50656  -0.49829  -0.45480
 Alpha  occ. eigenvalues --   -0.43331  -0.42126  -0.41607  -0.37492  -0.34401
 Alpha  occ. eigenvalues --   -0.34259  -0.31242  -0.29597  -0.13523
 Alpha virt. eigenvalues --    0.13246   0.14096   0.15311   0.17216   0.17800
 Alpha virt. eigenvalues --    0.19131   0.19310   0.20227   0.20752   0.21444
 Alpha virt. eigenvalues --    0.22624   0.23807   0.25216   0.25808   0.26362

 Mulliken charges:
               1
     1  C    1.339485
     2  C    0.794821
     3  F   -0.415161
     4  H    0.007586
     5  N    0.217019
     6  O   -0.548600
     7  O   -0.592992
     8  N   -0.363252
     9  H    0.021035
    10  H    0.020340
    11  N   -0.408796
    12  H    0.050447
    13  H    0.125942
    14  C   -0.391247
    15  N   -0.252483
    16  H   -0.604147
 Sum of Mulliken charges =  -1.00000

 Dipole moment (field-independent basis, Debye):
    X=              2.2300    Y=             -2.0047    Z=              4.5374  Tot=              5.4387

 Test job not archived.
 1\1\GINC-SE188\SP\RHF\Aug-CC-pVDZ\C3H6F1N4O2(1-)\OHZDE\09-Apr-2025\0\\
 #t hf aug-cc-pvdz iop(5/13=1,5/36=2,99/5=2) pseudo=read geom=check gue
 ss=(read,tcheck) scf=(maxcycle=1)\\title\\-1,1\C,0,-0.069139,0.047699,
 0.042084\C,0,-0.649474,0.254429,-1.361602\F,0,1.277636,-0.324498,-0.06
 6531\H,0,-1.600828,0.781437,-1.229309\N,0,0.060313,1.40936,0.779397\O,
 0,-0.445434,2.409533,0.273953\O,0,0.619301,1.374701,1.873928\N,0,-0.80
 5396,-0.859228,0.756754\H,0,-0.649158,-0.797659,1.753807\H,0,-1.843139
 ,-0.889918,0.445994\N,0,-0.955856,-0.99195,-2.04032\H,0,-0.251209,-1.6

 Normal termination of Gaussian 16 at Wed Apr  9 02:43:40 2025.
