 Gaussian 16, Revision C.01,

 ----------------------------------------------------------------------
 #t hf aug-cc-pvdz symm=none int=(grid=ultrafine) guess=(read,tcheck) s
 table=(opt,rrhf)
 ----------------------------------------------------------------------
 -----
 title
 -----
 Symbolic Z-matrix:
 Charge = -1 Multiplicity = 1

 SCF Done:  E(RHF) =  -611.800334901     A.U. after   16 cycles
 Normal termination of Gaussian 16 at Wed Apr  9 02:41:20 2025.
 Gaussian 16:  ES64L-G16RevC.01  3-Jul-2019

 ----------------------------------------------------------------------
 #t hf aug-cc-pvdz iop(5/13=1,5/36=2,99/5=2) pseudo=read geom=check gue
 ss=(read,tcheck) scf=(maxcycle=1)
 ----------------------------------------------------------------------
 -----
 title
 -----
 Structure from the checkpoint file:  "E2SN2_224_mol1.chk"
 Charge = -1 Multiplicity = 1

                         Standard orientation:
 ---------------------------------------------------------------------
 Center     Atomic      Atomic             Coordinates (Angstroms)
 Number     Number       Type             X           Y           Z
 ---------------------------------------------------------------------
      1          6           0        0.150034   -0.278597    0.038043
      2          1           0       -0.794830   -1.790101    1.169075
      3          9           0        0.034452   -0.269886   -1.705432
      4          9           0        0.309402   -0.018034    1.770158
      5          6           0       -0.917947   -1.349490    0.180478
      6          1           0       -0.672575   -2.098085   -0.574761
      7          7           0       -0.047818    1.209792   -0.039909
      8          8           0       -1.186308    1.646123    0.062206
      9          8           0        0.956483    1.888086   -0.202418
     10          6           0        1.528413   -0.730668   -0.026120
     11          7           0        2.614679   -1.174441   -0.074543
     12          6           0       -2.360429   -0.908918   -0.027133
     13          1           0       -2.683272   -0.219659    0.750645
     14          1           0       -2.469690   -0.420764   -0.993848
     15          1           0       -3.004172   -1.795208   -0.002381
 ---------------------------------------------------------------------

 SCF Done:  E(RHF) =  -611.986346977     A.U. after    2 cycles

 The electronic state is 1-A.
 Alpha  occ. eigenvalues --  -25.87203 -25.86656 -20.48020 -20.47941 -15.78813
 Alpha  occ. eigenvalues --  -15.51395 -11.31602 -11.17483 -11.12963 -11.10892
 Alpha  occ. eigenvalues --   -1.41950  -1.37391  -1.36794  -1.22788  -1.05469
 Alpha  occ. eigenvalues --   -0.97961  -0.89368  -0.78978  -0.71803  -0.65919
 Alpha  occ. eigenvalues --   -0.60523  -0.60130  -0.55011  -0.54534  -0.50176
 Alpha  occ. eigenvalues --   -0.46684  -0.45971  -0.45277  -0.44543  -0.44339
 Alpha  occ. eigenvalues --   -0.42018  -0.40924  -0.38082  -0.37986  -0.36838
 Alpha  occ. eigenvalues --   -0.35746  -0.33568  -0.32764  -0.32447
 Alpha virt. eigenvalues --    0.11898   0.14340   0.14883   0.15737   0.16865
 Alpha virt. eigenvalues --    0.18939   0.21438   0.21668   0.22461   0.23642
 Alpha virt. eigenvalues --    0.24239   0.24435   0.24857   0.25444   0.27150

 Mulliken charges:
               1
     1  C    1.672957
     2  H   -0.026824
     3  F   -0.714336
     4  F   -0.726661
     5  C    0.297586
     6  H    0.025915
     7  N    0.449098
     8  O   -0.655996
     9  O   -0.677957
    10  C   -0.926168
    11  N   -0.163754
    12  C    0.500468
    13  H    0.007808
    14  H    0.025703
    15  H   -0.087841
 Sum of Mulliken charges =  -1.00000

 Dipole moment (field-independent basis, Debye):
    X=             -4.1012    Y=             -2.2420    Z=              0.1552  Tot=              4.6766

 Test job not archived.
 1\1\GINC-SE208\SP\RHF\Aug-CC-pVDZ\C4H5F2N2O2(1-)\OHZDE\09-Apr-2025\0\\
 #t hf aug-cc-pvdz iop(5/13=1,5/36=2,99/5=2) pseudo=read geom=check gue
 ss=(read,tcheck) scf=(maxcycle=1)\\title\\-1,1\C,0,0.57988376,-0.05056
 992,-0.02607625\H,0,1.64468895,1.74465864,0.29013486\F,0,-1.16457755,-
 0.07774968,0.07013074\F,0,2.30903515,-0.24270699,-0.28421202\C,0,0.634
 18986,1.46745318,-0.00763943\H,0,-0.06200367,1.76743069,0.77741833\N,0
 ,0.42945325,-0.94876458,-1.22238019\O,0,0.38474453,-0.43097516,-2.3300
 1996\O,0,0.36111623,-2.14932391,-1.00079306\C,0,0.69047914,-0.7269167,

 Normal termination of Gaussian 16 at Wed Apr  9 02:41:27 2025.
