 Gaussian 16, Revision C.01,

 ----------------------------------------------------------------------
 #t hf aug-cc-pvdz symm=none int=(grid=ultrafine) guess=(read,tcheck) s
 table=(opt,rrhf)
 ----------------------------------------------------------------------
 -----
 title
 -----
 Symbolic Z-matrix:
 Charge = -1 Multiplicity = 1

 SCF Done:  E(RHF) =  -899.160174629     A.U. after   17 cycles
 Normal termination of Gaussian 16 at Wed Apr  9 02:52:00 2025.
 Gaussian 16:  ES64L-G16RevC.01  3-Jul-2019

 ----------------------------------------------------------------------
 #t hf aug-cc-pvdz iop(5/13=1,5/36=2,99/5=2) pseudo=read geom=check gue
 ss=(read,tcheck) scf=(maxcycle=1)
 ----------------------------------------------------------------------
 -----
 title
 -----
 Structure from the checkpoint file:  "E2SN2_336_mol1.chk"
 Charge = -1 Multiplicity = 1

                         Standard orientation:
 ---------------------------------------------------------------------
 Center     Atomic      Atomic             Coordinates (Angstroms)
 Number     Number       Type             X           Y           Z
 ---------------------------------------------------------------------
      1          6           0       -0.296832    0.026882   -0.374453
      2          1           0        0.470075   -1.476371    0.942128
      3          9           0        1.000115    1.495982   -0.740639
      4         17           0       -1.903177   -1.330380    0.248275
      5          6           0        0.729324   -0.451541    0.662540
      6          6           0       -0.188194   -0.484655   -1.792467
      7          1           0        0.619029    0.057028   -2.278790
      8          1           0        0.015493   -1.556619   -1.780732
      9          1           0       -1.129174   -0.323406   -2.318201
     10          6           0       -1.092999    1.204086   -0.110129
     11          7           0       -1.819150    2.102260    0.115542
     12          6           0        0.725897    0.417830    1.916133
     13          1           0        0.992427    1.432726    1.627759
     14          1           0       -0.270589    0.406719    2.362462
     15          1           0        1.444115    0.034002    2.645373
     16          6           0        2.075682   -0.528364    0.082525
     17          7           0        3.175482   -0.748958   -0.266946
 ---------------------------------------------------------------------

 SCF Done:  E(RHF) =  -899.303435455     A.U. after    2 cycles

 The electronic state is 1-A.
 Alpha  occ. eigenvalues -- -103.46867 -25.81828 -15.51171 -15.50502 -11.27252
 Alpha  occ. eigenvalues --  -11.18332 -11.17382 -11.17252 -11.12718 -11.12512
 Alpha  occ. eigenvalues --  -10.50165  -8.15812  -8.15654  -8.15647  -1.31912
 Alpha  occ. eigenvalues --   -1.06558  -1.05036  -1.00484  -0.93473  -0.89550
 Alpha  occ. eigenvalues --   -0.78908  -0.77825  -0.60286  -0.56879  -0.52775
 Alpha  occ. eigenvalues --   -0.49756  -0.46618  -0.45331  -0.44424  -0.42443
 Alpha  occ. eigenvalues --   -0.41789  -0.41617  -0.41009  -0.39812  -0.38531
 Alpha  occ. eigenvalues --   -0.34007  -0.33102  -0.32167  -0.31366  -0.29321
 Alpha  occ. eigenvalues --   -0.29156  -0.27748
 Alpha virt. eigenvalues --    0.12345   0.13333   0.14503   0.15505   0.15758
 Alpha virt. eigenvalues --    0.16693   0.17253   0.19139   0.19493   0.19855
 Alpha virt. eigenvalues --    0.21303   0.21929   0.23264   0.24310   0.24547

 Mulliken charges:
               1
     1  C    0.173664
     2  H   -0.046542
     3  F   -0.795665
     4  Cl  -0.533304
     5  C    0.091459
     6  C    0.583889
     7  H    0.171877
     8  H    0.060784
     9  H   -0.033584
    10  C   -0.672603
    11  N   -0.290540
    12  C    0.750446
    13  H    0.172754
    14  H    0.013164
    15  H   -0.105568
    16  C   -0.194932
    17  N   -0.345301
 Sum of Mulliken charges =  -1.00000

 Dipole moment (field-independent basis, Debye):
    X=             -0.3534    Y=             -3.3517    Z=              1.3461  Tot=              3.6292

 Test job not archived.
 1\1\GINC-SE228\SP\RHF\Aug-CC-pVDZ\C6H7Cl1F1N2(1-)\OHZDE\09-Apr-2025\0\
 \#t hf aug-cc-pvdz iop(5/13=1,5/36=2,99/5=2) pseudo=read geom=check gu
 ess=(read,tcheck) scf=(maxcycle=1)\\title\\-1,1\C,0,0.72469648,-0.0437
 3333,-0.03470222\H,0,1.52656014,1.91276333,-0.36702489\F,0,-1.2682878,
 -0.0926599,-0.02844881\Cl,0,2.88586906,-0.03380051,0.33883349\C,0,0.56
 25036,1.48225551,-0.08257059\C,0,0.78521365,-0.80834093,-1.33698924\H,
 0,-0.22805433,-0.88563015,-1.72280354\H,0,1.42984171,-0.28091583,-2.04
 197888\H,0,1.20695221,-1.79875144,-1.16651163\C,0,0.4450366,-0.7598943

 Normal termination of Gaussian 16 at Wed Apr  9 02:52:10 2025.
