 Gaussian 16, Revision C.01,

 ----------------------------------------------------------------------
 #t hf aug-cc-pvdz symm=none int=(grid=ultrafine) guess=(read,tcheck) s
 table=(opt,rrhf)
 ----------------------------------------------------------------------
 -----
 title
 -----
 Symbolic Z-matrix:
 Charge = -1 Multiplicity = 1

 SCF Done:  E(RHF) =  -502.430247073     A.U. after   15 cycles
 Normal termination of Gaussian 16 at Wed Apr  9 02:47:39 2025.
 Gaussian 16:  ES64L-G16RevC.01  3-Jul-2019

 ----------------------------------------------------------------------
 #t hf aug-cc-pvdz iop(5/13=1,5/36=2,99/5=2) pseudo=read geom=check gue
 ss=(read,tcheck) scf=(maxcycle=1)
 ----------------------------------------------------------------------
 -----
 title
 -----
 Structure from the checkpoint file:  "E2SN2_286_mol2.chk"
 Charge = -1 Multiplicity = 1

                         Standard orientation:
 ---------------------------------------------------------------------
 Center     Atomic      Atomic             Coordinates (Angstroms)
 Number     Number       Type             X           Y           Z
 ---------------------------------------------------------------------
      1          6           0       -0.692211    0.349346    0.244503
      2          6           0        0.294944    0.443211   -0.946669
      3          9           0       -1.426830    1.560407    0.298718
      4          1           0       -0.310110    0.854957   -1.769452
      5          6           0       -1.695563   -0.692684   -0.060750
      6          7           0       -2.506434   -1.503022   -0.317476
      7          6           0       -0.039482    0.099820    1.585416
      8          1           0        0.386906    1.048163    1.920626
      9          1           0        0.805307   -0.606551    1.470921
     10          1           0       -0.776766   -0.231156    2.321563
     11          7           0        0.872436   -0.824508   -1.343138
     12          1           0        1.508444   -1.128555   -0.570103
     13          1           0        0.149019   -1.518251   -1.494848
     14          6           0        1.439807    1.390934   -0.606951
     15          1           0        1.081808    2.323144   -0.161068
     16          1           0        2.107602    0.852065    0.071625
     17          1           0        1.986377    1.622594   -1.524550
     18          9           0        2.388432   -1.167902    0.819758
 ---------------------------------------------------------------------

 SCF Done:  E(RHF) =  -502.584867407     A.U. after    2 cycles

 The electronic state is 1-A.
 Alpha  occ. eigenvalues --  -25.99716 -25.75298 -15.53401 -15.44233 -11.23800
 Alpha  occ. eigenvalues --  -11.18097 -11.14351 -11.09333 -11.08503  -1.52629
 Alpha  occ. eigenvalues --   -1.24327  -1.07550  -1.02454  -0.92790  -0.83970
 Alpha  occ. eigenvalues --   -0.79005  -0.68869  -0.65689  -0.60525  -0.59488
 Alpha  occ. eigenvalues --   -0.54150  -0.50790  -0.45919  -0.44750  -0.43552
 Alpha  occ. eigenvalues --   -0.42703  -0.41171  -0.39324  -0.38215  -0.36621
 Alpha  occ. eigenvalues --   -0.35170  -0.33852  -0.33537  -0.32331  -0.31751
 Alpha  occ. eigenvalues --   -0.23685
 Alpha virt. eigenvalues --    0.12726   0.13249   0.14275   0.15024   0.15948
 Alpha virt. eigenvalues --    0.16498   0.18357   0.18772   0.19825   0.20449
 Alpha virt. eigenvalues --    0.21687   0.22892   0.23796   0.24811   0.25219

 Mulliken charges:
               1
     1  C    0.515113
     2  C    0.251925
     3  F   -0.526182
     4  H   -0.236958
     5  C   -0.767082
     6  N   -0.220069
     7  C    0.761828
     8  H    0.050116
     9  H   -0.030231
    10  H   -0.130075
    11  N   -0.436381
    12  H    0.184783
    13  H   -0.051242
    14  C    0.820812
    15  H   -0.072958
    16  H   -0.043362
    17  H   -0.104829
    18  F   -0.965206
 Sum of Mulliken charges =  -1.00000

 Dipole moment (field-independent basis, Debye):
    X=             -4.2955    Y=              4.3912    Z=             -0.6732  Tot=              6.1796

 Test job not archived.
 1\1\GINC-SE131\SP\RHF\Aug-CC-pVDZ\C5H9F2N2(1-)\OHZDE\09-Apr-2025\0\\#t
  hf aug-cc-pvdz iop(5/13=1,5/36=2,99/5=2) pseudo=read geom=check guess
 =(read,tcheck) scf=(maxcycle=1)\\title\\-1,1\C,0,0.080509,-0.001228,-0
 .027049\C,0,-0.464655,-0.079198,-1.475805\F,0,1.402096,-0.513741,-0.03
 011\H,0,0.360972,0.300334,-2.097812\C,0,0.22402,1.423049,0.342494\N,0,
 0.361405,2.555332,0.623791\C,0,-0.743425,-0.748593,0.997131\H,0,-0.509
 666,-1.810382,0.889947\H,0,-1.821677,-0.63553,0.772794\H,0,-0.482425,-
 0.434202,2.011075\N,0,-1.659456,0.706511,-1.705824\H,0,-2.434229,0.253

 Normal termination of Gaussian 16 at Wed Apr  9 02:47:48 2025.
