 Gaussian 16, Revision C.01,

 ----------------------------------------------------------------------
 #t hf aug-cc-pvdz symm=none int=(grid=ultrafine) guess=(read,tcheck) s
 table=(opt,rrhf)
 ----------------------------------------------------------------------
 -----
 title
 -----
 Symbolic Z-matrix:
 Charge = -1 Multiplicity = 1

 SCF Done:  E(RHF) =  -364.427383063     A.U. after   15 cycles
 Normal termination of Gaussian 16 at Wed Apr  9 02:43:57 2025.
 Gaussian 16:  ES64L-G16RevC.01  3-Jul-2019

 ----------------------------------------------------------------------
 #t hf aug-cc-pvdz iop(5/13=1,5/36=2,99/5=2) pseudo=read geom=check gue
 ss=(read,tcheck) scf=(maxcycle=1)
 ----------------------------------------------------------------------
 -----
 title
 -----
 Structure from the checkpoint file:  "E2SN2_257_mol2.chk"
 Charge = -1 Multiplicity = 1

                         Standard orientation:
 ---------------------------------------------------------------------
 Center     Atomic      Atomic             Coordinates (Angstroms)
 Number     Number       Type             X           Y           Z
 ---------------------------------------------------------------------
      1          6           0       -0.374368    0.365192    0.611358
      2          6           0        1.036296    0.182689    0.075877
      3          9           0       -0.829829    1.665945    0.352685
      4          1           0        1.622950    0.954911    0.601903
      5          1           0       -0.311336    0.213517    1.700489
      6          6           0       -1.328297   -0.566058   -0.008439
      7          7           0       -2.136328   -1.248933   -0.518016
      8          6           0        1.124848    0.388092   -1.426228
      9          1           0        0.560442   -0.390804   -1.945808
     10          1           0        2.168118    0.328278   -1.754311
     11          1           0        0.733706    1.367868   -1.711947
     12          7           0        1.406359   -1.167554    0.472125
     13          1           0        1.443890   -1.115504    1.515096
     14          1           0        2.357880   -1.341071    0.159336
     15          1           0        1.251716   -0.314769    3.066913
 ---------------------------------------------------------------------

 SCF Done:  E(RHF) =  -364.542569981     A.U. after    2 cycles

 The electronic state is 1-A.
 Alpha  occ. eigenvalues --  -26.00054 -15.52676 -15.46276 -11.22603 -11.17634
 Alpha  occ. eigenvalues --  -11.14966 -11.11795  -1.53063  -1.06858  -1.03711
 Alpha  occ. eigenvalues --   -0.90313  -0.85410  -0.71288  -0.65809  -0.63564
 Alpha  occ. eigenvalues --   -0.59816  -0.53726  -0.51595  -0.48008  -0.46133
 Alpha  occ. eigenvalues --   -0.43021  -0.40964  -0.39472  -0.38226  -0.34587
 Alpha  occ. eigenvalues --   -0.32926  -0.26134  -0.09287
 Alpha virt. eigenvalues --    0.11834   0.13646   0.14514   0.15711   0.16570
 Alpha virt. eigenvalues --    0.17215   0.19039   0.20483   0.21628   0.22677
 Alpha virt. eigenvalues --    0.23479   0.24027   0.24565   0.25694   0.26284

 Mulliken charges:
               1
     1  C    1.075629
     2  C   -0.361998
     3  F   -0.464415
     4  H   -0.018323
     5  H   -0.066155
     6  C   -0.227415
     7  N   -0.311556
     8  C    0.529843
     9  H   -0.024247
    10  H   -0.076056
    11  H   -0.008456
    12  N   -0.304537
    13  H    0.063003
    14  H   -0.030927
    15  H   -0.774392
 Sum of Mulliken charges =  -1.00000

 Dipole moment (field-independent basis, Debye):
    X=             -0.3862    Y=              2.4218    Z=             -9.7207  Tot=             10.0253

 Test job not archived.
 1\1\GINC-SE159\SP\RHF\Aug-CC-pVDZ\C4H8F1N2(1-)\OHZDE\09-Apr-2025\0\\#t
  hf aug-cc-pvdz iop(5/13=1,5/36=2,99/5=2) pseudo=read geom=check guess
 =(read,tcheck) scf=(maxcycle=1)\\title\\-1,1\C,0,-0.227559,0.322711,0.
 078796\C,0,-0.631015,-0.091348,-1.326835\F,0,1.163625,0.478082,0.16115
 4\H,0,-0.08362,-1.034497,-1.494228\H,0,-0.540049,-0.498913,0.742475\C,
 0,-0.836967,1.599707,0.477867\N,0,-1.252904,2.643902,0.8178\C,0,-0.241
 253,0.935526,-2.375628\H,0,-0.800764,1.861858,-2.220542\H,0,-0.476478,
 0.559789,-3.377187\H,0,0.829641,1.150361,-2.335382\N,0,-2.071012,-0.28

 Normal termination of Gaussian 16 at Wed Apr  9 02:44:03 2025.
