 Gaussian 16, Revision C.01,

 ----------------------------------------------------------------------
 #t hf aug-cc-pvdz symm=none int=(grid=ultrafine) guess=(read,tcheck) s
 table=(opt,rrhf)
 ----------------------------------------------------------------------
 -----
 title
 -----
 Symbolic Z-matrix:
 Charge = -1 Multiplicity = 1

 SCF Done:  E(RHF) =  -836.232054863     A.U. after   16 cycles
 Normal termination of Gaussian 16 at Wed Apr  9 02:26:57 2025.
 Gaussian 16:  ES64L-G16RevC.01  3-Jul-2019

 ----------------------------------------------------------------------
 #t hf aug-cc-pvdz iop(5/13=1,5/36=2,99/5=2) pseudo=read geom=check gue
 ss=(read,tcheck) scf=(maxcycle=1)
 ----------------------------------------------------------------------
 -----
 title
 -----
 Structure from the checkpoint file:  "E2SN2_102_mol1.chk"
 Charge = -1 Multiplicity = 1

                         Standard orientation:
 ---------------------------------------------------------------------
 Center     Atomic      Atomic             Coordinates (Angstroms)
 Number     Number       Type             X           Y           Z
 ---------------------------------------------------------------------
      1          6           0        0.044551    0.227905    0.430275
      2          6           0       -1.358669   -0.256855    0.780562
      3         17           0       -0.052259    1.606095   -0.755050
      4          1           0       -0.171012   -2.048632    2.921064
      5          1           0       -1.178866   -1.105094    1.474619
      6          1           0       -1.787364    0.548676    1.386367
      7          6           0        0.816981    0.631178    1.680846
      8          1           0        1.146551    1.669016    1.619064
      9          1           0        0.187010    0.457317    2.552273
     10          1           0        1.678359   -0.017106    1.817477
     11          7           0        0.847534   -0.823836   -0.339624
     12          8           0        2.047468   -0.611267   -0.478373
     13          8           0        0.249739   -1.789312   -0.804623
     14          7           0       -2.291456   -0.594554   -0.277233
     15          1           0       -1.960312   -1.432657   -0.733263
     16          1           0       -2.313348    0.144852   -0.969883
 ---------------------------------------------------------------------

 SCF Done:  E(RHF) =  -836.365475415     A.U. after    2 cycles

 The electronic state is 1-A.
 Alpha  occ. eigenvalues -- -103.56608 -20.51207 -20.50739 -15.80302 -15.49204
 Alpha  occ. eigenvalues --  -11.26548 -11.14669 -11.12536 -10.59952  -8.25665
 Alpha  occ. eigenvalues --   -8.25386  -8.25381  -1.43444  -1.25230  -1.10185
 Alpha  occ. eigenvalues --   -1.02961  -0.95215  -0.84164  -0.79461  -0.70219
 Alpha  occ. eigenvalues --   -0.62883  -0.62057  -0.60132  -0.55269  -0.52232
 Alpha  occ. eigenvalues --   -0.49033  -0.46585  -0.43040  -0.42381  -0.41632
 Alpha  occ. eigenvalues --   -0.39961  -0.38136  -0.36751  -0.36034  -0.35785
 Alpha  occ. eigenvalues --   -0.28159  -0.07454
 Alpha virt. eigenvalues --    0.12370   0.12943   0.14523   0.15809   0.16854
 Alpha virt. eigenvalues --    0.17122   0.18192   0.18558   0.20821   0.22921
 Alpha virt. eigenvalues --    0.23769   0.23952   0.24460   0.25245   0.25747

 Mulliken charges:
               1
     1  C   -0.402049
     2  C    1.073592
     3  Cl  -0.232476
     4  H   -0.854000
     5  H    0.093529
     6  H   -0.061078
     7  C    0.522981
     8  H   -0.009192
     9  H   -0.105287
    10  H    0.159342
    11  N    0.403040
    12  O   -0.612961
    13  O   -0.618478
    14  N   -0.419122
    15  H    0.046835
    16  H    0.015325
 Sum of Mulliken charges =  -1.00000

 Dipole moment (field-independent basis, Debye):
    X=              0.0103    Y=              9.6309    Z=             -9.0589  Tot=             13.2219

 Test job not archived.
 1\1\GINC-SE345\SP\RHF\Aug-CC-pVDZ\C3H8Cl1N2O2(1-)\OHZDE\09-Apr-2025\0\
 \#t hf aug-cc-pvdz iop(5/13=1,5/36=2,99/5=2) pseudo=read geom=check gu
 ess=(read,tcheck) scf=(maxcycle=1)\\title\\-1,1\C,0,-0.16395848,0.0241
 1944,-0.19495012\C,0,-0.34359236,0.03758207,1.31973396\Cl,0,1.58036888
 ,0.32998872,-0.61631078\H,0,-3.19924947,-0.91999318,0.95777569\H,0,-1.
 43352878,-0.12569408,1.4573321\H,0,0.1490166,-0.8774482,1.66573271\C,0
 ,-0.65330448,-1.28796468,-0.79676465\H,0,0.14418682,-1.7859778,-1.3495
 1502\H,0,-1.04465153,-1.91519094,0.00317895\H,0,-1.4972453,-1.10828754

 Normal termination of Gaussian 16 at Wed Apr  9 02:27:04 2025.
