 Gaussian 16, Revision C.01,

 ----------------------------------------------------------------------
 #t hf aug-cc-pvdz symm=none int=(grid=ultrafine) guess=(read,tcheck) s
 table=(opt,rrhf)
 ----------------------------------------------------------------------
 -----
 title
 -----
 Symbolic Z-matrix:
 Charge = -1 Multiplicity = 1

 SCF Done:  E(RHF) =  -366.706586033     A.U. after   17 cycles
 Normal termination of Gaussian 16 at Wed Apr  9 02:57:21 2025.
 Gaussian 16:  ES64L-G16RevC.01  3-Jul-2019

 ----------------------------------------------------------------------
 #t hf aug-cc-pvdz iop(5/13=1,5/36=2,99/5=2) pseudo=read geom=check gue
 ss=(read,tcheck) scf=(maxcycle=1)
 ----------------------------------------------------------------------
 -----
 title
 -----
 Structure from the checkpoint file:  "E2SN2_418_mol1.chk"
 Charge = -1 Multiplicity = 1

                         Standard orientation:
 ---------------------------------------------------------------------
 Center     Atomic      Atomic             Coordinates (Angstroms)
 Number     Number       Type             X           Y           Z
 ---------------------------------------------------------------------
      1          6           0        0.619824    0.123786   -0.260460
      2          1           0       -0.998981   -0.033814   -1.597335
      3          9           0        0.593238   -0.586446    1.288752
      4          1           0        0.773803    0.997297   -1.904687
      5          6           0       -0.896593    0.012748   -0.514513
      6          7           0        1.421229   -0.963396   -0.812625
      7          1           0        2.000825   -1.300597   -0.052139
      8          1           0        1.978950   -0.577506   -1.556511
      9          7           0        1.198337    1.340144    0.300931
     10          1           0        1.768919    1.765235   -0.409591
     11          1           0        1.741240    1.057588    1.109167
     12          6           0       -1.615410    1.256107   -0.019095
     13          1           0       -1.463736    1.371377    1.056929
     14          1           0       -1.209385    2.140204   -0.513167
     15          1           0       -2.691367    1.185224   -0.223903
     16          6           0       -1.527750   -1.262552    0.050471
     17          1           0       -0.914096   -2.125976   -0.212911
     18          1           0       -1.615622   -1.224825    1.135751
     19          1           0       -2.527077   -1.393967   -0.386925
 ---------------------------------------------------------------------

 SCF Done:  E(RHF) =  -366.821042396     A.U. after    2 cycles

 The electronic state is 1-A.
 Alpha  occ. eigenvalues --  -25.83974 -15.44707 -15.44228 -11.22331 -11.07236
 Alpha  occ. eigenvalues --  -11.06458 -11.06398  -1.35064  -1.02489  -0.94047
 Alpha  occ. eigenvalues --   -0.89795  -0.76775  -0.70691  -0.59053  -0.53716
 Alpha  occ. eigenvalues --   -0.51066  -0.49462  -0.47313  -0.44669  -0.41636
 Alpha  occ. eigenvalues --   -0.40620  -0.39801  -0.38620  -0.37407  -0.34748
 Alpha  occ. eigenvalues --   -0.31664  -0.31330  -0.26857  -0.22310  -0.09516
 Alpha virt. eigenvalues --    0.13232   0.13521   0.13992   0.15231   0.15663
 Alpha virt. eigenvalues --    0.16491   0.17007   0.17524   0.18087   0.18438
 Alpha virt. eigenvalues --    0.19552   0.21252   0.23788   0.25446   0.26252

 Mulliken charges:
               1
     1  C   -0.317704
     2  H   -0.209489
     3  F   -0.678367
     4  H   -0.459574
     5  C   -0.621965
     6  N   -0.098550
     7  H    0.005087
     8  H    0.015006
     9  N   -0.142465
    10  H    0.050910
    11  H    0.007085
    12  C    0.920613
    13  H    0.021496
    14  H   -0.024979
    15  H   -0.054221
    16  C    0.682033
    17  H   -0.035959
    18  H    0.007569
    19  H   -0.066526
 Sum of Mulliken charges =  -1.00000

 Dipole moment (field-independent basis, Debye):
    X=             -0.6876    Y=             -1.4630    Z=              2.7973  Tot=              3.2309

 Test job not archived.
 1\1\GINC-SE249\SP\RHF\Aug-CC-pVDZ\C4H12F1N2(1-)\OHZDE\09-Apr-2025\0\\#
 t hf aug-cc-pvdz iop(5/13=1,5/36=2,99/5=2) pseudo=read geom=check gues
 s=(read,tcheck) scf=(maxcycle=1)\\title\\-1,1\C,0,0.54967663,-0.077343
 59,-0.02811383\H,0,1.62663413,1.69637367,-0.38405395\F,0,-1.11055226,-
 0.22140406,-0.38599657\H,0,2.3523256,-0.05241722,0.46183192\C,0,0.5993
 4358,1.46117511,-0.11108501\N,0,0.93653477,-0.77594208,-1.24934341\H,0
 ,0.19131541,-1.43495358,-1.44511816\H,0,1.80542781,-1.24863856,-1.0624
 9306\N,0,0.3388648,-0.7523922,1.24829963\H,0,1.1855113,-1.24297331,1.4

 Normal termination of Gaussian 16 at Wed Apr  9 02:57:29 2025.
