 Gaussian 16, Revision C.01,

 ----------------------------------------------------------------------
 #t hf aug-cc-pvdz symm=none int=(grid=ultrafine) guess=(read,tcheck) s
 table=(opt,rrhf)
 ----------------------------------------------------------------------
 -----
 title
 -----
 Symbolic Z-matrix:
 Charge = -1 Multiplicity = 1

 SCF Done:  E(RHF) =  -987.917961310     A.U. after   17 cycles
 Normal termination of Gaussian 16 at Wed Apr  9 02:37:19 2025.
 Gaussian 16:  ES64L-G16RevC.01  3-Jul-2019

 ----------------------------------------------------------------------
 #t hf aug-cc-pvdz iop(5/13=1,5/36=2,99/5=2) pseudo=read geom=check gue
 ss=(read,tcheck) scf=(maxcycle=1)
 ----------------------------------------------------------------------
 -----
 title
 -----
 Structure from the checkpoint file:  "E2SN2_180_mol2.chk"
 Charge = -1 Multiplicity = 1

                         Standard orientation:
 ---------------------------------------------------------------------
 Center     Atomic      Atomic             Coordinates (Angstroms)
 Number     Number       Type             X           Y           Z
 ---------------------------------------------------------------------
      1          6           0       -0.696214    0.178123    0.190967
      2          6           0        0.355456   -0.354648   -0.795480
      3         17           0       -2.303478    0.122548   -0.611270
      4          1           0        0.293308    0.157184   -1.761055
      5          1           0       -0.717606   -0.599905    1.032711
      6          6           0       -0.460379    1.534619    0.646333
      7          7           0       -0.306138    2.618654    1.075679
      8          7           0        0.246163   -1.747272   -0.869277
      9          1           0        1.029693   -2.167763   -1.347375
     10          1           0        0.079933   -2.120503    0.095862
     11          7           0        1.738124    0.152731   -0.280676
     12          8           0        2.119817    1.238840   -0.722351
     13          8           0        2.365880   -0.557136    0.498120
     14          9           0       -0.483557   -2.013701    1.603810
 ---------------------------------------------------------------------

 SCF Done:  E(RHF) =  -988.091918763     A.U. after    2 cycles

 The electronic state is 1-A.
 Alpha  occ. eigenvalues -- -103.55043 -25.78834 -20.50367 -20.49972 -15.78316
 Alpha  occ. eigenvalues --  -15.53408 -15.48584 -11.23693 -11.21259 -11.18589
 Alpha  occ. eigenvalues --  -10.58316  -8.24042  -8.23745  -8.23729  -1.41967
 Alpha  occ. eigenvalues --   -1.28352  -1.23977  -1.10611  -1.06679  -1.04016
 Alpha  occ. eigenvalues --   -0.91062  -0.83250  -0.72080  -0.65483  -0.63412
 Alpha  occ. eigenvalues --   -0.61220  -0.59220  -0.53032  -0.51219  -0.47517
 Alpha  occ. eigenvalues --   -0.46406  -0.43904  -0.40891  -0.39543  -0.38985
 Alpha  occ. eigenvalues --   -0.38009  -0.36846  -0.36103  -0.35304  -0.34662
 Alpha  occ. eigenvalues --   -0.33372  -0.30103  -0.28374
 Alpha virt. eigenvalues --    0.12579   0.13923   0.16064   0.17964   0.18838
 Alpha virt. eigenvalues --    0.19200   0.19605   0.21134   0.22567   0.23250
 Alpha virt. eigenvalues --    0.24574   0.24987   0.25490   0.26448   0.26891

 Mulliken charges:
               1
     1  C    0.414152
     2  C    1.150765
     3  Cl  -0.131221
     4  H   -0.145099
     5  H    0.148211
     6  C   -0.277231
     7  N   -0.239868
     8  N   -0.357105
     9  H   -0.019434
    10  H    0.207337
    11  N    0.366780
    12  O   -0.631667
    13  O   -0.573128
    14  F   -0.912491
 Sum of Mulliken charges =  -1.00000

 Dipole moment (field-independent basis, Debye):
    X=              0.0649    Y=              1.1377    Z=             -5.9297  Tot=              6.0382

 Test job not archived.
 1\1\GINC-SE341\SP\RHF\Aug-CC-pVDZ\C3H4Cl1F1N3O2(1-)\OHZDE\09-Apr-2025\
 0\\#t hf aug-cc-pvdz iop(5/13=1,5/36=2,99/5=2) pseudo=read geom=check
 guess=(read,tcheck) scf=(maxcycle=1)\\title\\-1,1\C,0,-0.256237,-0.113
 278,0.024751\C,0,-0.384052,0.107445,-1.491124\Cl,0,1.164543,0.81643,0.
 613816\H,0,0.559683,-0.0985,-2.006022\H,0,-1.188014,0.388536,0.465539\
 C,0,-0.089618,-1.499042,0.418391\N,0,0.016438,-2.60589,0.801666\N,0,-0
 .904257,1.385128,-1.722873\H,0,-1.190331,1.513494,-2.682557\H,0,-1.659
 277,1.570492,-1.020013\N,0,-1.27474,-1.054166,-2.031088\O,0,-0.681773,

 Normal termination of Gaussian 16 at Wed Apr  9 02:37:26 2025.
