 Gaussian 16, Revision C.01,

 ----------------------------------------------------------------------
 #t hf aug-cc-pvdz symm=none int=(grid=ultrafine) guess=(read,tcheck) s
 table=(opt,rrhf)
 ----------------------------------------------------------------------
 -----
 title
 -----
 Symbolic Z-matrix:
 Charge = -1 Multiplicity = 1

 SCF Done:  E(RHF) =  -987.964994459     A.U. after   16 cycles
 Normal termination of Gaussian 16 at Wed Apr  9 02:43:25 2025.
 Gaussian 16:  ES64L-G16RevC.01  3-Jul-2019

 ----------------------------------------------------------------------
 #t hf aug-cc-pvdz iop(5/13=1,5/36=2,99/5=2) pseudo=read geom=check gue
 ss=(read,tcheck) scf=(maxcycle=1)
 ----------------------------------------------------------------------
 -----
 title
 -----
 Structure from the checkpoint file:  "E2SN2_250_mol2.chk"
 Charge = -1 Multiplicity = 1

                         Standard orientation:
 ---------------------------------------------------------------------
 Center     Atomic      Atomic             Coordinates (Angstroms)
 Number     Number       Type             X           Y           Z
 ---------------------------------------------------------------------
      1          6           0       -0.254077   -0.972558    0.275119
      2          6           0       -0.438071    0.399090    0.937983
      3          9           0       -0.165758   -1.905401    1.300004
      4          1           0       -1.259432    0.338338    1.657899
      5          1           0        0.694700   -0.971434   -0.281079
      6          6           0       -1.364446   -1.384663   -0.593866
      7          7           0       -2.211638   -1.797747   -1.293597
      8          7           0       -1.014385    1.388688   -0.114135
      9          8           0       -0.255034    2.210740   -0.613237
     10          8           0       -2.223016    1.297690   -0.334049
     11          7           0        0.773979    0.794770    1.515839
     12          1           0        1.559342    0.682001    0.867370
     13          1           0        0.739405    1.732754    1.887565
     14         17           0        2.887417   -0.214805   -0.748568
 ---------------------------------------------------------------------

 SCF Done:  E(RHF) =  -988.139518278     A.U. after    2 cycles

 The electronic state is 1-A.
 Alpha  occ. eigenvalues -- -103.38851 -26.03457 -20.52482 -20.51869 -15.80570
 Alpha  occ. eigenvalues --  -15.55872 -15.51825 -11.27717 -11.25991 -11.20357
 Alpha  occ. eigenvalues --  -10.41956  -8.07560  -8.07530  -8.07507  -1.56753
 Alpha  occ. eigenvalues --   -1.44112  -1.26170  -1.11296  -1.09043  -0.95989
 Alpha  occ. eigenvalues --   -0.88243  -0.84302  -0.75450  -0.70980  -0.68490
 Alpha  occ. eigenvalues --   -0.67040  -0.64030  -0.63519  -0.60743  -0.58734
 Alpha  occ. eigenvalues --   -0.52770  -0.51396  -0.46374  -0.45385  -0.42755
 Alpha  occ. eigenvalues --   -0.41176  -0.38457  -0.36941  -0.35836  -0.31594
 Alpha  occ. eigenvalues --   -0.22393  -0.22135  -0.21889
 Alpha virt. eigenvalues --    0.11514   0.13450   0.16201   0.17382   0.18152
 Alpha virt. eigenvalues --    0.18645   0.19854   0.21211   0.21795   0.23130
 Alpha virt. eigenvalues --    0.23957   0.24027   0.24241   0.25591   0.25980

 Mulliken charges:
               1
     1  C    1.238179
     2  C    1.039387
     3  F   -0.427286
     4  H   -0.124031
     5  H   -0.182597
     6  C   -0.425235
     7  N   -0.225367
     8  N    0.359878
     9  O   -0.552150
    10  O   -0.612329
    11  N   -0.225689
    12  H    0.057378
    13  H   -0.004315
    14  Cl  -0.915825
 Sum of Mulliken charges =  -1.00000

 Dipole moment (field-independent basis, Debye):
    X=             -6.4183    Y=              1.9579    Z=              5.2543  Tot=              8.5227

 Test job not archived.
 1\1\GINC-SE292\SP\RHF\Aug-CC-pVDZ\C3H4Cl1F1N3O2(1-)\OHZDE\09-Apr-2025\
 0\\#t hf aug-cc-pvdz iop(5/13=1,5/36=2,99/5=2) pseudo=read geom=check
 guess=(read,tcheck) scf=(maxcycle=1)\\title\\-1,1\C,0,-0.307084,0.1048
 76,0.002153\C,0,-0.315763,-0.341119,-1.466068\F,0,0.679139,-0.635169,0
 .640967\H,0,0.70467,-0.294621,-1.857423\H,0,-1.279254,-0.14362,0.45234
 2\C,0,0.012174,1.523977,0.207367\N,0,0.272018,2.639946,0.462494\N,0,-1
 .028336,0.749765,-2.314953\O,0,-2.174775,0.534717,-2.690341\O,0,-0.355
 398,1.744682,-2.588317\N,0,-0.882572,-1.618081,-1.553471\H,0,-1.763051

 Normal termination of Gaussian 16 at Wed Apr  9 02:43:32 2025.
