 Gaussian 16, Revision C.01,

 ----------------------------------------------------------------------
 #t hf aug-cc-pvdz symm=none int=(grid=ultrafine) guess=(read,tcheck) s
 table=(opt,rrhf)
 ----------------------------------------------------------------------
 -----
 title
 -----
 Symbolic Z-matrix:
 Charge = -1 Multiplicity = 1

 SCF Done:  E(RHF) =  -974.230569556     A.U. after   16 cycles
 Normal termination of Gaussian 16 at Wed Apr  9 02:53:07 2025.
 Gaussian 16:  ES64L-G16RevC.01  3-Jul-2019

 ----------------------------------------------------------------------
 #t hf aug-cc-pvdz iop(5/13=1,5/36=2,99/5=2) pseudo=read geom=check gue
 ss=(read,tcheck) scf=(maxcycle=1)
 ----------------------------------------------------------------------
 -----
 title
 -----
 Structure from the checkpoint file:  "E2SN2_345_mol1.chk"
 Charge = -1 Multiplicity = 1

                         Standard orientation:
 ---------------------------------------------------------------------
 Center     Atomic      Atomic             Coordinates (Angstroms)
 Number     Number       Type             X           Y           Z
 ---------------------------------------------------------------------
      1          6           0        0.935600   -0.051168   -0.102425
      2          1           0       -0.063363   -1.643588    0.811456
      3         17           0       -0.028029    2.020639   -0.404648
      4          9           0        1.710553   -1.930781    0.280586
      5          6           0       -0.275223   -0.584320    0.673975
      6          6           0        2.109188    0.502145    0.676956
      7          1           0        2.494826    1.393937    0.183995
      8          1           0        1.810017    0.753936    1.691640
      9          1           0        2.857925   -0.284631    0.702819
     10          6           0        1.134302   -0.293565   -1.579495
     11          1           0        1.392918   -1.341112   -1.701806
     12          1           0        0.253254   -0.049488   -2.163782
     13          1           0        1.957336    0.339445   -1.917707
     14          7           0       -1.559737   -0.598052   -0.180999
     15          8           0       -2.570954   -0.073808    0.281635
     16          8           0       -1.530636   -1.239887   -1.228584
     17          7           0       -0.478870    0.065235    1.917768
     18          1           0       -1.243220   -0.376162    2.409668
     19          1           0       -0.718425    1.034552    1.741592
 ---------------------------------------------------------------------

 SCF Done:  E(RHF) =  -974.399232261     A.U. after    2 cycles

 The electronic state is 1-A.
 Alpha  occ. eigenvalues -- -103.43153 -25.78912 -20.48809 -20.48542 -15.77429
 Alpha  occ. eigenvalues --  -15.49909 -11.23411 -11.21019 -11.09570 -11.09535
 Alpha  occ. eigenvalues --  -10.46490  -8.12122  -8.12016  -8.12004  -1.40840
 Alpha  occ. eigenvalues --   -1.28794  -1.22682  -1.07943  -0.95768  -0.88859
 Alpha  occ. eigenvalues --   -0.86996  -0.81492  -0.73537  -0.66097  -0.62420
 Alpha  occ. eigenvalues --   -0.60756  -0.57716  -0.55044  -0.50765  -0.48052
 Alpha  occ. eigenvalues --   -0.46111  -0.44650  -0.44120  -0.40748  -0.39255
 Alpha  occ. eigenvalues --   -0.38526  -0.37092  -0.36209  -0.35823  -0.35397
 Alpha  occ. eigenvalues --   -0.34122  -0.29776  -0.26785  -0.26146  -0.26067
 Alpha virt. eigenvalues --    0.12707   0.13474   0.14269   0.15165   0.16038
 Alpha virt. eigenvalues --    0.16611   0.17460   0.17783   0.18402   0.21118
 Alpha virt. eigenvalues --    0.21814   0.22418   0.23083   0.24267   0.24698

 Mulliken charges:
               1
     1  C   -1.544950
     2  H    0.024157
     3  Cl  -0.719039
     4  F   -0.890282
     5  C    1.527567
     6  C    0.503954
     7  H   -0.011265
     8  H   -0.036765
     9  H    0.144731
    10  C    0.873258
    11  H    0.127708
    12  H    0.038040
    13  H   -0.010845
    14  N    0.398292
    15  O   -0.632400
    16  O   -0.619047
    17  N   -0.200338
    18  H   -0.033134
    19  H    0.060360
 Sum of Mulliken charges =  -1.00000

 Dipole moment (field-independent basis, Debye):
    X=             -0.5432    Y=              0.6629    Z=              1.5954  Tot=              1.8110

 Test job not archived.
 1\1\GINC-SE109\SP\RHF\Aug-CC-pVDZ\C4H9Cl1F1N2O2(1-)\OHZDE\09-Apr-2025\
 0\\#t hf aug-cc-pvdz iop(5/13=1,5/36=2,99/5=2) pseudo=read geom=check
 guess=(read,tcheck) scf=(maxcycle=1)\\title\\-1,1\C,0,0.5218134,-0.069
 59182,0.0076964\H,0,1.77066188,1.60091709,0.14438508\Cl,0,-1.77742311,
 0.087859,-0.02433175\F,0,2.5905214,-0.07626766,-0.01673596\C,0,0.70123
 331,1.45385976,0.00109612\C,0,0.58505405,-0.81194442,-1.30980537\H,0,-
 0.17482033,-1.59237665,-1.33296611\H,0,0.42445109,-0.12985719,-2.14133
 906\H,0,1.58304903,-1.23632647,-1.37460769\C,0,0.5552925,-0.8939141,1.

 Normal termination of Gaussian 16 at Wed Apr  9 02:53:19 2025.
