 Gaussian 16, Revision C.01,

 ----------------------------------------------------------------------
 #t hf aug-cc-pvdz symm=none int=(grid=ultrafine) guess=(read,tcheck) s
 table=(opt,rrhf)
 ----------------------------------------------------------------------
 -----
 title
 -----
 Symbolic Z-matrix:
 Charge = -1 Multiplicity = 1

 SCF Done:  E(RHF) =  -536.122123918     A.U. after   15 cycles
 Normal termination of Gaussian 16 at Wed Apr  9 02:40:43 2025.
 Gaussian 16:  ES64L-G16RevC.01  3-Jul-2019

 ----------------------------------------------------------------------
 #t hf aug-cc-pvdz iop(5/13=1,5/36=2,99/5=2) pseudo=read geom=check gue
 ss=(read,tcheck) scf=(maxcycle=1)
 ----------------------------------------------------------------------
 -----
 title
 -----
 Structure from the checkpoint file:  "E2SN2_222_mol2.chk"
 Charge = -1 Multiplicity = 1

                         Standard orientation:
 ---------------------------------------------------------------------
 Center     Atomic      Atomic             Coordinates (Angstroms)
 Number     Number       Type             X           Y           Z
 ---------------------------------------------------------------------
      1          6           0       -0.051974   -0.148258   -0.234383
      2          6           0        0.701560   -0.337183    1.074514
      3          9           0       -0.119616   -1.345763   -0.910976
      4          1           0        0.647031    0.612292    1.608575
      5          1           0        0.504167    0.613447   -0.822845
      6          1           0        0.197182   -1.112488    1.668206
      7          7           0       -1.458572    0.283608    0.038340
      8          8           0       -2.396379   -0.438837   -0.294995
      9          8           0       -1.576893    1.367230    0.611719
     10          7           0        2.099448   -0.667348    0.847904
     11          1           0        2.122177   -1.539775    0.329352
     12          1           0        2.394232    0.075017    0.177271
     13          9           0        2.068253    1.292783   -0.948894
 ---------------------------------------------------------------------

 SCF Done:  E(RHF) =  -536.290263620     A.U. after    2 cycles

 The electronic state is 1-A.
 Alpha  occ. eigenvalues --  -25.99894 -25.75827 -20.49961 -20.49506 -15.78734
 Alpha  occ. eigenvalues --  -15.45100 -11.23065 -11.13947  -1.53717  -1.41753
 Alpha  occ. eigenvalues --   -1.24804  -1.23630  -1.02065  -0.94014  -0.77732
 Alpha  occ. eigenvalues --   -0.72246  -0.67365  -0.65043  -0.62228  -0.59273
 Alpha  occ. eigenvalues --   -0.58548  -0.54743  -0.50567  -0.44222  -0.41798
 Alpha  occ. eigenvalues --   -0.39883  -0.39256  -0.38802  -0.35301  -0.34727
 Alpha  occ. eigenvalues --   -0.33387  -0.32269  -0.24954
 Alpha virt. eigenvalues --    0.13562   0.15097   0.16099   0.17220   0.19757
 Alpha virt. eigenvalues --    0.20196   0.22020   0.22913   0.23079   0.24339
 Alpha virt. eigenvalues --    0.26039   0.27179   0.28423   0.29230   0.31762

 Mulliken charges:
               1
     1  C    1.216243
     2  C    0.531640
     3  F   -0.364823
     4  H   -0.037365
     5  H   -0.133071
     6  H   -0.111640
     7  N    0.369128
     8  O   -0.594345
     9  O   -0.620581
    10  N   -0.515955
    11  H    0.038555
    12  H    0.159567
    13  F   -0.937354
 Sum of Mulliken charges =  -1.00000

 Dipole moment (field-independent basis, Debye):
    X=             -4.0780    Y=             -3.6913    Z=              2.1184  Tot=              5.8943

 Test job not archived.
 1\1\GINC-SE123\SP\RHF\Aug-CC-pVDZ\C2H5F2N2O2(1-)\OHZDE\09-Apr-2025\0\\
 #t hf aug-cc-pvdz iop(5/13=1,5/36=2,99/5=2) pseudo=read geom=check gue
 ss=(read,tcheck) scf=(maxcycle=1)\\title\\-1,1\C,0,-0.391944,0.077197,
 0.144551\C,0,-0.467673,0.342175,-1.352369\F,0,0.567367,-0.87673,0.4016
 83\H,0,-1.171661,1.16368,-1.491033\H,0,-1.398222,-0.27021,0.464687\H,0
 ,0.523451,0.654462,-1.710302\N,0,0.018765,1.321082,0.868065\O,0,1.0788
 53,1.345248,1.491083\O,0,-0.759638,2.270591,0.770488\N,0,-0.95365,-0.8
 18893,-2.080517\H,0,-0.295825,-1.574289,-1.915644\H,0,-1.816273,-1.065

 Normal termination of Gaussian 16 at Wed Apr  9 02:40:48 2025.
