 Gaussian 16, Revision C.01,

 ----------------------------------------------------------------------
 #t hf aug-cc-pvdz symm=none int=(grid=ultrafine) guess=(read,tcheck) s
 table=(opt,rrhf)
 ----------------------------------------------------------------------
 -----
 title
 -----
 Symbolic Z-matrix:
 Charge = -1 Multiplicity = 1

 SCF Done:  E(RHF) =  -1295.25172010     A.U. after   16 cycles
 Normal termination of Gaussian 16 at Wed Apr  9 02:27:47 2025.
 Gaussian 16:  ES64L-G16RevC.01  3-Jul-2019

 ----------------------------------------------------------------------
 #t hf aug-cc-pvdz iop(5/13=1,5/36=2,99/5=2) pseudo=read geom=check gue
 ss=(read,tcheck) scf=(maxcycle=1)
 ----------------------------------------------------------------------
 -----
 title
 -----
 Structure from the checkpoint file:  "E2SN2_106_mol1.chk"
 Charge = -1 Multiplicity = 1

                         Standard orientation:
 ---------------------------------------------------------------------
 Center     Atomic      Atomic             Coordinates (Angstroms)
 Number     Number       Type             X           Y           Z
 ---------------------------------------------------------------------
      1          6           0       -0.348633   -0.054003   -0.401457
      2          6           0        0.435325    1.092205   -0.277871
      3         17           0       -2.617961    0.576311   -0.459689
      4         17           0        3.158343   -0.094097   -0.265522
      5          1           0        1.734603    0.415924   -0.220564
      6          1           0        0.602332    1.574171   -1.240735
      7          6           0       -0.262800   -0.848271   -1.665467
      8          1           0       -0.270891   -0.161292   -2.512195
      9          1           0        0.665536   -1.430274   -1.678668
     10          1           0       -1.109896   -1.522396   -1.747811
     11          7           0        0.449992    2.025800    0.803820
     12          1           0       -0.362628    2.627500    0.684345
     13          1           0        0.309459    1.517183    1.665513
     14          7           0       -0.519301   -0.914122    0.798735
     15          8           0       -0.342060   -0.422185    1.915994
     16          8           0       -0.809591   -2.095288    0.612705
 ---------------------------------------------------------------------

 SCF Done:  E(RHF) =  -1295.39522447     A.U. after    2 cycles

 The electronic state is 1-A.
 Alpha  occ. eigenvalues -- -103.47217-103.43864 -20.51061 -20.50619 -15.80732
 Alpha  occ. eigenvalues --  -15.49367 -11.25662 -11.14759 -11.13820 -10.50500
 Alpha  occ. eigenvalues --  -10.47038  -8.16171  -8.15994  -8.15992  -8.12669
 Alpha  occ. eigenvalues --   -8.12548  -8.12544  -1.43178  -1.24754  -1.06436
 Alpha  occ. eigenvalues --   -0.99564  -0.94603  -0.89219  -0.85376  -0.80295
 Alpha  occ. eigenvalues --   -0.70105  -0.62841  -0.61029  -0.58989  -0.55206
 Alpha  occ. eigenvalues --   -0.49968  -0.49018  -0.47668  -0.44459  -0.42990
 Alpha  occ. eigenvalues --   -0.40197  -0.39034  -0.36140  -0.32479  -0.30089
 Alpha  occ. eigenvalues --   -0.29975  -0.29422  -0.26787  -0.26594  -0.18717
 Alpha virt. eigenvalues --    0.12927   0.13586   0.13804   0.14515   0.15830
 Alpha virt. eigenvalues --    0.16164   0.17198   0.18974   0.20297   0.22550
 Alpha virt. eigenvalues --    0.23758   0.24095   0.25108   0.26078   0.26345

 Mulliken charges:
               1
     1  C    0.165726
     2  C    0.329632
     3  Cl  -0.673506
     4  Cl  -0.598863
     5  H    0.602117
     6  H   -0.250603
     7  C    0.490480
     8  H    0.040693
     9  H    0.113686
    10  H   -0.002838
    11  N   -0.390611
    12  H    0.033659
    13  H    0.031724
    14  N    0.377430
    15  O   -0.668244
    16  O   -0.600483
 Sum of Mulliken charges =  -1.00000

 Dipole moment (field-independent basis, Debye):
    X=              0.2212    Y=             -0.0498    Z=             -1.7439  Tot=              1.7586

 Test job not archived.
 1\1\GINC-SE292\SP\RHF\Aug-CC-pVDZ\C3H7Cl2N2O2(1-)\OHZDE\09-Apr-2025\0\
 \#t hf aug-cc-pvdz iop(5/13=1,5/36=2,99/5=2) pseudo=read geom=check gu
 ess=(read,tcheck) scf=(maxcycle=1)\\title\\-1,1\C,0,-0.37838819,-0.064
 71908,-0.14941494\C,0,-0.22073767,-0.08011168,1.2357078\Cl,0,1.7492421
 7,0.00493362,-1.15880873\Cl,0,-3.05483909,-0.19119837,2.11764942\H,0,-
 1.64586802,-0.0743533,1.57882836\H,0,-0.01971709,-1.08382638,1.6091197
 1\C,0,-0.94891428,-1.27368306,-0.81938236\H,0,-0.48265986,-2.16283445,
 -0.39397441\H,0,-2.03128514,-1.31660339,-0.6540363\H,0,-0.74998374,-1.

 Normal termination of Gaussian 16 at Wed Apr  9 02:27:54 2025.
