 Gaussian 16, Revision C.01,

 ----------------------------------------------------------------------
 #t hf aug-cc-pvdz symm=none int=(grid=ultrafine) guess=(read,tcheck) s
 table=(opt,rrhf)
 ----------------------------------------------------------------------
 -----
 title
 -----
 Symbolic Z-matrix:
 Charge = -1 Multiplicity = 1

 SCF Done:  E(RHF) =  -876.124993648     A.U. after   16 cycles
 Normal termination of Gaussian 16 at Wed Apr  9 02:43:02 2025.
 Gaussian 16:  ES64L-G16RevC.01  3-Jul-2019

 ----------------------------------------------------------------------
 #t hf aug-cc-pvdz iop(5/13=1,5/36=2,99/5=2) pseudo=read geom=check gue
 ss=(read,tcheck) scf=(maxcycle=1)
 ----------------------------------------------------------------------
 -----
 title
 -----
 Structure from the checkpoint file:  "E2SN2_253_mol1.chk"
 Charge = -1 Multiplicity = 1

                         Standard orientation:
 ---------------------------------------------------------------------
 Center     Atomic      Atomic             Coordinates (Angstroms)
 Number     Number       Type             X           Y           Z
 ---------------------------------------------------------------------
      1          6           0        0.453873   -0.198627   -0.450328
      2          1           0       -0.448015   -1.674825    0.680409
      3         17           0        0.092837    1.903699   -0.493368
      4          9           0        0.797057   -2.123476   -0.774198
      5          6           0       -0.633704   -0.611368    0.531957
      6          1           0        0.284280   -0.291116   -1.505233
      7          6           0        1.812788   -0.182411    0.029030
      8          7           0        2.918786   -0.105344    0.419396
      9          6           0       -1.961708   -0.482318   -0.104032
     10          7           0       -3.059582   -0.414062   -0.517532
     11          7           0       -0.527893    0.069075    1.811463
     12          1           0       -1.194463   -0.336738    2.456207
     13          1           0       -0.740220    1.051742    1.690603
 ---------------------------------------------------------------------

 SCF Done:  E(RHF) =  -876.260759059     A.U. after    2 cycles

 The electronic state is 1-A.
 Alpha  occ. eigenvalues -- -103.48167 -25.80918 -15.53469 -15.52008 -15.51337
 Alpha  occ. eigenvalues --  -11.26022 -11.21277 -11.18482 -11.17609 -10.51456
 Alpha  occ. eigenvalues --   -8.17111  -8.16943  -8.16925  -1.30628  -1.10188
 Alpha  occ. eigenvalues --   -1.06104  -1.04843  -0.97219  -0.90344  -0.80634
 Alpha  occ. eigenvalues --   -0.63252  -0.60142  -0.58461  -0.51548  -0.47908
 Alpha  occ. eigenvalues --   -0.44505  -0.43784  -0.42312  -0.40337  -0.39770
 Alpha  occ. eigenvalues --   -0.36013  -0.34573  -0.33516  -0.32810  -0.31223
 Alpha  occ. eigenvalues --   -0.30418  -0.30047  -0.28977
 Alpha virt. eigenvalues --    0.12029   0.14363   0.14958   0.16884   0.17596
 Alpha virt. eigenvalues --    0.19588   0.19814   0.20880   0.23107   0.23311
 Alpha virt. eigenvalues --    0.23516   0.24271   0.25266   0.26342   0.26836

 Mulliken charges:
               1
     1  C    1.407028
     2  H   -0.034254
     3  Cl  -0.541603
     4  F   -0.862271
     5  C    1.080210
     6  H   -0.413544
     7  C   -0.621361
     8  N   -0.214817
     9  C   -0.172121
    10  N   -0.274819
    11  N   -0.395129
    12  H    0.003974
    13  H    0.038708
 Sum of Mulliken charges =  -1.00000

 Dipole moment (field-independent basis, Debye):
    X=             -3.1953    Y=              1.9872    Z=              2.9744  Tot=              4.7965

 Test job not archived.
 1\1\GINC-SE339\SP\RHF\Aug-CC-pVDZ\C4H4Cl1F1N3(1-)\OHZDE\09-Apr-2025\0\
 \#t hf aug-cc-pvdz iop(5/13=1,5/36=2,99/5=2) pseudo=read geom=check gu
 ess=(read,tcheck) scf=(maxcycle=1)\\title\\-1,1\C,0,0.50530118,-0.0504
 2203,-0.04787331\H,0,1.68943372,1.63939851,-0.1639101\Cl,0,-1.62030849
 ,-0.23403453,-0.05454415\F,0,2.46627334,-0.12388599,0.229437\C,0,0.617
 60084,1.4678151,-0.06802966\H,0,0.58945949,-0.58020154,0.88077641\C,0,
 0.79454728,-0.75576857,-1.2707884\N,0,0.96792215,-1.34257626,-2.274358
 51\C,0,0.19966054,2.02080357,1.23744315\N,0,-0.11218613,2.55748409,2.2

 Normal termination of Gaussian 16 at Wed Apr  9 02:43:08 2025.
