 Gaussian 16, Revision C.01,

 ----------------------------------------------------------------------
 #t hf aug-cc-pvdz symm=none int=(grid=ultrafine) guess=(read,tcheck) s
 table=(opt,rrhf)
 ----------------------------------------------------------------------
 -----
 title
 -----
 Symbolic Z-matrix:
 Charge = -1 Multiplicity = 1

 SCF Done:  E(RHF) =  -974.220983923     A.U. after   16 cycles
 Normal termination of Gaussian 16 at Wed Apr  9 02:44:03 2025.
 Gaussian 16:  ES64L-G16RevC.01  3-Jul-2019

 ----------------------------------------------------------------------
 #t hf aug-cc-pvdz iop(5/13=1,5/36=2,99/5=2) pseudo=read geom=check gue
 ss=(read,tcheck) scf=(maxcycle=1)
 ----------------------------------------------------------------------
 -----
 title
 -----
 Structure from the checkpoint file:  "E2SN2_246_mol1.chk"
 Charge = -1 Multiplicity = 1

                         Standard orientation:
 ---------------------------------------------------------------------
 Center     Atomic      Atomic             Coordinates (Angstroms)
 Number     Number       Type             X           Y           Z
 ---------------------------------------------------------------------
      1          6           0        0.038530    0.040397    0.326996
      2          1           0       -0.916315    0.765692   -1.406158
      3          9           0       -0.594628   -1.735950    0.980440
      4         17           0        1.136044    1.815221   -0.387657
      5          6           0       -1.244139    0.320928   -0.465704
      6          7           0        1.063950   -0.868917   -0.322400
      7          8           0        0.854500   -1.222000   -1.476746
      8          8           0        2.047251   -1.162711    0.342831
      9          7           0        0.190396    0.362832    1.690579
     10          1           0        1.136550    0.674861    1.855323
     11          1           0        0.019285   -0.520666    2.160742
     12          6           0       -2.058697    1.359054    0.300389
     13          1           0       -2.403602    0.936096    1.245907
     14          1           0       -1.464986    2.245017    0.521489
     15          1           0       -2.930184    1.650339   -0.295891
     16          6           0       -2.127851   -0.871109   -0.832910
     17          1           0       -1.555150   -1.645432   -1.336526
     18          1           0       -2.576588   -1.310513    0.053164
     19          1           0       -2.911610   -0.505935   -1.510403
 ---------------------------------------------------------------------

 SCF Done:  E(RHF) =  -974.391545275     A.U. after    2 cycles

 The electronic state is 1-A.
 Alpha  occ. eigenvalues -- -103.45275 -25.81050 -20.47310 -20.47247 -15.77694
 Alpha  occ. eigenvalues --  -15.48710 -11.30223 -11.12404 -11.09904 -11.08591
 Alpha  occ. eigenvalues --  -10.48601  -8.14252  -8.14096  -8.14087  -1.40279
 Alpha  occ. eigenvalues --   -1.31155  -1.21972  -1.07516  -0.94995  -0.91543
 Alpha  occ. eigenvalues --   -0.86568  -0.79559  -0.72307  -0.65597  -0.60819
 Alpha  occ. eigenvalues --   -0.59437  -0.58415  -0.54911  -0.50467  -0.48725
 Alpha  occ. eigenvalues --   -0.43928  -0.42357  -0.41673  -0.40632  -0.39762
 Alpha  occ. eigenvalues --   -0.38227  -0.37570  -0.36458  -0.35189  -0.34925
 Alpha  occ. eigenvalues --   -0.32795  -0.29275  -0.28282  -0.27675  -0.27462
 Alpha virt. eigenvalues --    0.12244   0.13334   0.14244   0.14924   0.15975
 Alpha virt. eigenvalues --    0.16482   0.16712   0.17568   0.18266   0.19142
 Alpha virt. eigenvalues --    0.22173   0.23004   0.23816   0.24635   0.25439

 Mulliken charges:
               1
     1  C    0.596780
     2  H   -0.034383
     3  F   -0.829314
     4  Cl  -0.528537
     5  C   -0.701772
     6  N    0.653262
     7  O   -0.701430
     8  O   -0.698572
     9  N   -0.288221
    10  H    0.086899
    11  H    0.167853
    12  C    0.715649
    13  H    0.010514
    14  H   -0.053685
    15  H   -0.085520
    16  C    0.696845
    17  H   -0.013692
    18  H    0.061878
    19  H   -0.054556
 Sum of Mulliken charges =  -1.00000

 Dipole moment (field-independent basis, Debye):
    X=             -2.7303    Y=              2.1376    Z=              0.3236  Tot=              3.4826

 Test job not archived.
 1\1\GINC-SE090\SP\RHF\Aug-CC-pVDZ\C4H9Cl1F1N2O2(1-)\OHZDE\09-Apr-2025\
 0\\#t hf aug-cc-pvdz iop(5/13=1,5/36=2,99/5=2) pseudo=read geom=check
 guess=(read,tcheck) scf=(maxcycle=1)\\title\\-1,1\C,0,0.68476093,-0.04
 195355,0.04159817\H,0,1.62882636,1.76445465,-0.49434645\F,0,-1.1399519
 4,-0.31915376,-0.71791954\Cl,0,2.78806226,-0.1275567,0.70043337\C,0,0.
 6387982,1.4808836,-0.13494697\N,0,1.02377833,-0.86708274,-1.18489324\O
 ,0,1.35103483,-0.26251548,-2.19902016\O,0,0.97657984,-2.08349921,-1.06
 728114\N,0,0.18830574,-0.70292035,1.1831062\H,0,0.78880763,-1.48457388

 Normal termination of Gaussian 16 at Wed Apr  9 02:44:15 2025.
