 Gaussian 16, Revision C.01,

 ----------------------------------------------------------------------
 #t hf aug-cc-pvdz symm=none int=(grid=ultrafine) guess=(read,tcheck) s
 table=(opt,rrhf)
 ----------------------------------------------------------------------
 -----
 title
 -----
 Symbolic Z-matrix:
 Charge = -1 Multiplicity = 1

 SCF Done:  E(RHF) =  -839.451257054     A.U. after   15 cycles
 Normal termination of Gaussian 16 at Wed Apr  9 02:55:01 2025.
 Gaussian 16:  ES64L-G16RevC.01  3-Jul-2019

 ----------------------------------------------------------------------
 #t hf aug-cc-pvdz iop(5/13=1,5/36=2,99/5=2) pseudo=read geom=check gue
 ss=(read,tcheck) scf=(maxcycle=1)
 ----------------------------------------------------------------------
 -----
 title
 -----
 Structure from the checkpoint file:  "E2SN2_394_mol2.chk"
 Charge = -1 Multiplicity = 1

                         Standard orientation:
 ---------------------------------------------------------------------
 Center     Atomic      Atomic             Coordinates (Angstroms)
 Number     Number       Type             X           Y           Z
 ---------------------------------------------------------------------
      1          6           0        0.350933    0.094041   -0.101074
      2          6           0       -0.566247   -0.232607    1.088756
      3         17           0        1.583196   -1.240842   -0.278020
      4          1           0       -1.081833    0.709567    1.311677
      5          1           0        0.048004   -0.534986    1.943375
      6          7           0       -0.339586    0.268166   -1.350588
      7          1           0       -1.278617    0.684665   -1.093230
      8          1           0       -0.586975   -0.671736   -1.647034
      9          6           0        1.133355    1.304530    0.215339
     10          7           0        1.732524    2.270067    0.512838
     11          7           0       -1.506144   -1.265791    0.685847
     12          1           0       -1.894610   -1.687185    1.520909
     13          1           0       -2.247577   -0.707675    0.225903
     14          9           0       -2.732059    0.822087   -0.410009
 ---------------------------------------------------------------------

 SCF Done:  E(RHF) =  -839.580164396     A.U. after    2 cycles

 The electronic state is 1-A.
 Alpha  occ. eigenvalues -- -103.53391 -25.77107 -15.52614 -15.46401 -15.45903
 Alpha  occ. eigenvalues --  -11.24452 -11.17638 -11.14138 -10.56740  -8.22451
 Alpha  occ. eigenvalues --   -8.22174  -8.22165  -1.26303  -1.10625  -1.05283
 Alpha  occ. eigenvalues --   -1.00576  -0.98007  -0.83990  -0.71967  -0.56994
 Alpha  occ. eigenvalues --   -0.55498  -0.50909  -0.49472  -0.45543  -0.44018
 Alpha  occ. eigenvalues --   -0.41749  -0.40457  -0.36641  -0.36023  -0.34948
 Alpha  occ. eigenvalues --   -0.34532  -0.33823  -0.32794  -0.32492  -0.26741
 Alpha  occ. eigenvalues --   -0.25273
 Alpha virt. eigenvalues --    0.12755   0.14540   0.15305   0.16622   0.18058
 Alpha virt. eigenvalues --    0.18820   0.19412   0.19964   0.22903   0.23603
 Alpha virt. eigenvalues --    0.24037   0.24993   0.26457   0.27133   0.27702

 Mulliken charges:
               1
     1  C    0.460232
     2  C    1.142527
     3  Cl  -0.219393
     4  H   -0.028319
     5  H   -0.204087
     6  N   -0.527805
     7  H    0.178965
     8  H    0.111086
     9  C   -0.407099
    10  N   -0.232608
    11  N   -0.433805
    12  H   -0.049883
    13  H    0.159009
    14  F   -0.948820
 Sum of Mulliken charges =  -1.00000

 Dipole moment (field-independent basis, Debye):
    X=              3.6824    Y=             -4.3229    Z=              2.5591  Tot=              6.2287

 Test job not archived.
 1\1\GINC-SE453\SP\RHF\Aug-CC-pVDZ\C3H6Cl1F1N3(1-)\OHZDE\09-Apr-2025\0\
 \#t hf aug-cc-pvdz iop(5/13=1,5/36=2,99/5=2) pseudo=read geom=check gu
 ess=(read,tcheck) scf=(maxcycle=1)\\title\\-1,1\C,0,-0.026047,-0.06631
 1,0.027695\C,0,-0.652769,-0.411974,-1.332948\Cl,0,1.696203,0.476506,-0
 .238575\H,0,-1.557237,-0.982109,-1.087799\H,0,0.043201,-1.038917,-1.90
 0116\N,0,-0.732177,0.947065,0.764492\H,0,-1.751609,0.816433,0.509195\H
 ,0,-0.497088,1.820326,0.301192\C,0,0.075858,-1.297453,0.834844\N,0,0.1
 3599,-2.303464,1.438249\N,0,-0.97958,0.82361,-2.02558\H,0,-1.103074,0.

 Normal termination of Gaussian 16 at Wed Apr  9 02:55:06 2025.
