 Gaussian 16, Revision C.01,

 ----------------------------------------------------------------------
 #t hf aug-cc-pvdz symm=none int=(grid=ultrafine) guess=(read,tcheck) s
 table=(opt,rrhf)
 ----------------------------------------------------------------------
 -----
 title
 -----
 Symbolic Z-matrix:
 Charge = -1 Multiplicity = 1

 SCF Done:  E(RHF) =  -862.545642790     A.U. after   15 cycles
 Normal termination of Gaussian 16 at Wed Apr  9 02:51:57 2025.
 Gaussian 16:  ES64L-G16RevC.01  3-Jul-2019

 ----------------------------------------------------------------------
 #t hf aug-cc-pvdz iop(5/13=1,5/36=2,99/5=2) pseudo=read geom=check gue
 ss=(read,tcheck) scf=(maxcycle=1)
 ----------------------------------------------------------------------
 -----
 title
 -----
 Structure from the checkpoint file:  "E2SN2_339_mol2.chk"
 Charge = -1 Multiplicity = 1

                         Standard orientation:
 ---------------------------------------------------------------------
 Center     Atomic      Atomic             Coordinates (Angstroms)
 Number     Number       Type             X           Y           Z
 ---------------------------------------------------------------------
      1          6           0       -1.150318    0.086692   -0.368843
      2          6           0       -0.506386    0.836717    0.823368
      3          9           0       -2.187969    0.899062   -0.873345
      4          1           0       -1.363857    1.160815    1.430791
      5          6           0       -0.210304   -0.249171   -1.503589
      6          1           0        0.701155   -0.728788   -1.139069
      7          1           0        0.085209    0.678221   -1.995341
      8          1           0       -0.712345   -0.890391   -2.231520
      9          6           0       -1.814349   -1.127810    0.148327
     10          7           0       -2.356403   -2.076025    0.580286
     11          6           0        0.257816    2.061392    0.339101
     12          1           0        1.192920    1.751880   -0.133310
     13          1           0        0.509415    2.679384    1.203175
     14          1           0       -0.338272    2.652178   -0.360490
     15          7           0        0.368949    0.032693    1.648390
     16          1           0        1.225548   -0.208255    1.145501
     17          1           0       -0.083300   -0.819860    1.955748
     18         17           0        3.113451   -0.571196   -0.249782
 ---------------------------------------------------------------------

 SCF Done:  E(RHF) =  -862.683218349     A.U. after    2 cycles

 The electronic state is 1-A.
 Alpha  occ. eigenvalues -- -103.37490 -26.02032 -15.55378 -15.47972 -11.26273
 Alpha  occ. eigenvalues --  -11.19874 -11.17152 -11.12530 -11.11403 -10.40560
 Alpha  occ. eigenvalues --   -8.06158  -8.06133  -8.06127  -1.55090  -1.09534
 Alpha  occ. eigenvalues --   -1.05436  -0.95725  -0.87147  -0.82956  -0.81563
 Alpha  occ. eigenvalues --   -0.71622  -0.68309  -0.63188  -0.62098  -0.56568
 Alpha  occ. eigenvalues --   -0.53348  -0.48102  -0.47806  -0.45549  -0.44841
 Alpha  occ. eigenvalues --   -0.43784  -0.41600  -0.40484  -0.38257  -0.37080
 Alpha  occ. eigenvalues --   -0.35781  -0.27243  -0.20779  -0.20608  -0.20572
 Alpha virt. eigenvalues --    0.11871   0.12594   0.13556   0.14489   0.15495
 Alpha virt. eigenvalues --    0.16038   0.17571   0.18469   0.19070   0.19969
 Alpha virt. eigenvalues --    0.21046   0.22043   0.22964   0.23771   0.24310

 Mulliken charges:
               1
     1  C    0.490974
     2  C    0.047271
     3  F   -0.504342
     4  H   -0.228422
     5  C    0.766029
     6  H   -0.006585
     7  H    0.003871
     8  H   -0.082216
     9  C   -0.727290
    10  N   -0.212223
    11  C    0.880879
    12  H   -0.058799
    13  H   -0.085848
    14  H   -0.044411
    15  N   -0.317567
    16  H    0.062593
    17  H   -0.035565
    18  Cl  -0.948350
 Sum of Mulliken charges =  -1.00000

 Dipole moment (field-independent basis, Debye):
    X=             -8.3155    Y=              3.5117    Z=             -0.6021  Tot=              9.0466

 Test job not archived.
 1\1\GINC-SE250\SP\RHF\Aug-CC-pVDZ\C5H9Cl1F1N2(1-)\OHZDE\09-Apr-2025\0\
 \#t hf aug-cc-pvdz iop(5/13=1,5/36=2,99/5=2) pseudo=read geom=check gu
 ess=(read,tcheck) scf=(maxcycle=1)\\title\\-1,1\C,0,0.057321,-0.030247
 ,-0.013756\C,0,-0.393621,0.15126,-1.484219\F,0,1.415064,0.345862,0.065
 372\H,0,0.399139,-0.336443,-2.069827\C,0,-0.721651,0.771016,1.003721\H
 ,0,-1.798959,0.648888,0.868973\H,0,-0.494339,1.82794,0.860739\H,0,-0.4
 29709,0.480777,2.015464\C,0,0.026548,-1.471951,0.308672\N,0,0.018484,-
 2.623487,0.539803\C,0,-0.452686,1.627977,-1.850507\H,0,-1.331233,2.088

 Normal termination of Gaussian 16 at Wed Apr  9 02:52:06 2025.
