 Gaussian 16, Revision C.01,

 ----------------------------------------------------------------------
 #t hf aug-cc-pvdz symm=none int=(grid=ultrafine) guess=(read,tcheck) s
 table=(opt,rrhf)
 ----------------------------------------------------------------------
 -----
 title
 -----
 Symbolic Z-matrix:
 Charge = -1 Multiplicity = 1

 SCF Done:  E(RHF) =  -572.805811426     A.U. after   16 cycles
 Normal termination of Gaussian 16 at Wed Apr  9 02:35:38 2025.
 Gaussian 16:  ES64L-G16RevC.01  3-Jul-2019

 ----------------------------------------------------------------------
 #t hf aug-cc-pvdz iop(5/13=1,5/36=2,99/5=2) pseudo=read geom=check gue
 ss=(read,tcheck) scf=(maxcycle=1)
 ----------------------------------------------------------------------
 -----
 title
 -----
 Structure from the checkpoint file:  "E2SN2_165_mol2.chk"
 Charge = -1 Multiplicity = 1

                         Standard orientation:
 ---------------------------------------------------------------------
 Center     Atomic      Atomic             Coordinates (Angstroms)
 Number     Number       Type             X           Y           Z
 ---------------------------------------------------------------------
      1          6           0        0.258698    1.247614   -0.620262
      2          6           0        0.179709    0.023629    0.271988
      3          9           0       -0.792367    2.109046   -0.279474
      4          1           0        0.390839    0.295786    1.299079
      5          1           0        0.133184    0.973876   -1.669007
      6          1           0        1.225800    1.686048   -0.386844
      7          6           0        1.092083   -1.030071   -0.161668
      8          7           0        1.560019   -2.016674   -0.600630
      9          7           0       -1.235666   -0.523490    0.209602
     10          8           0       -1.695480   -0.796586   -0.896371
     11          8           0       -1.836851   -0.648176    1.275443
     12          9           0        2.465190    0.661678    0.670701
 ---------------------------------------------------------------------

 SCF Done:  E(RHF) =  -572.982130432     A.U. after    2 cycles

 The electronic state is 1-A.
 Alpha  occ. eigenvalues --  -25.99822 -25.75649 -20.51391 -20.51115 -15.80245
 Alpha  occ. eigenvalues --  -15.50938 -11.22117 -11.20701 -11.17709  -1.52845
 Alpha  occ. eigenvalues --   -1.43333  -1.25198  -1.24592  -1.06017  -0.99737
 Alpha  occ. eigenvalues --   -0.84556  -0.75817  -0.67750  -0.65444  -0.64198
 Alpha  occ. eigenvalues --   -0.62756  -0.60491  -0.58167  -0.54683  -0.46269
 Alpha  occ. eigenvalues --   -0.44044  -0.41691  -0.40861  -0.40536  -0.36782
 Alpha  occ. eigenvalues --   -0.36254  -0.34292  -0.34076  -0.31986  -0.29894
 Alpha virt. eigenvalues --    0.14083   0.15443   0.16975   0.17828   0.19437
 Alpha virt. eigenvalues --    0.21196   0.22165   0.22962   0.23876   0.24275
 Alpha virt. eigenvalues --    0.25966   0.26752   0.27837   0.27924   0.30420

 Mulliken charges:
               1
     1  C    0.855791
     2  C    0.892662
     3  F   -0.426648
     4  H   -0.044730
     5  H   -0.094219
     6  H    0.034012
     7  C   -0.013030
     8  N   -0.358985
     9  N    0.318211
    10  O   -0.601407
    11  O   -0.602827
    12  F   -0.958830
 Sum of Mulliken charges =  -1.00000

 Dipole moment (field-independent basis, Debye):
    X=             -5.3020    Y=              1.0946    Z=             -1.5119  Tot=              5.6209

 Test job not archived.
 1\1\GINC-SE051\SP\RHF\Aug-CC-pVDZ\C3H3F2N2O2(1-)\OHZDE\09-Apr-2025\0\\
 #t hf aug-cc-pvdz iop(5/13=1,5/36=2,99/5=2) pseudo=read geom=check gue
 ss=(read,tcheck) scf=(maxcycle=1)\\title\\-1,1\C,0,-0.103744,-0.222487
 ,0.030773\C,0,-0.496419,-0.200394,-1.434084\F,0,1.277018,-0.002115,0.1
 19496\H,0,-0.366632,0.795298,-1.840674\H,0,-0.310759,-1.197413,0.47486
 3\H,0,-0.667728,0.596325,0.470619\C,0,-1.870878,-0.646986,-1.639474\N,
 0,-2.834956,-1.259964,-1.922051\N,0,0.423311,-1.143111,-2.190324\O,0,0
 .491131,-2.307766,-1.805401\O,0,1.052225,-0.674033,-3.137647\F,0,-2.05

 Normal termination of Gaussian 16 at Wed Apr  9 02:35:45 2025.
