 Gaussian 16, Revision C.01,

 ----------------------------------------------------------------------
 #t hf aug-cc-pvdz symm=none int=(grid=ultrafine) guess=(read,tcheck) s
 table=(opt,rrhf)
 ----------------------------------------------------------------------
 -----
 title
 -----
 Symbolic Z-matrix:
 Charge = -1 Multiplicity = 1

 SCF Done:  E(RHF) =  -1295.27376954     A.U. after   16 cycles
 Normal termination of Gaussian 16 at Wed Apr  9 02:57:26 2025.
 Gaussian 16:  ES64L-G16RevC.01  3-Jul-2019

 ----------------------------------------------------------------------
 #t hf aug-cc-pvdz iop(5/13=1,5/36=2,99/5=2) pseudo=read geom=check gue
 ss=(read,tcheck) scf=(maxcycle=1)
 ----------------------------------------------------------------------
 -----
 title
 -----
 Structure from the checkpoint file:  "E2SN2_41_mol1.chk"
 Charge = -1 Multiplicity = 1

                         Standard orientation:
 ---------------------------------------------------------------------
 Center     Atomic      Atomic             Coordinates (Angstroms)
 Number     Number       Type             X           Y           Z
 ---------------------------------------------------------------------
      1          6           0       -0.254656    0.151300   -0.472891
      2          6           0        0.549086   -0.953148   -0.274963
      3         17           0       -2.755656   -0.855545   -0.251897
      4         17           0        3.317675    0.030707   -0.308832
      5          1           0        1.854577   -0.344008   -0.280139
      6          1           0        0.668052   -1.507902   -1.206786
      7          7           0       -0.523356    1.089822    0.644409
      8          8           0       -1.046446    2.166841    0.357688
      9          8           0       -0.174491    0.757279    1.773474
     10          7           0       -0.494286    0.717320   -1.683106
     11          1           0       -0.799424    0.026517   -2.352991
     12          1           0       -1.157068    1.477023   -1.605729
     13          6           0        0.556944   -1.800081    0.975425
     14          1           0       -0.475009   -1.996661    1.279082
     15          1           0        1.056442   -2.746604    0.756818
     16          1           0        1.080871   -1.317513    1.798305
 ---------------------------------------------------------------------

 SCF Done:  E(RHF) =  -1295.41760477     A.U. after    2 cycles

 The electronic state is 1-A.
 Alpha  occ. eigenvalues -- -103.48163-103.39914 -20.52225 -20.52076 -15.82015
 Alpha  occ. eigenvalues --  -15.55485 -11.29078 -11.13396 -11.11826 -10.51434
 Alpha  occ. eigenvalues --  -10.43053  -8.17108  -8.16927  -8.16922  -8.08657
 Alpha  occ. eigenvalues --   -8.08607  -8.08604  -1.44638  -1.26402  -1.14027
 Alpha  occ. eigenvalues --   -0.97463  -0.94972  -0.89475  -0.85459  -0.79291
 Alpha  occ. eigenvalues --   -0.71611  -0.65218  -0.62303  -0.62280  -0.58696
 Alpha  occ. eigenvalues --   -0.53665  -0.50397  -0.44507  -0.44285  -0.42377
 Alpha  occ. eigenvalues --   -0.41550  -0.40412  -0.38526  -0.36986  -0.30843
 Alpha  occ. eigenvalues --   -0.30783  -0.25107  -0.23224  -0.23059  -0.20770
 Alpha virt. eigenvalues --    0.12530   0.12711   0.12836   0.14412   0.15677
 Alpha virt. eigenvalues --    0.16307   0.17175   0.18231   0.21360   0.22488
 Alpha virt. eigenvalues --    0.23416   0.24289   0.24825   0.25477   0.25898

 Mulliken charges:
               1
     1  C    1.037066
     2  C   -0.383815
     3  Cl  -0.875752
     4  Cl  -0.590167
     5  H    0.678300
     6  H   -0.258831
     7  N    0.326857
     8  O   -0.634143
     9  O   -0.574909
    10  N   -0.345431
    11  H    0.057061
    12  H    0.110848
    13  C    0.484346
    14  H   -0.023605
    15  H   -0.051461
    16  H    0.043637
 Sum of Mulliken charges =  -1.00000

 Dipole moment (field-independent basis, Debye):
    X=              2.5113    Y=              0.4843    Z=             -2.1160  Tot=              3.3194

 Test job not archived.
 1\1\GINC-SE368\SP\RHF\Aug-CC-pVDZ\C3H7Cl2N2O2(1-)\OHZDE\09-Apr-2025\0\
 \#t hf aug-cc-pvdz iop(5/13=1,5/36=2,99/5=2) pseudo=read geom=check gu
 ess=(read,tcheck) scf=(maxcycle=1)\\title\\-1,1\C,0,-0.53886534,0.1172
 8673,-0.12624694\C,0,-0.24722202,-0.012365,1.21655537\Cl,0,1.90122934,
 0.10322726,-1.29385751\Cl,0,-2.83146367,-0.19423385,2.60321386\H,0,-1.
 57140632,-0.12241806,1.77316058\H,0,-0.01184577,0.9609357,1.64954918\N
 ,0,-0.93732163,-1.06963722,-0.92237936\O,0,-1.4059644,-0.86164748,-2.0
 4171666\O,0,-0.81522683,-2.17717458,-0.40707952\N,0,-0.91384748,1.2788

 Normal termination of Gaussian 16 at Wed Apr  9 02:57:33 2025.
