 Gaussian 16, Revision C.01,

 ----------------------------------------------------------------------
 #t hf aug-cc-pvdz symm=none int=(grid=ultrafine) guess=(read,tcheck) s
 table=(opt,rrhf)
 ----------------------------------------------------------------------
 -----
 title
 -----
 Symbolic Z-matrix:
 Charge = -1 Multiplicity = 1

 SCF Done:  E(RHF) =  -528.900424407     A.U. after   16 cycles
 Normal termination of Gaussian 16 at Wed Apr  9 02:32:56 2025.
 Gaussian 16:  ES64L-G16RevC.01  3-Jul-2019

 ----------------------------------------------------------------------
 #t hf aug-cc-pvdz iop(5/13=1,5/36=2,99/5=2) pseudo=read geom=check gue
 ss=(read,tcheck) scf=(maxcycle=1)
 ----------------------------------------------------------------------
 -----
 title
 -----
 Structure from the checkpoint file:  "E2SN2_135_mol1.chk"
 Charge = -1 Multiplicity = 1

                         Standard orientation:
 ---------------------------------------------------------------------
 Center     Atomic      Atomic             Coordinates (Angstroms)
 Number     Number       Type             X           Y           Z
 ---------------------------------------------------------------------
      1          6           0       -0.095954    0.128604    0.302447
      2          6           0        0.806334   -0.295468   -0.827112
      3          9           0        0.057759   -0.651809    1.434239
      4          1           0        0.334829    1.853356   -2.114212
      5          1           0        0.615371    0.633124   -1.622218
      6          1           0        0.538277   -1.272316   -1.232325
      7          7           0       -0.019817    1.491849    0.668842
      8          1           0       -0.020768    2.013362   -0.224011
      9          1           0        0.893176    1.627765    1.092000
     10          6           0        2.188427   -0.243397   -0.430089
     11          7           0        3.324549   -0.162974   -0.129554
     12          7           0       -1.529865   -0.166131   -0.171956
     13          8           0       -1.808078   -1.357188   -0.303661
     14          8           0       -2.279125    0.773858   -0.402613
 ---------------------------------------------------------------------

 SCF Done:  E(RHF) =  -529.064592188     A.U. after    2 cycles

 The electronic state is 1-A.
 Alpha  occ. eigenvalues --  -26.02541 -20.51325 -20.50397 -15.79499 -15.51846
 Alpha  occ. eigenvalues --  -15.50657 -11.31871 -11.17685 -11.13836  -1.56553
 Alpha  occ. eigenvalues --   -1.42874  -1.24954  -1.09981  -1.05673  -0.93839
 Alpha  occ. eigenvalues --   -0.87208  -0.74732  -0.69581  -0.66209  -0.64741
 Alpha  occ. eigenvalues --   -0.61964  -0.59117  -0.57321  -0.54337  -0.52101
 Alpha  occ. eigenvalues --   -0.49596  -0.45739  -0.42737  -0.40558  -0.39088
 Alpha  occ. eigenvalues --   -0.36065  -0.33752  -0.32629  -0.30721  -0.12245
 Alpha virt. eigenvalues --    0.13759   0.14174   0.17825   0.18197   0.18619
 Alpha virt. eigenvalues --    0.19285   0.19707   0.20564   0.22420   0.23176
 Alpha virt. eigenvalues --    0.23974   0.24753   0.25812   0.26561   0.27161

 Mulliken charges:
               1
     1  C    1.164708
     2  C    0.425588
     3  F   -0.372556
     4  H   -0.560087
     5  H   -0.016435
     6  H   -0.000446
     7  N   -0.506331
     8  H    0.202863
     9  H    0.027167
    10  C   -0.173959
    11  N   -0.348871
    12  N    0.278279
    13  O   -0.596010
    14  O   -0.523909
 Sum of Mulliken charges =  -1.00000

 Dipole moment (field-independent basis, Debye):
    X=             -1.3891    Y=             -3.7628    Z=              4.5401  Tot=              6.0581

 Test job not archived.
 1\1\GINC-SE412\SP\RHF\Aug-CC-pVDZ\C3H5F1N3O2(1-)\OHZDE\09-Apr-2025\0\\
 #t hf aug-cc-pvdz iop(5/13=1,5/36=2,99/5=2) pseudo=read geom=check gue
 ss=(read,tcheck) scf=(maxcycle=1)\\title\\-1,1\C,0,-0.15038337,-0.0590
 8056,-0.34182758\C,0,-0.10635053,0.03788421,1.16101052\F,0,1.10636187,
 -0.16638696,-0.90989594\H,0,-2.6130076,-0.38763181,1.33987485\H,0,-1.3
 1186036,-0.05630809,1.42334254\H,0,0.33868057,0.97198233,1.50697571\N,
 0,-0.9814777,-1.07531196,-0.86626625\H,0,-1.85809518,-1.01741827,-0.32
 09647\H,0,-0.54199879,-1.95978082,-0.63033002\C,0,0.54831286,-1.108987

 Normal termination of Gaussian 16 at Wed Apr  9 02:33:02 2025.
