 Gaussian 16, Revision C.01,

 ----------------------------------------------------------------------
 #t hf aug-cc-pvdz symm=none int=(grid=ultrafine) guess=(read,tcheck) s
 table=(opt,rrhf)
 ----------------------------------------------------------------------
 -----
 title
 -----
 Symbolic Z-matrix:
 Charge = -1 Multiplicity = 1

 SCF Done:  E(RHF) =  -627.824925506     A.U. after   16 cycles
 Normal termination of Gaussian 16 at Wed Apr  9 02:43:11 2025.
 Gaussian 16:  ES64L-G16RevC.01  3-Jul-2019

 ----------------------------------------------------------------------
 #t hf aug-cc-pvdz iop(5/13=1,5/36=2,99/5=2) pseudo=read geom=check gue
 ss=(read,tcheck) scf=(maxcycle=1)
 ----------------------------------------------------------------------
 -----
 title
 -----
 Structure from the checkpoint file:  "E2SN2_249_mol1.chk"
 Charge = -1 Multiplicity = 1

                         Standard orientation:
 ---------------------------------------------------------------------
 Center     Atomic      Atomic             Coordinates (Angstroms)
 Number     Number       Type             X           Y           Z
 ---------------------------------------------------------------------
      1          6           0        0.716898    0.357993    0.351739
      2          1           0       -0.367222    0.815243   -1.434531
      3          9           0        0.208720   -0.955529    1.366734
      4          9           0        1.303677    1.788060   -0.631056
      5          6           0       -0.349574    0.038108   -0.674528
      6          1           0        0.513333    1.072206    1.125704
      7          6           0        2.048817   -0.186236    0.194647
      8          7           0        3.124624   -0.650516    0.118007
      9          7           0       -1.715122    0.206027    0.038654
     10          8           0       -2.574332   -0.650470   -0.162981
     11          8           0       -1.892438    1.228915    0.690974
     12          7           0       -0.183633   -1.252172   -1.228117
     13          1           0       -0.969810   -1.489934   -1.815853
     14          1           0       -0.131648   -1.900418   -0.451325
 ---------------------------------------------------------------------

 SCF Done:  E(RHF) =  -628.013071554     A.U. after    2 cycles

 The electronic state is 1-A.
 Alpha  occ. eigenvalues --  -25.87838 -25.83213 -20.49983 -20.49831 -15.78502
 Alpha  occ. eigenvalues --  -15.50839 -15.50308 -11.25673 -11.22816 -11.16712
 Alpha  occ. eigenvalues --   -1.42105  -1.38329  -1.33356  -1.23929  -1.09078
 Alpha  occ. eigenvalues --   -1.04144  -0.92408  -0.85301  -0.72040  -0.65493
 Alpha  occ. eigenvalues --   -0.63608  -0.62019  -0.59923  -0.56554  -0.52970
 Alpha  occ. eigenvalues --   -0.49966  -0.48139  -0.46274  -0.44128  -0.42464
 Alpha  occ. eigenvalues --   -0.41835  -0.40954  -0.40832  -0.38708  -0.37381
 Alpha  occ. eigenvalues --   -0.35541  -0.32278  -0.31364  -0.30364
 Alpha virt. eigenvalues --    0.12591   0.14223   0.15042   0.17546   0.19144
 Alpha virt. eigenvalues --    0.20353   0.21283   0.22953   0.23729   0.24134
 Alpha virt. eigenvalues --    0.25212   0.25953   0.26382   0.26739   0.27707

 Mulliken charges:
               1
     1  C    1.736359
     2  H   -0.059789
     3  F   -0.785144
     4  F   -0.826437
     5  C    1.092096
     6  H   -0.330866
     7  C   -0.650376
     8  N   -0.240762
     9  N    0.532461
    10  O   -0.661733
    11  O   -0.626252
    12  N   -0.263202
    13  H    0.016743
    14  H    0.066902
 Sum of Mulliken charges =  -1.00000

 Dipole moment (field-independent basis, Debye):
    X=             -4.2276    Y=             -1.4946    Z=             -1.9073  Tot=              4.8728

 Test job not archived.
 1\1\GINC-SE208\SP\RHF\Aug-CC-pVDZ\C3H4F2N3O2(1-)\OHZDE\09-Apr-2025\0\\
 #t hf aug-cc-pvdz iop(5/13=1,5/36=2,99/5=2) pseudo=read geom=check gue
 ss=(read,tcheck) scf=(maxcycle=1)\\title\\-1,1\C,0,0.54656163,-0.02288
 816,-0.03880866\H,0,1.76018907,1.73202921,0.1112885\F,0,-1.18346441,0.
 11555532,-0.0793584\F,0,2.35943861,-0.27289266,0.04030603\C,0,0.712989
 ,1.48217493,-0.03970881\H,0,0.5106463,-0.55366206,0.89261469\C,0,0.587
 96211,-0.74921135,-1.29005231\N,0,0.57111825,-1.35931798,-2.29318574\N
 ,0,0.03243539,2.00382404,1.25113367\O,0,-0.66933238,3.00972709,1.16076

 Normal termination of Gaussian 16 at Wed Apr  9 02:43:27 2025.
