 Gaussian 16, Revision C.01,

 ----------------------------------------------------------------------
 #t hf aug-cc-pvdz symm=none int=(grid=ultrafine) guess=(read,tcheck) s
 table=(opt,rrhf)
 ----------------------------------------------------------------------
 -----
 title
 -----
 Symbolic Z-matrix:
 Charge = -1 Multiplicity = 1

 SCF Done:  E(RHF) =  -591.120880824     A.U. after   15 cycles
 Normal termination of Gaussian 16 at Wed Apr  9 02:38:03 2025.
 Gaussian 16:  ES64L-G16RevC.01  3-Jul-2019

 ----------------------------------------------------------------------
 #t hf aug-cc-pvdz iop(5/13=1,5/36=2,99/5=2) pseudo=read geom=check gue
 ss=(read,tcheck) scf=(maxcycle=1)
 ----------------------------------------------------------------------
 -----
 title
 -----
 Structure from the checkpoint file:  "E2SN2_194_mol1.chk"
 Charge = -1 Multiplicity = 1

                         Standard orientation:
 ---------------------------------------------------------------------
 Center     Atomic      Atomic             Coordinates (Angstroms)
 Number     Number       Type             X           Y           Z
 ---------------------------------------------------------------------
      1          6           0        1.069043   -0.348710    0.155645
      2          1           0        0.130035    0.405635   -1.617079
      3          9           0        0.144741   -1.318564    1.331470
      4          9           0        2.161073    0.463448   -1.070598
      5          6           0       -0.141925   -0.206820   -0.763112
      6          1           0        1.677569   -1.219779   -0.022554
      7          7           0        1.365486    0.648295    1.132226
      8          1           0        2.231743    1.073565    0.839874
      9          1           0        1.446750    0.177730    2.020421
     10          7           0       -1.222058    0.636673   -0.068962
     11          8           0       -2.225103    0.075321    0.373038
     12          8           0       -1.044555    1.851754   -0.054709
     13          7           0       -0.623586   -1.490775   -1.141386
     14          1           0       -1.490494   -1.405041   -1.655116
     15          1           0       -0.792270   -1.978829   -0.268378
 ---------------------------------------------------------------------

 SCF Done:  E(RHF) =  -591.299892418     A.U. after    2 cycles

 The electronic state is 1-A.
 Alpha  occ. eigenvalues --  -25.83320 -25.80957 -20.46826 -20.46814 -15.75381
 Alpha  occ. eigenvalues --  -15.48383 -15.46023 -11.22786 -11.19005  -1.38877
 Alpha  occ. eigenvalues --   -1.33922  -1.31202  -1.20627  -1.06074  -1.00978
 Alpha  occ. eigenvalues --   -0.87031  -0.76260  -0.67138  -0.60962  -0.58858
 Alpha  occ. eigenvalues --   -0.58130  -0.54640  -0.54612  -0.51312  -0.47265
 Alpha  occ. eigenvalues --   -0.44266  -0.43426  -0.40985  -0.39845  -0.39565
 Alpha  occ. eigenvalues --   -0.38821  -0.37552  -0.35460  -0.35025  -0.32305
 Alpha  occ. eigenvalues --   -0.28302  -0.25698
 Alpha virt. eigenvalues --    0.13214   0.14168   0.14811   0.15741   0.17328
 Alpha virt. eigenvalues --    0.18393   0.22087   0.23226   0.23367   0.25056
 Alpha virt. eigenvalues --    0.25982   0.26655   0.27686   0.28268   0.29647

 Mulliken charges:
               1
     1  C    0.925224
     2  H   -0.069729
     3  F   -0.803375
     4  F   -0.829840
     5  C    1.271688
     6  H   -0.188152
     7  N   -0.364540
     8  H    0.058649
     9  H    0.028602
    10  N    0.399246
    11  O   -0.637256
    12  O   -0.616412
    13  N   -0.251344
    14  H   -0.030645
    15  H    0.107884
 Sum of Mulliken charges =  -1.00000

 Dipole moment (field-independent basis, Debye):
    X=             -1.3919    Y=             -1.1668    Z=             -0.7691  Tot=              1.9724

 Test job not archived.
 1\1\GINC-SE339\SP\RHF\Aug-CC-pVDZ\C2H6F2N3O2(1-)\OHZDE\09-Apr-2025\0\\
 #t hf aug-cc-pvdz iop(5/13=1,5/36=2,99/5=2) pseudo=read geom=check gue
 ss=(read,tcheck) scf=(maxcycle=1)\\title\\-1,1\C,0,0.64138183,-0.03091
 068,0.00159523\H,0,1.78625185,1.77048666,0.19540803\F,0,-1.12572183,0.
 03491516,-0.22319054\F,0,2.46381164,-0.21461627,0.0299479\C,0,0.750197
 76,1.4915883,0.03069052\H,0,0.70824697,-0.47462673,-0.97792687\N,0,0.5
 1220397,-0.77697719,1.21085435\H,0,1.36218529,-1.31234753,1.29823312\H
 ,0,-0.3038046,-1.36124938,1.11245711\N,0,0.04726359,2.03673418,1.28317

 Normal termination of Gaussian 16 at Wed Apr  9 02:38:09 2025.
