 Gaussian 16, Revision C.01,

 ----------------------------------------------------------------------
 #t hf aug-cc-pvdz symm=none int=(grid=ultrafine) guess=(read,tcheck) s
 table=(opt,rrhf)
 ----------------------------------------------------------------------
 -----
 title
 -----
 Symbolic Z-matrix:
 Charge = -1 Multiplicity = 1

 SCF Done:  E(RHF) =  -825.785939602     A.U. after   14 cycles
 Normal termination of Gaussian 16 at Wed Apr  9 02:35:22 2025.
 Gaussian 16:  ES64L-G16RevC.01  3-Jul-2019

 ----------------------------------------------------------------------
 #t hf aug-cc-pvdz iop(5/13=1,5/36=2,99/5=2) pseudo=read geom=check gue
 ss=(read,tcheck) scf=(maxcycle=1)
 ----------------------------------------------------------------------
 -----
 title
 -----
 Structure from the checkpoint file:  "E2SN2_159_mol2.chk"
 Charge = -1 Multiplicity = 1

                         Standard orientation:
 ---------------------------------------------------------------------
 Center     Atomic      Atomic             Coordinates (Angstroms)
 Number     Number       Type             X           Y           Z
 ---------------------------------------------------------------------
      1          6           0       -0.095404   -0.515739    0.021544
      2          6           0        0.260943    0.966372    0.217836
      3         17           0       -1.925287   -0.607665   -0.332793
      4          1           0        1.319591    0.879543    0.501857
      5          7           0        0.601894   -1.148859   -1.058267
      6          1           0        0.414266   -0.635840   -1.913303
      7          1           0        1.611731   -0.966703   -0.785256
      8          6           0        0.182250   -1.299195    1.286462
      9          1           0        1.271434   -1.262492    1.385949
     10          1           0       -0.144029   -2.331652    1.151011
     11          1           0       -0.303993   -0.844994    2.148220
     12          7           0       -0.507554    1.554432    1.320364
     13          1           0       -1.453823    1.731091    0.997217
     14          1           0       -0.093969    2.451427    1.550347
     15          6           0        0.200839    1.779501   -1.074393
     16          1           0        0.975834    1.453909   -1.770212
     17          1           0       -0.780890    1.704571   -1.554820
     18          1           0        0.389437    2.833970   -0.845961
     19          9           0        2.841349   -0.345241    0.027673
 ---------------------------------------------------------------------

 SCF Done:  E(RHF) =  -825.913568995     A.U. after    2 cycles

 The electronic state is 1-A.
 Alpha  occ. eigenvalues -- -103.49249 -25.74594 -15.47779 -15.43557 -11.18288
 Alpha  occ. eigenvalues --  -11.11708 -11.09555 -11.07049 -10.52634  -8.18327
 Alpha  occ. eigenvalues --   -8.18104  -8.18096  -1.23529  -1.06292  -1.00623
 Alpha  occ. eigenvalues --   -0.95225  -0.84905  -0.83188  -0.71672  -0.60094
 Alpha  occ. eigenvalues --   -0.54694  -0.50966  -0.48716  -0.47061  -0.44807
 Alpha  occ. eigenvalues --   -0.42471  -0.41273  -0.37738  -0.37629  -0.36436
 Alpha  occ. eigenvalues --   -0.35311  -0.33324  -0.32629  -0.30957  -0.29801
 Alpha  occ. eigenvalues --   -0.29537  -0.26241  -0.22724
 Alpha virt. eigenvalues --    0.11992   0.13357   0.14121   0.14945   0.15739
 Alpha virt. eigenvalues --    0.16168   0.16851   0.18060   0.18820   0.19050
 Alpha virt. eigenvalues --    0.20778   0.21274   0.22518   0.25353   0.26061

 Mulliken charges:
               1
     1  C   -0.909038
     2  C    0.452183
     3  Cl  -0.408524
     4  H   -0.064362
     5  N   -0.532249
     6  H   -0.012917
     7  H    0.220121
     8  C    0.956295
     9  H    0.048195
    10  H   -0.036823
    11  H    0.019040
    12  N   -0.348992
    13  H    0.061245
    14  H   -0.016988
    15  C    0.730247
    16  H   -0.049721
    17  H   -0.027254
    18  H   -0.099635
    19  F   -0.980823
 Sum of Mulliken charges =  -1.00000

 Dipole moment (field-independent basis, Debye):
    X=             -6.0266    Y=              3.8669    Z=             -0.1621  Tot=              7.1623

 Test job not archived.
 1\1\GINC-SE128\SP\RHF\Aug-CC-pVDZ\C4H11Cl1F1N2(1-)\OHZDE\09-Apr-2025\0
 \\#t hf aug-cc-pvdz iop(5/13=1,5/36=2,99/5=2) pseudo=read geom=check g
 uess=(read,tcheck) scf=(maxcycle=1)\\title\\-1,1\C,0,-0.012471,-0.0265
 06,-1.467816\C,0,0.014159,-0.085931,0.067738\Cl,0,-1.800292,0.084129,-
 1.991202\H,0,1.089368,-0.236593,0.241435\N,0,0.686779,1.093711,-2.0238
 92\H,0,0.292569,1.94695,-1.641714\H,0,1.651894,0.96388,-1.600591\C,0,0
 .576411,-1.290231,-2.056993\H,0,1.632289,-1.246869,-1.772722\H,0,0.482
 538,-1.260116,-3.143756\H,0,0.097999,-2.178304,-1.647351\N,0,-0.74108,

 Normal termination of Gaussian 16 at Wed Apr  9 02:35:32 2025.
