 Gaussian 16, Revision C.01,

 ----------------------------------------------------------------------
 #t hf aug-cc-pvdz symm=none int=(grid=ultrafine) guess=(read,tcheck) s
 table=(opt,rrhf)
 ----------------------------------------------------------------------
 -----
 title
 -----
 Symbolic Z-matrix:
 Charge = -1 Multiplicity = 1

 SCF Done:  E(RHF) =  -528.897703063     A.U. after   16 cycles
 Normal termination of Gaussian 16 at Wed Apr  9 02:49:02 2025.
 Gaussian 16:  ES64L-G16RevC.01  3-Jul-2019

 ----------------------------------------------------------------------
 #t hf aug-cc-pvdz iop(5/13=1,5/36=2,99/5=2) pseudo=read geom=check gue
 ss=(read,tcheck) scf=(maxcycle=1)
 ----------------------------------------------------------------------
 -----
 title
 -----
 Structure from the checkpoint file:  "E2SN2_303_mol2.chk"
 Charge = -1 Multiplicity = 1

                         Standard orientation:
 ---------------------------------------------------------------------
 Center     Atomic      Atomic             Coordinates (Angstroms)
 Number     Number       Type             X           Y           Z
 ---------------------------------------------------------------------
      1          6           0        0.737672    0.251491    0.135346
      2          6           0       -0.345358   -0.386938   -0.732451
      3          9           0        0.455492   -0.036266    1.500257
      4          1           0       -0.327081    0.168452   -1.707098
      5          1           0       -0.197317   -1.457641   -0.844542
      6          6           0        2.012408   -0.486818   -0.106023
      7          7           0        3.036008   -1.025146   -0.316036
      8          7           0        0.822120    1.623198   -0.096383
      9          1           0        1.742301    1.989025    0.109606
     10          1           0        0.550454    1.826170   -1.108592
     11          7           0       -1.692108   -0.224895   -0.150696
     12          8           0       -2.391993   -1.241879   -0.077165
     13          8           0       -2.057315    0.899290    0.177978
     14          1           0        0.136202    1.662585   -2.597626
 ---------------------------------------------------------------------

 SCF Done:  E(RHF) =  -529.060876928     A.U. after    2 cycles

 The electronic state is 1-A.
 Alpha  occ. eigenvalues --  -26.00961 -20.50139 -20.49780 -15.79560 -15.55545
 Alpha  occ. eigenvalues --  -15.49139 -11.30494 -11.19950 -11.18921  -1.54089
 Alpha  occ. eigenvalues --   -1.42222  -1.23889  -1.10727  -1.06993  -0.97338
 Alpha  occ. eigenvalues --   -0.84863  -0.73754  -0.69292  -0.66018  -0.63807
 Alpha  occ. eigenvalues --   -0.62289  -0.60734  -0.58144  -0.56921  -0.50578
 Alpha  occ. eigenvalues --   -0.47182  -0.46251  -0.44713  -0.39595  -0.39312
 Alpha  occ. eigenvalues --   -0.37843  -0.36569  -0.35391  -0.29557  -0.12096
 Alpha virt. eigenvalues --    0.13733   0.13777   0.17412   0.17914   0.18871
 Alpha virt. eigenvalues --    0.19444   0.20729   0.21115   0.21687   0.22619
 Alpha virt. eigenvalues --    0.23213   0.24587   0.25009   0.25788   0.26202

 Mulliken charges:
               1
     1  C    1.147969
     2  C    0.906319
     3  F   -0.473498
     4  H   -0.029824
     5  H   -0.283390
     6  C   -0.358549
     7  N   -0.224162
     8  N   -0.434025
     9  H   -0.009889
    10  H    0.096190
    11  N    0.481679
    12  O   -0.655375
    13  O   -0.570791
    14  H   -0.592653
 Sum of Mulliken charges =  -1.00000

 Dipole moment (field-independent basis, Debye):
    X=              1.1144    Y=             -3.7915    Z=              5.3578  Tot=              6.6576

 Test job not archived.
 1\1\GINC-SE036\SP\RHF\Aug-CC-pVDZ\C3H5F1N3O2(1-)\OHZDE\09-Apr-2025\0\\
 #t hf aug-cc-pvdz iop(5/13=1,5/36=2,99/5=2) pseudo=read geom=check gue
 ss=(read,tcheck) scf=(maxcycle=1)\\title\\-1,1\C,0,-0.004223,-0.030658
 ,0.071408\C,0,-0.515632,-0.032578,-1.368062\F,0,1.366499,-0.413439,0.0
 6785\H,0,-1.631729,-0.123551,-1.298917\H,0,-0.188794,0.846835,-1.91641
 9\C,0,0.044933,1.386388,0.538178\N,0,0.047561,2.490813,0.940543\N,0,-0
 .772287,-0.868824,0.877613\H,0,-0.752284,-0.587373,1.84889\H,0,-1.7738
 57,-0.890345,0.508881\N,0,-0.019059,-1.19265,-2.13362\O,0,0.474744,-0.

 Normal termination of Gaussian 16 at Wed Apr  9 02:49:09 2025.
