 Gaussian 16, Revision C.01,

 ----------------------------------------------------------------------
 #t hf aug-cc-pvdz symm=none int=(grid=ultrafine) guess=(read,tcheck) s
 table=(opt,rrhf)
 ----------------------------------------------------------------------
 -----
 title
 -----
 Symbolic Z-matrix:
 Charge = -1 Multiplicity = 1

 SCF Done:  E(RHF) =  -739.587006039     A.U. after   16 cycles
 Normal termination of Gaussian 16 at Wed Apr  9 02:40:20 2025.
 Gaussian 16:  ES64L-G16RevC.01  3-Jul-2019

 ----------------------------------------------------------------------
 #t hf aug-cc-pvdz iop(5/13=1,5/36=2,99/5=2) pseudo=read geom=check gue
 ss=(read,tcheck) scf=(maxcycle=1)
 ----------------------------------------------------------------------
 -----
 title
 -----
 Structure from the checkpoint file:  "E2SN2_213_mol1.chk"
 Charge = -1 Multiplicity = 1

                         Standard orientation:
 ---------------------------------------------------------------------
 Center     Atomic      Atomic             Coordinates (Angstroms)
 Number     Number       Type             X           Y           Z
 ---------------------------------------------------------------------
      1          6           0       -0.467597   -0.406356    0.125290
      2          1           0        0.736876   -0.282864   -1.641760
      3          9           0       -0.084072    0.493502    1.509760
      4          9           0       -1.019396   -1.357474   -1.307860
      5          6           0        0.669623    0.205338   -0.673436
      6          1           0       -0.327551   -1.344353    0.621372
      7          7           0       -1.860276    0.099424    0.161096
      8          8           0       -2.159004    1.104070   -0.471066
      9          8           0       -2.630682   -0.544366    0.866736
     10          7           0        1.968013   -0.293422    0.046585
     11          8           0        2.866937    0.525173    0.231926
     12          8           0        2.056443   -1.489539    0.302526
     13          7           0        0.642047    1.611111   -0.778943
     14          1           0        1.542202    1.946067   -1.092787
     15          1           0        0.449496    1.980502    0.142810
 ---------------------------------------------------------------------

 SCF Done:  E(RHF) =  -739.811425484     A.U. after    2 cycles

 The electronic state is 1-A.
 Alpha  occ. eigenvalues --  -25.89512 -25.84029 -20.50265 -20.50112 -20.47774
 Alpha  occ. eigenvalues --  -20.47604 -15.78636 -15.78337 -15.50514 -11.28334
 Alpha  occ. eigenvalues --  -11.23308  -1.42499  -1.41683  -1.39233  -1.34152
 Alpha  occ. eigenvalues --   -1.24158  -1.22221  -1.08868  -0.95006  -0.88486
 Alpha  occ. eigenvalues --   -0.75462  -0.69842  -0.65839  -0.64463  -0.62374
 Alpha  occ. eigenvalues --   -0.61592  -0.59943  -0.58933  -0.56879  -0.53033
 Alpha  occ. eigenvalues --   -0.50146  -0.48166  -0.47768  -0.45199  -0.42625
 Alpha  occ. eigenvalues --   -0.42247  -0.41153  -0.39950  -0.38358  -0.37321
 Alpha  occ. eigenvalues --   -0.36148  -0.35740  -0.33215  -0.29975
 Alpha virt. eigenvalues --    0.12656   0.14207   0.15649   0.17232   0.20158
 Alpha virt. eigenvalues --    0.20893   0.21615   0.22750   0.23330   0.24760
 Alpha virt. eigenvalues --    0.24917   0.25394   0.26924   0.27770   0.28271

 Mulliken charges:
               1
     1  C    1.619045
     2  H   -0.097963
     3  F   -0.762104
     4  F   -0.812213
     5  C    1.129372
     6  H   -0.314369
     7  N    0.521529
     8  O   -0.648753
     9  O   -0.671366
    10  N    0.488573
    11  O   -0.658935
    12  O   -0.615147
    13  N   -0.278138
    14  H    0.030241
    15  H    0.070227
 Sum of Mulliken charges =  -1.00000

 Dipole moment (field-independent basis, Debye):
    X=              3.5140    Y=              2.1832    Z=             -0.8864  Tot=              4.2309

 Test job not archived.
 1\1\GINC-SE362\SP\RHF\Aug-CC-pVDZ\C2H4F2N3O4(1-)\OHZDE\09-Apr-2025\0\\
 #t hf aug-cc-pvdz iop(5/13=1,5/36=2,99/5=2) pseudo=read geom=check gue
 ss=(read,tcheck) scf=(maxcycle=1)\\title\\-1,1\C,0,0.50415744,0.004946
 45,-0.07569858\H,0,1.78826494,1.69999528,0.18188297\F,0,-1.1681106,0.1
 9707126,-0.27619662\F,0,2.27539551,-0.32426699,0.05606204\C,0,0.744033
 06,1.5039275,-0.04538485\H,0,0.3939531,-0.53681039,0.84076461\N,0,0.56
 844928,-0.85015175,-1.28455002\O,0,0.80822365,-0.34631125,-2.37396878\
 O,0,0.3474192,-2.04185632,-1.09243689\N,0,0.01873169,1.99155946,1.2542

 Normal termination of Gaussian 16 at Wed Apr  9 02:40:27 2025.
