 Gaussian 16, Revision C.01,

 ----------------------------------------------------------------------
 #t hf aug-cc-pvdz symm=none int=(grid=ultrafine) guess=(read,tcheck) s
 table=(opt,rrhf)
 ----------------------------------------------------------------------
 -----
 title
 -----
 Symbolic Z-matrix:
 Charge = -1 Multiplicity = 1

 SCF Done:  E(RHF) =  -1000.70617761     A.U. after   17 cycles
 Normal termination of Gaussian 16 at Wed Apr  9 02:39:29 2025.
 Gaussian 16:  ES64L-G16RevC.01  3-Jul-2019

 ----------------------------------------------------------------------
 #t hf aug-cc-pvdz iop(5/13=1,5/36=2,99/5=2) pseudo=read geom=check gue
 ss=(read,tcheck) scf=(maxcycle=1)
 ----------------------------------------------------------------------
 -----
 title
 -----
 Structure from the checkpoint file:  "E2SN2_1_mol1.chk"
 Charge = -1 Multiplicity = 1

                         Standard orientation:
 ---------------------------------------------------------------------
 Center     Atomic      Atomic             Coordinates (Angstroms)
 Number     Number       Type             X           Y           Z
 ---------------------------------------------------------------------
      1          6           0        0.558250    0.418398    0.559302
      2          6           0       -0.933935    0.230597    0.594905
      3         17           0        1.144335    1.649900   -0.579298
      4          1           0       -1.235077    0.079390    3.014862
      5          1           0       -1.111072   -0.303760    1.636277
      6          1           0        0.812999    0.752111    1.571637
      7          7           0        1.327493   -0.879425    0.381391
      8          8           0        2.335724   -0.901462   -0.310386
      9          8           0        0.890039   -1.811708    1.044539
     10          7           0       -1.684325    1.417854    0.785154
     11          1           0       -1.210431    2.239579    0.436523
     12          1           0       -1.819932    1.469880    1.805240
     13          7           0       -1.430336   -0.560779   -0.549735
     14          8           0       -2.638987   -0.780833   -0.607644
     15          8           0       -0.602514   -1.008875   -1.358933
 ---------------------------------------------------------------------

 SCF Done:  E(RHF) =  -1000.88825957     A.U. after    2 cycles

 The electronic state is 1-A.
 Alpha  occ. eigenvalues -- -103.57266 -20.51398 -20.51048 -20.48992 -20.48917
 Alpha  occ. eigenvalues --  -15.81204 -15.78205 -15.49900 -11.26947 -11.20202
 Alpha  occ. eigenvalues --  -10.60596  -8.26328  -8.26028  -8.26009  -1.44091
 Alpha  occ. eigenvalues --   -1.40986  -1.25891  -1.22706  -1.11793  -1.05733
 Alpha  occ. eigenvalues --   -0.94818  -0.88596  -0.76466  -0.70009  -0.67315
 Alpha  occ. eigenvalues --   -0.63556  -0.63232  -0.62175  -0.60512  -0.58391
 Alpha  occ. eigenvalues --   -0.54593  -0.50964  -0.49715  -0.41891  -0.41339
 Alpha  occ. eigenvalues --   -0.40724  -0.38739  -0.38379  -0.37211  -0.36689
 Alpha  occ. eigenvalues --   -0.35919  -0.34545  -0.29869  -0.12779
 Alpha virt. eigenvalues --    0.12901   0.14524   0.16531   0.18375   0.18701
 Alpha virt. eigenvalues --    0.19071   0.19339   0.21028   0.21808   0.22836
 Alpha virt. eigenvalues --    0.23407   0.24276   0.25321   0.26064   0.26422

 Mulliken charges:
               1
     1  C    0.998377
     2  C    0.428872
     3  Cl  -0.151652
     4  H   -0.494643
     5  H   -0.042598
     6  H    0.020553
     7  N    0.601489
     8  O   -0.669983
     9  O   -0.605212
    10  N   -0.230504
    11  H    0.027388
    12  H    0.087560
    13  N    0.320458
    14  O   -0.605701
    15  O   -0.684402
 Sum of Mulliken charges =  -1.00000

 Dipole moment (field-independent basis, Debye):
    X=              4.2341    Y=              4.0887    Z=             -4.8864  Tot=              7.6500

 Test job not archived.
 1\1\GINC-SE208\SP\RHF\Aug-CC-pVDZ\C2H5Cl1N3O4(1-)\OHZDE\09-Apr-2025\0\
 \#t hf aug-cc-pvdz iop(5/13=1,5/36=2,99/5=2) pseudo=read geom=check gu
 ess=(read,tcheck) scf=(maxcycle=1)\\title\\-1,1\C,0,-0.18742704,0.1094
 7986,-0.29813864\C,0,-0.11799772,0.12036689,1.2045976\Cl,0,1.34667056,
 -0.22515052,-1.12944272\H,0,-2.16326765,-1.12757931,1.6833926\H,0,-1.2
 4720217,-0.0328263,1.52522419\H,0,-0.87823441,-0.7088455,-0.5309742\N,
 0,-0.85035258,1.34519197,-0.88232708\O,0,-0.42551714,1.83278566,-1.920
 27604\O,0,-1.84795308,1.70975989,-0.27227246\N,0,0.47197853,-1.0292784

 Normal termination of Gaussian 16 at Wed Apr  9 02:39:37 2025.
