 Gaussian 16, Revision C.01,

 ----------------------------------------------------------------------
 #t hf aug-cc-pvdz symm=none int=(grid=ultrafine) guess=(read,tcheck) s
 table=(opt,rrhf)
 ----------------------------------------------------------------------
 -----
 title
 -----
 Symbolic Z-matrix:
 Charge = -1 Multiplicity = 1

 SCF Done:  E(RHF) =  -891.283369034     A.U. after   18 cycles
 Normal termination of Gaussian 16 at Wed Apr  9 02:58:52 2025.
 Gaussian 16:  ES64L-G16RevC.01  3-Jul-2019

 ----------------------------------------------------------------------
 #t hf aug-cc-pvdz iop(5/13=1,5/36=2,99/5=2) pseudo=read geom=check gue
 ss=(read,tcheck) scf=(maxcycle=1)
 ----------------------------------------------------------------------
 -----
 title
 -----
 Structure from the checkpoint file:  "E2SN2_49_mol2.chk"
 Charge = -1 Multiplicity = 1

                         Standard orientation:
 ---------------------------------------------------------------------
 Center     Atomic      Atomic             Coordinates (Angstroms)
 Number     Number       Type             X           Y           Z
 ---------------------------------------------------------------------
      1          6           0       -0.116385    0.193984    0.282471
      2          6           0        1.218350   -0.209186   -0.320201
      3         17           0       -0.718589    1.782994   -0.498240
      4          1           0        1.116804   -0.177092   -1.410385
      5          7           0       -1.193529   -0.802178   -0.142538
      6          8           0       -1.234743   -1.098505   -1.323910
      7          8           0       -1.972334   -1.189356    0.725726
      8          7           0       -0.098191    0.262787    1.679883
      9          1           0        0.527179    0.996185    1.982113
     10          1           0       -1.024622    0.386355    2.064278
     11          7           0        1.435768   -1.597415    0.035989
     12          1           0        2.230013   -1.888507   -0.595668
     13          1           0        1.793348   -1.626978    0.987006
     14          6           0        2.352740    0.729073    0.087247
     15          1           0        3.235267    0.355001   -0.438693
     16          1           0        2.168671    1.774881   -0.179702
     17          1           0        2.550257    0.655488    1.163349
     18          1           0        3.539144   -1.808924   -1.627188
 ---------------------------------------------------------------------

 SCF Done:  E(RHF) =  -891.431840902     A.U. after    2 cycles

 The electronic state is 1-A.
 Alpha  occ. eigenvalues -- -103.56040 -20.51761 -20.51710 -15.81282 -15.54994
 Alpha  occ. eigenvalues --  -15.45473 -11.30356 -11.15857 -11.11113 -10.59372
 Alpha  occ. eigenvalues --   -8.25073  -8.24808  -8.24798  -1.44455  -1.26348
 Alpha  occ. eigenvalues --   -1.15130  -1.03391  -1.02570  -0.90900  -0.86346
 Alpha  occ. eigenvalues --   -0.76052  -0.69956  -0.65844  -0.63478  -0.62237
 Alpha  occ. eigenvalues --   -0.58420  -0.53825  -0.52336  -0.47512  -0.46509
 Alpha  occ. eigenvalues --   -0.43881  -0.42264  -0.41413  -0.39825  -0.37973
 Alpha  occ. eigenvalues --   -0.37766  -0.36130  -0.35871  -0.32485  -0.25976
 Alpha  occ. eigenvalues --   -0.08360
 Alpha virt. eigenvalues --    0.10636   0.12787   0.13795   0.15343   0.16017
 Alpha virt. eigenvalues --    0.16778   0.17104   0.17959   0.19777   0.20268
 Alpha virt. eigenvalues --    0.22347   0.22841   0.23180   0.23666   0.23901

 Mulliken charges:
               1
     1  C    0.807138
     2  C    0.005156
     3  Cl  -0.217533
     4  H   -0.093649
     5  N    0.348481
     6  O   -0.582377
     7  O   -0.638330
     8  N   -0.363088
     9  H    0.073325
    10  H    0.062124
    11  N   -0.364442
    12  H    0.071753
    13  H    0.006179
    14  C    0.813203
    15  H    0.005660
    16  H   -0.051573
    17  H   -0.072697
    18  H   -0.809330
 Sum of Mulliken charges =  -1.00000

 Dipole moment (field-independent basis, Debye):
    X=             -9.3782    Y=              9.2925    Z=              8.3386  Tot=             15.6152

 Test job not archived.
 1\1\GINC-SE149\SP\RHF\Aug-CC-pVDZ\C3H9Cl1N3O2(1-)\OHZDE\09-Apr-2025\0\
 \#t hf aug-cc-pvdz iop(5/13=1,5/36=2,99/5=2) pseudo=read geom=check gu
 ess=(read,tcheck) scf=(maxcycle=1)\\title\\-1,1\C,0,-0.732316,0.08552,
 -1.489189\C,0,0.12702,0.086337,-0.236664\Cl,0,-0.179267,1.445872,-2.64
 7072\H,0,1.17635,0.10064,-0.550583\N,0,-0.444892,-1.171351,-2.308258\O
 ,0,0.726354,-1.453595,-2.491746\O,0,-1.412483,-1.774316,-2.767091\N,0,
 -2.104823,0.140656,-1.222716\H,0,-2.336294,1.018343,-0.779557\H,0,-2.6
 57763,-0.009303,-2.055227\N,0,-0.092222,-1.186362,0.421738\H,0,0.69041

 Normal termination of Gaussian 16 at Wed Apr  9 02:59:01 2025.
