 Gaussian 16, Revision C.01,

 ----------------------------------------------------------------------
 #t hf aug-cc-pvdz symm=none int=(grid=ultrafine) guess=(read,tcheck) s
 table=(opt,rrhf)
 ----------------------------------------------------------------------
 -----
 title
 -----
 Symbolic Z-matrix:
 Charge = -1 Multiplicity = 1

 SCF Done:  E(RHF) =  -878.454539906     A.U. after   16 cycles
 Normal termination of Gaussian 16 at Wed Apr  9 02:50:37 2025.
 Gaussian 16:  ES64L-G16RevC.01  3-Jul-2019

 ----------------------------------------------------------------------
 #t hf aug-cc-pvdz iop(5/13=1,5/36=2,99/5=2) pseudo=read geom=check gue
 ss=(read,tcheck) scf=(maxcycle=1)
 ----------------------------------------------------------------------
 -----
 title
 -----
 Structure from the checkpoint file:  "E2SN2_319_mol1.chk"
 Charge = -1 Multiplicity = 1

                         Standard orientation:
 ---------------------------------------------------------------------
 Center     Atomic      Atomic             Coordinates (Angstroms)
 Number     Number       Type             X           Y           Z
 ---------------------------------------------------------------------
      1          6           0       -0.102808    0.087061    0.306667
      2          1           0        0.266446   -1.370265   -1.212059
      3          9           0        1.418570    1.217898    0.875553
      4         17           0       -2.023535   -1.010628   -0.299997
      5          6           0        0.858310   -0.682243   -0.609697
      6          6           0       -0.671426    1.337232   -0.171588
      7          7           0       -1.164353    2.362113   -0.474459
      8          7           0       -0.255115   -0.288641    1.679559
      9          1           0       -1.226124   -0.195219    1.941918
     10          1           0        0.325370    0.374678    2.181046
     11          6           0        1.843385   -1.503305    0.219526
     12          1           0        2.441594   -0.829916    0.831166
     13          1           0        1.321214   -2.209447    0.867027
     14          1           0        2.496231   -2.061528   -0.461629
     15          7           0        1.469700    0.268078   -1.533418
     16          1           0        2.103826   -0.232095   -2.145280
     17          1           0        1.988023    0.920064   -0.953437
 ---------------------------------------------------------------------

 SCF Done:  E(RHF) =  -878.591864431     A.U. after    2 cycles

 The electronic state is 1-A.
 Alpha  occ. eigenvalues -- -103.43473 -25.82816 -15.49720 -15.49490 -15.47098
 Alpha  occ. eigenvalues --  -11.28460 -11.16064 -11.15078 -11.09755 -10.46768
 Alpha  occ. eigenvalues --   -8.12402  -8.12273  -8.12260  -1.32958  -1.08106
 Alpha  occ. eigenvalues --   -1.02695  -1.02390  -0.90407  -0.86373  -0.81520
 Alpha  occ. eigenvalues --   -0.69409  -0.59537  -0.55774  -0.55624  -0.48291
 Alpha  occ. eigenvalues --   -0.46280  -0.44150  -0.43718  -0.41589  -0.41157
 Alpha  occ. eigenvalues --   -0.40572  -0.40070  -0.37407  -0.32722  -0.31858
 Alpha  occ. eigenvalues --   -0.29541  -0.27116  -0.26377  -0.25196  -0.24637
 Alpha virt. eigenvalues --    0.11915   0.13301   0.14156   0.14733   0.15942
 Alpha virt. eigenvalues --    0.16698   0.17873   0.18108   0.20125   0.20771
 Alpha virt. eigenvalues --    0.22262   0.23270   0.24209   0.24821   0.25888

 Mulliken charges:
               1
     1  C    1.345643
     2  H   -0.142741
     3  F   -0.837709
     4  Cl  -0.615888
     5  C   -0.036694
     6  C   -0.546926
     7  N   -0.300317
     8  N   -0.586341
     9  H    0.066821
    10  H    0.176188
    11  C    0.791703
    12  H    0.047864
    13  H   -0.018517
    14  H   -0.092582
    15  N   -0.318223
    16  H   -0.045113
    17  H    0.112829
 Sum of Mulliken charges =  -1.00000

 Dipole moment (field-independent basis, Debye):
    X=              3.5762    Y=             -3.3545    Z=              0.8478  Tot=              4.9760

 Test job not archived.
 1\1\GINC-SE116\SP\RHF\Aug-CC-pVDZ\C4H8Cl1F1N3(1-)\OHZDE\09-Apr-2025\0\
 \#t hf aug-cc-pvdz iop(5/13=1,5/36=2,99/5=2) pseudo=read geom=check gu
 ess=(read,tcheck) scf=(maxcycle=1)\\title\\-1,1\C,0,0.76877342,0.01159
 508,0.02173633\H,0,1.6702504,1.94637247,-0.08146849\F,0,-1.2053371,-0.
 0821959,-0.08363656\Cl,0,3.05897946,-0.11918226,0.0191371\C,0,0.661554
 62,1.54230227,-0.00545499\C,0,0.7303599,-0.7125229,-1.23888208\N,0,0.6
 9380156,-1.37561912,-2.21050755\N,0,0.67357784,-0.70178945,1.259154\H,
 0,1.32979757,-1.46970472,1.24915994\H,0,-0.28318454,-1.03762342,1.2754

 Normal termination of Gaussian 16 at Wed Apr  9 02:50:46 2025.
