 Gaussian 16, Revision C.01,

 ----------------------------------------------------------------------
 #t hf aug-cc-pvdz symm=none int=(grid=ultrafine) guess=(read,tcheck) s
 table=(opt,rrhf)
 ----------------------------------------------------------------------
 -----
 title
 -----
 Symbolic Z-matrix:
 Charge = -1 Multiplicity = 1

 SCF Done:  E(RHF) =  -875.257089533     A.U. after   17 cycles
 Normal termination of Gaussian 16 at Wed Apr  9 02:51:49 2025.
 Gaussian 16:  ES64L-G16RevC.01  3-Jul-2019

 ----------------------------------------------------------------------
 #t hf aug-cc-pvdz iop(5/13=1,5/36=2,99/5=2) pseudo=read geom=check gue
 ss=(read,tcheck) scf=(maxcycle=1)
 ----------------------------------------------------------------------
 -----
 title
 -----
 Structure from the checkpoint file:  "E2SN2_344_mol1.chk"
 Charge = -1 Multiplicity = 1

                         Standard orientation:
 ---------------------------------------------------------------------
 Center     Atomic      Atomic             Coordinates (Angstroms)
 Number     Number       Type             X           Y           Z
 ---------------------------------------------------------------------
      1          6           0        0.982898    0.172560   -0.459084
      2          1           0       -0.541321   -0.236112   -1.897085
      3         17           0        0.702522   -0.037446    1.629536
      4          1           0        1.199406    0.169716   -2.640609
      5          6           0       -0.372455   -0.455676   -0.848588
      6          6           0        2.247314   -0.676974   -0.611709
      7          1           0        2.740121   -0.800539    0.360431
      8          1           0        1.997130   -1.652303   -1.020729
      9          1           0        2.922903   -0.188370   -1.304849
     10          6           0        1.187501    1.681667   -0.460043
     11          1           0        1.206098    2.049527   -1.479939
     12          1           0        0.416820    2.192291    0.110769
     13          1           0        2.150429    1.879435    0.019765
     14          7           0       -1.571608    0.261389   -0.165521
     15          8           0       -2.386502   -0.421815    0.455346
     16          8           0       -1.722648    1.457292   -0.411804
     17          7           0       -0.405429   -1.853180   -0.607205
     18          1           0       -1.297178   -2.228408   -0.898564
     19          1           0       -0.296359   -2.019398    0.385992
 ---------------------------------------------------------------------

 SCF Done:  E(RHF) =  -875.398855188     A.U. after    2 cycles

 The electronic state is 1-A.
 Alpha  occ. eigenvalues -- -103.46755 -20.48873 -20.48624 -15.77351 -15.50213
 Alpha  occ. eigenvalues --  -11.22232 -11.21228 -11.09860 -11.09772 -10.50120
 Alpha  occ. eigenvalues --   -8.15771  -8.15612  -8.15603  -1.40717  -1.22589
 Alpha  occ. eigenvalues --   -1.08260  -0.97821  -0.90055  -0.86921  -0.81143
 Alpha  occ. eigenvalues --   -0.73310  -0.66163  -0.62588  -0.60753  -0.57731
 Alpha  occ. eigenvalues --   -0.55098  -0.50384  -0.47367  -0.45214  -0.43840
 Alpha  occ. eigenvalues --   -0.42449  -0.40801  -0.38527  -0.37815  -0.36801
 Alpha  occ. eigenvalues --   -0.34396  -0.30409  -0.29999  -0.28773  -0.28729
 Alpha  occ. eigenvalues --   -0.09577
 Alpha virt. eigenvalues --    0.12762   0.13358   0.14353   0.15187   0.15994
 Alpha virt. eigenvalues --    0.16330   0.17207   0.18081   0.18357   0.19899
 Alpha virt. eigenvalues --    0.21247   0.22431   0.23015   0.23776   0.24399

 Mulliken charges:
               1
     1  C   -2.314498
     2  H   -0.165939
     3  Cl  -0.558797
     4  H   -0.594750
     5  C    1.682730
     6  C    0.834474
     7  H   -0.014919
     8  H   -0.049592
     9  H   -0.032487
    10  C    1.100430
    11  H    0.014460
    12  H    0.029115
    13  H    0.025947
    14  N    0.497827
    15  O   -0.655115
    16  O   -0.642912
    17  N   -0.199929
    18  H   -0.021694
    19  H    0.065649
 Sum of Mulliken charges =  -1.00000

 Dipole moment (field-independent basis, Debye):
    X=             -1.0982    Y=             -1.6485    Z=              4.0176  Tot=              4.4794

 Test job not archived.
 1\1\GINC-SE461\SP\RHF\Aug-CC-pVDZ\C4H10Cl1N2O2(1-)\OHZDE\09-Apr-2025\0
 \\#t hf aug-cc-pvdz iop(5/13=1,5/36=2,99/5=2) pseudo=read geom=check g
 uess=(read,tcheck) scf=(maxcycle=1)\\title\\-1,1\C,0,0.43665259,-0.070
 27767,0.02261201\H,0,1.7218879,1.62201872,0.22853529\Cl,0,-1.67604375,
 0.05299895,0.10240635\H,0,2.61445874,-0.03458962,-0.22602032\C,0,0.668
 74019,1.45597747,0.03008874\C,0,0.57703843,-0.81931958,-1.30516029\H,0
 ,-0.36931437,-1.30899349,-1.56558279\H,0,0.8615444,-0.13068889,-2.0963
 632\H,0,1.36058146,-1.56308651,-1.21314112\C,0,0.61361472,-0.90598907,

 Normal termination of Gaussian 16 at Wed Apr  9 02:51:58 2025.
