 Gaussian 16, Revision C.01,

 ----------------------------------------------------------------------
 #t hf aug-cc-pvdz symm=none int=(grid=ultrafine) guess=(read,tcheck) s
 table=(opt,rrhf)
 ----------------------------------------------------------------------
 -----
 title
 -----
 Symbolic Z-matrix:
 Charge = -1 Multiplicity = 1

 SCF Done:  E(RHF) =  -915.194130098     A.U. after   16 cycles
 Normal termination of Gaussian 16 at Wed Apr  9 03:00:50 2025.
 Gaussian 16:  ES64L-G16RevC.01  3-Jul-2019

 ----------------------------------------------------------------------
 #t hf aug-cc-pvdz iop(5/13=1,5/36=2,99/5=2) pseudo=read geom=check gue
 ss=(read,tcheck) scf=(maxcycle=1)
 ----------------------------------------------------------------------
 -----
 title
 -----
 Structure from the checkpoint file:  "E2SN2_87_mol2.chk"
 Charge = -1 Multiplicity = 1

                         Standard orientation:
 ---------------------------------------------------------------------
 Center     Atomic      Atomic             Coordinates (Angstroms)
 Number     Number       Type             X           Y           Z
 ---------------------------------------------------------------------
      1          6           0       -0.369107   -0.223092   -0.333399
      2          6           0        0.587159    0.574287    0.567657
      3         17           0        0.172640   -1.978301   -0.434324
      4          1           0        0.193243    1.590150    0.423659
      5          6           0       -1.700132   -0.297336    0.310325
      6          7           0       -2.778225   -0.380520    0.772184
      7          7           0       -0.374254    0.368338   -1.621863
      8          1           0       -1.101500   -0.058897   -2.186303
      9          1           0       -0.634974    1.384689   -1.391638
     10          6           0        1.943440    0.503189    0.032337
     11          7           0        3.069930    0.465576   -0.299648
     12          6           0        0.566678    0.160126    2.036734
     13          1           0        1.268011    0.778571    2.601247
     14          1           0       -0.431377    0.312148    2.451983
     15          1           0        0.850039   -0.887670    2.161967
     16          9           0       -0.963190    2.559481   -0.479339
 ---------------------------------------------------------------------

 SCF Done:  E(RHF) =  -915.344139883     A.U. after    2 cycles

 The electronic state is 1-A.
 Alpha  occ. eigenvalues -- -103.54575 -25.78398 -15.53372 -15.51909 -15.48253
 Alpha  occ. eigenvalues --  -11.27035 -11.18428 -11.17406 -11.16303 -11.13696
 Alpha  occ. eigenvalues --  -10.57921  -8.23625  -8.23353  -8.23346  -1.27845
 Alpha  occ. eigenvalues --   -1.12347  -1.06290  -1.05426  -1.00449  -0.95567
 Alpha  occ. eigenvalues --   -0.81552  -0.77601  -0.60229  -0.59786  -0.54059
 Alpha  occ. eigenvalues --   -0.53251  -0.46670  -0.45718  -0.44298  -0.43805
 Alpha  occ. eigenvalues --   -0.42550  -0.41937  -0.38807  -0.37339  -0.37110
 Alpha  occ. eigenvalues --   -0.35901  -0.35458  -0.34217  -0.33299  -0.32591
 Alpha  occ. eigenvalues --   -0.31115  -0.28055
 Alpha virt. eigenvalues --    0.12337   0.13821   0.14531   0.15286   0.17455
 Alpha virt. eigenvalues --    0.17871   0.18642   0.19206   0.19802   0.21567
 Alpha virt. eigenvalues --    0.22792   0.23516   0.24119   0.25086   0.25128

 Mulliken charges:
               1
     1  C    0.884498
     2  C    0.273228
     3  Cl  -0.240774
     4  H   -0.097543
     5  C   -0.178206
     6  N   -0.314163
     7  N   -0.757661
     8  H   -0.003319
     9  H    0.257925
    10  C   -0.318522
    11  N   -0.293923
    12  C    0.804927
    13  H   -0.019603
    14  H   -0.049702
    15  H   -0.009504
    16  F   -0.937658
 Sum of Mulliken charges =  -1.00000

 Dipole moment (field-independent basis, Debye):
    X=              0.8799    Y=             -5.4293    Z=              2.1567  Tot=              5.9079

 Test job not archived.
 1\1\GINC-SE188\SP\RHF\Aug-CC-pVDZ\C5H6Cl1F1N3(1-)\OHZDE\09-Apr-2025\0\
 \#t hf aug-cc-pvdz iop(5/13=1,5/36=2,99/5=2) pseudo=read geom=check gu
 ess=(read,tcheck) scf=(maxcycle=1)\\title\\-1,1\C,0,-0.016545,-0.04097
 8,-1.482951\C,0,0.023901,0.017425,0.052339\Cl,0,-1.726048,-0.404197,-2
 .057498\H,0,1.105317,0.122869,0.217579\C,0,0.265406,1.304851,-2.031373
 \N,0,0.491349,2.349845,-2.520715\N,0,0.877734,-1.050388,-1.920343\H,0,
 0.966651,-1.007789,-2.930436\H,0,1.795668,-0.741447,-1.455691\C,0,-0.4
 26118,-1.256045,0.606303\N,0,-0.814503,-2.227703,1.140764\C,0,-0.75965

 Normal termination of Gaussian 16 at Wed Apr  9 03:00:59 2025.
