 Gaussian 16, Revision C.01,

 ----------------------------------------------------------------------
 #t hf aug-cc-pvdz symm=none int=(grid=ultrafine) guess=(read,tcheck) s
 table=(opt,rrhf)
 ----------------------------------------------------------------------
 -----
 title
 -----
 Symbolic Z-matrix:
 Charge = -1 Multiplicity = 1

 SCF Done:  E(RHF) =  -585.609442654     A.U. after   18 cycles
 Normal termination of Gaussian 16 at Wed Apr  9 02:39:58 2025.
 Gaussian 16:  ES64L-G16RevC.01  3-Jul-2019

 ----------------------------------------------------------------------
 #t hf aug-cc-pvdz iop(5/13=1,5/36=2,99/5=2) pseudo=read geom=check gue
 ss=(read,tcheck) scf=(maxcycle=1)
 ----------------------------------------------------------------------
 -----
 title
 -----
 Structure from the checkpoint file:  "E2SN2_210_mol2.chk"
 Charge = -1 Multiplicity = 1

                         Standard orientation:
 ---------------------------------------------------------------------
 Center     Atomic      Atomic             Coordinates (Angstroms)
 Number     Number       Type             X           Y           Z
 ---------------------------------------------------------------------
      1          6           0        0.516749   -0.616882    0.298037
      2          6           0       -0.587701    0.173090    0.976355
      3          9           0        0.104851   -0.911924   -1.037748
      4          1           0       -0.303918    1.209871    1.105805
      5          1           0        0.779021   -1.550522    0.770407
      6          1           0       -0.865776   -0.288273    1.914282
      7          7           0        1.767551    0.158279    0.079202
      8          8           0        1.662204    1.366330   -0.153183
      9          8           0        2.788375   -0.507864   -0.111751
     10          7           0       -1.820014    0.164010    0.098265
     11          8           0       -2.040629    1.146164   -0.608192
     12          8           0       -2.542996   -0.830886    0.162151
     13          1           0        1.304318   -0.146981    2.348417
 ---------------------------------------------------------------------

 SCF Done:  E(RHF) =  -585.793358716     A.U. after    2 cycles

 The electronic state is 1-A.
 Alpha  occ. eigenvalues --  -26.00656 -20.50571 -20.50299 -20.48021 -20.47937
 Alpha  occ. eigenvalues --  -15.79247 -15.78253 -11.28141 -11.19321  -1.53717
 Alpha  occ. eigenvalues --   -1.42372  -1.40019  -1.24249  -1.21918  -1.00985
 Alpha  occ. eigenvalues --   -0.91640  -0.76219  -0.72441  -0.66645  -0.66273
 Alpha  occ. eigenvalues --   -0.65644  -0.62439  -0.62136  -0.59484  -0.57610
 Alpha  occ. eigenvalues --   -0.55277  -0.54559  -0.48663  -0.45405  -0.39744
 Alpha  occ. eigenvalues --   -0.39357  -0.37726  -0.37143  -0.35872  -0.33751
 Alpha  occ. eigenvalues --   -0.11900
 Alpha virt. eigenvalues --    0.14450   0.14812   0.16171   0.18438   0.19516
 Alpha virt. eigenvalues --    0.21309   0.21684   0.22563   0.23116   0.23778
 Alpha virt. eigenvalues --    0.24731   0.26406   0.27118   0.28169   0.29342

 Mulliken charges:
               1
     1  C    1.141591
     2  C    0.878719
     3  F   -0.469786
     4  H   -0.051453
     5  H   -0.279971
     6  H   -0.121961
     7  N    0.312444
     8  O   -0.626425
     9  O   -0.591134
    10  N    0.616252
    11  O   -0.635446
    12  O   -0.656020
    13  H   -0.516810
 Sum of Mulliken charges =  -1.00000

 Dipole moment (field-independent basis, Debye):
    X=             -3.9466    Y=             -0.6550    Z=             -2.6874  Tot=              4.8194

 Test job not archived.
 1\1\GINC-SE227\SP\RHF\Aug-CC-pVDZ\C2H4F1N2O4(1-)\OHZDE\09-Apr-2025\0\\
 #t hf aug-cc-pvdz iop(5/13=1,5/36=2,99/5=2) pseudo=read geom=check gue
 ss=(read,tcheck) scf=(maxcycle=1)\\title\\-1,1\C,0,-0.077443,-0.017067
 ,-0.000911\C,0,-0.530931,0.07213,-1.446723\F,0,1.350575,-0.052539,0.02
 2251\H,0,-0.919938,1.056527,-1.674413\H,0,-0.432273,-0.876331,0.546232
 \H,0,-1.248451,-0.705806,-1.670039\N,0,-0.376509,1.198799,0.802518\O,0
 ,-0.341888,2.290894,0.227523\O,0,-0.378291,1.048943,2.027194\N,0,0.657
 039,-0.149349,-2.357434\O,0,1.210922,0.83487,-2.844163\O,0,0.985841,-1

 Normal termination of Gaussian 16 at Wed Apr  9 02:40:04 2025.
