 Gaussian 16, Revision C.01,

 ----------------------------------------------------------------------
 #t hf aug-cc-pvdz symm=none int=(grid=ultrafine) guess=(read,tcheck) s
 table=(opt,rrhf)
 ----------------------------------------------------------------------
 -----
 title
 -----
 Symbolic Z-matrix:
 Charge = -1 Multiplicity = 1

 SCF Done:  E(RHF) =  -915.142126034     A.U. after   17 cycles
 Normal termination of Gaussian 16 at Wed Apr  9 02:45:48 2025.
 Gaussian 16:  ES64L-G16RevC.01  3-Jul-2019

 ----------------------------------------------------------------------
 #t hf aug-cc-pvdz iop(5/13=1,5/36=2,99/5=2) pseudo=read geom=check gue
 ss=(read,tcheck) scf=(maxcycle=1)
 ----------------------------------------------------------------------
 -----
 title
 -----
 Structure from the checkpoint file:  "E2SN2_274_mol1.chk"
 Charge = -1 Multiplicity = 1

                         Standard orientation:
 ---------------------------------------------------------------------
 Center     Atomic      Atomic             Coordinates (Angstroms)
 Number     Number       Type             X           Y           Z
 ---------------------------------------------------------------------
      1          6           0       -0.110237    0.102656    0.146587
      2          1           0        0.437922   -0.278699   -1.885095
      3          9           0        1.302893    0.461530    1.431842
      4         17           0       -1.913070   -0.371846   -1.075083
      5          6           0        0.953581   -0.204164   -0.928418
      6          6           0       -0.516012    1.470104    0.374628
      7          7           0       -0.870406    2.576231    0.558510
      8          6           0       -0.484051   -0.881186    1.137931
      9          7           0       -0.793214   -1.716786    1.905783
     10          6           0        1.623959   -1.540928   -0.621968
     11          1           0        2.108249   -1.480033    0.352221
     12          1           0        0.902344   -2.362504   -0.617294
     13          1           0        2.373303   -1.749278   -1.392825
     14          7           0        1.853583    0.938200   -1.021534
     15          1           0        2.564721    0.734905   -1.714152
     16          1           0        2.276422    1.040813   -0.104897
 ---------------------------------------------------------------------

 SCF Done:  E(RHF) =  -915.289163754     A.U. after    2 cycles

 The electronic state is 1-A.
 Alpha  occ. eigenvalues -- -103.47085 -25.84701 -15.52029 -15.52022 -15.48795
 Alpha  occ. eigenvalues --  -11.30246 -11.18713 -11.18381 -11.17929 -11.11793
 Alpha  occ. eigenvalues --  -10.50335  -8.15982  -8.15808  -8.15804  -1.34725
 Alpha  occ. eigenvalues --   -1.08441  -1.05309  -1.04759  -0.97013  -0.90307
 Alpha  occ. eigenvalues --   -0.86543  -0.73264  -0.68449  -0.59763  -0.51936
 Alpha  occ. eigenvalues --   -0.49412  -0.47689  -0.46748  -0.44249  -0.43615
 Alpha  occ. eigenvalues --   -0.43047  -0.42556  -0.42213  -0.39632  -0.34802
 Alpha  occ. eigenvalues --   -0.34449  -0.33858  -0.33263  -0.29856  -0.28296
 Alpha  occ. eigenvalues --   -0.27930  -0.26853
 Alpha virt. eigenvalues --    0.11263   0.13281   0.14059   0.15517   0.16847
 Alpha virt. eigenvalues --    0.17360   0.17625   0.18393   0.19889   0.21259
 Alpha virt. eigenvalues --    0.21799   0.22531   0.23914   0.24133   0.25098

 Mulliken charges:
               1
     1  C    1.483803
     2  H   -0.169523
     3  F   -0.804369
     4  Cl  -0.478017
     5  C    0.287497
     6  C   -0.643719
     7  N   -0.285292
     8  C   -0.610626
     9  N   -0.314296
    10  C    0.783509
    11  H    0.101626
    12  H   -0.009834
    13  H   -0.110426
    14  N   -0.289451
    15  H   -0.040711
    16  H    0.099830
 Sum of Mulliken charges =  -1.00000

 Dipole moment (field-independent basis, Debye):
    X=              3.8679    Y=             -2.3497    Z=             -4.2216  Tot=              6.1891

 Test job not archived.
 1\1\GINC-SE069\SP\RHF\Aug-CC-pVDZ\C5H6Cl1F1N3(1-)\OHZDE\09-Apr-2025\0\
 \#t hf aug-cc-pvdz iop(5/13=1,5/36=2,99/5=2) pseudo=read geom=check gu
 ess=(read,tcheck) scf=(maxcycle=1)\\title\\-1,1\C,0,0.70888322,0.00746
 346,-0.02129387\H,0,1.67411128,1.90926281,-0.17982934\F,0,-1.23082147,
 -0.05461667,-0.12759386\Cl,0,2.9125641,-0.20915674,0.23307375\C,0,0.65
 483572,1.54955032,-0.04427768\C,0,0.69206874,-0.72267027,-1.26756489\N
 ,0,0.69838663,-1.33020233,-2.27443669\C,0,0.46356994,-0.73622485,1.194
 10547\N,0,0.29741132,-1.309242,2.20773701\C,0,0.12110061,2.06552647,1.

 Normal termination of Gaussian 16 at Wed Apr  9 02:45:57 2025.
