 Gaussian 16, Revision C.01,

 ----------------------------------------------------------------------
 #t hf aug-cc-pvdz symm=none int=(grid=ultrafine) guess=(read,tcheck) s
 table=(opt,rrhf)
 ----------------------------------------------------------------------
 -----
 title
 -----
 Symbolic Z-matrix:
 Charge = -1 Multiplicity = 1

 SCF Done:  E(RHF) =  -836.251219198     A.U. after   16 cycles
 Normal termination of Gaussian 16 at Wed Apr  9 02:26:57 2025.
 Gaussian 16:  ES64L-G16RevC.01  3-Jul-2019

 ----------------------------------------------------------------------
 #t hf aug-cc-pvdz iop(5/13=1,5/36=2,99/5=2) pseudo=read geom=check gue
 ss=(read,tcheck) scf=(maxcycle=1)
 ----------------------------------------------------------------------
 -----
 title
 -----
 Structure from the checkpoint file:  "E2SN2_102_mol2.chk"
 Charge = -1 Multiplicity = 1

                         Standard orientation:
 ---------------------------------------------------------------------
 Center     Atomic      Atomic             Coordinates (Angstroms)
 Number     Number       Type             X           Y           Z
 ---------------------------------------------------------------------
      1          6           0       -0.010142   -0.314820    0.171229
      2          6           0        1.164895   -0.587796   -0.749638
      3         17           0       -1.443628   -1.270529   -0.362022
      4          1           0        1.407291   -1.651784   -0.654153
      5          1           0        0.855154   -0.374427   -1.774817
      6          6           0        0.293205   -0.608690    1.615243
      7          1           0        1.104591    0.045586    1.929180
      8          1           0       -0.582607   -0.457903    2.245339
      9          1           0        0.652243   -1.636716    1.682713
     10          7           0       -0.434525    1.143180   -0.000416
     11          8           0       -0.517579    1.571205   -1.146711
     12          8           0       -0.687721    1.793214    1.010480
     13          7           0        2.274331    0.226973   -0.291944
     14          1           0        2.741015    0.632477   -1.094805
     15          1           0        2.938174   -0.477589    0.138093
     16          1           0        3.501823   -1.919236    0.598182
 ---------------------------------------------------------------------

 SCF Done:  E(RHF) =  -836.384752116     A.U. after    2 cycles

 The electronic state is 1-A.
 Alpha  occ. eigenvalues -- -103.56234 -20.51364 -20.51011 -15.80343 -15.45679
 Alpha  occ. eigenvalues --  -11.25778 -11.14395 -11.12390 -10.59569  -8.25289
 Alpha  occ. eigenvalues --   -8.25003  -8.24994  -1.43552  -1.25342  -1.10055
 Alpha  occ. eigenvalues --   -1.01685  -0.93624  -0.84350  -0.78809  -0.69574
 Alpha  occ. eigenvalues --   -0.63035  -0.61783  -0.59917  -0.54207  -0.50851
 Alpha  occ. eigenvalues --   -0.48504  -0.45315  -0.44869  -0.41762  -0.40190
 Alpha  occ. eigenvalues --   -0.39377  -0.37863  -0.36479  -0.35903  -0.35420
 Alpha  occ. eigenvalues --   -0.26067  -0.09187
 Alpha virt. eigenvalues --    0.12948   0.13667   0.14813   0.16379   0.16909
 Alpha virt. eigenvalues --    0.17277   0.18081   0.18462   0.20620   0.21772
 Alpha virt. eigenvalues --    0.23067   0.23905   0.24688   0.25304   0.25787

 Mulliken charges:
               1
     1  C   -0.562362
     2  C    0.845443
     3  Cl  -0.245607
     4  H   -0.054155
     5  H   -0.105677
     6  C    0.696194
     7  H    0.200468
     8  H   -0.005584
     9  H    0.080994
    10  N    0.358638
    11  O   -0.643890
    12  O   -0.599605
    13  N   -0.249155
    14  H   -0.027382
    15  H    0.110130
    16  H   -0.798451
 Sum of Mulliken charges =  -1.00000

 Dipole moment (field-independent basis, Debye):
    X=            -10.3411    Y=              3.7917    Z=             -1.9913  Tot=             11.1929

 Test job not archived.
 1\1\GINC-SE455\SP\RHF\Aug-CC-pVDZ\C3H8Cl1N2O2(1-)\OHZDE\09-Apr-2025\0\
 \#t hf aug-cc-pvdz iop(5/13=1,5/36=2,99/5=2) pseudo=read geom=check gu
 ess=(read,tcheck) scf=(maxcycle=1)\\title\\-1,1\C,0,-0.488061,0.026968
 ,-1.508184\C,0,-0.075679,0.190256,-0.056805\Cl,0,-0.39459,1.616029,-2.
 355985\H,0,0.969243,0.51901,-0.05491\H,0,-0.702315,0.96269,0.393895\C,
 0,0.336337,-0.994934,-2.242785\H,0,0.189282,-1.958412,-1.75795\H,0,0.0
 56923,-1.051533,-3.294227\H,0,1.38749,-0.725145,-2.130583\N,0,-1.96907
 9,-0.346923,-1.554212\O,0,-2.72951,0.286435,-0.829851\O,0,-2.315241,-1

 Normal termination of Gaussian 16 at Wed Apr  9 02:27:04 2025.
