 Gaussian 16, Revision C.01,

 ----------------------------------------------------------------------
 #t hf aug-cc-pvdz symm=none int=(grid=ultrafine) guess=(read,tcheck) s
 table=(opt,rrhf)
 ----------------------------------------------------------------------
 -----
 title
 -----
 Symbolic Z-matrix:
 Charge = -1 Multiplicity = 1

 SCF Done:  E(RHF) =  -876.120142881     A.U. after   16 cycles
 Normal termination of Gaussian 16 at Wed Apr  9 02:44:13 2025.
 Gaussian 16:  ES64L-G16RevC.01  3-Jul-2019

 ----------------------------------------------------------------------
 #t hf aug-cc-pvdz iop(5/13=1,5/36=2,99/5=2) pseudo=read geom=check gue
 ss=(read,tcheck) scf=(maxcycle=1)
 ----------------------------------------------------------------------
 -----
 title
 -----
 Structure from the checkpoint file:  "E2SN2_261_mol1.chk"
 Charge = -1 Multiplicity = 1

                         Standard orientation:
 ---------------------------------------------------------------------
 Center     Atomic      Atomic             Coordinates (Angstroms)
 Number     Number       Type             X           Y           Z
 ---------------------------------------------------------------------
      1          6           0       -0.640999    0.144624   -0.367415
      2          1           0        0.132250    1.387771    1.125336
      3         17           0        0.250640   -1.844421   -0.848468
      4          9           0       -1.576961    1.776549   -0.270426
      5          6           0        0.545630    0.893473    0.236996
      6          1           0       -0.836586    0.227542   -1.418727
      7          6           0       -1.623135   -0.417603    0.522139
      8          7           0       -2.407060   -0.852020    1.282873
      9          7           0        1.005562    1.851597   -0.769452
     10          1           0        1.750548    2.412387   -0.370925
     11          1           0        0.188265    2.439774   -0.908408
     12          6           0        1.689580    0.096559    0.703501
     13          7           0        2.668758   -0.342945    1.180748
 ---------------------------------------------------------------------

 SCF Done:  E(RHF) =  -876.255504889     A.U. after    2 cycles

 The electronic state is 1-A.
 Alpha  occ. eigenvalues -- -103.45050 -25.85366 -15.52700 -15.52254 -15.51411
 Alpha  occ. eigenvalues --  -11.26918 -11.22076 -11.18323 -11.18146 -10.48337
 Alpha  occ. eigenvalues --   -8.13977  -8.13827  -8.13816  -1.35317  -1.09693
 Alpha  occ. eigenvalues --   -1.06135  -1.04983  -0.95548  -0.88807  -0.80997
 Alpha  occ. eigenvalues --   -0.65083  -0.61474  -0.53362  -0.51617  -0.50402
 Alpha  occ. eigenvalues --   -0.46721  -0.44487  -0.44086  -0.42922  -0.42432
 Alpha  occ. eigenvalues --   -0.35440  -0.34915  -0.34270  -0.33470  -0.30656
 Alpha  occ. eigenvalues --   -0.27624  -0.27274  -0.26764
 Alpha virt. eigenvalues --    0.12203   0.14248   0.14858   0.16126   0.18740
 Alpha virt. eigenvalues --    0.19270   0.20169   0.22237   0.22622   0.23572
 Alpha virt. eigenvalues --    0.23923   0.24955   0.25694   0.25812   0.26472

 Mulliken charges:
               1
     1  C    1.237816
     2  H    0.087122
     3  Cl  -0.551249
     4  F   -0.816173
     5  C    0.820461
     6  H   -0.223418
     7  C   -0.364975
     8  N   -0.254080
     9  N   -0.395023
    10  H   -0.019632
    11  H    0.116421
    12  C   -0.368379
    13  N   -0.268890
 Sum of Mulliken charges =  -1.00000

 Dipole moment (field-independent basis, Debye):
    X=              1.8059    Y=              3.7688    Z=             -0.4803  Tot=              4.2066

 Test job not archived.
 1\1\GINC-SE419\SP\RHF\Aug-CC-pVDZ\C4H4Cl1F1N3(1-)\OHZDE\09-Apr-2025\0\
 \#t hf aug-cc-pvdz iop(5/13=1,5/36=2,99/5=2) pseudo=read geom=check gu
 ess=(read,tcheck) scf=(maxcycle=1)\\title\\-1,1\C,0,0.41768822,-0.0415
 9822,-0.03660018\H,0,1.52730622,1.62534324,-0.63800611\Cl,0,-1.6757984
 8,-0.3969202,-0.72492436\F,0,2.11341909,-0.00495651,0.78301323\C,0,0.5
 4787894,1.47511071,-0.16629072\H,0,0.10324523,-0.46581151,0.89697105\C
 ,0,0.98580961,-0.87001889,-1.06759749\N,0,1.47239393,-1.50979058,-1.92
 544361\N,0,0.49199387,2.02753621,1.1880279\H,0,0.64509692,3.02879437,1

 Normal termination of Gaussian 16 at Wed Apr  9 02:44:19 2025.
