 Gaussian 16, Revision C.01,

 ----------------------------------------------------------------------
 #t hf aug-cc-pvdz symm=none int=(grid=ultrafine) guess=(read,tcheck) s
 table=(opt,rrhf)
 ----------------------------------------------------------------------
 -----
 title
 -----
 Symbolic Z-matrix:
 Charge = -1 Multiplicity = 1

 SCF Done:  E(RHF) =  -987.882632275     A.U. after   17 cycles
 Normal termination of Gaussian 16 at Wed Apr  9 02:49:33 2025.
 Gaussian 16:  ES64L-G16RevC.01  3-Jul-2019

 ----------------------------------------------------------------------
 #t hf aug-cc-pvdz iop(5/13=1,5/36=2,99/5=2) pseudo=read geom=check gue
 ss=(read,tcheck) scf=(maxcycle=1)
 ----------------------------------------------------------------------
 -----
 title
 -----
 Structure from the checkpoint file:  "E2SN2_305_mol1.chk"
 Charge = -1 Multiplicity = 1

                         Standard orientation:
 ---------------------------------------------------------------------
 Center     Atomic      Atomic             Coordinates (Angstroms)
 Number     Number       Type             X           Y           Z
 ---------------------------------------------------------------------
      1          6           0       -0.713905   -0.220761    0.243577
      2          1           0        0.426238   -1.976108    0.107823
      3         17           0        0.255140    1.791225    0.371540
      4          9           0       -1.707902   -1.824920   -0.020289
      5          6           0        0.405150   -1.022855   -0.408704
      6          1           0        0.204186   -1.151525   -1.467944
      7          6           0       -1.739276    0.351627   -0.617381
      8          7           0       -2.587129    0.817347   -1.286416
      9          7           0       -0.903565   -0.345310    1.654915
     10          1           0       -1.690597   -0.971887    1.763959
     11          1           0       -1.086589    0.561011    2.058890
     12          7           0        1.794032   -0.483071   -0.303364
     13          8           0        2.316716   -0.050867   -1.330320
     14          8           0        2.351449   -0.581491    0.785669
 ---------------------------------------------------------------------

 SCF Done:  E(RHF) =  -988.053599755     A.U. after    2 cycles

 The electronic state is 1-A.
 Alpha  occ. eigenvalues -- -103.45769 -25.85224 -20.49697 -20.49594 -15.79077
 Alpha  occ. eigenvalues --  -15.51540 -15.51197 -11.31610 -11.20193 -11.17992
 Alpha  occ. eigenvalues --  -10.49105  -8.14749  -8.14598  -8.14581  -1.41948
 Alpha  occ. eigenvalues --   -1.35480  -1.23729  -1.09619  -1.04532  -0.97795
 Alpha  occ. eigenvalues --   -0.92392  -0.83506  -0.73215  -0.65135  -0.62733
 Alpha  occ. eigenvalues --   -0.61679  -0.59072  -0.57528  -0.49810  -0.48577
 Alpha  occ. eigenvalues --   -0.46932  -0.44825  -0.43514  -0.42498  -0.38851
 Alpha  occ. eigenvalues --   -0.38209  -0.35222  -0.34278  -0.34120  -0.30772
 Alpha  occ. eigenvalues --   -0.29105  -0.28578  -0.27042
 Alpha virt. eigenvalues --    0.13193   0.13978   0.15262   0.16370   0.19088
 Alpha virt. eigenvalues --    0.19616   0.19972   0.21286   0.21823   0.23088
 Alpha virt. eigenvalues --    0.23538   0.24379   0.24917   0.26324   0.26526

 Mulliken charges:
               1
     1  C    1.042516
     2  H    0.064506
     3  Cl  -0.541050
     4  F   -0.769413
     5  C    0.950688
     6  H   -0.154846
     7  C   -0.234327
     8  N   -0.313188
     9  N   -0.508156
    10  H    0.102600
    11  H    0.070416
    12  N    0.557115
    13  O   -0.640477
    14  O   -0.626384
 Sum of Mulliken charges =  -1.00000

 Dipole moment (field-independent basis, Debye):
    X=              1.0013    Y=             -1.7713    Z=              1.5967  Tot=              2.5864

 Test job not archived.
 1\1\GINC-SE023\SP\RHF\Aug-CC-pVDZ\C3H4Cl1F1N3O2(1-)\OHZDE\09-Apr-2025\
 0\\#t hf aug-cc-pvdz iop(5/13=1,5/36=2,99/5=2) pseudo=read geom=check
 guess=(read,tcheck) scf=(maxcycle=1)\\title\\-1,1\C,0,0.63680716,-0.09
 932635,0.09797145\H,0,1.77159678,1.44552604,0.94960884\Cl,0,-1.5917068
 1,-0.14754357,0.28482017\F,0,2.49989217,-0.13604339,-0.30021085\C,0,0.
 89748727,1.38659638,0.31054998\H,0,1.07132048,1.87562616,-0.64316072\C
 ,0,0.51123707,-0.58498114,-1.26900797\N,0,0.41535163,-1.00798213,-2.36
 227546\N,0,0.86175787,-0.99054912,1.19272178\H,0,1.75703266,-1.4230927

 Normal termination of Gaussian 16 at Wed Apr  9 02:49:40 2025.
