 Gaussian 16, Revision C.01,

 ----------------------------------------------------------------------
 #t hf aug-cc-pvdz symm=none int=(grid=ultrafine) guess=(read,tcheck) s
 table=(opt,rrhf)
 ----------------------------------------------------------------------
 -----
 title
 -----
 Symbolic Z-matrix:
 Charge = -1 Multiplicity = 1

 SCF Done:  E(RHF) =  -726.821758457     A.U. after   14 cycles
 Normal termination of Gaussian 16 at Wed Apr  9 02:35:03 2025.
 Gaussian 16:  ES64L-G16RevC.01  3-Jul-2019

 ----------------------------------------------------------------------
 #t hf aug-cc-pvdz iop(5/13=1,5/36=2,99/5=2) pseudo=read geom=check gue
 ss=(read,tcheck) scf=(maxcycle=1)
 ----------------------------------------------------------------------
 -----
 title
 -----
 Structure from the checkpoint file:  "E2SN2_160_mol2.chk"
 Charge = -1 Multiplicity = 1

                         Standard orientation:
 ---------------------------------------------------------------------
 Center     Atomic      Atomic             Coordinates (Angstroms)
 Number     Number       Type             X           Y           Z
 ---------------------------------------------------------------------
      1          6           0       -0.449492    0.365420    0.124042
      2          6           0        1.085335    0.277086    0.102799
      3         17           0       -1.159980   -1.288090   -0.318813
      4          1           0        1.353946    1.238713    0.578509
      5          7           0       -0.971558    0.758774    1.401965
      6          1           0       -0.530859    1.697473    1.587896
      7          1           0       -0.614675    0.131830    2.116658
      8          6           0       -0.947232    1.361543   -0.902690
      9          1           0       -0.502571    2.330643   -0.644989
     10          1           0       -2.031539    1.439806   -0.815732
     11          1           0       -0.679199    1.056975   -1.914812
     12          7           0        1.609385    0.169832   -1.270287
     13          1           0        1.573312    1.094252   -1.687647
     14          1           0        2.595039   -0.065736   -1.206696
     15          6           0        1.660155   -0.862083    0.926028
     16          1           0        2.736856   -0.711052    1.062414
     17          1           0        1.211530   -0.910414    1.919182
     18          1           0        1.497970   -1.815498    0.418399
     19          1           0        0.552453    3.058494    1.583817
 ---------------------------------------------------------------------

 SCF Done:  E(RHF) =  -726.921227277     A.U. after    2 cycles

 The electronic state is 1-A.
 Alpha  occ. eigenvalues -- -103.49872 -15.49009 -15.45581 -11.19545 -11.13385
 Alpha  occ. eigenvalues --  -11.10931 -11.09285 -10.53249  -8.18947  -8.18713
 Alpha  occ. eigenvalues --   -8.18699  -1.07580  -1.02062  -0.96254  -0.86516
 Alpha  occ. eigenvalues --   -0.84815  -0.73106  -0.61169  -0.55168  -0.53952
 Alpha  occ. eigenvalues --   -0.50703  -0.48204  -0.45705  -0.43436  -0.41294
 Alpha  occ. eigenvalues --   -0.39410  -0.38544  -0.36984  -0.35378  -0.30816
 Alpha  occ. eigenvalues --   -0.30730  -0.27604  -0.24966  -0.08660
 Alpha virt. eigenvalues --    0.11841   0.13064   0.13837   0.14904   0.15344
 Alpha virt. eigenvalues --    0.15831   0.17236   0.18059   0.18907   0.19401
 Alpha virt. eigenvalues --    0.20906   0.21929   0.22912   0.23607   0.24879

 Mulliken charges:
               1
     1  C   -1.111858
     2  C    0.482663
     3  Cl  -0.357221
     4  H   -0.028416
     5  N   -0.428459
     6  H    0.106874
     7  H   -0.007999
     8  C    1.087538
     9  H    0.021145
    10  H   -0.035036
    11  H    0.011936
    12  N   -0.380000
    13  H    0.015712
    14  H   -0.019332
    15  C    0.654175
    16  H   -0.098424
    17  H   -0.152553
    18  H    0.031228
    19  H   -0.791972
 Sum of Mulliken charges =  -1.00000

 Dipole moment (field-independent basis, Debye):
    X=              1.2434    Y=             -8.4894    Z=             -4.8688  Tot=              9.8652

 Test job not archived.
 1\1\GINC-SE334\SP\RHF\Aug-CC-pVDZ\C4H12Cl1N2(1-)\OHZDE\09-Apr-2025\0\\
 #t hf aug-cc-pvdz iop(5/13=1,5/36=2,99/5=2) pseudo=read geom=check gue
 ss=(read,tcheck) scf=(maxcycle=1)\\title\\-1,1\C,0,-0.183246,0.053128,
 -1.453036\C,0,-0.035829,0.012046,0.076843\Cl,0,-1.948284,0.418713,-1.8
 84307\H,0,1.06547,0.000518,0.177765\N,0,0.651899,1.043516,-2.071125\H,
 0,1.630535,0.775861,-1.787269\H,0,0.470644,1.947308,-1.645077\C,0,0.16
 369,-1.288216,-2.065094\H,0,1.201656,-1.505265,-1.784373\H,0,0.105512,
 -1.201814,-3.150708\H,0,-0.513849,-2.069896,-1.720259\N,0,-0.66041,-1.

 Normal termination of Gaussian 16 at Wed Apr  9 02:35:11 2025.
