 Gaussian 16, Revision C.01,

 ----------------------------------------------------------------------
 #t hf aug-cc-pvdz symm=none int=(grid=ultrafine) guess=(read,tcheck) s
 table=(opt,rrhf)
 ----------------------------------------------------------------------
 -----
 title
 -----
 Symbolic Z-matrix:
 Charge = -1 Multiplicity = 1

 SCF Done:  E(RHF) =  -1055.72899727     A.U. after   18 cycles
 Normal termination of Gaussian 16 at Wed Apr  9 02:49:11 2025.
 Gaussian 16:  ES64L-G16RevC.01  3-Jul-2019

 ----------------------------------------------------------------------
 #t hf aug-cc-pvdz iop(5/13=1,5/36=2,99/5=2) pseudo=read geom=check gue
 ss=(read,tcheck) scf=(maxcycle=1)
 ----------------------------------------------------------------------
 -----
 title
 -----
 Structure from the checkpoint file:  "E2SN2_29_mol2.chk"
 Charge = -1 Multiplicity = 1

                         Standard orientation:
 ---------------------------------------------------------------------
 Center     Atomic      Atomic             Coordinates (Angstroms)
 Number     Number       Type             X           Y           Z
 ---------------------------------------------------------------------
      1          6           0        0.072934    0.018268    0.121712
      2          6           0       -1.330602    0.112974   -0.481321
      3         17           0        0.073698   -0.159716    1.853487
      4          1           0       -1.176994    0.306346   -1.548939
      5          7           0        0.787673   -1.154307   -0.550493
      6          8           0        1.040786   -2.156571    0.091027
      7          8           0        1.028378   -0.952152   -1.735549
      8          7           0        0.973514    1.204483   -0.218545
      9          8           0        2.154038    1.092581    0.091974
     10          8           0        0.462112    2.166505   -0.779475
     11          7           0       -2.137063    1.121824    0.177464
     12          1           0       -1.828392    2.038149   -0.134898
     13          1           0       -3.056935    0.960983   -0.269177
     14          7           0       -1.917378   -1.201534   -0.377322
     15          1           0       -2.234496   -1.298803    0.585008
     16          1           0       -2.788929   -1.088954   -0.936190
     17          1           0       -4.050848    0.013841   -1.608982
 ---------------------------------------------------------------------

 SCF Done:  E(RHF) =  -1055.92696463     A.U. after    2 cycles

 The electronic state is 1-A.
 Alpha  occ. eigenvalues -- -103.60339 -20.55822 -20.55248 -20.54682 -20.53954
 Alpha  occ. eigenvalues --  -15.85199 -15.84246 -15.48359 -15.48068 -11.34436
 Alpha  occ. eigenvalues --  -11.20748 -10.63685  -8.29431  -8.29090  -8.29071
 Alpha  occ. eigenvalues --   -1.48656  -1.46563  -1.29942  -1.29174  -1.16258
 Alpha  occ. eigenvalues --   -1.08230  -0.99730  -0.97314  -0.87079  -0.79456
 Alpha  occ. eigenvalues --   -0.73646  -0.71789  -0.67405  -0.66778  -0.65521
 Alpha  occ. eigenvalues --   -0.62843  -0.62145  -0.55035  -0.53950  -0.49473
 Alpha  occ. eigenvalues --   -0.48148  -0.45707  -0.45156  -0.44059  -0.43153
 Alpha  occ. eigenvalues --   -0.42476  -0.40788  -0.39353  -0.39109  -0.38311
 Alpha  occ. eigenvalues --   -0.29841  -0.28759  -0.10391
 Alpha virt. eigenvalues --    0.13308   0.13787   0.14433   0.15763   0.16373
 Alpha virt. eigenvalues --    0.16454   0.19113   0.19446   0.20062   0.21099
 Alpha virt. eigenvalues --    0.21623   0.23379   0.24074   0.24652   0.25547

 Mulliken charges:
               1
     1  C    1.105734
     2  C    1.055740
     3  Cl  -0.061248
     4  H   -0.016129
     5  N    0.357555
     6  O   -0.608727
     7  O   -0.592808
     8  N    0.256531
     9  O   -0.598258
    10  O   -0.570910
    11  N   -0.417519
    12  H    0.029444
    13  H    0.095189
    14  N   -0.385829
    15  H    0.023701
    16  H    0.089448
    17  H   -0.761915
 Sum of Mulliken charges =  -1.00000

 Dipole moment (field-independent basis, Debye):
    X=             10.3957    Y=              1.0648    Z=              6.5055  Tot=             12.3095

 Test job not archived.
 1\1\GINC-SE250\SP\RHF\Aug-CC-pVDZ\C2H6Cl1N4O4(1-)\OHZDE\09-Apr-2025\0\
 \#t hf aug-cc-pvdz iop(5/13=1,5/36=2,99/5=2) pseudo=read geom=check gu
 ess=(read,tcheck) scf=(maxcycle=1)\\title\\-1,1\C,0,-0.669428,-0.06160
 4,-1.47034\C,0,0.181961,-0.031355,-0.198824\Cl,0,-2.370728,-0.264296,-
 1.161769\H,0,1.220921,0.012877,-0.544371\N,0,-0.401666,1.233297,-2.237
 919\O,0,-1.276538,2.07365,-2.330404\O,0,0.736315,1.295003,-2.689975\N,
 0,-0.251948,-1.140096,-2.468584\O,0,-0.786,-1.091312,-3.57085\O,0,0.58
 3342,-1.960231,-2.106189\N,0,-0.091278,-1.16408,0.663979\H,0,0.348279,

 Normal termination of Gaussian 16 at Wed Apr  9 02:49:22 2025.
