 Gaussian 16, Revision C.01,

 ----------------------------------------------------------------------
 #t hf aug-cc-pvdz symm=none int=(grid=ultrafine) guess=(read,tcheck) s
 table=(opt,rrhf)
 ----------------------------------------------------------------------
 -----
 title
 -----
 Symbolic Z-matrix:
 Charge = -1 Multiplicity = 1

 SCF Done:  E(RHF) =  -839.414088152     A.U. after   16 cycles
 Normal termination of Gaussian 16 at Wed Apr  9 02:36:55 2025.
 Gaussian 16:  ES64L-G16RevC.01  3-Jul-2019

 ----------------------------------------------------------------------
 #t hf aug-cc-pvdz iop(5/13=1,5/36=2,99/5=2) pseudo=read geom=check gue
 ss=(read,tcheck) scf=(maxcycle=1)
 ----------------------------------------------------------------------
 -----
 title
 -----
 Structure from the checkpoint file:  "E2SN2_183_mol1.chk"
 Charge = -1 Multiplicity = 1

                         Standard orientation:
 ---------------------------------------------------------------------
 Center     Atomic      Atomic             Coordinates (Angstroms)
 Number     Number       Type             X           Y           Z
 ---------------------------------------------------------------------
      1          6           0       -0.079136   -0.253949    0.566865
      2          1           0       -1.048087    1.529169    1.000839
      3         17           0        2.075571   -0.408832    0.117893
      4          9           0       -1.935462   -0.455260    1.119209
      5          6           0       -0.472367    1.170727    0.143273
      6          1           0        0.131634   -0.440815    1.603643
      7          6           0       -0.381588   -1.392126   -0.269886
      8          7           0       -0.607829   -2.326034   -0.947041
      9          7           0       -1.312234    1.042886   -1.052347
     10          1           0       -1.710372    1.956123   -1.248454
     11          1           0       -2.076589    0.438144   -0.758478
     12          7           0        0.630841    2.093289   -0.032693
     13          1           0        0.237164    2.987254   -0.309065
     14          1           0        1.223791    1.758700   -0.782503
 ---------------------------------------------------------------------

 SCF Done:  E(RHF) =  -839.540355991     A.U. after    2 cycles

 The electronic state is 1-A.
 Alpha  occ. eigenvalues -- -103.44500 -25.81579 -15.49026 -15.48719 -15.47982
 Alpha  occ. eigenvalues --  -11.23930 -11.18532 -11.15750 -10.47780  -8.13426
 Alpha  occ. eigenvalues --   -8.13276  -8.13259  -1.31352  -1.08342  -1.03119
 Alpha  occ. eigenvalues --   -0.97304  -0.93345  -0.85747  -0.72029  -0.59174
 Alpha  occ. eigenvalues --   -0.56978  -0.53987  -0.48353  -0.45767  -0.44088
 Alpha  occ. eigenvalues --   -0.43093  -0.40695  -0.39965  -0.39201  -0.32027
 Alpha  occ. eigenvalues --   -0.30841  -0.28861  -0.28176  -0.27203  -0.25987
 Alpha  occ. eigenvalues --   -0.25274
 Alpha virt. eigenvalues --    0.11581   0.13887   0.14347   0.15323   0.17676
 Alpha virt. eigenvalues --    0.18340   0.20432   0.21319   0.23346   0.23830
 Alpha virt. eigenvalues --    0.24706   0.25228   0.25895   0.27109   0.27513

 Mulliken charges:
               1
     1  C    1.281696
     2  H   -0.039401
     3  Cl  -0.574912
     4  F   -0.845940
     5  C    0.741877
     6  H   -0.238276
     7  C   -0.361527
     8  N   -0.299273
     9  N   -0.380325
    10  H   -0.054977
    11  H    0.129629
    12  N   -0.363356
    13  H   -0.058044
    14  H    0.062828
 Sum of Mulliken charges =  -1.00000

 Dipole moment (field-independent basis, Debye):
    X=             -0.2733    Y=              5.8625    Z=             -0.4986  Tot=              5.8900

 Test job not archived.
 1\1\GINC-SE069\SP\RHF\Aug-CC-pVDZ\C3H6Cl1F1N3(1-)\OHZDE\09-Apr-2025\0\
 \#t hf aug-cc-pvdz iop(5/13=1,5/36=2,99/5=2) pseudo=read geom=check gu
 ess=(read,tcheck) scf=(maxcycle=1)\\title\\-1,1\C,0,0.61782108,-0.0180
 0775,-0.00054598\H,0,1.61979144,1.71315123,-0.55358654\Cl,0,-1.3206410
 2,-0.64481086,-0.84778249\F,0,2.39777735,0.16708455,0.76695056\C,0,0.6
 3180425,1.51393399,-0.12985728\H,0,1.12384002,-0.60030337,-0.74829503\
 C,0,0.32497672,-0.65833422,1.26092057\N,0,0.07392621,-1.19347738,2.277
 04245\N,0,0.50955843,2.0568861,1.22715635\H,0,0.6789266,3.05669774,1.1

 Normal termination of Gaussian 16 at Wed Apr  9 02:37:01 2025.
