 Gaussian 16, Revision C.01,

 ----------------------------------------------------------------------
 #t hf aug-cc-pvdz symm=none int=(grid=ultrafine) guess=(read,tcheck) s
 table=(opt,rrhf)
 ----------------------------------------------------------------------
 -----
 title
 -----
 Symbolic Z-matrix:
 Charge = -1 Multiplicity = 1

 SCF Done:  E(RHF) =  -875.250922302     A.U. after   17 cycles
 Normal termination of Gaussian 16 at Wed Apr  9 02:52:59 2025.
 Gaussian 16:  ES64L-G16RevC.01  3-Jul-2019

 ----------------------------------------------------------------------
 #t hf aug-cc-pvdz iop(5/13=1,5/36=2,99/5=2) pseudo=read geom=check gue
 ss=(read,tcheck) scf=(maxcycle=1)
 ----------------------------------------------------------------------
 -----
 title
 -----
 Structure from the checkpoint file:  "E2SN2_351_mol1.chk"
 Charge = -1 Multiplicity = 1

                         Standard orientation:
 ---------------------------------------------------------------------
 Center     Atomic      Atomic             Coordinates (Angstroms)
 Number     Number       Type             X           Y           Z
 ---------------------------------------------------------------------
      1          6           0       -1.019222    0.274124    0.288541
      2          1           0        0.539245    1.105277    1.486568
      3         17           0       -0.609532   -1.402325   -0.928690
      4          1           0       -1.239748    2.034132    1.406855
      5          6           0        0.396705    0.864521    0.435287
      6          6           0       -1.620452   -0.398285    1.517572
      7          1           0       -1.874103   -1.438662    1.296797
      8          1           0       -0.910047   -0.386343    2.344791
      9          1           0       -2.515917    0.131327    1.834764
     10          6           0       -2.006917    0.872174   -0.712680
     11          1           0       -2.501618    1.737409   -0.281616
     12          1           0       -1.480716    1.157029   -1.623197
     13          1           0       -2.747994    0.111733   -0.970918
     14          7           0        0.607053    1.951798   -0.485776
     15          1           0        1.566806    2.268949   -0.413160
     16          1           0       -0.012782    2.672362   -0.120744
     17          7           0        1.544154   -0.144178    0.230959
     18          8           0        2.348219    0.006440   -0.685469
     19          8           0        1.649255   -0.991718    1.115344
 ---------------------------------------------------------------------

 SCF Done:  E(RHF) =  -875.392770095     A.U. after    2 cycles

 The electronic state is 1-A.
 Alpha  occ. eigenvalues -- -103.45403 -20.48135 -20.47515 -15.76754 -15.48677
 Alpha  occ. eigenvalues --  -11.21245 -11.20860 -11.10079 -11.09619 -10.48763
 Alpha  occ. eigenvalues --   -8.14417  -8.14252  -8.14233  -1.40053  -1.21870
 Alpha  occ. eigenvalues --   -1.06674  -0.97085  -0.88728  -0.86738  -0.81030
 Alpha  occ. eigenvalues --   -0.72435  -0.65773  -0.60523  -0.59429  -0.57107
 Alpha  occ. eigenvalues --   -0.52102  -0.50545  -0.48143  -0.46680  -0.43142
 Alpha  occ. eigenvalues --   -0.41724  -0.39202  -0.37930  -0.37145  -0.35733
 Alpha  occ. eigenvalues --   -0.33958  -0.30109  -0.27660  -0.27388  -0.27207
 Alpha  occ. eigenvalues --   -0.11482
 Alpha virt. eigenvalues --    0.13154   0.13347   0.14144   0.15389   0.15708
 Alpha virt. eigenvalues --    0.16065   0.16926   0.17899   0.18618   0.19723
 Alpha virt. eigenvalues --    0.21779   0.22285   0.23355   0.23886   0.24418

 Mulliken charges:
               1
     1  C   -2.228039
     2  H   -0.275440
     3  Cl  -0.521531
     4  H   -0.490952
     5  C    1.878422
     6  C    0.686120
     7  H   -0.026578
     8  H   -0.060824
     9  H   -0.044202
    10  C    1.200174
    11  H   -0.066891
    12  H    0.078887
    13  H   -0.017504
    14  N   -0.375189
    15  H   -0.036288
    16  H    0.167607
    17  N    0.445053
    18  O   -0.649009
    19  O   -0.663817
 Sum of Mulliken charges =  -1.00000

 Dipole moment (field-independent basis, Debye):
    X=              0.2269    Y=             -0.1124    Z=             -0.6602  Tot=              0.7071

 Test job not archived.
 1\1\GINC-SE273\SP\RHF\Aug-CC-pVDZ\C4H10Cl1N2O2(1-)\OHZDE\09-Apr-2025\0
 \\#t hf aug-cc-pvdz iop(5/13=1,5/36=2,99/5=2) pseudo=read geom=check g
 uess=(read,tcheck) scf=(maxcycle=1)\\title\\-1,1\C,0,0.40103835,-0.090
 40039,-0.04124859\H,0,1.51220709,1.56441469,-0.80400457\Cl,0,-1.689306
 98,-0.15914303,-0.33401345\H,0,2.44646058,0.19082683,0.32487577\C,0,0.
 64878343,1.42624843,-0.15679304\C,0,0.88548467,-0.96155016,-1.19473813
 \H,0,0.05105641,-1.5212582,-1.62592411\H,0,1.32706585,-0.3454932,-1.97
 869563\H,0,1.64448753,-1.65809742,-0.84589317\C,0,0.32106734,-0.758986

 Normal termination of Gaussian 16 at Wed Apr  9 02:53:10 2025.
