 Gaussian 16, Revision C.01,

 ----------------------------------------------------------------------
 #t hf aug-cc-pvdz symm=none int=(grid=ultrafine) guess=(read,tcheck) s
 table=(opt,rrhf)
 ----------------------------------------------------------------------
 -----
 title
 -----
 Symbolic Z-matrix:
 Charge = -1 Multiplicity = 1

 SCF Done:  E(RHF) =  -380.390173137     A.U. after   16 cycles
 Normal termination of Gaussian 16 at Wed Apr  9 02:56:54 2025.
 Gaussian 16:  ES64L-G16RevC.01  3-Jul-2019

 ----------------------------------------------------------------------
 #t hf aug-cc-pvdz iop(5/13=1,5/36=2,99/5=2) pseudo=read geom=check gue
 ss=(read,tcheck) scf=(maxcycle=1)
 ----------------------------------------------------------------------
 -----
 title
 -----
 Structure from the checkpoint file:  "E2SN2_412_mol1.chk"
 Charge = -1 Multiplicity = 1

                         Standard orientation:
 ---------------------------------------------------------------------
 Center     Atomic      Atomic             Coordinates (Angstroms)
 Number     Number       Type             X           Y           Z
 ---------------------------------------------------------------------
      1          6           0        0.743836   -0.054066   -0.250575
      2          1           0       -0.548703   -1.309181   -1.460104
      3          9           0        0.312479    0.314489    1.324293
      4          1           0        1.286265   -0.461064   -1.992904
      5          6           0       -0.492034   -0.943089   -0.439518
      6          1           0       -0.373989   -1.789876    0.240785
      7          7           0        1.964197   -0.721333    0.177644
      8          1           0        2.273552   -0.239762    1.015724
      9          1           0        2.632647   -0.640667   -0.569764
     10          7           0        0.652793    1.323042   -0.686906
     11          1           0        1.303671    1.463450   -1.439840
     12          1           0        0.856087    1.906556    0.116412
     13          6           0       -1.746106   -0.257485   -0.115941
     14          7           0       -2.799278    0.222287    0.081729
 ---------------------------------------------------------------------

 SCF Done:  E(RHF) =  -380.505433594     A.U. after    2 cycles

 The electronic state is 1-A.
 Alpha  occ. eigenvalues --  -25.86827 -15.48773 -15.46666 -15.46385 -11.25519
 Alpha  occ. eigenvalues --  -11.14824 -11.12826  -1.38099  -1.05024  -1.02880
 Alpha  occ. eigenvalues --   -0.96322  -0.88484  -0.67391  -0.57265  -0.55317
 Alpha  occ. eigenvalues --   -0.51980  -0.51455  -0.48337  -0.44493  -0.42927
 Alpha  occ. eigenvalues --   -0.41647  -0.41344  -0.39683  -0.31345  -0.30335
 Alpha  occ. eigenvalues --   -0.28687  -0.24410  -0.11490
 Alpha virt. eigenvalues --    0.13084   0.14206   0.15227   0.15734   0.16915
 Alpha virt. eigenvalues --    0.18276   0.19596   0.20047   0.23213   0.24741
 Alpha virt. eigenvalues --    0.25334   0.25451   0.26640   0.27584   0.28891

 Mulliken charges:
               1
     1  C   -0.471343
     2  H   -0.038094
     3  F   -0.638169
     4  H   -0.461986
     5  C    0.895555
     6  H    0.069878
     7  N   -0.056895
     8  H    0.003798
     9  H    0.047658
    10  N   -0.066275
    11  H    0.011437
    12  H    0.007127
    13  C    0.053963
    14  N   -0.356654
 Sum of Mulliken charges =  -1.00000

 Dipole moment (field-independent basis, Debye):
    X=              2.0298    Y=              0.3071    Z=              2.4491  Tot=              3.1957

 Test job not archived.
 1\1\GINC-SE131\SP\RHF\Aug-CC-pVDZ\C3H7F1N3(1-)\OHZDE\09-Apr-2025\0\\#t
  hf aug-cc-pvdz iop(5/13=1,5/36=2,99/5=2) pseudo=read geom=check guess
 =(read,tcheck) scf=(maxcycle=1)\\title\\-1,1\C,0,0.60392654,-0.0910308
 2,0.02161866\H,0,1.73198874,1.76128607,0.09459221\F,0,-1.06842418,-0.0
 5209981,0.08357507\H,0,2.46822434,-0.18733144,-0.08184573\C,0,0.695760
 16,1.44001495,0.05163784\H,0,0.24607387,1.797666,-0.87769729\N,0,0.599
 259,-0.71544855,-1.2929068\H,0,-0.2312017,-1.2976953,-1.32914021\H,0,1
 .44208899,-1.25859323,-1.37404347\N,0,0.71813115,-0.79487787,1.2812441

 Normal termination of Gaussian 16 at Wed Apr  9 02:56:58 2025.
