 Gaussian 16, Revision C.01,

 ----------------------------------------------------------------------
 #t hf aug-cc-pvdz symm=none int=(grid=ultrafine) guess=(read,tcheck) s
 table=(opt,rrhf)
 ----------------------------------------------------------------------
 -----
 title
 -----
 Symbolic Z-matrix:
 Charge = -1 Multiplicity = 1

 SCF Done:  E(RHF) =  -364.445225583     A.U. after   15 cycles
 Normal termination of Gaussian 16 at Wed Apr  9 02:53:53 2025.
 Gaussian 16:  ES64L-G16RevC.01  3-Jul-2019

 ----------------------------------------------------------------------
 #t hf aug-cc-pvdz iop(5/13=1,5/36=2,99/5=2) pseudo=read geom=check gue
 ss=(read,tcheck) scf=(maxcycle=1)
 ----------------------------------------------------------------------
 -----
 title
 -----
 Structure from the checkpoint file:  "E2SN2_371_mol2.chk"
 Charge = -1 Multiplicity = 1

                         Standard orientation:
 ---------------------------------------------------------------------
 Center     Atomic      Atomic             Coordinates (Angstroms)
 Number     Number       Type             X           Y           Z
 ---------------------------------------------------------------------
      1          6           0       -1.036147    0.225526    0.016843
      2          6           0        0.396034    0.377524    0.535020
      3          9           0       -1.019975    0.354765   -1.383087
      4          1           0        0.236613    0.274824    1.631050
      5          1           0       -1.608283    1.066761    0.416903
      6          7           0       -1.696862   -0.971911    0.403739
      7          1           0       -1.075484   -1.760772    0.247095
      8          1           0       -1.789020   -0.854025    1.432028
      9          6           0        1.011024    1.734242    0.197803
     10          1           0        0.386601    2.519977    0.631140
     11          1           0        1.064015    1.881456   -0.882930
     12          1           0        2.015431    1.828783    0.617656
     13          6           0        1.234846   -0.716534    0.059319
     14          7           0        1.919769   -1.589389   -0.329699
     15          1           0       -1.244977    0.054668    2.982646
 ---------------------------------------------------------------------

 SCF Done:  E(RHF) =  -364.560820931     A.U. after    2 cycles

 The electronic state is 1-A.
 Alpha  occ. eigenvalues --  -25.97770 -15.52170 -15.47034 -11.22478 -11.17499
 Alpha  occ. eigenvalues --  -11.14818 -11.13318  -1.51053  -1.06965  -1.03939
 Alpha  occ. eigenvalues --   -0.94631  -0.80069  -0.75263  -0.64032  -0.61543
 Alpha  occ. eigenvalues --   -0.58953  -0.53791  -0.50245  -0.48240  -0.45724
 Alpha  occ. eigenvalues --   -0.44151  -0.42514  -0.41071  -0.39958  -0.33636
 Alpha  occ. eigenvalues --   -0.32772  -0.27273  -0.09677
 Alpha virt. eigenvalues --    0.12187   0.14077   0.14664   0.15525   0.16397
 Alpha virt. eigenvalues --    0.17882   0.19526   0.19986   0.22249   0.22344
 Alpha virt. eigenvalues --    0.23237   0.24408   0.24668   0.25451   0.26273

 Mulliken charges:
               1
     1  C    1.288571
     2  C   -0.431530
     3  F   -0.483128
     4  H    0.072820
     5  H   -0.163981
     6  N   -0.586868
     7  H   -0.008104
     8  H    0.153134
     9  C    0.680298
    10  H   -0.026988
    11  H    0.024476
    12  H   -0.058066
    13  C   -0.417205
    14  N   -0.281368
    15  H   -0.762060
 Sum of Mulliken charges =  -1.00000

 Dipole moment (field-independent basis, Debye):
    X=              3.7221    Y=              2.8612    Z=             -7.4271  Tot=              8.7864

 Test job not archived.
 1\1\GINC-SE112\SP\RHF\Aug-CC-pVDZ\C4H8F1N2(1-)\OHZDE\09-Apr-2025\0\\#t
  hf aug-cc-pvdz iop(5/13=1,5/36=2,99/5=2) pseudo=read geom=check guess
 =(read,tcheck) scf=(maxcycle=1)\\title\\-1,1\C,0,-0.015357,0.010737,-0
 .007738\C,0,-0.478569,0.052446,-1.465973\F,0,1.390311,-0.009816,0.0132
 64\H,0,-1.583409,0.046479,-1.33738\H,0,-0.363112,-0.938787,0.407636\N,
 0,-0.515434,1.054515,0.81721\H,0,-0.404624,1.942299,0.335017\H,0,-1.53
 3228,0.847267,0.847412\C,0,-0.016572,-1.159132,-2.272972\H,0,-0.403413
 ,-2.064894,-1.798617\H,0,1.07354,-1.215193,-2.304208\H,0,-0.398637,-1.

 Normal termination of Gaussian 16 at Wed Apr  9 02:53:59 2025.
