 Gaussian 16, Revision C.01,

 ----------------------------------------------------------------------
 #t hf aug-cc-pvdz symm=none int=(grid=ultrafine) guess=(read,tcheck) s
 table=(opt,rrhf)
 ----------------------------------------------------------------------
 -----
 title
 -----
 Symbolic Z-matrix:
 Charge = -1 Multiplicity = 1

 SCF Done:  E(RHF) =  -724.456810805     A.U. after   17 cycles
 Normal termination of Gaussian 16 at Wed Apr  9 02:31:47 2025.
 Gaussian 16:  ES64L-G16RevC.01  3-Jul-2019

 ----------------------------------------------------------------------
 #t hf aug-cc-pvdz iop(5/13=1,5/36=2,99/5=2) pseudo=read geom=check gue
 ss=(read,tcheck) scf=(maxcycle=1)
 ----------------------------------------------------------------------
 -----
 title
 -----
 Structure from the checkpoint file:  "E2SN2_124_mol1.chk"
 Charge = -1 Multiplicity = 1

                         Standard orientation:
 ---------------------------------------------------------------------
 Center     Atomic      Atomic             Coordinates (Angstroms)
 Number     Number       Type             X           Y           Z
 ---------------------------------------------------------------------
      1          6           0        0.104917   -0.229706    0.166868
      2          6           0       -0.935197   -0.780717   -0.691883
      3         17           0        0.367283    1.762861   -0.076668
      4          1           0       -1.302490   -2.774571    0.747903
      5          1           0       -1.033615   -1.920336   -0.147385
      6          1           0       -0.638047   -0.855227   -1.740211
      7          7           0       -0.107669   -0.396064    1.577101
      8          1           0       -0.476425   -1.369254    1.650105
      9          1           0       -0.875635    0.210942    1.843196
     10          6           0       -2.329929   -0.231787   -0.479157
     11          1           0       -2.355833    0.862780   -0.488574
     12          1           0       -2.997740   -0.600490   -1.263151
     13          1           0       -2.730525   -0.596645    0.473488
     14          6           0        1.428258   -0.736680   -0.205216
     15          7           0        2.473127   -1.182865   -0.507913
 ---------------------------------------------------------------------

 SCF Done:  E(RHF) =  -724.552177907     A.U. after    2 cycles

 The electronic state is 1-A.
 Alpha  occ. eigenvalues -- -103.50035 -15.52448 -15.49410 -11.25533 -11.17520
 Alpha  occ. eigenvalues --  -11.10329 -11.08984 -10.53271  -8.18941  -8.18725
 Alpha  occ. eigenvalues --   -8.18716  -1.09530  -1.04715  -0.96368  -0.90539
 Alpha  occ. eigenvalues --   -0.82078  -0.69240  -0.56706  -0.54388  -0.50759
 Alpha  occ. eigenvalues --   -0.47396  -0.43715  -0.41582  -0.40510  -0.37553
 Alpha  occ. eigenvalues --   -0.34594  -0.33621  -0.33037  -0.31468  -0.30621
 Alpha  occ. eigenvalues --   -0.29153  -0.10886
 Alpha virt. eigenvalues --    0.12643   0.13894   0.15076   0.15406   0.17064
 Alpha virt. eigenvalues --    0.18385   0.18653   0.19668   0.20280   0.21067
 Alpha virt. eigenvalues --    0.22780   0.23387   0.24320   0.25410   0.25891

 Mulliken charges:
               1
     1  C    1.068189
     2  C   -0.103248
     3  Cl  -0.359510
     4  H   -0.582500
     5  H    0.128751
     6  H   -0.324957
     7  N   -0.527696
     8  H    0.081325
     9  H    0.093916
    10  C    0.577916
    11  H   -0.036985
    12  H   -0.066338
    13  H   -0.056824
    14  C   -0.687670
    15  N   -0.204370
 Sum of Mulliken charges =  -1.00000

 Dipole moment (field-independent basis, Debye):
    X=             -1.3059    Y=              5.9654    Z=             -1.6186  Tot=              6.3175

 Test job not archived.
 1\1\GINC-SE292\SP\RHF\Aug-CC-pVDZ\C4H8Cl1N2(1-)\OHZDE\09-Apr-2025\0\\#
 t hf aug-cc-pvdz iop(5/13=1,5/36=2,99/5=2) pseudo=read geom=check gues
 s=(read,tcheck) scf=(maxcycle=1)\\title\\-1,1\C,0,-0.24837477,0.013531
 32,-0.29763185\C,0,-0.20546931,0.04506804,1.15841324\Cl,0,1.5879673,-0
 .03409374,-1.14854402\H,0,-2.51707325,-0.83518273,1.41334036\H,0,-1.43
 160363,-0.18388365,1.37993684\H,0,0.10744261,1.01028309,1.56250251\N,0
 ,-0.94050677,-1.10678086,-0.86988934\H,0,-1.7763431,-1.21119772,-0.254
 35263\H,0,-0.37269519,-1.93142189,-0.70681648\C,0,0.4421388,-1.1481272

 Normal termination of Gaussian 16 at Wed Apr  9 02:31:52 2025.
