 Gaussian 16, Revision C.01,

 ----------------------------------------------------------------------
 #t hf aug-cc-pvdz symm=none int=(grid=ultrafine) guess=(read,tcheck) s
 table=(opt,rrhf)
 ----------------------------------------------------------------------
 -----
 title
 -----
 Symbolic Z-matrix:
 Charge = -1 Multiplicity = 1

 SCF Done:  E(RHF) =  -476.210674278     A.U. after   16 cycles
 Normal termination of Gaussian 16 at Wed Apr  9 02:37:57 2025.
 Gaussian 16:  ES64L-G16RevC.01  3-Jul-2019

 ----------------------------------------------------------------------
 #t hf aug-cc-pvdz iop(5/13=1,5/36=2,99/5=2) pseudo=read geom=check gue
 ss=(read,tcheck) scf=(maxcycle=1)
 ----------------------------------------------------------------------
 -----
 title
 -----
 Structure from the checkpoint file:  "E2SN2_196_mol2.chk"
 Charge = -1 Multiplicity = 1

                         Standard orientation:
 ---------------------------------------------------------------------
 Center     Atomic      Atomic             Coordinates (Angstroms)
 Number     Number       Type             X           Y           Z
 ---------------------------------------------------------------------
      1          6           0       -1.058297   -0.438367    0.283927
      2          6           0       -0.015519    0.448481   -0.403502
      3          9           0       -0.578466   -1.765103    0.142162
      4          1           0       -0.067891    0.274063   -1.480451
      5          1           0       -1.071450   -0.224976    1.355661
      6          7           0       -2.351858   -0.309382   -0.239281
      7          1           0       -2.851145    0.539748    0.165006
      8          1           0       -2.327090   -0.192982   -1.246630
      9          7           0        1.364105    0.005208   -0.027232
     10          8           0        1.664531    0.038083    1.165187
     11          8           0        2.118494   -0.366734   -0.927758
     12          6           0       -0.201877    1.907497   -0.035355
     13          1           0        0.106971    2.059892    1.000352
     14          1           0       -1.265877    2.170739   -0.091290
     15          1           0        0.391691    2.555634   -0.685942
     16          1           0       -3.404783    1.956571    0.599574
 ---------------------------------------------------------------------

 SCF Done:  E(RHF) =  -476.361575643     A.U. after    2 cycles

 The electronic state is 1-A.
 Alpha  occ. eigenvalues --  -25.98007 -20.51199 -20.50960 -15.80008 -15.46822
 Alpha  occ. eigenvalues --  -11.23697 -11.19694 -11.12462  -1.51168  -1.43147
 Alpha  occ. eigenvalues --   -1.24943  -1.05722  -0.98378  -0.83665  -0.79265
 Alpha  occ. eigenvalues --   -0.71500  -0.65719  -0.64087  -0.62583  -0.61553
 Alpha  occ. eigenvalues --   -0.58339  -0.57282  -0.51203  -0.48507  -0.46108
 Alpha  occ. eigenvalues --   -0.43383  -0.42630  -0.40737  -0.39637  -0.38512
 Alpha  occ. eigenvalues --   -0.36503  -0.27450  -0.09935
 Alpha virt. eigenvalues --    0.12369   0.13457   0.15131   0.16154   0.16394
 Alpha virt. eigenvalues --    0.18526   0.19107   0.20946   0.21260   0.22203
 Alpha virt. eigenvalues --    0.22559   0.24134   0.24780   0.25444   0.25784

 Mulliken charges:
               1
     1  C    1.139331
     2  C    0.323665
     3  F   -0.422404
     4  H   -0.262367
     5  H   -0.121886
     6  N   -0.543541
     7  H    0.073613
     8  H    0.023825
     9  N    0.328304
    10  O   -0.609160
    11  O   -0.624607
    12  C    0.544652
    13  H    0.049317
    14  H   -0.069181
    15  H   -0.073013
    16  H   -0.756547
 Sum of Mulliken charges =  -1.00000

 Dipole moment (field-independent basis, Debye):
    X=              9.0567    Y=             -2.7666    Z=             -3.2675  Tot=             10.0177

 Test job not archived.
 1\1\GINC-SE459\SP\RHF\Aug-CC-pVDZ\C3H8F1N2O2(1-)\OHZDE\09-Apr-2025\0\\
 #t hf aug-cc-pvdz iop(5/13=1,5/36=2,99/5=2) pseudo=read geom=check gue
 ss=(read,tcheck) scf=(maxcycle=1)\\title\\-1,1\C,0,-0.088224,0.080623,
 -0.083652\C,0,-0.179697,0.047977,-1.612381\F,0,1.29721,0.147983,0.2106
 28\H,0,0.200436,-0.914463,-1.961941\H,0,-0.531245,1.00707,0.290182\N,0
 ,-0.686964,-1.017713,0.547895\H,0,-1.739872,-0.887158,0.637882\H,0,-0.
 53311,-1.869785,0.019486\N,0,0.761206,1.050554,-2.20481\O,0,0.591197,2
 .23208,-1.907669\O,0,1.649723,0.639192,-2.952947\C,0,-1.591831,0.32905

 Normal termination of Gaussian 16 at Wed Apr  9 02:38:03 2025.
