 Gaussian 16, Revision C.01,

 ----------------------------------------------------------------------
 #t hf aug-cc-pvdz symm=none int=(grid=ultrafine) guess=(read,tcheck) s
 table=(opt,rrhf)
 ----------------------------------------------------------------------
 -----
 title
 -----
 Symbolic Z-matrix:
 Charge = -1 Multiplicity = 1

 SCF Done:  E(RHF) =  -823.523926775     A.U. after   14 cycles
 Normal termination of Gaussian 16 at Wed Apr  9 02:54:13 2025.
 Gaussian 16:  ES64L-G16RevC.01  3-Jul-2019

 ----------------------------------------------------------------------
 #t hf aug-cc-pvdz iop(5/13=1,5/36=2,99/5=2) pseudo=read geom=check gue
 ss=(read,tcheck) scf=(maxcycle=1)
 ----------------------------------------------------------------------
 -----
 title
 -----
 Structure from the checkpoint file:  "E2SN2_373_mol2.chk"
 Charge = -1 Multiplicity = 1

                         Standard orientation:
 ---------------------------------------------------------------------
 Center     Atomic      Atomic             Coordinates (Angstroms)
 Number     Number       Type             X           Y           Z
 ---------------------------------------------------------------------
      1          6           0        0.192935    0.823753    0.493572
      2          6           0        0.544138   -0.614221    0.089327
      3          9           0        1.328134    1.360325    1.124210
      4          1           0       -0.365014   -0.990372   -0.394610
      5          1           0       -0.608969    0.774331    1.230424
      6          7           0       -0.221385    1.688735   -0.556085
      7          1           0       -1.189149    1.442503   -0.757558
      8          1           0        0.335422    1.531682   -1.388886
      9          6           0        0.879184   -1.489917    1.296536
     10          1           0        1.737806   -1.088727    1.837304
     11          1           0        1.098628   -2.515022    0.990080
     12          1           0        0.012266   -1.510110    1.960528
     13          6           0        1.639751   -0.607228   -0.880243
     14          7           0        2.522538   -0.596278   -1.655386
     15         17           0       -2.859901   -0.365219   -0.241766
 ---------------------------------------------------------------------

 SCF Done:  E(RHF) =  -823.650789729     A.U. after    2 cycles

 The electronic state is 1-A.
 Alpha  occ. eigenvalues -- -103.38233 -25.98477 -15.53265 -15.48861 -11.23511
 Alpha  occ. eigenvalues --  -11.18492 -11.16336 -11.13832 -10.41302  -8.06896
 Alpha  occ. eigenvalues --   -8.06876  -8.06868  -1.51867  -1.08060  -1.05243
 Alpha  occ. eigenvalues --   -0.95902  -0.83473  -0.81060  -0.76331  -0.64846
 Alpha  occ. eigenvalues --   -0.62586  -0.59907  -0.55417  -0.52117  -0.49528
 Alpha  occ. eigenvalues --   -0.46707  -0.44920  -0.43592  -0.42222  -0.40942
 Alpha  occ. eigenvalues --   -0.34770  -0.34019  -0.28850  -0.21521  -0.21378
 Alpha  occ. eigenvalues --   -0.21301
 Alpha virt. eigenvalues --    0.12153   0.13942   0.14656   0.15139   0.16526
 Alpha virt. eigenvalues --    0.17174   0.18370   0.19304   0.21552   0.22738
 Alpha virt. eigenvalues --    0.23313   0.23915   0.24818   0.25490   0.26317

 Mulliken charges:
               1
     1  C    1.284134
     2  C   -0.242449
     3  F   -0.481506
     4  H    0.030560
     5  H   -0.173060
     6  N   -0.512228
     7  H    0.126854
     8  H   -0.001985
     9  C    0.657694
    10  H    0.024060
    11  H   -0.059335
    12  H   -0.019224
    13  C   -0.409036
    14  N   -0.275040
    15  Cl  -0.949438
 Sum of Mulliken charges =  -1.00000

 Dipole moment (field-independent basis, Debye):
    X=              5.8501    Y=             -0.7784    Z=              2.3539  Tot=              6.3538

 Test job not archived.
 1\1\GINC-SE453\SP\RHF\Aug-CC-pVDZ\C4H7Cl1F1N2(1-)\OHZDE\09-Apr-2025\0\
 \#t hf aug-cc-pvdz iop(5/13=1,5/36=2,99/5=2) pseudo=read geom=check gu
 ess=(read,tcheck) scf=(maxcycle=1)\\title\\-1,1\C,0,-0.058225,0.039958
 ,-0.011502\C,0,-0.438079,0.226891,-1.486389\F,0,1.340394,-0.085325,0.0
 38084\H,0,-1.530653,0.318661,-1.476256\H,0,-0.492104,-0.901601,0.32563
 2\N,0,-0.475697,1.065638,0.880312\H,0,-1.46702,0.903827,1.050272\H,0,-
 0.362626,1.978205,0.452884\C,0,-0.034694,-0.971744,-2.344882\H,0,1.044
 758,-1.126695,-2.307622\H,0,-0.338576,-0.831034,-3.384482\H,0,-0.53991

 Normal termination of Gaussian 16 at Wed Apr  9 02:54:19 2025.
