 Gaussian 16, Revision C.01,

 ----------------------------------------------------------------------
 #t hf aug-cc-pvdz symm=none int=(grid=ultrafine) guess=(read,tcheck) s
 table=(opt,rrhf)
 ----------------------------------------------------------------------
 -----
 title
 -----
 Symbolic Z-matrix:
 Charge = -1 Multiplicity = 1

 SCF Done:  E(RHF) =  -1334.37741914     A.U. after   16 cycles
 Normal termination of Gaussian 16 at Wed Apr  9 02:29:34 2025.
 Gaussian 16:  ES64L-G16RevC.01  3-Jul-2019

 ----------------------------------------------------------------------
 #t hf aug-cc-pvdz iop(5/13=1,5/36=2,99/5=2) pseudo=read geom=check gue
 ss=(read,tcheck) scf=(maxcycle=1)
 ----------------------------------------------------------------------
 -----
 title
 -----
 Structure from the checkpoint file:  "E2SN2_109_mol2.chk"
 Charge = -1 Multiplicity = 1

                         Standard orientation:
 ---------------------------------------------------------------------
 Center     Atomic      Atomic             Coordinates (Angstroms)
 Number     Number       Type             X           Y           Z
 ---------------------------------------------------------------------
      1          6           0       -0.474065   -0.846860    0.377307
      2          6           0        0.082955    0.507566   -0.111976
      3         17           0       -1.820402   -1.374677   -0.728533
      4          1           0        0.887529    0.782711    0.575089
      5          6           0        0.627602   -1.888310    0.282538
      6          1           0        0.975690   -2.000081   -0.743115
      7          1           0        0.251768   -2.850525    0.639765
      8          1           0        1.490050   -1.568366    0.870444
      9          6           0       -1.043064   -0.782700    1.784919
     10          1           0       -1.345717   -1.783749    2.100571
     11          1           0       -0.272635   -0.411623    2.465786
     12          1           0       -1.906442   -0.121615    1.850084
     13          7           0       -0.986658    1.569310    0.094094
     14          8           0       -1.752205    1.811749   -0.833106
     15          8           0       -1.031230    2.106441    1.204324
     16          7           0        0.581713    0.579245   -1.432263
     17          1           0        0.115702   -0.060000   -2.059872
     18          1           0        1.588144    0.423089   -1.389629
     19         17           0        3.476723    0.155064    0.028038
 ---------------------------------------------------------------------

 SCF Done:  E(RHF) =  -1334.53264300     A.U. after    2 cycles

 The electronic state is 1-A.
 Alpha  occ. eigenvalues -- -103.54690-103.38255 -20.50496 -20.50039 -15.78776
 Alpha  occ. eigenvalues --  -15.49355 -11.22388 -11.22283 -11.14302 -11.12656
 Alpha  occ. eigenvalues --  -10.58067 -10.41339  -8.23774  -8.23519  -8.23508
 Alpha  occ. eigenvalues --   -8.06937  -8.06913  -8.06904  -1.42317  -1.24150
 Alpha  occ. eigenvalues --   -1.10624  -1.04827  -0.94590  -0.89309  -0.84655
 Alpha  occ. eigenvalues --   -0.83538  -0.74321  -0.68374  -0.64136  -0.61995
 Alpha  occ. eigenvalues --   -0.60370  -0.55927  -0.53947  -0.51194  -0.49039
 Alpha  occ. eigenvalues --   -0.46361  -0.45742  -0.42974  -0.41141  -0.40184
 Alpha  occ. eigenvalues --   -0.39041  -0.38868  -0.35890  -0.35109  -0.34203
 Alpha  occ. eigenvalues --   -0.28987  -0.21737  -0.21448  -0.21355
 Alpha virt. eigenvalues --    0.11484   0.12848   0.14102   0.14733   0.15296
 Alpha virt. eigenvalues --    0.16624   0.17470   0.17771   0.18503   0.19501
 Alpha virt. eigenvalues --    0.20319   0.21953   0.22601   0.23551   0.24322

 Mulliken charges:
               1
     1  C   -2.111056
     2  C    1.789184
     3  Cl  -0.323255
     4  H   -0.187416
     5  C    0.991756
     6  H   -0.066462
     7  H   -0.030038
     8  H    0.072392
     9  C    0.903128
    10  H   -0.020047
    11  H    0.051647
    12  H   -0.013641
    13  N    0.267855
    14  O   -0.595283
    15  O   -0.622588
    16  N   -0.331403
    17  H    0.040107
    18  H    0.117687
    19  Cl  -0.932566
 Sum of Mulliken charges =  -1.00000

 Dipole moment (field-independent basis, Debye):
    X=             -8.4199    Y=             -4.3444    Z=              0.9865  Tot=              9.5258

 Test job not archived.
 1\1\GINC-SE334\SP\RHF\Aug-CC-pVDZ\C4H9Cl2N2O2(1-)\OHZDE\09-Apr-2025\0\
 \#t hf aug-cc-pvdz iop(5/13=1,5/36=2,99/5=2) pseudo=read geom=check gu
 ess=(read,tcheck) scf=(maxcycle=1)\\title\\-1,1\C,0,-0.313481,-0.01179
 6,-1.510463\C,0,0.044179,-0.120212,-0.012309\Cl,0,-2.09196,0.339425,-1
 .67706\H,0,1.116474,-0.326418,0.040279\C,0,0.440599,1.164449,-2.106349
 \H,0,0.17076,2.095909,-1.611181\H,0,0.208311,1.244987,-3.171372\H,0,1.
 513368,1.030898,-1.954213\C,0,-0.029662,-1.288708,-2.28389\H,0,-0.2273
 03,-1.122272,-3.345291\H,0,1.021565,-1.559102,-2.15486\H,0,-0.643028,-

 Normal termination of Gaussian 16 at Wed Apr  9 02:29:46 2025.
