 Gaussian 16, Revision C.01,

 ----------------------------------------------------------------------
 #t hf aug-cc-pvdz symm=none int=(grid=ultrafine) guess=(read,tcheck) s
 table=(opt,rrhf)
 ----------------------------------------------------------------------
 -----
 title
 -----
 Symbolic Z-matrix:
 Charge = -1 Multiplicity = 1

 SCF Done:  E(RHF) =  -1350.36725545     A.U. after   15 cycles
 Normal termination of Gaussian 16 at Wed Apr  9 02:58:52 2025.
 Gaussian 16:  ES64L-G16RevC.01  3-Jul-2019

 ----------------------------------------------------------------------
 #t hf aug-cc-pvdz iop(5/13=1,5/36=2,99/5=2) pseudo=read geom=check gue
 ss=(read,tcheck) scf=(maxcycle=1)
 ----------------------------------------------------------------------
 -----
 title
 -----
 Structure from the checkpoint file:  "E2SN2_44_mol2.chk"
 Charge = -1 Multiplicity = 1

                         Standard orientation:
 ---------------------------------------------------------------------
 Center     Atomic      Atomic             Coordinates (Angstroms)
 Number     Number       Type             X           Y           Z
 ---------------------------------------------------------------------
      1          6           0       -0.399367   -0.275663   -0.089732
      2          6           0        0.192505    1.021380    0.466403
      3         17           0       -0.737096   -1.418864    1.325048
      4          1           0        1.133644    0.677410    0.911448
      5          7           0       -1.804068   -0.101891   -0.693832
      6          8           0       -2.255360   -1.060282   -1.308848
      7          8           0       -2.376527    0.977599   -0.557066
      8          7           0        0.398669   -0.814821   -1.085040
      9          1           0        0.130334   -1.757711   -1.328654
     10          1           0        1.403121   -0.741898   -0.862009
     11          7           0       -0.628328    1.591056    1.528152
     12          1           0       -1.329564    2.195854    1.121201
     13          1           0       -0.030150    2.148340    2.124018
     14          6           0        0.557857    1.999169   -0.652248
     15          1           0        1.023851    2.876885   -0.194945
     16          1           0        1.279023    1.559641   -1.338921
     17          1           0       -0.331587    2.322363   -1.198900
     18         17           0        3.437482   -0.334615   -0.201367
 ---------------------------------------------------------------------

 SCF Done:  E(RHF) =  -1350.52678290     A.U. after    2 cycles

 The electronic state is 1-A.
 Alpha  occ. eigenvalues -- -103.53947-103.38347 -20.52098 -20.51848 -15.80965
 Alpha  occ. eigenvalues --  -15.50646 -15.50257 -11.29275 -11.17097 -11.11376
 Alpha  occ. eigenvalues --  -10.57290 -10.41445  -8.22998  -8.22719  -8.22706
 Alpha  occ. eigenvalues --   -8.07051  -8.07015  -8.07003  -1.44368  -1.26210
 Alpha  occ. eigenvalues --   -1.13180  -1.04990  -1.01082  -0.90172  -0.87286
 Alpha  occ. eigenvalues --   -0.83733  -0.76713  -0.71335  -0.64011  -0.62649
 Alpha  occ. eigenvalues --   -0.61231  -0.58077  -0.55213  -0.52016  -0.48039
 Alpha  occ. eigenvalues --   -0.47585  -0.44891  -0.43430  -0.42137  -0.40725
 Alpha  occ. eigenvalues --   -0.37856  -0.37146  -0.35230  -0.34273  -0.29860
 Alpha  occ. eigenvalues --   -0.28455  -0.21911  -0.21544  -0.21422
 Alpha virt. eigenvalues --    0.11485   0.13308   0.14007   0.14225   0.15755
 Alpha virt. eigenvalues --    0.17133   0.17689   0.17879   0.19627   0.20309
 Alpha virt. eigenvalues --    0.21881   0.22968   0.24005   0.24725   0.25340

 Mulliken charges:
               1
     1  C    0.856426
     2  C    0.071547
     3  Cl  -0.155737
     4  H   -0.049117
     5  N    0.339484
     6  O   -0.626535
     7  O   -0.625271
     8  N   -0.374254
     9  H    0.035961
    10  H    0.019036
    11  N   -0.284322
    12  H    0.071076
    13  H   -0.021389
    14  C    0.792119
    15  H   -0.053672
    16  H   -0.019822
    17  H   -0.047640
    18  Cl  -0.927889
 Sum of Mulliken charges =  -1.00000

 Dipole moment (field-independent basis, Debye):
    X=             -7.6447    Y=              2.7752    Z=              0.8739  Tot=              8.1796

 Test job not archived.
 1\1\GINC-SE023\SP\RHF\Aug-CC-pVDZ\C3H8Cl2N3O2(1-)\OHZDE\09-Apr-2025\0\
 \#t hf aug-cc-pvdz iop(5/13=1,5/36=2,99/5=2) pseudo=read geom=check gu
 ess=(read,tcheck) scf=(maxcycle=1)\\title\\-1,1\C,0,-0.252231,-0.07976
 ,-1.472777\C,0,-0.022239,-0.116076,0.039739\Cl,0,0.020995,-1.780561,-2
 .147461\H,0,1.037712,-0.387793,0.108993\N,0,-1.716793,0.181563,-1.8665
 89\O,0,-1.932348,0.395463,-3.053267\O,0,-2.572914,0.192133,-0.984174\N
 ,0,0.506095,0.907104,-2.080421\H,0,0.515896,0.823592,-3.087061\H,0,1.4
 57376,0.966427,-1.686049\N,0,-0.800964,-1.162694,0.69073\H,0,-1.713447

 Normal termination of Gaussian 16 at Wed Apr  9 02:59:03 2025.
