 Gaussian 16, Revision C.01,

 ----------------------------------------------------------------------
 #t hf aug-cc-pvdz symm=none int=(grid=ultrafine) guess=(read,tcheck) s
 table=(opt,rrhf)
 ----------------------------------------------------------------------
 -----
 title
 -----
 Symbolic Z-matrix:
 Charge = -1 Multiplicity = 1

 SCF Done:  E(RHF) =  -1199.51072562     A.U. after   16 cycles
 Normal termination of Gaussian 16 at Wed Apr  9 02:58:12 2025.
 Gaussian 16:  ES64L-G16RevC.01  3-Jul-2019

 ----------------------------------------------------------------------
 #t hf aug-cc-pvdz iop(5/13=1,5/36=2,99/5=2) pseudo=read geom=check gue
 ss=(read,tcheck) scf=(maxcycle=1)
 ----------------------------------------------------------------------
 -----
 title
 -----
 Structure from the checkpoint file:  "E2SN2_52_mol1.chk"
 Charge = -1 Multiplicity = 1

                         Standard orientation:
 ---------------------------------------------------------------------
 Center     Atomic      Atomic             Coordinates (Angstroms)
 Number     Number       Type             X           Y           Z
 ---------------------------------------------------------------------
      1          6           0        0.302068    0.244336    0.477451
      2          6           0       -0.425361   -0.876305    0.111020
      3         17           0        2.851930   -0.553951    0.040623
      4         17           0       -3.252174   -0.059093    0.148547
      5          1           0       -1.773683   -0.360828    0.193905
      6          1           0       -0.527950   -1.638556    0.886696
      7          6           0        0.521584    1.252393   -0.528056
      8          7           0        0.578105    2.112534   -1.329898
      9          7           0       -0.336742   -1.377102   -1.230956
     10          1           0        0.636266   -1.322688   -1.522419
     11          1           0       -0.908865   -0.833631   -1.865241
     12          7           0        0.489116    0.649897    1.771507
     13          1           0        1.263008    1.292883    1.858576
     14          1           0        0.612270   -0.135273    2.395525
 ---------------------------------------------------------------------

 SCF Done:  E(RHF) =  -1199.62244738     A.U. after    2 cycles

 The electronic state is 1-A.
 Alpha  occ. eigenvalues -- -103.47874-103.40481 -15.56541 -15.55556 -15.49904
 Alpha  occ. eigenvalues --  -11.27059 -11.20294 -11.15109 -10.51157 -10.43615
 Alpha  occ. eigenvalues --   -8.16829  -8.16648  -8.16646  -8.09216  -8.09169
 Alpha  occ. eigenvalues --   -8.09162  -1.14629  -1.07934  -1.04782  -0.95267
 Alpha  occ. eigenvalues --   -0.89441  -0.85929  -0.77168  -0.63262  -0.60284
 Alpha  occ. eigenvalues --   -0.56085  -0.52930  -0.47479  -0.46745  -0.45077
 Alpha  occ. eigenvalues --   -0.41663  -0.36842  -0.36409  -0.30628  -0.30566
 Alpha  occ. eigenvalues --   -0.29380  -0.25218  -0.23685  -0.23463  -0.20999
 Alpha virt. eigenvalues --    0.12065   0.13483   0.14537   0.15828   0.15962
 Alpha virt. eigenvalues --    0.17304   0.18857   0.19447   0.21905   0.22828
 Alpha virt. eigenvalues --    0.23761   0.24114   0.24710   0.24805   0.25382

 Mulliken charges:
               1
     1  C    1.332060
     2  C    0.251646
     3  Cl  -0.857012
     4  Cl  -0.591461
     5  H    0.566403
     6  H   -0.305576
     7  C   -0.549896
     8  N   -0.273722
     9  N   -0.379604
    10  H    0.070739
    11  H    0.041902
    12  N   -0.393582
    13  H    0.042437
    14  H    0.045666
 Sum of Mulliken charges =  -1.00000

 Dipole moment (field-independent basis, Debye):
    X=             -1.8469    Y=              0.8733    Z=              3.1054  Tot=              3.7171

 Test job not archived.
 1\1\GINC-SE164\SP\RHF\Aug-CC-pVDZ\C3H6Cl2N3(1-)\OHZDE\09-Apr-2025\0\\#
 t hf aug-cc-pvdz iop(5/13=1,5/36=2,99/5=2) pseudo=read geom=check gues
 s=(read,tcheck) scf=(maxcycle=1)\\title\\-1,1\C,0,-0.58549591,0.092426
 71,-0.14155254\C,0,-0.22719489,0.09540844,1.19668174\Cl,0,1.80560003,-
 0.19239645,-1.37905493\Cl,0,-2.74725599,0.00366118,2.71358374\H,0,-1.5
 297562,0.07731415,1.8240285\H,0,0.09489663,1.06226065,1.5899735\C,0,-0
 .95775061,-1.17004394,-0.72721952\N,0,-1.37546748,-2.1885368,-1.144560
 3\N,0,0.43549402,-1.04588993,1.76044769\H,0,1.11836968,-1.37806456,1.0

 Normal termination of Gaussian 16 at Wed Apr  9 02:58:18 2025.
