 Gaussian 16, Revision C.01,

 ----------------------------------------------------------------------
 #t hf aug-cc-pvdz symm=none int=(grid=ultrafine) guess=(read,tcheck) s
 table=(opt,rrhf)
 ----------------------------------------------------------------------
 -----
 title
 -----
 Symbolic Z-matrix:
 Charge = -1 Multiplicity = 1

 SCF Done:  E(RHF) =  -1331.97198740     A.U. after   16 cycles
 Normal termination of Gaussian 16 at Wed Apr  9 02:52:09 2025.
 Gaussian 16:  ES64L-G16RevC.01  3-Jul-2019

 ----------------------------------------------------------------------
 #t hf aug-cc-pvdz iop(5/13=1,5/36=2,99/5=2) pseudo=read geom=check gue
 ss=(read,tcheck) scf=(maxcycle=1)
 ----------------------------------------------------------------------
 -----
 title
 -----
 Structure from the checkpoint file:  "E2SN2_329_mol1.chk"
 Charge = -1 Multiplicity = 1

                         Standard orientation:
 ---------------------------------------------------------------------
 Center     Atomic      Atomic             Coordinates (Angstroms)
 Number     Number       Type             X           Y           Z
 ---------------------------------------------------------------------
      1          6           0        0.078033   -0.061420    0.167256
      2          1           0       -0.194299   -1.485696   -1.434086
      3         17           0       -1.350697    1.824195    0.173256
      4         17           0        1.756869   -1.700287    0.076972
      5          6           0       -0.744060   -0.675893   -0.955970
      6          1           0       -0.965594    0.080445   -1.705313
      7          6           0       -0.133767   -0.345128    1.631776
      8          1           0       -1.041039    0.128254    1.996096
      9          1           0       -0.192000   -1.420760    1.784504
     10          1           0        0.725580    0.035452    2.179454
     11          7           0        1.137118    0.898927   -0.276479
     12          8           0        1.273620    1.041744   -1.485792
     13          8           0        1.793296    1.458373    0.589419
     14          6           0       -1.998315   -1.214259   -0.438643
     15          7           0       -2.992012   -1.708195   -0.056388
 ---------------------------------------------------------------------

 SCF Done:  E(RHF) =  -1332.12256734     A.U. after    2 cycles

 The electronic state is 1-A.
 Alpha  occ. eigenvalues -- -103.45563-103.44993 -20.50253 -20.50122 -15.81326
 Alpha  occ. eigenvalues --  -15.53980 -11.32010 -11.19526 -11.19381 -11.13738
 Alpha  occ. eigenvalues --  -10.48861 -10.48297  -8.14498  -8.14360  -8.14358
 Alpha  occ. eigenvalues --   -8.13933  -8.13799  -8.13795  -1.43377  -1.25110
 Alpha  occ. eigenvalues --   -1.08576  -1.04040  -0.92475  -0.91234  -0.89209
 Alpha  occ. eigenvalues --   -0.86155  -0.70435  -0.63589  -0.62275  -0.61040
 Alpha  occ. eigenvalues --   -0.58999  -0.53977  -0.50152  -0.48432  -0.44688
 Alpha  occ. eigenvalues --   -0.44638  -0.40455  -0.39688  -0.36275  -0.35459
 Alpha  occ. eigenvalues --   -0.35395  -0.31102  -0.28764  -0.28585  -0.27893
 Alpha  occ. eigenvalues --   -0.27299  -0.25905
 Alpha virt. eigenvalues --    0.13198   0.13767   0.13875   0.15412   0.15931
 Alpha virt. eigenvalues --    0.16906   0.18065   0.19947   0.21219   0.21957
 Alpha virt. eigenvalues --    0.23109   0.24156   0.24714   0.24842   0.25612

 Mulliken charges:
               1
     1  C   -0.598056
     2  H    0.064003
     3  Cl  -0.612239
     4  Cl  -0.592986
     5  C    0.847640
     6  H    0.138238
     7  C    0.596477
     8  H   -0.006953
     9  H    0.093450
    10  H    0.005893
    11  N    0.792345
    12  O   -0.686761
    13  O   -0.679758
    14  C   -0.039680
    15  N   -0.321610
 Sum of Mulliken charges =  -1.00000

 Dipole moment (field-independent basis, Debye):
    X=             -0.2459    Y=             -1.2157    Z=             -0.0536  Tot=              1.2415

 Test job not archived.
 1\1\GINC-SE165\SP\RHF\Aug-CC-pVDZ\C4H5Cl2N2O2(1-)\OHZDE\09-Apr-2025\0\
 \#t hf aug-cc-pvdz iop(5/13=1,5/36=2,99/5=2) pseudo=read geom=check gu
 ess=(read,tcheck) scf=(maxcycle=1)\\title\\-1,1\C,0,0.66798441,-0.0391
 7252,-0.06393148\H,0,1.46237323,1.94930539,0.22229565\Cl,0,-1.66992278
 ,-0.30093887,0.18610519\Cl,0,3.01409416,0.03203146,-0.00711225\C,0,0.5
 0423935,1.47103859,0.02266057\H,0,-0.18090283,1.72067564,0.82944535\C,
 0,0.71311929,-0.81891515,-1.35239333\H,0,-0.26808257,-0.86842549,-1.81
 580803\H,0,1.4191268,-0.34758683,-2.03291167\H,0,1.06621457,-1.8233827

 Normal termination of Gaussian 16 at Wed Apr  9 02:52:22 2025.
