 Gaussian 16, Revision C.01,

 ----------------------------------------------------------------------
 #t hf aug-cc-pvdz symm=none int=(grid=ultrafine) guess=(read,tcheck) s
 table=(opt,rrhf)
 ----------------------------------------------------------------------
 -----
 title
 -----
 Symbolic Z-matrix:
 Charge = -1 Multiplicity = 1

 SCF Done:  E(RHF) =  -583.896046983     A.U. after   17 cycles
 Normal termination of Gaussian 16 at Wed Apr  9 02:49:40 2025.
 Gaussian 16:  ES64L-G16RevC.01  3-Jul-2019

 ----------------------------------------------------------------------
 #t hf aug-cc-pvdz iop(5/13=1,5/36=2,99/5=2) pseudo=read geom=check gue
 ss=(read,tcheck) scf=(maxcycle=1)
 ----------------------------------------------------------------------
 -----
 title
 -----
 Structure from the checkpoint file:  "E2SN2_307_mol1.chk"
 Charge = -1 Multiplicity = 1

                         Standard orientation:
 ---------------------------------------------------------------------
 Center     Atomic      Atomic             Coordinates (Angstroms)
 Number     Number       Type             X           Y           Z
 ---------------------------------------------------------------------
      1          6           0       -0.750515   -0.399737   -0.031139
      2          1           0        0.381627    0.342568   -1.735937
      3          9           0       -0.691035    0.266035    1.458502
      4          1           0       -1.081838   -1.149537   -1.722436
      5          6           0        0.337142    0.492839   -0.664262
      6          6           0       -2.108703   -0.081374   -0.404340
      7          7           0       -3.243228    0.253006   -0.449842
      8          7           0       -0.385472   -1.719416    0.424704
      9          1           0       -0.713618   -2.386379   -0.255357
     10          1           0       -0.830259   -1.847140    1.325801
     11          7           0        1.686898   -0.063187   -0.182853
     12          8           0        2.222641   -0.910614   -0.891946
     13          8           0        2.167272    0.397439    0.850736
     14          7           0        0.152269    1.859972   -0.332321
     15          1           0        0.903963    2.426011   -0.701720
     16          1           0        0.099327    1.942570    0.673452
 ---------------------------------------------------------------------

 SCF Done:  E(RHF) =  -584.070581948     A.U. after    2 cycles

 The electronic state is 1-A.
 Alpha  occ. eigenvalues --  -25.91073 -20.49050 -20.49017 -15.77628 -15.50804
 Alpha  occ. eigenvalues --  -15.49281 -15.47935 -11.27821 -11.22064 -11.15516
 Alpha  occ. eigenvalues --   -1.42321  -1.40966  -1.22951  -1.09176  -1.04920
 Alpha  occ. eigenvalues --   -1.01242  -0.89874  -0.82385  -0.70876  -0.64719
 Alpha  occ. eigenvalues --   -0.63033  -0.60989  -0.59939  -0.57671  -0.55467
 Alpha  occ. eigenvalues --   -0.50934  -0.49372  -0.48941  -0.45542  -0.43781
 Alpha  occ. eigenvalues --   -0.40075  -0.39613  -0.38248  -0.34548  -0.33001
 Alpha  occ. eigenvalues --   -0.31091  -0.30312  -0.28465  -0.13259
 Alpha virt. eigenvalues --    0.12228   0.13505   0.14311   0.16841   0.17364
 Alpha virt. eigenvalues --    0.18680   0.20251   0.20553   0.21910   0.23297
 Alpha virt. eigenvalues --    0.23560   0.24607   0.25438   0.25844   0.26510

 Mulliken charges:
               1
     1  C    0.359420
     2  H   -0.209027
     3  F   -0.653644
     4  H   -0.272169
     5  C    1.452807
     6  C   -0.071312
     7  N   -0.411052
     8  N   -0.266780
     9  H    0.056428
    10  H    0.006844
    11  N    0.460844
    12  O   -0.636389
    13  O   -0.649622
    14  N   -0.216088
    15  H   -0.032725
    16  H    0.082465
 Sum of Mulliken charges =  -1.00000

 Dipole moment (field-independent basis, Debye):
    X=              4.1324    Y=              1.8540    Z=              1.2823  Tot=              4.7073

 Test job not archived.
 1\1\GINC-SE222\SP\RHF\Aug-CC-pVDZ\C3H6F1N4O2(1-)\OHZDE\09-Apr-2025\0\\
 #t hf aug-cc-pvdz iop(5/13=1,5/36=2,99/5=2) pseudo=read geom=check gue
 ss=(read,tcheck) scf=(maxcycle=1)\\title\\-1,1\C,0,0.5540584,-0.041229
 17,-0.02328863\H,0,1.59720822,1.85800921,-0.23264254\F,0,-1.06671622,-
 0.20466445,-0.1337385\H,0,2.43290822,-0.05087025,-0.0711618\C,0,0.5812
 3641,1.49795537,-0.12675967\C,0,0.96855771,-0.75003024,-1.2111852\N,0,
 1.04775841,-1.40650725,-2.1929149\N,0,0.6361502,-0.64971828,1.28269981
 \H,0,1.57374287,-0.99684658,1.40689323\H,0,-0.04904084,-1.39565292,1.2

 Normal termination of Gaussian 16 at Wed Apr  9 02:49:48 2025.
