 Gaussian 16, Revision C.01,

 ----------------------------------------------------------------------
 #t hf aug-cc-pvdz symm=none int=(grid=ultrafine) guess=(read,tcheck) s
 table=(opt,rrhf)
 ----------------------------------------------------------------------
 -----
 title
 -----
 Symbolic Z-matrix:
 Charge = -1 Multiplicity = 1

 SCF Done:  E(RHF) =  -627.814203855     A.U. after   16 cycles
 Normal termination of Gaussian 16 at Wed Apr  9 02:40:09 2025.
 Gaussian 16:  ES64L-G16RevC.01  3-Jul-2019

 ----------------------------------------------------------------------
 #t hf aug-cc-pvdz iop(5/13=1,5/36=2,99/5=2) pseudo=read geom=check gue
 ss=(read,tcheck) scf=(maxcycle=1)
 ----------------------------------------------------------------------
 -----
 title
 -----
 Structure from the checkpoint file:  "E2SN2_218_mol1.chk"
 Charge = -1 Multiplicity = 1

                         Standard orientation:
 ---------------------------------------------------------------------
 Center     Atomic      Atomic             Coordinates (Angstroms)
 Number     Number       Type             X           Y           Z
 ---------------------------------------------------------------------
      1          6           0       -0.222160   -0.185327    0.413089
      2          1           0        0.698372   -0.197253   -1.471129
      3          9           0       -0.497818    1.316839    1.235284
      4          9           0       -0.096294   -1.812524   -0.252927
      5          6           0        0.925115    0.249390   -0.504074
      6          1           0       -0.095771   -0.639401    1.376332
      7          7           0       -1.596808   -0.129355   -0.124738
      8          8           0       -1.749965    0.330058   -1.252604
      9          8           0       -2.494107   -0.541926    0.600019
     10          6           0        2.136543   -0.418130    0.012650
     11          7           0        3.159147   -0.831268    0.417722
     12          7           0        1.122276    1.691451   -0.651750
     13          1           0        2.109432    1.892413   -0.741563
     14          1           0        0.758249    2.108966    0.197207
 ---------------------------------------------------------------------

 SCF Done:  E(RHF) =  -628.002924120     A.U. after    2 cycles

 The electronic state is 1-A.
 Alpha  occ. eigenvalues --  -25.88005 -25.85807 -20.48273 -20.48135 -15.78449
 Alpha  occ. eigenvalues --  -15.52485 -15.49404 -11.28497 -11.20361 -11.17879
 Alpha  occ. eigenvalues --   -1.41757  -1.38200  -1.36098  -1.22651  -1.08268
 Alpha  occ. eigenvalues --   -1.04164  -0.95074  -0.84130  -0.71009  -0.64891
 Alpha  occ. eigenvalues --   -0.62648  -0.60251  -0.59210  -0.55854  -0.53407
 Alpha  occ. eigenvalues --   -0.49504  -0.47515  -0.45949  -0.45687  -0.44827
 Alpha  occ. eigenvalues --   -0.43374  -0.42430  -0.39472  -0.38015  -0.36662
 Alpha  occ. eigenvalues --   -0.34639  -0.33754  -0.33412  -0.28497
 Alpha virt. eigenvalues --    0.12963   0.14561   0.15416   0.16921   0.18592
 Alpha virt. eigenvalues --    0.20962   0.22100   0.22651   0.22816   0.23573
 Alpha virt. eigenvalues --    0.25435   0.25884   0.26868   0.27634   0.28283

 Mulliken charges:
               1
     1  C    1.537310
     2  H    0.132329
     3  F   -0.772341
     4  F   -0.752124
     5  C    0.776400
     6  H   -0.426529
     7  N    0.570954
     8  O   -0.661394
     9  O   -0.671498
    10  C   -0.051798
    11  N   -0.322097
    12  N   -0.467232
    13  H   -0.018650
    14  H    0.126670
 Sum of Mulliken charges =  -1.00000

 Dipole moment (field-independent basis, Debye):
    X=              1.7740    Y=              2.2441    Z=             -0.6816  Tot=              2.9407

 Test job not archived.
 1\1\GINC-SE071\SP\RHF\Aug-CC-pVDZ\C3H4F2N3O2(1-)\OHZDE\09-Apr-2025\0\\
 #t hf aug-cc-pvdz iop(5/13=1,5/36=2,99/5=2) pseudo=read geom=check gue
 ss=(read,tcheck) scf=(maxcycle=1)\\title\\-1,1\C,0,0.35556072,0.005535
 76,-0.10976571\H,0,1.71187023,1.55883366,-0.49119564\F,0,-1.20981945,0
 .01671568,-0.85672908\F,0,1.89625527,-0.24356628,0.70962313\C,0,0.6684
 1098,1.50319345,-0.18428383\H,0,-0.09696751,-0.48298081,0.73080813\N,0
 ,0.85504416,-0.86034835,-1.19733623\O,0,1.43182385,-0.32085567,-2.1369
 4837\O,0,0.65134286,-2.06330678,-1.08764806\C,0,0.59296785,2.00574294,

 Normal termination of Gaussian 16 at Wed Apr  9 02:40:15 2025.
