 Gaussian 16, Revision C.01,

 ----------------------------------------------------------------------
 #t hf aug-cc-pvdz symm=none int=(grid=ultrafine) guess=(read,tcheck) s
 table=(opt,rrhf)
 ----------------------------------------------------------------------
 -----
 title
 -----
 Symbolic Z-matrix:
 Charge = -1 Multiplicity = 1

 SCF Done:  E(RHF) =  -836.217353794     A.U. after   17 cycles
 Normal termination of Gaussian 16 at Wed Apr  9 02:31:58 2025.
 Gaussian 16:  ES64L-G16RevC.01  3-Jul-2019

 ----------------------------------------------------------------------
 #t hf aug-cc-pvdz iop(5/13=1,5/36=2,99/5=2) pseudo=read geom=check gue
 ss=(read,tcheck) scf=(maxcycle=1)
 ----------------------------------------------------------------------
 -----
 title
 -----
 Structure from the checkpoint file:  "E2SN2_129_mol1.chk"
 Charge = -1 Multiplicity = 1

                         Standard orientation:
 ---------------------------------------------------------------------
 Center     Atomic      Atomic             Coordinates (Angstroms)
 Number     Number       Type             X           Y           Z
 ---------------------------------------------------------------------
      1          6           0        0.130753   -0.133774    0.478780
      2          6           0       -0.240650    1.211691    0.876480
      3         17           0        1.897641   -0.266188   -0.420881
      4          1           0       -2.000863    0.447621    2.482325
      5          1           0       -1.249078    0.926446    1.609247
      6          1           0        0.443034    1.531135    1.669552
      7          7           0        0.166536   -1.088744    1.524382
      8          1           0       -0.695910   -0.906523    2.073754
      9          1           0        0.952111   -0.846485    2.117053
     10          7           0       -0.842984   -0.630986   -0.584697
     11          8           0       -0.805270   -0.102239   -1.693579
     12          8           0       -1.665812   -1.471713   -0.230705
     13          6           0       -0.482498    2.296714   -0.148558
     14          1           0       -1.365622    2.090442   -0.756438
     15          1           0       -0.650860    3.247744    0.367311
     16          1           0        0.365459    2.416747   -0.831550
 ---------------------------------------------------------------------

 SCF Done:  E(RHF) =  -836.348687980     A.U. after    2 cycles

 The electronic state is 1-A.
 Alpha  occ. eigenvalues -- -103.50807 -20.49372 -20.48725 -15.78154 -15.49529
 Alpha  occ. eigenvalues --  -11.27630 -11.10214 -11.08949 -10.54041  -8.19722
 Alpha  occ. eigenvalues --   -8.19489  -8.19482  -1.41340  -1.23130  -1.09581
 Alpha  occ. eigenvalues --   -0.97212  -0.91778  -0.85805  -0.75011  -0.68093
 Alpha  occ. eigenvalues --   -0.61064  -0.60305  -0.57707  -0.53651  -0.50016
 Alpha  occ. eigenvalues --   -0.46265  -0.43267  -0.41570  -0.39322  -0.38550
 Alpha  occ. eigenvalues --   -0.36529  -0.34943  -0.33127  -0.32065  -0.31911
 Alpha  occ. eigenvalues --   -0.29087  -0.10362
 Alpha virt. eigenvalues --    0.12704   0.13704   0.14886   0.15511   0.16878
 Alpha virt. eigenvalues --    0.17972   0.19276   0.19669   0.20774   0.22046
 Alpha virt. eigenvalues --    0.23086   0.24008   0.24653   0.25653   0.26175

 Mulliken charges:
               1
     1  C    1.038274
     2  C    0.083382
     3  Cl  -0.321339
     4  H   -0.647956
     5  H    0.118734
     6  H   -0.221042
     7  N   -0.538663
     8  H    0.129320
     9  H    0.058817
    10  N    0.236176
    11  O   -0.639014
    12  O   -0.541307
    13  C    0.398625
    14  H   -0.018125
    15  H   -0.069886
    16  H   -0.065995
 Sum of Mulliken charges =  -1.00000

 Dipole moment (field-independent basis, Debye):
    X=              5.2437    Y=              1.2120    Z=             -3.0155  Tot=              6.1692

 Test job not archived.
 1\1\GINC-SE462\SP\RHF\Aug-CC-pVDZ\C3H8Cl1N2O2(1-)\OHZDE\09-Apr-2025\0\
 \#t hf aug-cc-pvdz iop(5/13=1,5/36=2,99/5=2) pseudo=read geom=check gu
 ess=(read,tcheck) scf=(maxcycle=1)\\title\\-1,1\C,0,-0.18359916,-0.062
 711,-0.29740963\C,0,-0.17191309,0.05278342,1.14927803\Cl,0,1.61700281,
 -0.21737211,-1.12368398\H,0,-2.58305966,-0.56682997,1.40095767\H,0,-1.
 42071553,-0.11453189,1.36776678\H,0,0.18700858,-0.89565028,1.56168761\
 N,0,-0.93130218,-1.14900839,-0.81454534\H,0,-1.81326436,-1.14329223,-0
 .26596911\H,0,-0.43228505,-1.9948986,-0.56448753\N,0,-0.73737917,1.224

 Normal termination of Gaussian 16 at Wed Apr  9 02:32:04 2025.
