 Gaussian 16, Revision C.01,

 ----------------------------------------------------------------------
 #t hf aug-cc-pvdz symm=none int=(grid=ultrafine) guess=(read,tcheck) s
 table=(opt,rrhf)
 ----------------------------------------------------------------------
 -----
 title
 -----
 Symbolic Z-matrix:
 Charge = -1 Multiplicity = 1

 SCF Done:  E(RHF) =  -528.864355357     A.U. after   18 cycles
 Normal termination of Gaussian 16 at Wed Apr  9 02:49:03 2025.
 Gaussian 16:  ES64L-G16RevC.01  3-Jul-2019

 ----------------------------------------------------------------------
 #t hf aug-cc-pvdz iop(5/13=1,5/36=2,99/5=2) pseudo=read geom=check gue
 ss=(read,tcheck) scf=(maxcycle=1)
 ----------------------------------------------------------------------
 -----
 title
 -----
 Structure from the checkpoint file:  "E2SN2_303_mol1.chk"
 Charge = -1 Multiplicity = 1

                         Standard orientation:
 ---------------------------------------------------------------------
 Center     Atomic      Atomic             Coordinates (Angstroms)
 Number     Number       Type             X           Y           Z
 ---------------------------------------------------------------------
      1          6           0       -0.792785    0.391189    0.183495
      2          1           0        0.721200    0.966049    1.588954
      3          9           0       -0.220924    0.219515   -1.297525
      4          1           0       -1.484064    0.446010    1.912500
      5          6           0        0.441149    0.085852    1.021262
      6          1           0        0.286955   -0.782237    1.653266
      7          6           0       -1.816720   -0.642156    0.139597
      8          7           0       -2.633137   -1.468973   -0.066476
      9          7           0       -1.168994    1.780439    0.027524
     10          1           0       -1.905689    1.985932    0.683407
     11          1           0       -1.484417    1.895409   -0.928059
     12          7           0        1.654183   -0.244278    0.167032
     13          8           0        1.832194   -1.424429   -0.130778
     14          8           0        2.405319    0.678625   -0.143600
 ---------------------------------------------------------------------

 SCF Done:  E(RHF) =  -529.024492002     A.U. after    2 cycles

 The electronic state is 1-A.
 Alpha  occ. eigenvalues --  -25.91792 -20.48483 -20.48426 -15.77269 -15.49676
 Alpha  occ. eigenvalues --  -15.49415 -11.28241 -11.18461 -11.16128  -1.43339
 Alpha  occ. eigenvalues --   -1.40266  -1.22319  -1.06677  -1.02395  -0.95587
 Alpha  occ. eigenvalues --   -0.82013  -0.71796  -0.63627  -0.62500  -0.60859
 Alpha  occ. eigenvalues --   -0.59988  -0.55126  -0.52947  -0.50869  -0.47435
 Alpha  occ. eigenvalues --   -0.46017  -0.45085  -0.40840  -0.37774  -0.37563
 Alpha  occ. eigenvalues --   -0.33989  -0.33377  -0.32113  -0.29069  -0.14258
 Alpha virt. eigenvalues --    0.13177   0.14192   0.15568   0.16228   0.18716
 Alpha virt. eigenvalues --    0.19787   0.21346   0.21988   0.22849   0.23937
 Alpha virt. eigenvalues --    0.24367   0.25511   0.26406   0.26672   0.26841

 Mulliken charges:
               1
     1  C    0.599257
     2  H   -0.102411
     3  F   -0.649275
     4  H   -0.276791
     5  C    1.124638
     6  H   -0.205528
     7  C   -0.182763
     8  N   -0.346752
     9  N   -0.356153
    10  H    0.072171
    11  H    0.021482
    12  N    0.623357
    13  O   -0.656049
    14  O   -0.665183
 Sum of Mulliken charges =  -1.00000

 Dipole moment (field-independent basis, Debye):
    X=              1.8386    Y=              2.3049    Z=              0.1787  Tot=              2.9538

 Test job not archived.
 1\1\GINC-SE016\SP\RHF\Aug-CC-pVDZ\C3H5F1N3O2(1-)\OHZDE\09-Apr-2025\0\\
 #t hf aug-cc-pvdz iop(5/13=1,5/36=2,99/5=2) pseudo=read geom=check gue
 ss=(read,tcheck) scf=(maxcycle=1)\\title\\-1,1\C,0,0.55252394,-0.09844
 369,0.15883985\H,0,1.6864575,1.40057063,1.19086677\F,0,-0.99587288,-0.
 07215066,0.54831804\H,0,2.31960277,-0.08531798,-0.43072944\C,0,0.94896
 046,1.35189432,0.3976587\H,0,1.29236267,1.82512658,-0.51607459\C,0,0.4
 1774781,-0.5118617,-1.23007847\N,0,0.15172346,-0.90054089,-2.31210877\
 N,0,0.93227907,-1.07016602,1.16254183\H,0,1.7682585,-1.53860718,0.8513

 Normal termination of Gaussian 16 at Wed Apr  9 02:49:09 2025.
