 Gaussian 16, Revision C.01,

 ----------------------------------------------------------------------
 #t hf aug-cc-pvdz symm=none int=(grid=ultrafine) guess=(read,tcheck) s
 table=(opt,rrhf)
 ----------------------------------------------------------------------
 -----
 title
 -----
 Symbolic Z-matrix:
 Charge = -1 Multiplicity = 1

 SCF Done:  E(RHF) =  -1334.28851939     A.U. after   18 cycles
 Normal termination of Gaussian 16 at Wed Apr  9 02:35:27 2025.
 Gaussian 16:  ES64L-G16RevC.01  3-Jul-2019

 ----------------------------------------------------------------------
 #t hf aug-cc-pvdz iop(5/13=1,5/36=2,99/5=2) pseudo=read geom=check gue
 ss=(read,tcheck) scf=(maxcycle=1)
 ----------------------------------------------------------------------
 -----
 title
 -----
 Structure from the checkpoint file:  "E2SN2_14_mol1.chk"
 Charge = -1 Multiplicity = 1

                         Standard orientation:
 ---------------------------------------------------------------------
 Center     Atomic      Atomic             Coordinates (Angstroms)
 Number     Number       Type             X           Y           Z
 ---------------------------------------------------------------------
      1          6           0       -0.430977    0.098769   -0.370085
      2          6           0        0.435668   -0.783455    0.273467
      3         17           0       -2.602795   -0.820141   -0.107278
      4         17           0        3.148326    0.192054   -0.234742
      5          1           0        1.662740   -0.155035   -0.058266
      6          6           0       -0.463814    0.192463   -1.861630
      7          1           0       -1.320248    0.778395   -2.184758
      8          1           0        0.457416    0.673096   -2.210782
      9          1           0       -0.523849   -0.808146   -2.277096
     10          7           0        0.544510   -2.022105   -0.450896
     11          1           0       -0.357561   -2.492446   -0.383694
     12          1           0        1.261313   -2.601560   -0.033329
     13          6           0        0.565028   -0.881352    1.776162
     14          1           0       -0.380857   -1.243673    2.193197
     15          1           0        1.363328   -1.594177    2.003754
     16          1           0        0.812664    0.066279    2.249785
     17          7           0       -0.667829    1.400377    0.295827
     18          8           0       -0.895197    1.424798    1.504659
     19          8           0       -0.607450    2.406240   -0.417967
 ---------------------------------------------------------------------

 SCF Done:  E(RHF) =  -1334.44334197     A.U. after    2 cycles

 The electronic state is 1-A.
 Alpha  occ. eigenvalues -- -103.46708-103.43714 -20.50783 -20.50733 -15.80504
 Alpha  occ. eigenvalues --  -15.50059 -11.25626 -11.15264 -11.12745 -11.11557
 Alpha  occ. eigenvalues --  -10.49987 -10.46883  -8.15654  -8.15486  -8.15478
 Alpha  occ. eigenvalues --   -8.12515  -8.12405  -8.12394  -1.42995  -1.24594
 Alpha  occ. eigenvalues --   -1.08097  -0.99228  -0.94072  -0.89215  -0.87288
 Alpha  occ. eigenvalues --   -0.84264  -0.76530  -0.68918  -0.62606  -0.60965
 Alpha  occ. eigenvalues --   -0.58802  -0.53743  -0.50373  -0.49086  -0.47066
 Alpha  occ. eigenvalues --   -0.46578  -0.44290  -0.41706  -0.40875  -0.40178
 Alpha  occ. eigenvalues --   -0.38663  -0.35576  -0.31602  -0.29774  -0.29569
 Alpha  occ. eigenvalues --   -0.28766  -0.26677  -0.26398  -0.18689
 Alpha virt. eigenvalues --    0.12243   0.13013   0.13954   0.14273   0.15280
 Alpha virt. eigenvalues --    0.15956   0.16390   0.16737   0.17697   0.18865
 Alpha virt. eigenvalues --    0.21350   0.21632   0.23120   0.24562   0.24744

 Mulliken charges:
               1
     1  C   -0.403613
     2  C   -0.407836
     3  Cl  -0.693000
     4  Cl  -0.658175
     5  H    0.693735
     6  C    0.809203
     7  H    0.004869
     8  H    0.123624
     9  H    0.050526
    10  N   -0.331432
    11  H    0.068951
    12  H   -0.053490
    13  C    0.770057
    14  H    0.029039
    15  H   -0.080664
    16  H    0.068496
    17  N    0.206460
    18  O   -0.598775
    19  O   -0.597976
 Sum of Mulliken charges =  -1.00000

 Dipole moment (field-independent basis, Debye):
    X=              0.8960    Y=             -1.9024    Z=             -0.1095  Tot=              2.1057

 Test job not archived.
 1\1\GINC-SE080\SP\RHF\Aug-CC-pVDZ\C4H9Cl2N2O2(1-)\OHZDE\09-Apr-2025\0\
 \#t hf aug-cc-pvdz iop(5/13=1,5/36=2,99/5=2) pseudo=read geom=check gu
 ess=(read,tcheck) scf=(maxcycle=1)\\title\\-1,1\C,0,-0.37364744,0.0273
 2976,-0.32626252\C,0,-0.20640202,-0.01950519,1.05699057\Cl,0,1.8107473
 2,0.19865805,-1.23693275\Cl,0,-2.89094387,0.00998215,2.22351245\H,0,-1
 .57281643,-0.01814739,1.43590261\C,0,-0.93269637,1.24353241,-0.9917544
 4\H,0,-0.81044619,1.17454908,-2.06948485\H,0,-1.9991888,1.32492065,-0.
 75185992\H,0,-0.41478436,2.12049752,-0.61740945\N,0,0.23266665,1.25200

 Normal termination of Gaussian 16 at Wed Apr  9 02:35:39 2025.
