 Gaussian 16, Revision C.01,

 ----------------------------------------------------------------------
 #t hf aug-cc-pvdz symm=none int=(grid=ultrafine) guess=(read,tcheck) s
 table=(opt,rrhf)
 ----------------------------------------------------------------------
 -----
 title
 -----
 Symbolic Z-matrix:
 Charge = -1 Multiplicity = 1

 SCF Done:  E(RHF) =  -987.975003485     A.U. after   16 cycles
 Normal termination of Gaussian 16 at Wed Apr  9 02:41:01 2025.
 Gaussian 16:  ES64L-G16RevC.01  3-Jul-2019

 ----------------------------------------------------------------------
 #t hf aug-cc-pvdz iop(5/13=1,5/36=2,99/5=2) pseudo=read geom=check gue
 ss=(read,tcheck) scf=(maxcycle=1)
 ----------------------------------------------------------------------
 -----
 title
 -----
 Structure from the checkpoint file:  "E2SN2_219_mol2.chk"
 Charge = -1 Multiplicity = 1

                         Standard orientation:
 ---------------------------------------------------------------------
 Center     Atomic      Atomic             Coordinates (Angstroms)
 Number     Number       Type             X           Y           Z
 ---------------------------------------------------------------------
      1          6           0        0.106462   -0.513866   -0.426922
      2          6           0       -0.078844    0.948623    0.007679
      3          9           0        0.436983   -0.566533   -1.743156
      4          1           0       -0.816031    1.323986   -0.709307
      5          1           0       -0.813976   -1.066024   -0.232637
      6          7           0        1.228287   -1.153832    0.346556
      7          8           0        1.006933   -1.322326    1.546331
      8          8           0        2.267550   -1.437061   -0.236701
      9          6           0        1.187624    1.677088   -0.183307
     10          7           0        2.204976    2.246776   -0.320595
     11          7           0       -0.616352    1.174160    1.330326
     12          1           0       -0.129118    0.589993    1.999019
     13          1           0       -1.588146    0.865414    1.280034
     14         17           0       -3.164192   -0.181193   -0.176732
 ---------------------------------------------------------------------

 SCF Done:  E(RHF) =  -988.149998444     A.U. after    2 cycles

 The electronic state is 1-A.
 Alpha  occ. eigenvalues -- -103.39727 -26.05050 -20.53998 -20.53258 -15.82665
 Alpha  occ. eigenvalues --  -15.55039 -15.51092 -11.30097 -11.22924 -11.19805
 Alpha  occ. eigenvalues --  -10.42830  -8.08428  -8.08403  -8.08392  -1.59325
 Alpha  occ. eigenvalues --   -1.45781  -1.27805  -1.10998  -1.06926  -0.99003
 Alpha  occ. eigenvalues --   -0.86778  -0.85244  -0.78526  -0.72075  -0.70009
 Alpha  occ. eigenvalues --   -0.68383  -0.64031  -0.63758  -0.61522  -0.58066
 Alpha  occ. eigenvalues --   -0.52441  -0.49936  -0.48155  -0.45042  -0.43491
 Alpha  occ. eigenvalues --   -0.41910  -0.38982  -0.36397  -0.35983  -0.31230
 Alpha  occ. eigenvalues --   -0.23244  -0.23008  -0.22882
 Alpha virt. eigenvalues --    0.14024   0.14192   0.15231   0.16352   0.17509
 Alpha virt. eigenvalues --    0.18681   0.20396   0.21384   0.21653   0.22509
 Alpha virt. eigenvalues --    0.24031   0.24689   0.25121   0.26037   0.26564

 Mulliken charges:
               1
     1  C    1.318571
     2  C    0.651336
     3  F   -0.321747
     4  H   -0.018005
     5  H   -0.155090
     6  N    0.411111
     7  O   -0.631493
     8  O   -0.552011
     9  C   -0.345627
    10  N   -0.217549
    11  N   -0.375916
    12  H    0.057531
    13  H    0.104095
    14  Cl  -0.925205
 Sum of Mulliken charges =  -1.00000

 Dipole moment (field-independent basis, Debye):
    X=              5.1467    Y=             -0.8982    Z=              0.6644  Tot=              5.2666

 Test job not archived.
 1\1\GINC-SE054\SP\RHF\Aug-CC-pVDZ\C3H4Cl1F1N3O2(1-)\OHZDE\09-Apr-2025\
 0\\#t hf aug-cc-pvdz iop(5/13=1,5/36=2,99/5=2) pseudo=read geom=check
 guess=(read,tcheck) scf=(maxcycle=1)\\title\\-1,1\C,0,-0.47136,0.15342
 4,0.041289\C,0,-0.659422,-0.495719,-1.33905\F,0,0.500227,-0.499039,0.7
 30347\H,0,-0.840687,-1.546476,-1.091129\H,0,-1.418202,0.128474,0.58230
 6\N,0,-0.03524,1.586644,-0.107017\O,0,-0.883579,2.345594,-0.577299\O,0
 ,1.105006,1.898094,0.214406\C,0,0.598359,-0.394222,-2.099814\N,0,1.598
 015,-0.293421,-2.707206\N,0,-1.783676,-0.042723,-2.126467\H,0,-1.81356

 Normal termination of Gaussian 16 at Wed Apr  9 02:41:09 2025.
