 Gaussian 16, Revision C.01,

 ----------------------------------------------------------------------
 #t hf aug-cc-pvdz symm=none int=(grid=ultrafine) guess=(read,tcheck) s
 table=(opt,rrhf)
 ----------------------------------------------------------------------
 -----
 title
 -----
 Symbolic Z-matrix:
 Charge = -1 Multiplicity = 1

 SCF Done:  E(RHF) =  -1055.70341270     A.U. after   17 cycles
 Normal termination of Gaussian 16 at Wed Apr  9 02:49:19 2025.
 Gaussian 16:  ES64L-G16RevC.01  3-Jul-2019

 ----------------------------------------------------------------------
 #t hf aug-cc-pvdz iop(5/13=1,5/36=2,99/5=2) pseudo=read geom=check gue
 ss=(read,tcheck) scf=(maxcycle=1)
 ----------------------------------------------------------------------
 -----
 title
 -----
 Structure from the checkpoint file:  "E2SN2_29_mol1.chk"
 Charge = -1 Multiplicity = 1

                         Standard orientation:
 ---------------------------------------------------------------------
 Center     Atomic      Atomic             Coordinates (Angstroms)
 Number     Number       Type             X           Y           Z
 ---------------------------------------------------------------------
      1          6           0       -0.022199    0.031407    0.095970
      2          6           0        1.343145   -0.175066   -0.393440
      3         17           0       -0.226689    0.203177    1.912809
      4          1           0        2.334668   -0.060954   -2.554349
      5          1           0        1.473177   -0.037645   -1.606038
      6          7           0       -0.709538    1.282010   -0.447867
      7          8           0       -1.935629    1.265795   -0.478784
      8          8           0        0.003382    2.218495   -0.793003
      9          7           0       -0.891503   -1.129589   -0.388951
     10          8           0       -1.352866   -1.919572    0.415307
     11          8           0       -1.029322   -1.155062   -1.605277
     12          7           0        1.705844   -1.558995   -0.222851
     13          1           0        2.279384   -1.630469    0.611649
     14          1           0        2.292052   -1.776912   -1.032736
     15          7           0        2.337538    0.721096    0.184162
     16          1           0        3.028548    0.781884   -0.574223
     17          1           0        1.939292    1.653147    0.245364
 ---------------------------------------------------------------------

 SCF Done:  E(RHF) =  -1055.90035762     A.U. after    2 cycles

 The electronic state is 1-A.
 Alpha  occ. eigenvalues -- -103.57767 -20.53559 -20.53241 -20.52289 -20.51795
 Alpha  occ. eigenvalues --  -15.83173 -15.82183 -15.48375 -15.48192 -11.33073
 Alpha  occ. eigenvalues --  -11.15831 -10.60998  -8.26719  -8.26413  -8.26398
 Alpha  occ. eigenvalues --   -1.46458  -1.44391  -1.27778  -1.26804  -1.12746
 Alpha  occ. eigenvalues --   -1.06100  -0.97929  -0.97059  -0.85226  -0.77710
 Alpha  occ. eigenvalues --   -0.71732  -0.69427  -0.64951  -0.64557  -0.63278
 Alpha  occ. eigenvalues --   -0.60885  -0.59711  -0.53709  -0.52182  -0.47943
 Alpha  occ. eigenvalues --   -0.46993  -0.44075  -0.42688  -0.41990  -0.40531
 Alpha  occ. eigenvalues --   -0.40143  -0.38517  -0.37465  -0.36933  -0.36503
 Alpha  occ. eigenvalues --   -0.29840  -0.26485  -0.11064
 Alpha virt. eigenvalues --    0.13089   0.14085   0.14551   0.15947   0.17351
 Alpha virt. eigenvalues --    0.17653   0.18368   0.19406   0.20585   0.22143
 Alpha virt. eigenvalues --    0.22516   0.23482   0.25341   0.25730   0.26394

 Mulliken charges:
               1
     1  C    1.113436
     2  C    0.662023
     3  Cl  -0.069445
     4  H   -0.692457
     5  H    0.342079
     6  N    0.263211
     7  O   -0.573332
     8  O   -0.572276
     9  N    0.344661
    10  O   -0.640724
    11  O   -0.560736
    12  N   -0.327288
    13  H    0.018390
    14  H    0.028379
    15  N   -0.453840
    16  H    0.051484
    17  H    0.066435
 Sum of Mulliken charges =  -1.00000

 Dipole moment (field-independent basis, Debye):
    X=             -3.2940    Y=              0.9701    Z=              7.3712  Tot=              8.1318

 Test job not archived.
 1\1\GINC-SE115\SP\RHF\Aug-CC-pVDZ\C2H6Cl1N4O4(1-)\OHZDE\09-Apr-2025\0\
 \#t hf aug-cc-pvdz iop(5/13=1,5/36=2,99/5=2) pseudo=read geom=check gu
 ess=(read,tcheck) scf=(maxcycle=1)\\title\\-1,1\C,0,-0.00158912,0.0293
 74,-0.37665642\C,0,-0.17556409,0.00938025,1.07787173\Cl,0,1.72656383,0
 .02350155,-0.99768618\H,0,-2.04729042,-0.40082764,2.48997542\H,0,-1.31
 986467,-0.2347834,1.44820482\N,0,-0.63465748,-1.15217069,-1.10835147\O
 ,0,-0.94451991,-0.97020533,-2.28112228\O,0,-0.76884555,-2.20077259,-0.
 48641429\N,0,-0.71993283,1.25918179,-0.93370691\O,0,-0.07568167,2.1628

 Normal termination of Gaussian 16 at Wed Apr  9 02:49:29 2025.
