 Gaussian 16, Revision C.01,

 ----------------------------------------------------------------------
 #t hf aug-cc-pvdz symm=none int=(grid=ultrafine) guess=(read,tcheck) s
 table=(opt,rrhf)
 ----------------------------------------------------------------------
 -----
 title
 -----
 Symbolic Z-matrix:
 Charge = -1 Multiplicity = 1

 SCF Done:  E(RHF) =  -862.492667071     A.U. after   15 cycles
 Normal termination of Gaussian 16 at Wed Apr  9 02:28:37 2025.
 Gaussian 16:  ES64L-G16RevC.01  3-Jul-2019

 ----------------------------------------------------------------------
 #t hf aug-cc-pvdz iop(5/13=1,5/36=2,99/5=2) pseudo=read geom=check gue
 ss=(read,tcheck) scf=(maxcycle=1)
 ----------------------------------------------------------------------
 -----
 title
 -----
 Structure from the checkpoint file:  "E2SN2_108_mol2.chk"
 Charge = -1 Multiplicity = 1

                         Standard orientation:
 ---------------------------------------------------------------------
 Center     Atomic      Atomic             Coordinates (Angstroms)
 Number     Number       Type             X           Y           Z
 ---------------------------------------------------------------------
      1          6           0        0.258898   -0.607284    0.386600
      2          6           0       -0.309937    0.726169   -0.140202
      3         17           0        1.327639   -1.269103   -0.931969
      4          1           0       -0.775813    0.513469   -1.108119
      5          6           0        1.114758   -0.417163    1.623844
      6          1           0        0.504861    0.105581    2.364381
      7          1           0        2.005939    0.176697    1.409527
      8          1           0        1.425071   -1.386199    2.023395
      9          6           0       -0.884665   -1.583516    0.618332
     10          1           0       -0.497772   -2.603762    0.688727
     11          1           0       -1.646441   -1.467135   -0.160016
     12          1           0       -1.367112   -1.315697    1.561450
     13          6           0        0.756998    1.719201   -0.305384
     14          7           0        1.582913    2.548152   -0.415416
     15          7           0       -1.342131    1.188527    0.794907
     16          1           0       -2.187787    0.765663    0.320635
     17          1           0       -1.423327    2.196007    0.698745
     18          9           0       -2.878807   -0.065675   -0.856758
 ---------------------------------------------------------------------

 SCF Done:  E(RHF) =  -862.629593676     A.U. after    2 cycles

 The electronic state is 1-A.
 Alpha  occ. eigenvalues -- -103.52146 -25.75626 -15.51990 -15.46000 -11.19176
 Alpha  occ. eigenvalues --  -11.17147 -11.17002 -11.11837 -11.08980 -10.55523
 Alpha  occ. eigenvalues --   -8.21228  -8.20977  -8.20969  -1.24625  -1.08134
 Alpha  occ. eigenvalues --   -1.04865  -1.00908  -0.90669  -0.81961  -0.81461
 Alpha  occ. eigenvalues --   -0.65123  -0.58169  -0.53650  -0.50244  -0.47595
 Alpha  occ. eigenvalues --   -0.46419  -0.44434  -0.42969  -0.41518  -0.40396
 Alpha  occ. eigenvalues --   -0.38586  -0.36980  -0.35272  -0.34416  -0.33520
 Alpha  occ. eigenvalues --   -0.33107  -0.32173  -0.31776  -0.31442  -0.25449
 Alpha virt. eigenvalues --    0.12222   0.13759   0.14141   0.14967   0.15793
 Alpha virt. eigenvalues --    0.16445   0.16976   0.18635   0.19131   0.20282
 Alpha virt. eigenvalues --    0.20851   0.22760   0.23661   0.24400   0.24944

 Mulliken charges:
               1
     1  C   -2.006608
     2  C    1.556067
     3  Cl  -0.303544
     4  H   -0.077594
     5  C    0.824792
     6  H    0.029999
     7  H   -0.105135
     8  H   -0.017653
     9  C    1.045737
    10  H   -0.086004
    11  H    0.000987
    12  H    0.072137
    13  C   -0.337416
    14  N   -0.306272
    15  N   -0.541975
    16  H    0.255791
    17  H   -0.029404
    18  F   -0.973906
 Sum of Mulliken charges =  -1.00000

 Dipole moment (field-independent basis, Debye):
    X=              5.1113    Y=             -1.7534    Z=              3.6197  Tot=              6.5040

 Test job not archived.
 1\1\GINC-SE322\SP\RHF\Aug-CC-pVDZ\C5H9Cl1F1N2(1-)\OHZDE\09-Apr-2025\0\
 \#t hf aug-cc-pvdz iop(5/13=1,5/36=2,99/5=2) pseudo=read geom=check gu
 ess=(read,tcheck) scf=(maxcycle=1)\\title\\-1,1\C,0,-0.369308,0.00333,
 -1.493399\C,0,-0.067499,-0.15501,0.010938\Cl,0,0.021601,-1.597884,-2.2
 69376\H,0,0.962698,-0.517157,0.092713\C,0,-1.832868,0.299915,-1.756925
 \H,0,-2.094818,1.187537,-1.176288\H,0,-2.47325,-0.530357,-1.451368\H,0
 ,-1.994908,0.49687,-2.819901\C,0,0.550818,1.063101,-2.080525\H,0,0.575
 997,0.975326,-3.170115\H,0,1.54378,0.999237,-1.622681\H,0,0.150152,2.0

 Normal termination of Gaussian 16 at Wed Apr  9 02:28:47 2025.
