 Gaussian 16, Revision C.01,

 ----------------------------------------------------------------------
 #t hf aug-cc-pvdz symm=none int=(grid=ultrafine) guess=(read,tcheck) s
 table=(opt,rrhf)
 ----------------------------------------------------------------------
 -----
 title
 -----
 Symbolic Z-matrix:
 Charge = -1 Multiplicity = 1

 SCF Done:  E(RHF) =  -575.115566325     A.U. after   16 cycles
 Normal termination of Gaussian 16 at Wed Apr  9 02:56:31 2025.
 Gaussian 16:  ES64L-G16RevC.01  3-Jul-2019

 ----------------------------------------------------------------------
 #t hf aug-cc-pvdz iop(5/13=1,5/36=2,99/5=2) pseudo=read geom=check gue
 ss=(read,tcheck) scf=(maxcycle=1)
 ----------------------------------------------------------------------
 -----
 title
 -----
 Structure from the checkpoint file:  "E2SN2_400_mol1.chk"
 Charge = -1 Multiplicity = 1

                         Standard orientation:
 ---------------------------------------------------------------------
 Center     Atomic      Atomic             Coordinates (Angstroms)
 Number     Number       Type             X           Y           Z
 ---------------------------------------------------------------------
      1          6           0       -0.904003    0.095114    0.003061
      2          1           0        0.176195   -1.665632   -0.595201
      3          9           0        0.184639    1.521476    0.442933
      4          9           0       -1.908653   -1.286467   -0.560325
      5          6           0        0.274647   -0.587253   -0.681483
      6          1           0        0.277811   -0.266085   -1.718447
      7          7           0       -1.695784    0.992526   -0.798321
      8          1           0       -1.614590    1.903726   -0.371584
      9          1           0       -2.642628    0.642826   -0.782174
     10          6           0       -1.209429   -0.150478    1.466446
     11          1           0       -2.133778   -0.720080    1.552780
     12          1           0       -0.392465   -0.705565    1.928431
     13          1           0       -1.290426    0.809330    1.973328
     14          7           0        1.627027   -0.274868   -0.137956
     15          8           0        2.429544    0.305065   -0.865803
     16          8           0        1.901708   -0.715253    0.977701
 ---------------------------------------------------------------------

 SCF Done:  E(RHF) =  -575.291196733     A.U. after    2 cycles

 The electronic state is 1-A.
 Alpha  occ. eigenvalues --  -25.82872 -25.80875 -20.46616 -20.46239 -15.76001
 Alpha  occ. eigenvalues --  -15.46304 -11.23928 -11.15338 -11.08214  -1.38857
 Alpha  occ. eigenvalues --   -1.33521  -1.31446  -1.20445  -1.02180  -0.93583
 Alpha  occ. eigenvalues --   -0.84096  -0.73217  -0.65459  -0.59344  -0.59135
 Alpha  occ. eigenvalues --   -0.56040  -0.54836  -0.51072  -0.47662  -0.46100
 Alpha  occ. eigenvalues --   -0.44872  -0.41397  -0.41032  -0.39799  -0.38602
 Alpha  occ. eigenvalues --   -0.37970  -0.36480  -0.35536  -0.35312  -0.34639
 Alpha  occ. eigenvalues --   -0.32089  -0.25945
 Alpha virt. eigenvalues --    0.13440   0.14302   0.14802   0.16005   0.16424
 Alpha virt. eigenvalues --    0.17128   0.17722   0.22436   0.23031   0.23663
 Alpha virt. eigenvalues --    0.25008   0.26177   0.26648   0.27414   0.27798

 Mulliken charges:
               1
     1  C   -0.090600
     2  H    0.024448
     3  F   -0.798791
     4  F   -0.756192
     5  C    1.034624
     6  H   -0.135965
     7  N   -0.499271
     8  H    0.040418
     9  H    0.032936
    10  C    0.827999
    11  H    0.034969
    12  H    0.004980
    13  H   -0.019500
    14  N    0.649108
    15  O   -0.668646
    16  O   -0.680517
 Sum of Mulliken charges =  -1.00000

 Dipole moment (field-independent basis, Debye):
    X=             -1.6494    Y=             -0.9341    Z=              0.3613  Tot=              1.9296

 Test job not archived.
 1\1\GINC-SE036\SP\RHF\Aug-CC-pVDZ\C3H7F2N2O2(1-)\OHZDE\09-Apr-2025\0\\
 #t hf aug-cc-pvdz iop(5/13=1,5/36=2,99/5=2) pseudo=read geom=check gue
 ss=(read,tcheck) scf=(maxcycle=1)\\title\\-1,1\C,0,0.68405497,-0.08707
 977,0.06753812\H,0,1.81131036,1.62621669,0.71474855\F,0,-1.1448853,0.1
 265046,0.21753498\F,0,2.46394708,-0.18394191,-0.17348752\C,0,0.8675087
 ,1.41856463,0.21860625\H,0,0.83342575,1.8509449,-0.77655165\N,0,0.4800
 1092,-0.59056595,-1.26638317\H,0,-0.43247702,-1.0222047,-1.27233819\H,
 0,1.22032425,-1.25273623,-1.44674633\C,0,0.69744981,-1.0029078,1.27425

 Normal termination of Gaussian 16 at Wed Apr  9 02:56:40 2025.
