 Gaussian 16, Revision C.01,

 ----------------------------------------------------------------------
 #t hf aug-cc-pvdz symm=none int=(grid=ultrafine) guess=(read,tcheck) s
 table=(opt,rrhf)
 ----------------------------------------------------------------------
 -----
 title
 -----
 Symbolic Z-matrix:
 Charge = -1 Multiplicity = 1

 SCF Done:  E(RHF) =  -380.445484560     A.U. after   15 cycles
 Normal termination of Gaussian 16 at Wed Apr  9 02:40:41 2025.
 Gaussian 16:  ES64L-G16RevC.01  3-Jul-2019

 ----------------------------------------------------------------------
 #t hf aug-cc-pvdz iop(5/13=1,5/36=2,99/5=2) pseudo=read geom=check gue
 ss=(read,tcheck) scf=(maxcycle=1)
 ----------------------------------------------------------------------
 -----
 title
 -----
 Structure from the checkpoint file:  "E2SN2_22_mol2.chk"
 Charge = -1 Multiplicity = 1

                         Standard orientation:
 ---------------------------------------------------------------------
 Center     Atomic      Atomic             Coordinates (Angstroms)
 Number     Number       Type             X           Y           Z
 ---------------------------------------------------------------------
      1          6           0        0.714149   -0.610740   -0.355395
      2          6           0       -0.260215    0.567806   -0.289011
      3          9           0        0.465432   -1.403718    0.807836
      4          1           0       -0.103769    1.150652   -1.205878
      5          1           0        0.451104   -1.288036   -1.179118
      6          7           0        2.041635   -0.154054   -0.370940
      7          1           0        2.620279   -0.683672   -1.005432
      8          1           0        2.109164    0.867918   -0.581109
      9          7           0       -0.020150    1.482098    0.813736
     10          1           0        0.355146    0.947386    1.589293
     11          1           0        0.723880    2.104351    0.457671
     12          6           0       -1.645320    0.067091   -0.273287
     13          7           0       -2.745952   -0.342624   -0.287147
     14          1           0        1.874893    2.491989   -0.929335
 ---------------------------------------------------------------------

 SCF Done:  E(RHF) =  -380.564469521     A.U. after    2 cycles

 The electronic state is 1-A.
 Alpha  occ. eigenvalues --  -25.97028 -15.51821 -15.47397 -15.47327 -11.23425
 Alpha  occ. eigenvalues --  -11.17958 -11.17022  -1.50020  -1.08011  -1.04922
 Alpha  occ. eigenvalues --   -1.00774  -0.85725  -0.74540  -0.63041  -0.61230
 Alpha  occ. eigenvalues --   -0.60582  -0.55679  -0.52098  -0.49547  -0.47306
 Alpha  occ. eigenvalues --   -0.43442  -0.42211  -0.41395  -0.33484  -0.32834
 Alpha  occ. eigenvalues --   -0.28815  -0.27037  -0.11131
 Alpha virt. eigenvalues --    0.12566   0.14246   0.15209   0.15779   0.18833
 Alpha virt. eigenvalues --    0.19333   0.19790   0.21183   0.22023   0.23425
 Alpha virt. eigenvalues --    0.24277   0.24885   0.25518   0.26598   0.27321

 Mulliken charges:
               1
     1  C    1.325673
     2  C    0.661038
     3  F   -0.473062
     4  H   -0.115607
     5  H   -0.301875
     6  N   -0.362468
     7  H   -0.009813
     8  H    0.010510
     9  N   -0.401544
    10  H    0.051520
    11  H    0.121592
    12  C   -0.568596
    13  N   -0.237884
    14  H   -0.699483
 Sum of Mulliken charges =  -1.00000

 Dipole moment (field-independent basis, Debye):
    X=             -1.4165    Y=             -6.8849    Z=              0.3530  Tot=              7.0380

 Test job not archived.
 1\1\GINC-SE454\SP\RHF\Aug-CC-pVDZ\C3H7F1N3(1-)\OHZDE\09-Apr-2025\0\\#t
  hf aug-cc-pvdz iop(5/13=1,5/36=2,99/5=2) pseudo=read geom=check guess
 =(read,tcheck) scf=(maxcycle=1)\\title\\-1,1\C,0,-0.273695,0.058734,-1
 .507018\C,0,0.000197,0.177946,-0.00584\F,0,-1.652264,-0.296862,-1.6369
 36\H,0,1.045302,0.498434,0.093521\H,0,-0.223939,1.043141,-1.991694\N,0
 ,0.548963,-0.922348,-2.082982\H,0,0.897834,-0.644922,-2.988094\H,0,1.3
 38561,-1.198826,-1.455883\N,0,-0.107072,-1.073324,0.723837\H,0,-0.8114
 3,-1.643253,0.268519\H,0,0.814005,-1.519179,0.58104\C,0,-0.872467,1.21

 Normal termination of Gaussian 16 at Wed Apr  9 02:40:46 2025.
