 Gaussian 16, Revision C.01,

 ----------------------------------------------------------------------
 #t hf aug-cc-pvdz symm=none int=(grid=ultrafine) guess=(read,tcheck) s
 table=(opt,rrhf)
 ----------------------------------------------------------------------
 -----
 title
 -----
 Symbolic Z-matrix:
 Charge = -1 Multiplicity = 1

 SCF Done:  E(RHF) =  -1222.60071855     A.U. after   15 cycles
 Normal termination of Gaussian 16 at Wed Apr  9 02:52:11 2025.
 Gaussian 16:  ES64L-G16RevC.01  3-Jul-2019

 ----------------------------------------------------------------------
 #t hf aug-cc-pvdz iop(5/13=1,5/36=2,99/5=2) pseudo=read geom=check gue
 ss=(read,tcheck) scf=(maxcycle=1)
 ----------------------------------------------------------------------
 -----
 title
 -----
 Structure from the checkpoint file:  "E2SN2_341_mol2.chk"
 Charge = -1 Multiplicity = 1

                         Standard orientation:
 ---------------------------------------------------------------------
 Center     Atomic      Atomic             Coordinates (Angstroms)
 Number     Number       Type             X           Y           Z
 ---------------------------------------------------------------------
      1          6           0        0.910199    0.103903   -0.199699
      2          6           0        0.244534   -0.494874    1.081634
      3         17           0        2.459582   -0.802130   -0.528769
      4          1           0        1.058428   -0.575515    1.814832
      5          6           0        0.037445    0.055345   -1.441372
      6          1           0       -0.089716   -0.980637   -1.755696
      7          1           0       -0.956844    0.455562   -1.222651
      8          1           0        0.500268    0.616725   -2.255361
      9          6           0        1.322898    1.478298    0.094931
     10          7           0        1.643682    2.578832    0.354857
     11          6           0       -0.338038   -1.874688    0.807985
     12          1           0       -0.628260   -2.319152    1.761813
     13          1           0       -1.240040   -1.778006    0.199502
     14          1           0        0.379106   -2.532841    0.313200
     15          7           0       -0.796346    0.337592    1.636832
     16          1           0       -1.629954    0.343347    1.044954
     17          1           0       -0.485610    1.288731    1.790467
     18         17           0       -3.394932    0.182066   -0.512040
 ---------------------------------------------------------------------

 SCF Done:  E(RHF) =  -1222.72079858     A.U. after    2 cycles

 The electronic state is 1-A.
 Alpha  occ. eigenvalues -- -103.56529-103.37630 -15.55285 -15.48093 -11.24793
 Alpha  occ. eigenvalues --  -11.20298 -11.17901 -11.13120 -11.11572 -10.59850
 Alpha  occ. eigenvalues --  -10.40705  -8.25559  -8.25285  -8.25280  -8.06304
 Alpha  occ. eigenvalues --   -8.06278  -8.06272  -1.11715  -1.07357  -1.04114
 Alpha  occ. eigenvalues --   -0.92841  -0.87202  -0.83037  -0.80554  -0.70418
 Alpha  occ. eigenvalues --   -0.59546  -0.56203  -0.53963  -0.50201  -0.47925
 Alpha  occ. eigenvalues --   -0.46582  -0.44561  -0.42835  -0.42098  -0.40854
 Alpha  occ. eigenvalues --   -0.38984  -0.37633  -0.37039  -0.35559  -0.35068
 Alpha  occ. eigenvalues --   -0.27084  -0.20922  -0.20753  -0.20714
 Alpha virt. eigenvalues --    0.11968   0.12668   0.13586   0.14522   0.15558
 Alpha virt. eigenvalues --    0.15928   0.17296   0.17614   0.18992   0.19397
 Alpha virt. eigenvalues --    0.20468   0.21334   0.22749   0.23384   0.23797

 Mulliken charges:
               1
     1  C   -0.427078
     2  C    0.223856
     3  Cl  -0.179652
     4  H   -0.268465
     5  C    1.026019
     6  H   -0.071467
     7  H   -0.006297
     8  H   -0.102693
     9  C   -0.394120
    10  N   -0.251763
    11  C    0.876141
    12  H   -0.085189
    13  H   -0.055967
    14  H   -0.057838
    15  N   -0.306435
    16  H    0.065507
    17  H   -0.038838
    18  Cl  -0.945722
 Sum of Mulliken charges =  -1.00000

 Dipole moment (field-independent basis, Debye):
    X=              9.8537    Y=             -3.0311    Z=              0.4923  Tot=             10.3211

 Test job not archived.
 1\1\GINC-SE435\SP\RHF\Aug-CC-pVDZ\C5H9Cl2N2(1-)\OHZDE\09-Apr-2025\0\\#
 t hf aug-cc-pvdz iop(5/13=1,5/36=2,99/5=2) pseudo=read geom=check gues
 s=(read,tcheck) scf=(maxcycle=1)\\title\\-1,1\C,0,0.047553,-0.048987,-
 0.015368\C,0,-0.413564,-0.133237,-1.506586\Cl,0,1.81982,0.383897,0.022
 73\H,0,0.359362,-0.728756,-2.011015\C,0,-0.723221,0.95451,0.824102\H,0
 ,-0.486053,1.964971,0.491012\H,0,-1.799856,0.811102,0.694047\H,0,-0.45
 3503,0.857883,1.877594\C,0,-0.033973,-1.390066,0.568541\N,0,-0.109037,
 -2.474897,1.014798\C,0,-0.490725,1.249243,-2.139798\H,0,-0.64113,1.125

 Normal termination of Gaussian 16 at Wed Apr  9 02:52:22 2025.
