 Gaussian 16, Revision C.01,

 ----------------------------------------------------------------------
 #t hf aug-cc-pvdz symm=none int=(grid=ultrafine) guess=(read,tcheck) s
 table=(opt,rrhf)
 ----------------------------------------------------------------------
 -----
 title
 -----
 Symbolic Z-matrix:
 Charge = -1 Multiplicity = 1

 SCF Done:  E(RHF) =  -366.773775713     A.U. after   14 cycles
 Normal termination of Gaussian 16 at Wed Apr  9 02:42:00 2025.
 Gaussian 16:  ES64L-G16RevC.01  3-Jul-2019

 ----------------------------------------------------------------------
 #t hf aug-cc-pvdz iop(5/13=1,5/36=2,99/5=2) pseudo=read geom=check gue
 ss=(read,tcheck) scf=(maxcycle=1)
 ----------------------------------------------------------------------
 -----
 title
 -----
 Structure from the checkpoint file:  "E2SN2_23_mol2.chk"
 Charge = -1 Multiplicity = 1

                         Standard orientation:
 ---------------------------------------------------------------------
 Center     Atomic      Atomic             Coordinates (Angstroms)
 Number     Number       Type             X           Y           Z
 ---------------------------------------------------------------------
      1          6           0        0.639196   -0.017000    0.022727
      2          6           0       -0.839065    0.007927   -0.413496
      3          9           0        0.661516   -0.433176    1.382714
      4          1           0       -0.810648    0.200454   -1.493433
      5          6           0        1.478361   -1.012643   -0.754501
      6          1           0        2.489135   -0.993557   -0.344396
      7          1           0        1.077333   -2.026488   -0.695546
      8          1           0        1.523460   -0.698064   -1.800019
      9          7           0        1.287295    1.271751   -0.017511
     10          1           0        0.944760    1.788235    0.787025
     11          1           0        0.892865    1.802718   -0.824649
     12          7           0       -1.597183    1.120089    0.149511
     13          1           0       -1.311524    1.257598    1.114270
     14          1           0       -1.310283    1.945478   -0.395647
     15          6           0       -1.567767   -1.304400   -0.134606
     16          1           0       -1.582324   -1.507311    0.939448
     17          1           0       -1.111288   -2.161123   -0.638926
     18          1           0       -2.599792   -1.205182   -0.476592
     19          1           0       -0.250472    2.709641   -1.860702
 ---------------------------------------------------------------------

 SCF Done:  E(RHF) =  -366.891442452     A.U. after    2 cycles

 The electronic state is 1-A.
 Alpha  occ. eigenvalues --  -25.96629 -15.44976 -15.44947 -11.20919 -11.12246
 Alpha  occ. eigenvalues --  -11.10502 -11.09946  -1.49743  -1.04297  -0.98355
 Alpha  occ. eigenvalues --   -0.88247  -0.83523  -0.73667  -0.67261  -0.60229
 Alpha  occ. eigenvalues --   -0.59073  -0.55249  -0.51267  -0.50026  -0.44756
 Alpha  occ. eigenvalues --   -0.44526  -0.42902  -0.41918  -0.41415  -0.39566
 Alpha  occ. eigenvalues --   -0.35974  -0.35039  -0.25797  -0.24068  -0.08820
 Alpha virt. eigenvalues --    0.12244   0.12934   0.13685   0.14817   0.15407
 Alpha virt. eigenvalues --    0.15917   0.16306   0.17818   0.18607   0.20215
 Alpha virt. eigenvalues --    0.21326   0.21624   0.22460   0.24192   0.24960

 Mulliken charges:
               1
     1  C   -0.325602
     2  C    0.000672
     3  F   -0.484574
     4  H   -0.105754
     5  C    0.780342
     6  H   -0.037662
     7  H   -0.007480
     8  H    0.064302
     9  N   -0.444807
    10  H   -0.022553
    11  H    0.110341
    12  N   -0.397610
    13  H    0.032971
    14  H    0.067795
    15  C    0.661945
    16  H   -0.009655
    17  H   -0.075023
    18  H   -0.044238
    19  H   -0.763408
 Sum of Mulliken charges =  -1.00000

 Dipole moment (field-independent basis, Debye):
    X=              0.8103    Y=             -9.4020    Z=              5.1532  Tot=             10.7522

 Test job not archived.
 1\1\GINC-SE332\SP\RHF\Aug-CC-pVDZ\C4H12F1N2(1-)\OHZDE\09-Apr-2025\0\\#
 t hf aug-cc-pvdz iop(5/13=1,5/36=2,99/5=2) pseudo=read geom=check gues
 s=(read,tcheck) scf=(maxcycle=1)\\title\\-1,1\C,0,-0.162884,0.106576,-
 1.477504\C,0,0.054143,0.177629,0.046969\F,0,-1.546623,-0.148304,-1.686
 236\H,0,1.094308,0.505488,0.168221\C,0,0.156315,1.405983,-2.191114\H,0
 ,-0.073364,1.27403,-3.249439\H,0,-0.415012,2.247244,-1.793565\H,0,1.22
 5059,1.611196,-2.092244\N,0,0.549501,-0.968698,-2.12467\H,0,0.043011,-
 1.82044,-1.902485\H,0,1.457127,-1.096477,-1.625811\N,0,-0.013255,-1.12

 Normal termination of Gaussian 16 at Wed Apr  9 02:42:07 2025.
