 Gaussian 16, Revision C.01,

 ----------------------------------------------------------------------
 #t hf aug-cc-pvdz symm=none int=(grid=ultrafine) guess=(read,tcheck) s
 table=(opt,rrhf)
 ----------------------------------------------------------------------
 -----
 title
 -----
 Symbolic Z-matrix:
 Charge = -1 Multiplicity = 1

 SCF Done:  E(RHF) =  -825.752730435     A.U. after   15 cycles
 Normal termination of Gaussian 16 at Wed Apr  9 02:35:26 2025.
 Gaussian 16:  ES64L-G16RevC.01  3-Jul-2019

 ----------------------------------------------------------------------
 #t hf aug-cc-pvdz iop(5/13=1,5/36=2,99/5=2) pseudo=read geom=check gue
 ss=(read,tcheck) scf=(maxcycle=1)
 ----------------------------------------------------------------------
 -----
 title
 -----
 Structure from the checkpoint file:  "E2SN2_159_mol1.chk"
 Charge = -1 Multiplicity = 1

                         Standard orientation:
 ---------------------------------------------------------------------
 Center     Atomic      Atomic             Coordinates (Angstroms)
 Number     Number       Type             X           Y           Z
 ---------------------------------------------------------------------
      1          6           0       -0.169204   -0.505283    0.042447
      2          6           0        0.619374    0.682064    0.159169
      3         17           0       -2.213021    0.075008   -0.228421
      4          9           0        2.752601   -0.710426   -0.074542
      5          1           0        1.848731   -0.051701    0.151731
      6          7           0        0.030950   -1.322733   -1.136548
      7          1           0        1.039173   -1.482563   -1.153091
      8          1           0       -0.205901   -0.771662   -1.952477
      9          6           0       -0.274383   -1.368523    1.273102
     10          1           0       -0.991079   -2.168560    1.092167
     11          1           0        0.720211   -1.798259    1.439789
     12          1           0       -0.554863   -0.778678    2.141604
     13          7           0        0.360772    1.408956    1.393548
     14          1           0       -0.515576    1.922159    1.284834
     15          1           0        1.097625    2.090182    1.536179
     16          6           0        0.722944    1.555127   -1.077507
     17          1           0       -0.257298    1.978813   -1.346320
     18          1           0        1.413202    2.383881   -0.883905
     19          1           0        1.119284    1.011226   -1.938756
 ---------------------------------------------------------------------

 SCF Done:  E(RHF) =  -825.880550652     A.U. after    2 cycles

 The electronic state is 1-A.
 Alpha  occ. eigenvalues -- -103.43600 -25.84452 -15.47134 -15.46053 -11.19235
 Alpha  occ. eigenvalues --  -11.08392 -11.08333 -11.06976 -10.46863  -8.12512
 Alpha  occ. eigenvalues --   -8.12364  -8.12362  -1.35493  -1.05256  -0.99297
 Alpha  occ. eigenvalues --   -0.90439  -0.84736  -0.83163  -0.72089  -0.58683
 Alpha  occ. eigenvalues --   -0.55602  -0.51492  -0.50261  -0.47398  -0.46498
 Alpha  occ. eigenvalues --   -0.44626  -0.43639  -0.42015  -0.41553  -0.40328
 Alpha  occ. eigenvalues --   -0.38156  -0.36251  -0.30496  -0.27721  -0.26132
 Alpha  occ. eigenvalues --   -0.26072  -0.24376  -0.16996
 Alpha virt. eigenvalues --    0.12736   0.13659   0.14170   0.15374   0.15714
 Alpha virt. eigenvalues --    0.16108   0.17046   0.17507   0.18218   0.19114
 Alpha virt. eigenvalues --    0.19370   0.22433   0.22513   0.25804   0.26093

 Mulliken charges:
               1
     1  C   -0.876663
     2  C   -0.616599
     3  Cl  -0.600523
     4  F   -0.528820
     5  H    0.567376
     6  N   -0.427090
     7  H    0.070969
     8  H    0.041908
     9  C    0.916871
    10  H   -0.028204
    11  H    0.032982
    12  H    0.035956
    13  N   -0.337444
    14  H    0.039449
    15  H   -0.033213
    16  C    0.938139
    17  H    0.023208
    18  H   -0.084304
    19  H   -0.133998
 Sum of Mulliken charges =  -1.00000

 Dipole moment (field-independent basis, Debye):
    X=             -0.2232    Y=              2.0153    Z=             -0.1878  Tot=              2.0363

 Test job not archived.
 1\1\GINC-SE126\SP\RHF\Aug-CC-pVDZ\C4H11Cl1F1N2(1-)\OHZDE\09-Apr-2025\0
 \\#t hf aug-cc-pvdz iop(5/13=1,5/36=2,99/5=2) pseudo=read geom=check g
 uess=(read,tcheck) scf=(maxcycle=1)\\title\\-1,1\C,0,-0.29936666,0.051
 73653,-0.27377985\C,0,-0.26299919,0.09036677,1.15536572\Cl,0,1.7181838
 6,0.02456696,-0.99214245\F,0,-2.77190379,-0.40316723,1.23364876\H,0,-1
 .6819045,-0.06687874,1.26383616\N,0,-0.8156767,-1.15166421,-0.89310706
 \H,0,-1.72275283,-1.2859823,-0.44421272\H,0,-0.22329694,-1.92859322,-0
 .62667508\C,0,-0.83698724,1.27643893,-0.96791685\H,0,-0.70114642,1.170

 Normal termination of Gaussian 16 at Wed Apr  9 02:35:36 2025.
