 Gaussian 16, Revision C.01,

 ----------------------------------------------------------------------
 #t hf aug-cc-pvdz symm=none int=(grid=ultrafine) guess=(read,tcheck) s
 table=(opt,rrhf)
 ----------------------------------------------------------------------
 -----
 title
 -----
 Symbolic Z-matrix:
 Charge = -1 Multiplicity = 1

 SCF Done:  E(RHF) =  -1292.98583702     A.U. after   16 cycles
 Normal termination of Gaussian 16 at Wed Apr  9 02:36:24 2025.
 Gaussian 16:  ES64L-G16RevC.01  3-Jul-2019

 ----------------------------------------------------------------------
 #t hf aug-cc-pvdz iop(5/13=1,5/36=2,99/5=2) pseudo=read geom=check gue
 ss=(read,tcheck) scf=(maxcycle=1)
 ----------------------------------------------------------------------
 -----
 title
 -----
 Structure from the checkpoint file:  "E2SN2_174_mol2.chk"
 Charge = -1 Multiplicity = 1

                         Standard orientation:
 ---------------------------------------------------------------------
 Center     Atomic      Atomic             Coordinates (Angstroms)
 Number     Number       Type             X           Y           Z
 ---------------------------------------------------------------------
      1          6           0       -0.102069    0.726675   -0.177265
      2          6           0        0.326294   -0.336189    0.810700
      3         17           0        1.292220    1.783802   -0.622763
      4          1           0        0.717547    0.080104    1.737007
      5          1           0       -0.479700    0.250830   -1.080590
      6          1           0       -0.545836   -0.983688    0.965540
      7          6           0       -1.128692    1.571279    0.424127
      8          7           0       -1.876480    2.322545    0.928869
      9          7           0        1.398830   -1.202786    0.250630
     10          8           0        2.167571   -1.713480    1.064948
     11          8           0        1.421395   -1.388446   -0.961057
     12         17           0       -2.447126   -1.439140   -0.380469
 ---------------------------------------------------------------------

 SCF Done:  E(RHF) =  -1293.12774392     A.U. after    2 cycles

 The electronic state is 1-A.
 Alpha  occ. eigenvalues -- -103.57645-103.38382 -20.52273 -20.51887 -15.81535
 Alpha  occ. eigenvalues --  -15.55073 -11.25800 -11.21555 -11.20304 -10.60954
 Alpha  occ. eigenvalues --  -10.41480  -8.26675  -8.26380  -8.26365  -8.07078
 Alpha  occ. eigenvalues --   -8.07050  -8.07037  -1.44485  -1.26316  -1.11793
 Alpha  occ. eigenvalues --   -1.07306  -1.00058  -0.88181  -0.83737  -0.74556
 Alpha  occ. eigenvalues --   -0.66645  -0.64516  -0.64215  -0.61281  -0.54631
 Alpha  occ. eigenvalues --   -0.51082  -0.46296  -0.45537  -0.41668  -0.41324
 Alpha  occ. eigenvalues --   -0.39015  -0.38183  -0.37075  -0.35453  -0.35334
 Alpha  occ. eigenvalues --   -0.21970  -0.21620  -0.21467
 Alpha virt. eigenvalues --    0.12864   0.14798   0.16730   0.17521   0.17952
 Alpha virt. eigenvalues --    0.18594   0.21060   0.22020   0.22346   0.23033
 Alpha virt. eigenvalues --    0.24254   0.25459   0.25657   0.26033   0.26733

 Mulliken charges:
               1
     1  C    0.414523
     2  C    1.037944
     3  Cl  -0.127903
     4  H   -0.158463
     5  H    0.066072
     6  H   -0.047269
     7  C   -0.279881
     8  N   -0.210458
     9  N    0.441057
    10  O   -0.621026
    11  O   -0.589085
    12  Cl  -0.925510
 Sum of Mulliken charges =  -1.00000

 Dipole moment (field-independent basis, Debye):
    X=              7.4406    Y=              4.4292    Z=              1.4082  Tot=              8.7728

 Test job not archived.
 1\1\GINC-SE126\SP\RHF\Aug-CC-pVDZ\C3H3Cl2N2O2(1-)\OHZDE\09-Apr-2025\0\
 \#t hf aug-cc-pvdz iop(5/13=1,5/36=2,99/5=2) pseudo=read geom=check gu
 ess=(read,tcheck) scf=(maxcycle=1)\\title\\-1,1\C,0,-0.06745,-0.028089
 ,0.018818\C,0,-0.502084,-0.503217,-1.350341\Cl,0,1.714664,0.259063,0.0
 59322\H,0,-0.023755,-1.43482,-1.646553\H,0,-0.57511,0.905025,0.256742\
 H,0,-1.596632,-0.573161,-1.320126\C,0,-0.378206,-1.048448,1.01445\N,0,
 -0.524664,-1.899923,1.809366\N,0,-0.17377,0.494348,-2.404891\O,0,0.018
 728,0.048438,-3.535817\O,0,-0.161562,1.681152,-2.097463\Cl,0,-3.221861

 Normal termination of Gaussian 16 at Wed Apr  9 02:36:31 2025.
