 Gaussian 16, Revision C.01,

 ----------------------------------------------------------------------
 #t hf aug-cc-pvdz symm=none int=(grid=ultrafine) guess=(read,tcheck) s
 table=(opt,rrhf)
 ----------------------------------------------------------------------
 -----
 title
 -----
 Symbolic Z-matrix:
 Charge = -1 Multiplicity = 1

 SCF Done:  E(RHF) =  -456.176130353     A.U. after   16 cycles
 Normal termination of Gaussian 16 at Wed Apr  9 02:33:04 2025.
 Gaussian 16:  ES64L-G16RevC.01  3-Jul-2019

 ----------------------------------------------------------------------
 #t hf aug-cc-pvdz iop(5/13=1,5/36=2,99/5=2) pseudo=read geom=check gue
 ss=(read,tcheck) scf=(maxcycle=1)
 ----------------------------------------------------------------------
 -----
 title
 -----
 Structure from the checkpoint file:  "E2SN2_136_mol2.chk"
 Charge = -1 Multiplicity = 1

                         Standard orientation:
 ---------------------------------------------------------------------
 Center     Atomic      Atomic             Coordinates (Angstroms)
 Number     Number       Type             X           Y           Z
 ---------------------------------------------------------------------
      1          6           0       -0.459626   -0.465885   -0.104754
      2          6           0        0.583168    0.466989    0.519992
      3          9           0       -0.252598   -0.504108   -1.508339
      4          1           0        0.465022    0.310139    1.602928
      5          7           0       -0.325121   -1.733593    0.469532
      6          1           0       -0.247226   -1.588031    1.550951
      7          1           0       -1.138555   -2.307532    0.272228
      8          6           0       -1.821076    0.137543    0.015563
      9          7           0       -2.911721    0.564298    0.117662
     10          6           0        0.414041    1.933795    0.122903
     11          1           0       -0.526343    2.324403    0.516340
     12          1           0        1.231709    2.529757    0.533802
     13          1           0        0.415588    2.042670   -0.963973
     14          6           0        1.913996   -0.003473    0.141516
     15          7           0        3.015576   -0.276979   -0.161067
     16          1           0       -0.160969   -1.064343    2.908570
 ---------------------------------------------------------------------

 SCF Done:  E(RHF) =  -456.315355534     A.U. after    2 cycles

 The electronic state is 1-A.
 Alpha  occ. eigenvalues --  -26.00646 -15.54570 -15.52248 -15.48301 -11.29292
 Alpha  occ. eigenvalues --  -11.19046 -11.17738 -11.17267 -11.14446  -1.53829
 Alpha  occ. eigenvalues --   -1.10074  -1.06958  -1.05313  -0.96388  -0.83494
 Alpha  occ. eigenvalues --   -0.79473  -0.68330  -0.64419  -0.62497  -0.56774
 Alpha  occ. eigenvalues --   -0.55014  -0.51316  -0.48716  -0.47064  -0.45070
 Alpha  occ. eigenvalues --   -0.43581  -0.42469  -0.41522  -0.37129  -0.36536
 Alpha  occ. eigenvalues --   -0.33481  -0.33040  -0.28930  -0.11642
 Alpha virt. eigenvalues --    0.12044   0.13819   0.14439   0.14822   0.17682
 Alpha virt. eigenvalues --    0.17873   0.19173   0.19555   0.20852   0.21612
 Alpha virt. eigenvalues --    0.22092   0.23335   0.23490   0.24563   0.24965

 Mulliken charges:
               1
     1  C    1.327849
     2  C   -0.147158
     3  F   -0.491149
     4  H   -0.098764
     5  N   -0.497017
     6  H    0.043921
     7  H    0.004351
     8  C   -0.515044
     9  N   -0.216479
    10  C    0.705012
    11  H   -0.032616
    12  H   -0.049038
    13  H    0.022611
    14  C   -0.174097
    15  N   -0.294413
    16  H   -0.587969
 Sum of Mulliken charges =  -1.00000

 Dipole moment (field-independent basis, Debye):
    X=             -0.9694    Y=              4.2571    Z=             -6.6770  Tot=              7.9777

 Test job not archived.
 1\1\GINC-SE343\SP\RHF\Aug-CC-pVDZ\C5H7F1N3(1-)\OHZDE\09-Apr-2025\0\\#t
  hf aug-cc-pvdz iop(5/13=1,5/36=2,99/5=2) pseudo=read geom=check guess
 =(read,tcheck) scf=(maxcycle=1)\\title\\-1,1\C,0,-0.174453,0.053185,-1
 .458214\C,0,0.025622,-0.052507,0.057299\F,0,-1.536986,0.354704,-1.7169
 88\H,0,1.117788,-0.116555,0.177226\N,0,0.675047,1.047904,-1.952038\H,0
 ,1.658975,0.879055,-1.504714\H,0,0.756959,0.984295,-2.96162\C,0,-0.003
 906,-1.289845,-2.090141\N,0,0.152547,-2.323144,-2.628532\C,0,-0.699856
 ,-1.238741,0.693173\H,0,-0.279029,-2.177378,0.327721\H,0,-0.584012,-1.

 Normal termination of Gaussian 16 at Wed Apr  9 02:33:12 2025.
