 Gaussian 16, Revision C.01,

 ----------------------------------------------------------------------
 #t hf aug-cc-pvdz symm=none int=(grid=ultrafine) guess=(read,tcheck) s
 table=(opt,rrhf)
 ----------------------------------------------------------------------
 -----
 title
 -----
 Symbolic Z-matrix:
 Charge = -1 Multiplicity = 1

 SCF Done:  E(RHF) =  -555.091326442     A.U. after   16 cycles
 Normal termination of Gaussian 16 at Wed Apr  9 02:55:28 2025.
 Gaussian 16:  ES64L-G16RevC.01  3-Jul-2019

 ----------------------------------------------------------------------
 #t hf aug-cc-pvdz iop(5/13=1,5/36=2,99/5=2) pseudo=read geom=check gue
 ss=(read,tcheck) scf=(maxcycle=1)
 ----------------------------------------------------------------------
 -----
 title
 -----
 Structure from the checkpoint file:  "E2SN2_392_mol1.chk"
 Charge = -1 Multiplicity = 1

                         Standard orientation:
 ---------------------------------------------------------------------
 Center     Atomic      Atomic             Coordinates (Angstroms)
 Number     Number       Type             X           Y           Z
 ---------------------------------------------------------------------
      1          6           0       -0.439825   -0.397438    0.104517
      2          1           0        0.739035    0.355670    1.673426
      3          9           0        0.210728   -0.411567   -1.569902
      4          9           0       -1.261949   -0.254427    1.675262
      5          6           0        0.726454    0.465724    0.587754
      6          7           0       -0.314123   -1.817034    0.229114
      7          1           0       -0.330401   -2.200899   -0.704766
      8          1           0       -1.089606   -2.140075    0.789240
      9          6           0       -1.630934    0.226398   -0.476996
     10          7           0       -2.602714    0.699001   -0.938993
     11          6           0        0.541687    1.936387    0.223792
     12          1           0        0.478213    2.031494   -0.860080
     13          1           0       -0.382303    2.301605    0.675542
     14          1           0        1.378978    2.534221    0.593227
     15          6           0        2.014861   -0.029407    0.092030
     16          7           0        3.115926   -0.324546   -0.190323
 ---------------------------------------------------------------------

 SCF Done:  E(RHF) =  -555.255861173     A.U. after    2 cycles

 The electronic state is 1-A.
 Alpha  occ. eigenvalues --  -25.85883 -25.85040 -15.50194 -15.50074 -15.49493
 Alpha  occ. eigenvalues --  -11.29235 -11.16507 -11.16375 -11.16155 -11.12163
 Alpha  occ. eigenvalues --   -1.36724  -1.35685  -1.06822  -1.04449  -1.03112
 Alpha  occ. eigenvalues --   -0.95494  -0.81526  -0.77162  -0.60675  -0.58830
 Alpha  occ. eigenvalues --   -0.56698  -0.54252  -0.49378  -0.46100  -0.45287
 Alpha  occ. eigenvalues --   -0.44470  -0.44103  -0.42544  -0.42299  -0.42021
 Alpha  occ. eigenvalues --   -0.40720  -0.39293  -0.38238  -0.33657  -0.31473
 Alpha  occ. eigenvalues --   -0.31340  -0.30815  -0.29191
 Alpha virt. eigenvalues --    0.12557   0.13345   0.14697   0.15521   0.16502
 Alpha virt. eigenvalues --    0.16934   0.18630   0.19401   0.21892   0.23296
 Alpha virt. eigenvalues --    0.23870   0.24535   0.24872   0.25184   0.26143

 Mulliken charges:
               1
     1  C    1.595766
     2  H    0.036289
     3  F   -0.734409
     4  F   -0.744238
     5  C   -0.104900
     6  N   -0.515879
     7  H    0.069536
     8  H    0.055216
     9  C   -0.763998
    10  N   -0.239918
    11  C    0.875791
    12  H    0.110225
    13  H    0.012766
    14  H   -0.092847
    15  C   -0.241061
    16  N   -0.318338
 Sum of Mulliken charges =  -1.00000

 Dipole moment (field-independent basis, Debye):
    X=              0.2086    Y=              0.7097    Z=              1.8721  Tot=              2.0129

 Test job not archived.
 1\1\GINC-SE362\SP\RHF\Aug-CC-pVDZ\C5H6F2N3(1-)\OHZDE\09-Apr-2025\0\\#t
  hf aug-cc-pvdz iop(5/13=1,5/36=2,99/5=2) pseudo=read geom=check guess
 =(read,tcheck) scf=(maxcycle=1)\\title\\-1,1\C,0,0.61121557,-0.0683308
 7,-0.03742752\H,0,1.60062677,1.76324815,-0.32853683\F,0,-1.17633436,-0
 .14931909,-0.19618364\F,0,2.34969542,-0.07257376,0.3384074\C,0,0.58116
 142,1.45996011,-0.08427966\N,0,0.81203263,-0.76857558,-1.26864916\H,0,
 -0.01987885,-1.31470582,-1.44015863\H,0,1.63257138,-1.34612848,-1.1563
 1588\C,0,0.42405654,-0.77357021,1.23287894\N,0,0.28625366,-1.3662063,2

 Normal termination of Gaussian 16 at Wed Apr  9 02:55:35 2025.
