 Gaussian 16, Revision C.01,

 ----------------------------------------------------------------------
 #t hf aug-cc-pvdz symm=none int=(grid=ultrafine) guess=(read,tcheck) s
 table=(opt,rrhf)
 ----------------------------------------------------------------------
 -----
 title
 -----
 Symbolic Z-matrix:
 Charge = -1 Multiplicity = 1

 SCF Done:  E(RHF) =  -456.124142596     A.U. after   17 cycles
 Normal termination of Gaussian 16 at Wed Apr  9 02:59:26 2025.
 Gaussian 16:  ES64L-G16RevC.01  3-Jul-2019

 ----------------------------------------------------------------------
 #t hf aug-cc-pvdz iop(5/13=1,5/36=2,99/5=2) pseudo=read geom=check gue
 ss=(read,tcheck) scf=(maxcycle=1)
 ----------------------------------------------------------------------
 -----
 title
 -----
 Structure from the checkpoint file:  "E2SN2_72_mol1.chk"
 Charge = -1 Multiplicity = 1

                         Standard orientation:
 ---------------------------------------------------------------------
 Center     Atomic      Atomic             Coordinates (Angstroms)
 Number     Number       Type             X           Y           Z
 ---------------------------------------------------------------------
      1          6           0        0.313949    0.047202    0.208644
      2          6           0       -1.050545   -0.093254   -0.345068
      3          9           0        0.362080    0.057745    1.654016
      4          1           0       -1.139223   -0.996578   -2.642657
      5          1           0       -0.951262   -0.310930   -1.564183
      6          6           0        1.162934   -1.097011   -0.177366
      7          7           0        1.850863   -2.004061   -0.468110
      8          6           0       -1.945801    1.108562   -0.119404
      9          1           0       -1.484191    2.043075   -0.455268
     10          1           0       -2.852154    0.948533   -0.710297
     11          1           0       -2.240719    1.214207    0.931263
     12          7           0       -1.686823   -1.337583    0.049430
     13          1           0       -1.235955   -1.775224    0.843017
     14          1           0       -1.627936   -1.952915   -0.769730
     15          6           0        0.968005    1.300953   -0.205579
     16          7           0        1.490455    2.300418   -0.536414
 ---------------------------------------------------------------------

 SCF Done:  E(RHF) =  -456.262991060     A.U. after    2 cycles

 The electronic state is 1-A.
 Alpha  occ. eigenvalues --  -26.02479 -15.56299 -15.55443 -15.47597 -11.30553
 Alpha  occ. eigenvalues --  -11.21039 -11.20101 -11.12689 -11.10581  -1.54808
 Alpha  occ. eigenvalues --   -1.10658  -1.08508  -1.04445  -0.95618  -0.85661
 Alpha  occ. eigenvalues --   -0.72014  -0.71032  -0.67858  -0.61855  -0.58162
 Alpha  occ. eigenvalues --   -0.54582  -0.51407  -0.46703  -0.46001  -0.45046
 Alpha  occ. eigenvalues --   -0.41690  -0.40102  -0.38831  -0.37853  -0.36310
 Alpha  occ. eigenvalues --   -0.35733  -0.35331  -0.26259  -0.10288
 Alpha virt. eigenvalues --    0.12617   0.13958   0.15220   0.15640   0.16730
 Alpha virt. eigenvalues --    0.17830   0.18832   0.19777   0.20489   0.21187
 Alpha virt. eigenvalues --    0.22755   0.22887   0.23459   0.23891   0.24346

 Mulliken charges:
               1
     1  C    1.737460
     2  C   -0.414058
     3  F   -0.543924
     4  H   -0.645028
     5  H    0.106027
     6  C   -0.452447
     7  N   -0.225126
     8  C    0.553640
     9  H   -0.085985
    10  H   -0.021426
    11  H   -0.022327
    12  N   -0.330611
    13  H    0.000186
    14  H    0.057885
    15  C   -0.482451
    16  N   -0.231817
 Sum of Mulliken charges =  -1.00000

 Dipole moment (field-independent basis, Debye):
    X=              1.2354    Y=              2.6177    Z=              7.5395  Tot=              8.0760

 Test job not archived.
 1\1\GINC-SE344\SP\RHF\Aug-CC-pVDZ\C5H7F1N3(1-)\OHZDE\09-Apr-2025\0\\#t
  hf aug-cc-pvdz iop(5/13=1,5/36=2,99/5=2) pseudo=read geom=check guess
 =(read,tcheck) scf=(maxcycle=1)\\title\\-1,1\C,0,-0.14337922,0.0292293
 6,-0.37067467\C,0,-0.14368206,0.0545376,1.10835511\F,0,1.17753362,-0.0
 3675369,-0.95579188\H,0,-2.24595894,-0.7203088,2.14893948\H,0,-1.31216
 377,-0.11136109,1.49643901\C,0,-0.82981111,-1.17414332,-0.88029067\N,0
 ,-1.36544716,-2.13034927,-1.30370829\C,0,0.41209507,1.32775492,1.71399
 591\H,0,-0.06535235,2.22650474,1.3096492\H,0,0.20468971,1.2893081,2.78

 Normal termination of Gaussian 16 at Wed Apr  9 02:59:33 2025.
