 Gaussian 16, Revision C.01,

 ----------------------------------------------------------------------
 #t hf aug-cc-pvdz symm=none int=(grid=ultrafine) guess=(read,tcheck) s
 table=(opt,rrhf)
 ----------------------------------------------------------------------
 -----
 title
 -----
 Symbolic Z-matrix:
 Charge = -1 Multiplicity = 1

 SCF Done:  E(RHF) =  -492.157440052     A.U. after   17 cycles
 Normal termination of Gaussian 16 at Wed Apr  9 02:27:19 2025.
 Gaussian 16:  ES64L-G16RevC.01  3-Jul-2019

 ----------------------------------------------------------------------
 #t hf aug-cc-pvdz iop(5/13=1,5/36=2,99/5=2) pseudo=read geom=check gue
 ss=(read,tcheck) scf=(maxcycle=1)
 ----------------------------------------------------------------------
 -----
 title
 -----
 Structure from the checkpoint file:  "E2SN2_103_mol1.chk"
 Charge = -1 Multiplicity = 1

                         Standard orientation:
 ---------------------------------------------------------------------
 Center     Atomic      Atomic             Coordinates (Angstroms)
 Number     Number       Type             X           Y           Z
 ---------------------------------------------------------------------
      1          6           0       -0.032345    0.461950   -0.496695
      2          6           0        1.074679   -0.359728   -0.039502
      3          9           0       -0.113699    1.794457    0.022540
      4          1           0        1.759433   -2.220425   -1.379725
      5          1           0        1.248776   -1.495763   -0.861024
      6          7           0       -1.356257   -0.170073   -0.147461
      7          8           0       -1.970373    0.236819    0.830911
      8          8           0       -1.724837   -1.077274   -0.891158
      9          7           0        0.914710   -0.885168    1.295233
     10          1           0        1.420321   -0.301769    1.956507
     11          1           0        1.371700   -1.795674    1.307102
     12          7           0        2.365365    0.238457   -0.327154
     13          1           0        2.295930    1.207038   -0.612005
     14          1           0        2.806904   -0.307719   -1.075784
     15          1           0       -0.038816    0.591998   -1.583101
 ---------------------------------------------------------------------

 SCF Done:  E(RHF) =  -492.313259541     A.U. after    2 cycles

 The electronic state is 1-A.
 Alpha  occ. eigenvalues --  -25.97968 -20.48444 -20.48089 -15.77439 -15.46226
 Alpha  occ. eigenvalues --  -15.45461 -11.24368 -11.09574  -1.50717  -1.40420
 Alpha  occ. eigenvalues --   -1.22353  -1.04450  -0.94411  -0.93267  -0.75062
 Alpha  occ. eigenvalues --   -0.68278  -0.65352  -0.62952  -0.59741  -0.57981
 Alpha  occ. eigenvalues --   -0.56425  -0.52991  -0.51875  -0.48277  -0.45509
 Alpha  occ. eigenvalues --   -0.41141  -0.38044  -0.37338  -0.34393  -0.33433
 Alpha  occ. eigenvalues --   -0.26949  -0.23999  -0.10066
 Alpha virt. eigenvalues --    0.13138   0.13851   0.15241   0.16176   0.17864
 Alpha virt. eigenvalues --    0.19695   0.21107   0.21538   0.22008   0.23518
 Alpha virt. eigenvalues --    0.24170   0.25817   0.26345   0.27303   0.27766

 Mulliken charges:
               1
     1  C    1.429688
     2  C    0.210658
     3  F   -0.439360
     4  H   -0.937754
     5  H    0.616866
     6  N    0.400689
     7  O   -0.602973
     8  O   -0.618109
     9  N   -0.360107
    10  H   -0.017969
    11  H   -0.019808
    12  N   -0.400653
    13  H    0.021778
    14  H   -0.026052
    15  H   -0.256895
 Sum of Mulliken charges =  -1.00000

 Dipole moment (field-independent basis, Debye):
    X=             -1.2032    Y=              5.1829    Z=              0.8062  Tot=              5.3815

 Test job not archived.
 1\1\GINC-SE024\SP\RHF\Aug-CC-pVDZ\C2H7F1N3O2(1-)\OHZDE\09-Apr-2025\0\\
 #t hf aug-cc-pvdz iop(5/13=1,5/36=2,99/5=2) pseudo=read geom=check gue
 ss=(read,tcheck) scf=(maxcycle=1)\\title\\-1,1\C,0,-0.01909245,0.00873
 915,-0.35798211\C,0,-0.19315553,0.15201843,1.0768892\F,0,1.32126321,-0
 .13949113,-0.84096367\H,0,-2.31636339,-0.3879974,2.04003741\H,0,-1.537
 26026,-0.05775397,1.45789043\N,0,-0.56362115,1.20825012,-1.09202827\O,
 0,0.21323527,2.07228396,-1.47913374\O,0,-1.78361984,1.22971275,-1.2439
 8891\N,0,0.14056867,1.45928784,1.58959745\H,0,1.08244804,1.4477845,1.9

 Normal termination of Gaussian 16 at Wed Apr  9 02:27:25 2025.
