 Gaussian 16, Revision C.01,

 ----------------------------------------------------------------------
 #t hf aug-cc-pvdz symm=none int=(grid=ultrafine) guess=(read,tcheck) s
 table=(opt,rrhf)
 ----------------------------------------------------------------------
 -----
 title
 -----
 Symbolic Z-matrix:
 Charge = -1 Multiplicity = 1

 SCF Done:  E(RHF) =  -974.266658712     A.U. after   17 cycles
 Normal termination of Gaussian 16 at Wed Apr  9 02:53:12 2025.
 Gaussian 16:  ES64L-G16RevC.01  3-Jul-2019

 ----------------------------------------------------------------------
 #t hf aug-cc-pvdz iop(5/13=1,5/36=2,99/5=2) pseudo=read geom=check gue
 ss=(read,tcheck) scf=(maxcycle=1)
 ----------------------------------------------------------------------
 -----
 title
 -----
 Structure from the checkpoint file:  "E2SN2_345_mol2.chk"
 Charge = -1 Multiplicity = 1

                         Standard orientation:
 ---------------------------------------------------------------------
 Center     Atomic      Atomic             Coordinates (Angstroms)
 Number     Number       Type             X           Y           Z
 ---------------------------------------------------------------------
      1          6           0        0.370858    0.716908    0.003204
      2          6           0       -0.161026   -0.579576   -0.627106
      3         17           0       -1.013265    1.915020   -0.022603
      4          1           0       -0.527509   -0.337260   -1.630482
      5          6           0        0.879352    0.578818    1.425954
      6          1           0        1.178243    1.566981    1.787457
      7          1           0        1.767302   -0.062038    1.375047
      8          1           0        0.123551    0.164817    2.089594
      9          6           0        1.478228    1.250433   -0.892777
     10          1           0        2.330216    0.568050   -0.772500
     11          1           0        1.149115    1.309623   -1.934667
     12          1           0        1.763578    2.252507   -0.561792
     13          7           0       -1.486557   -1.012975    0.046229
     14          8           0       -1.475799   -1.330710    1.230451
     15          8           0       -2.480743   -1.069641   -0.682580
     16          7           0        0.756532   -1.648509   -0.569930
     17          1           0        1.725395   -1.402582   -0.207573
     18          1           0        0.837782   -2.096119   -1.470582
     19          9           0        3.137319   -0.942847    0.170784
 ---------------------------------------------------------------------

 SCF Done:  E(RHF) =  -974.439553397     A.U. after    2 cycles

 The electronic state is 1-A.
 Alpha  occ. eigenvalues -- -103.52532 -25.77051 -20.48719 -20.48682 -15.76930
 Alpha  occ. eigenvalues --  -15.46545 -11.21496 -11.19850 -11.10238 -11.09110
 Alpha  occ. eigenvalues --  -10.55911  -8.21615  -8.21369  -8.21357  -1.40580
 Alpha  occ. eigenvalues --   -1.26298  -1.22470  -1.08081  -1.02682  -0.90837
 Alpha  occ. eigenvalues --   -0.87134  -0.81313  -0.72792  -0.66222  -0.61420
 Alpha  occ. eigenvalues --   -0.59276  -0.57882  -0.55830  -0.51165  -0.49213
 Alpha  occ. eigenvalues --   -0.46731  -0.44603  -0.42392  -0.40376  -0.39412
 Alpha  occ. eigenvalues --   -0.38811  -0.37941  -0.36474  -0.35334  -0.34833
 Alpha  occ. eigenvalues --   -0.34106  -0.33308  -0.32258  -0.31894  -0.26031
 Alpha virt. eigenvalues --    0.12644   0.13162   0.14352   0.15199   0.16034
 Alpha virt. eigenvalues --    0.16609   0.18056   0.18556   0.19168   0.20828
 Alpha virt. eigenvalues --    0.21254   0.22586   0.23936   0.24559   0.25532

 Mulliken charges:
               1
     1  C   -2.128732
     2  C    1.791160
     3  Cl  -0.303949
     4  H   -0.214043
     5  C    1.020490
     6  H   -0.048261
     7  H   -0.021979
     8  H   -0.005700
     9  C    1.117584
    10  H   -0.011229
    11  H   -0.018108
    12  H   -0.040903
    13  N    0.349830
    14  O   -0.639977
    15  O   -0.650822
    16  N   -0.394440
    17  H    0.153697
    18  H   -0.005899
    19  F   -0.948718
 Sum of Mulliken charges =  -1.00000

 Dipole moment (field-independent basis, Debye):
    X=             -3.6977    Y=              3.5759    Z=             -2.4397  Tot=              5.6931

 Test job not archived.
 1\1\GINC-SE042\SP\RHF\Aug-CC-pVDZ\C4H9Cl1F1N2O2(1-)\OHZDE\09-Apr-2025\
 0\\#t hf aug-cc-pvdz iop(5/13=1,5/36=2,99/5=2) pseudo=read geom=check
 guess=(read,tcheck) scf=(maxcycle=1)\\title\\-1,1\C,0,-0.01932,0.00116
 9,-0.042318\C,0,-0.308843,-0.03023,-1.551043\Cl,0,1.802461,-0.009931,0
 .139143\H,0,0.179128,-0.918595,-1.966354\C,0,-0.582841,1.200925,0.6958
 43\H,0,-0.26976,1.145673,1.742463\H,0,-1.674048,1.1074,0.648257\H,0,-0
 .241735,2.139985,0.265885\C,0,-0.565276,-1.282714,0.563713\H,0,-1.6598
 07,-1.197612,0.536201\H,0,-0.212111,-2.160317,0.013767\H,0,-0.23161,-1

 Normal termination of Gaussian 16 at Wed Apr  9 02:53:24 2025.
