 Gaussian 16, Revision C.01,

 ----------------------------------------------------------------------
 #t hf aug-cc-pvdz symm=none int=(grid=ultrafine) guess=(read,tcheck) s
 table=(opt,rrhf)
 ----------------------------------------------------------------------
 -----
 title
 -----
 Symbolic Z-matrix:
 Charge = -1 Multiplicity = 1

 SCF Done:  E(RHF) =  -915.192414276     A.U. after   16 cycles
 Normal termination of Gaussian 16 at Wed Apr  9 03:00:52 2025.
 Gaussian 16:  ES64L-G16RevC.01  3-Jul-2019

 ----------------------------------------------------------------------
 #t hf aug-cc-pvdz iop(5/13=1,5/36=2,99/5=2) pseudo=read geom=check gue
 ss=(read,tcheck) scf=(maxcycle=1)
 ----------------------------------------------------------------------
 -----
 title
 -----
 Structure from the checkpoint file:  "E2SN2_90_mol2.chk"
 Charge = -1 Multiplicity = 1

                         Standard orientation:
 ---------------------------------------------------------------------
 Center     Atomic      Atomic             Coordinates (Angstroms)
 Number     Number       Type             X           Y           Z
 ---------------------------------------------------------------------
      1          6           0       -0.010369   -0.602024   -0.150628
      2          6           0       -0.343294    0.879134    0.168808
      3         17           0        1.331638   -0.656076   -1.389165
      4          1           0       -1.137856    0.783817    0.921185
      5          6           0        0.545381   -1.235861    1.059858
      6          7           0        0.977266   -1.731876    2.033247
      7          7           0       -1.127367   -1.365531   -0.613537
      8          1           0       -1.292555   -1.098673   -1.579066
      9          1           0       -1.956242   -0.973381   -0.051168
     10          6           0       -1.016457    1.586968   -1.007643
     11          1           0       -0.462530    1.460887   -1.940792
     12          1           0       -2.020727    1.169311   -1.059658
     13          1           0       -1.101171    2.654843   -0.793250
     14          6           0        0.818587    1.600731    0.672235
     15          7           0        1.739710    2.214917    1.067749
     16          9           0       -2.861901   -0.004419    0.694508
 ---------------------------------------------------------------------

 SCF Done:  E(RHF) =  -915.342260982     A.U. after    2 cycles

 The electronic state is 1-A.
 Alpha  occ. eigenvalues -- -103.55375 -25.78521 -15.53672 -15.53026 -15.48267
 Alpha  occ. eigenvalues --  -11.27480 -11.18493 -11.18198 -11.16971 -11.12656
 Alpha  occ. eigenvalues --  -10.58730  -8.24438  -8.24161  -8.24152  -1.27847
 Alpha  occ. eigenvalues --   -1.12671  -1.06894  -1.06108  -1.00649  -0.95293
 Alpha  occ. eigenvalues --   -0.83735  -0.75263  -0.61589  -0.59446  -0.54672
 Alpha  occ. eigenvalues --   -0.51964  -0.46693  -0.46322  -0.44967  -0.43283
 Alpha  occ. eigenvalues --   -0.42389  -0.42071  -0.38557  -0.37894  -0.37145
 Alpha  occ. eigenvalues --   -0.36431  -0.34896  -0.34607  -0.34051  -0.33744
 Alpha  occ. eigenvalues --   -0.32601  -0.27755
 Alpha virt. eigenvalues --    0.12310   0.13762   0.14965   0.16029   0.16952
 Alpha virt. eigenvalues --    0.17845   0.18503   0.18951   0.19115   0.22200
 Alpha virt. eigenvalues --    0.22600   0.23163   0.24444   0.24972   0.25168

 Mulliken charges:
               1
     1  C    0.790396
     2  C    0.210173
     3  Cl  -0.231526
     4  H   -0.035687
     5  C   -0.450361
     6  N   -0.219585
     7  N   -0.596940
     8  H    0.084097
     9  H    0.247701
    10  C    0.790232
    11  H   -0.015849
    12  H    0.089039
    13  H   -0.117261
    14  C   -0.326992
    15  N   -0.274203
    16  F   -0.943235
 Sum of Mulliken charges =  -1.00000

 Dipole moment (field-independent basis, Debye):
    X=              2.7538    Y=              1.3402    Z=             -5.5417  Tot=              6.3317

 Test job not archived.
 1\1\GINC-SE332\SP\RHF\Aug-CC-pVDZ\C5H6Cl1F1N3(1-)\OHZDE\09-Apr-2025\0\
 \#t hf aug-cc-pvdz iop(5/13=1,5/36=2,99/5=2) pseudo=read geom=check gu
 ess=(read,tcheck) scf=(maxcycle=1)\\title\\-1,1\C,0,-0.097674,-0.06183
 7,-1.521059\C,0,-0.011227,0.114311,0.017839\Cl,0,-1.813945,-0.493747,-
 1.974652\H,0,1.044036,0.381627,0.16429\C,0,0.163612,1.239911,-2.16376\
 N,0,0.383186,2.279941,-2.663928\N,0,0.80309,-1.038921,-2.049116\H,0,0.
 415872,-1.951671,-1.830724\H,0,1.681387,-0.934807,-1.436883\C,0,-0.174
 365,-1.211799,0.761501\H,0,-1.06114,-1.762645,0.439482\H,0,0.747296,-1

 Normal termination of Gaussian 16 at Wed Apr  9 03:00:59 2025.
