 Gaussian 16, Revision C.01,

 ----------------------------------------------------------------------
 #t hf aug-cc-pvdz symm=none int=(grid=ultrafine) guess=(read,tcheck) s
 table=(opt,rrhf)
 ----------------------------------------------------------------------
 -----
 title
 -----
 Symbolic Z-matrix:
 Charge = -1 Multiplicity = 1

 SCF Done:  E(RHF) =  -832.216898435     A.U. after   17 cycles
 Normal termination of Gaussian 16 at Wed Apr  9 03:00:27 2025.
 Gaussian 16:  ES64L-G16RevC.01  3-Jul-2019

 ----------------------------------------------------------------------
 #t hf aug-cc-pvdz iop(5/13=1,5/36=2,99/5=2) pseudo=read geom=check gue
 ss=(read,tcheck) scf=(maxcycle=1)
 ----------------------------------------------------------------------
 -----
 title
 -----
 Structure from the checkpoint file:  "E2SN2_91_mol2.chk"
 Charge = -1 Multiplicity = 1

                         Standard orientation:
 ---------------------------------------------------------------------
 Center     Atomic      Atomic             Coordinates (Angstroms)
 Number     Number       Type             X           Y           Z
 ---------------------------------------------------------------------
      1          6           0        0.445363   -0.075443    0.262221
      2          6           0       -0.722848    0.641822   -0.439232
      3         17           0        0.720287   -1.706024   -0.629135
      4          1           0       -0.586377    0.606042   -1.529370
      5          6           0        1.691963    0.672528    0.080433
      6          7           0        2.746973    1.178969   -0.018066
      7          7           0        0.204918   -0.266550    1.643811
      8          1           0        0.981911   -0.731867    2.094922
      9          1           0       -0.645866   -0.799600    1.783785
     10          7           0       -0.735822    2.029411   -0.093655
     11          1           0       -1.385946    2.216922    0.660986
     12          1           0       -1.063144    2.489799   -1.032737
     13          6           0       -1.952751   -0.107175   -0.115997
     14          7           0       -2.920033   -0.674514    0.239607
     15          1           0       -1.388065    2.559506   -2.408720
 ---------------------------------------------------------------------

 SCF Done:  E(RHF) =  -832.341269516     A.U. after    2 cycles

 The electronic state is 1-A.
 Alpha  occ. eigenvalues -- -103.56065 -15.55881 -15.55384 -15.54191 -15.47101
 Alpha  occ. eigenvalues --  -11.29910 -11.20745 -11.20456 -11.19201 -10.59387
 Alpha  occ. eigenvalues --   -8.25082  -8.24815  -8.24811  -1.16296  -1.08561
 Alpha  occ. eigenvalues --   -1.07750  -1.03849  -1.03285  -0.87875  -0.81063
 Alpha  occ. eigenvalues --   -0.65248  -0.61867  -0.56993  -0.55521  -0.52950
 Alpha  occ. eigenvalues --   -0.47474  -0.45887  -0.45353  -0.42382  -0.39778
 Alpha  occ. eigenvalues --   -0.37520  -0.37408  -0.35892  -0.35245  -0.34520
 Alpha  occ. eigenvalues --   -0.32929  -0.27572  -0.10631
 Alpha virt. eigenvalues --    0.10903   0.14020   0.14541   0.15810   0.17943
 Alpha virt. eigenvalues --    0.18261   0.19244   0.20055   0.20504   0.20976
 Alpha virt. eigenvalues --    0.22001   0.23198   0.23775   0.24377   0.24779

 Mulliken charges:
               1
     1  C    0.858160
     2  C    0.647392
     3  Cl  -0.160086
     4  H   -0.102112
     5  C   -0.541843
     6  N   -0.174753
     7  N   -0.432617
     8  H    0.008808
     9  H    0.048586
    10  N   -0.421376
    11  H    0.004188
    12  H    0.181123
    13  C    0.098940
    14  N   -0.315239
    15  H   -0.699170
 Sum of Mulliken charges =  -1.00000

 Dipole moment (field-independent basis, Debye):
    X=              3.6996    Y=             -8.5531    Z=              8.8792  Tot=             12.8718

 Test job not archived.
 1\1\GINC-SE419\SP\RHF\Aug-CC-pVDZ\C4H6Cl1N4(1-)\OHZDE\09-Apr-2025\0\\#
 t hf aug-cc-pvdz iop(5/13=1,5/36=2,99/5=2) pseudo=read geom=check gues
 s=(read,tcheck) scf=(maxcycle=1)\\title\\-1,1\C,0,-0.643651,0.04796,-1
 .508447\C,0,0.065986,0.079868,-0.142204\Cl,0,-0.024312,1.519736,-2.497
 985\H,0,1.141557,0.259405,-0.280835\C,0,-0.228681,-1.128714,-2.276404\
 N,0,0.046511,-2.024663,-2.984059\N,0,-2.053156,0.057113,-1.380621\H,0,
 -2.507986,0.028601,-2.28398\H,0,-2.355843,0.876826,-0.866792\N,0,-0.03
 6581,-1.192253,0.502919\H,0,-0.801594,-1.209677,1.167567\H,0,0.935401,

 Normal termination of Gaussian 16 at Wed Apr  9 03:00:34 2025.
