 Gaussian 16, Revision C.01,

 ----------------------------------------------------------------------
 #t hf aug-cc-pvdz symm=none int=(grid=ultrafine) guess=(read,tcheck) s
 table=(opt,rrhf)
 ----------------------------------------------------------------------
 -----
 title
 -----
 Symbolic Z-matrix:
 Charge = -1 Multiplicity = 1

 SCF Done:  E(RHF) =  -1275.27994892     A.U. after   15 cycles
 Normal termination of Gaussian 16 at Wed Apr  9 02:59:04 2025.
 Gaussian 16:  ES64L-G16RevC.01  3-Jul-2019

 ----------------------------------------------------------------------
 #t hf aug-cc-pvdz iop(5/13=1,5/36=2,99/5=2) pseudo=read geom=check gue
 ss=(read,tcheck) scf=(maxcycle=1)
 ----------------------------------------------------------------------
 -----
 title
 -----
 Structure from the checkpoint file:  "E2SN2_57_mol2.chk"
 Charge = -1 Multiplicity = 1

                         Standard orientation:
 ---------------------------------------------------------------------
 Center     Atomic      Atomic             Coordinates (Angstroms)
 Number     Number       Type             X           Y           Z
 ---------------------------------------------------------------------
      1          6           0        1.077475    0.129303    0.025605
      2          6           0       -0.424594   -0.255092   -0.020864
      3         17           0        1.816107   -0.265720    1.625671
      4          1           0       -0.929391    0.323869    0.765709
      5          6           0        1.816074   -0.607299   -1.004720
      6          7           0        2.377630   -1.227773   -1.829524
      7          6           0        1.248836    1.568126   -0.193681
      8          7           0        1.433600    2.722092   -0.311758
      9          6           0       -0.664884   -1.737036    0.220007
     10          1           0       -0.213887   -2.337341   -0.578322
     11          1           0       -0.275964   -2.079340    1.181212
     12          1           0       -1.747584   -1.872898    0.209980
     13          7           0       -0.900732    0.234522   -1.300688
     14          1           0       -0.888300   -0.523055   -1.976204
     15          1           0       -1.883068    0.481676   -1.148705
     16         17           0       -3.742738    0.225555    0.226213
 ---------------------------------------------------------------------

 SCF Done:  E(RHF) =  -1275.41268263     A.U. after    2 cycles

 The electronic state is 1-A.
 Alpha  occ. eigenvalues -- -103.60251-103.38000 -15.58378 -15.57121 -15.49460
 Alpha  occ. eigenvalues --  -11.30841 -11.23417 -11.22324 -11.19395 -11.12827
 Alpha  occ. eigenvalues --  -10.63526 -10.41075  -8.29247  -8.28933  -8.28929
 Alpha  occ. eigenvalues --   -8.06672  -8.06645  -8.06639  -1.16026  -1.10769
 Alpha  occ. eigenvalues --   -1.09239  -1.06358  -0.94488  -0.88293  -0.83241
 Alpha  occ. eigenvalues --   -0.74886  -0.70729  -0.58687  -0.57978  -0.52551
 Alpha  occ. eigenvalues --   -0.49617  -0.48595  -0.47747  -0.45203  -0.44068
 Alpha  occ. eigenvalues --   -0.41895  -0.41308  -0.40329  -0.38714  -0.38573
 Alpha  occ. eigenvalues --   -0.37427  -0.36629  -0.29583  -0.21342  -0.21142
 Alpha  occ. eigenvalues --   -0.21043
 Alpha virt. eigenvalues --    0.12315   0.13563   0.14307   0.15423   0.16164
 Alpha virt. eigenvalues --    0.16421   0.17498   0.18189   0.18855   0.19048
 Alpha virt. eigenvalues --    0.21264   0.21658   0.21972   0.22459   0.22722

 Mulliken charges:
               1
     1  C    0.578902
     2  C   -0.051225
     3  Cl  -0.076338
     4  H   -0.178669
     5  C   -0.088632
     6  N   -0.308475
     7  C   -0.207563
     8  N   -0.232220
     9  C    0.816358
    10  H   -0.100373
    11  H   -0.061677
    12  H    0.056262
    13  N   -0.334535
    14  H    0.054366
    15  H    0.086477
    16  Cl  -0.952657
 Sum of Mulliken charges =  -1.00000

 Dipole moment (field-independent basis, Debye):
    X=              9.9541    Y=             -3.5226    Z=              1.0479  Tot=             10.6109

 Test job not archived.
 1\1\GINC-SE332\SP\RHF\Aug-CC-pVDZ\C5H6Cl2N3(1-)\OHZDE\09-Apr-2025\0\\#
 t hf aug-cc-pvdz iop(5/13=1,5/36=2,99/5=2) pseudo=read geom=check gues
 s=(read,tcheck) scf=(maxcycle=1)\\title\\-1,1\C,0,-0.680795,0.051562,-
 1.578527\C,0,0.108093,-0.047654,-0.246633\Cl,0,-0.352318,-1.36228,-2.6
 5323\H,0,1.176296,-0.06701,-0.506017\C,0,-2.121271,0.085066,-1.307263\
 N,0,-3.268367,0.091837,-1.052783\C,0,-0.300277,1.260227,-2.314733\N,0,
 0.009453,2.187085,-2.966438\C,0,-0.232737,-1.295457,0.552579\H,0,-1.28
 2206,-1.278826,0.867908\H,0,-0.045297,-2.218106,-0.00053\H,0,0.411981,

 Normal termination of Gaussian 16 at Wed Apr  9 02:59:12 2025.
