 Gaussian 16, Revision C.01,

 ----------------------------------------------------------------------
 #t hf aug-cc-pvdz symm=none int=(grid=ultrafine) guess=(read,tcheck) s
 table=(opt,rrhf)
 ----------------------------------------------------------------------
 -----
 title
 -----
 Symbolic Z-matrix:
 Charge = -1 Multiplicity = 1

 SCF Done:  E(RHF) =  -476.163706099     A.U. after   17 cycles
 Normal termination of Gaussian 16 at Wed Apr  9 02:48:09 2025.
 Gaussian 16:  ES64L-G16RevC.01  3-Jul-2019

 ----------------------------------------------------------------------
 #t hf aug-cc-pvdz iop(5/13=1,5/36=2,99/5=2) pseudo=read geom=check gue
 ss=(read,tcheck) scf=(maxcycle=1)
 ----------------------------------------------------------------------
 -----
 title
 -----
 Structure from the checkpoint file:  "E2SN2_2_mol1.chk"
 Charge = -1 Multiplicity = 1

                         Standard orientation:
 ---------------------------------------------------------------------
 Center     Atomic      Atomic             Coordinates (Angstroms)
 Number     Number       Type             X           Y           Z
 ---------------------------------------------------------------------
      1          6           0       -0.034613    0.575499    0.233330
      2          6           0        1.231004    0.536655   -0.499502
      3          9           0        0.058267    0.558066    1.648949
      4          1           0        0.420396    1.229355   -2.754844
      5          1           0        0.809366    0.834296   -1.834721
      6          1           0        1.755903    1.481273   -0.307891
      7          7           0       -0.809922   -0.711110   -0.081210
      8          8           0       -0.557694   -1.707061    0.595805
      9          8           0       -1.585567   -0.684275   -1.032353
     10          6           0        2.120640   -0.676799   -0.322256
     11          1           0        1.669257   -1.571809   -0.764269
     12          1           0        3.067814   -0.510661   -0.848436
     13          1           0        2.357091   -0.923169    0.722811
     14          7           0       -0.907591    1.670256   -0.088642
     15          1           0       -0.893284    1.743463   -1.109128
     16          1           0       -0.444449    2.499185    0.267845
 ---------------------------------------------------------------------

 SCF Done:  E(RHF) =  -476.314923341     A.U. after    2 cycles

 The electronic state is 1-A.
 Alpha  occ. eigenvalues --  -25.97628 -20.47930 -20.47657 -15.76368 -15.48830
 Alpha  occ. eigenvalues --  -11.27210 -11.08679 -11.05036  -1.50925  -1.39744
 Alpha  occ. eigenvalues --   -1.21748  -1.06146  -0.90670  -0.84148  -0.73640
 Alpha  occ. eigenvalues --   -0.68588  -0.65802  -0.61008  -0.59140  -0.57839
 Alpha  occ. eigenvalues --   -0.55409  -0.51814  -0.49071  -0.45674  -0.43139
 Alpha  occ. eigenvalues --   -0.40653  -0.38652  -0.37447  -0.34587  -0.33860
 Alpha  occ. eigenvalues --   -0.31932  -0.28203  -0.09740
 Alpha virt. eigenvalues --    0.12995   0.13593   0.15235   0.15627   0.17397
 Alpha virt. eigenvalues --    0.18358   0.19714   0.20207   0.21912   0.22519
 Alpha virt. eigenvalues --    0.23525   0.24274   0.24661   0.25629   0.27106

 Mulliken charges:
               1
     1  C    1.339897
     2  C   -0.121718
     3  F   -0.426370
     4  H   -0.925639
     5  H    0.561835
     6  H   -0.218667
     7  N    0.218618
     8  O   -0.606413
     9  O   -0.583654
    10  C    0.353074
    11  H   -0.047918
    12  H   -0.069516
    13  H   -0.079421
    14  N   -0.537379
    15  H    0.110756
    16  H    0.032514
 Sum of Mulliken charges =  -1.00000

 Dipole moment (field-independent basis, Debye):
    X=              0.9597    Y=              0.0532    Z=              5.1596  Tot=              5.2483

 Test job not archived.
 1\1\GINC-SE342\SP\RHF\Aug-CC-pVDZ\C3H8F1N2O2(1-)\OHZDE\09-Apr-2025\0\\
 #t hf aug-cc-pvdz iop(5/13=1,5/36=2,99/5=2) pseudo=read geom=check gue
 ss=(read,tcheck) scf=(maxcycle=1)\\title\\-1,1\C,0,-0.0823942,-0.11492
 886,-0.29633365\C,0,-0.17006231,0.02560943,1.1572481\F,0,1.22434939,-0
 .20964644,-0.8407212\H,0,-2.58611077,-0.50794276,1.47586429\H,0,-1.567
 90981,-0.17630373,1.39055315\H,0,0.18041926,-0.91343004,1.60435593\N,0
 ,-0.63452973,1.16642493,-0.93561427\O,0,0.14040951,2.11184654,-1.07537
 744\O,0,-1.83156456,1.19120987,-1.20674381\C,0,0.45548699,1.24961749,1

 Normal termination of Gaussian 16 at Wed Apr  9 02:48:15 2025.
