 Gaussian 16, Revision C.01,

 ----------------------------------------------------------------------
 #t hf aug-cc-pvdz symm=none int=(grid=ultrafine) guess=(read,tcheck) s
 table=(opt,rrhf)
 ----------------------------------------------------------------------
 -----
 title
 -----
 Symbolic Z-matrix:
 Charge = -1 Multiplicity = 1

 SCF Done:  E(RHF) =  -476.168458007     A.U. after   16 cycles
 Normal termination of Gaussian 16 at Wed Apr  9 02:57:45 2025.
 Gaussian 16:  ES64L-G16RevC.01  3-Jul-2019

 ----------------------------------------------------------------------
 #t hf aug-cc-pvdz iop(5/13=1,5/36=2,99/5=2) pseudo=read geom=check gue
 ss=(read,tcheck) scf=(maxcycle=1)
 ----------------------------------------------------------------------
 -----
 title
 -----
 Structure from the checkpoint file:  "E2SN2_45_mol1.chk"
 Charge = -1 Multiplicity = 1

                         Standard orientation:
 ---------------------------------------------------------------------
 Center     Atomic      Atomic             Coordinates (Angstroms)
 Number     Number       Type             X           Y           Z
 ---------------------------------------------------------------------
      1          6           0       -0.048645   -0.598205    0.222715
      2          6           0        1.231897   -0.634119   -0.470099
      3          9           0       -0.056792   -0.512596    1.654498
      4          1           0        0.300826   -1.069762   -2.741364
      5          1           0        0.771488   -0.797888   -1.814692
      6          1           0        1.659193   -1.629653   -0.321178
      7          7           0       -0.761382    0.758505   -0.099495
      8          8           0       -1.802384    0.723823   -0.759851
      9          8           0       -0.239431    1.793174    0.313394
     10          7           0       -0.853472   -1.692957   -0.140753
     11          1           0       -0.803007   -1.774295   -1.159767
     12          1           0       -1.816062   -1.521360    0.121493
     13          6           0        2.233753    0.480831   -0.261439
     14          1           0        1.943146    1.396766   -0.786000
     15          1           0        2.391573    0.755074    0.790355
     16          1           0        3.200440    0.168632   -0.673001
 ---------------------------------------------------------------------

 SCF Done:  E(RHF) =  -476.319425982     A.U. after    2 cycles

 The electronic state is 1-A.
 Alpha  occ. eigenvalues --  -25.97146 -20.47997 -20.47647 -15.75959 -15.48686
 Alpha  occ. eigenvalues --  -11.27131 -11.08248 -11.04819  -1.50135  -1.39361
 Alpha  occ. eigenvalues --   -1.21471  -1.06620  -0.89834  -0.83457  -0.73923
 Alpha  occ. eigenvalues --   -0.68616  -0.65027  -0.60555  -0.58647  -0.58097
 Alpha  occ. eigenvalues --   -0.54247  -0.53887  -0.49013  -0.45517  -0.43109
 Alpha  occ. eigenvalues --   -0.39920  -0.37655  -0.36844  -0.35395  -0.33503
 Alpha  occ. eigenvalues --   -0.31770  -0.29008  -0.09842
 Alpha virt. eigenvalues --    0.13257   0.13772   0.15116   0.15556   0.17140
 Alpha virt. eigenvalues --    0.18314   0.19897   0.21026   0.21918   0.22395
 Alpha virt. eigenvalues --    0.23058   0.24092   0.25269   0.26123   0.27318

 Mulliken charges:
               1
     1  C    1.055948
     2  C   -0.038159
     3  F   -0.449166
     4  H   -0.877407
     5  H    0.482142
     6  H   -0.196528
     7  N    0.354139
     8  O   -0.618092
     9  O   -0.628029
    10  N   -0.369545
    11  H    0.103284
    12  H    0.012831
    13  C    0.362777
    14  H   -0.017818
    15  H   -0.106205
    16  H   -0.070173
 Sum of Mulliken charges =  -1.00000

 Dipole moment (field-independent basis, Debye):
    X=             -0.4544    Y=              0.4884    Z=              4.8551  Tot=              4.9008

 Test job not archived.
 1\1\GINC-SE051\SP\RHF\Aug-CC-pVDZ\C3H8F1N2O2(1-)\OHZDE\09-Apr-2025\0\\
 #t hf aug-cc-pvdz iop(5/13=1,5/36=2,99/5=2) pseudo=read geom=check gue
 ss=(read,tcheck) scf=(maxcycle=1)\\title\\-1,1\C,0,-0.00825833,0.14104
 645,-0.24667744\C,0,0.0296933,0.0598223,1.20694941\F,0,1.213784,-0.023
 36595,-0.97946515\H,0,-2.34177316,0.73262,1.57952472\H,0,-1.33973911,0
 .35379032,1.49843575\H,0,0.4781081,0.98600327,1.57703036\N,0,-0.786612
 34,-1.09857047,-0.80344309\O,0,-1.86624905,-0.90038712,-1.36564071\O,0
 ,-0.28618367,-2.2106397,-0.64119741\N,0,-0.5990329,1.3442914,-0.672734

 Normal termination of Gaussian 16 at Wed Apr  9 02:57:51 2025.
