 Gaussian 16, Revision C.01,

 ----------------------------------------------------------------------
 #t hf aug-cc-pvdz symm=none int=(grid=ultrafine) guess=(read,tcheck) s
 table=(opt,rrhf)
 ----------------------------------------------------------------------
 -----
 title
 -----
 Symbolic Z-matrix:
 Charge = -1 Multiplicity = 1

 SCF Done:  E(RHF) =  -876.149442604     A.U. after   16 cycles
 Normal termination of Gaussian 16 at Wed Apr  9 02:43:08 2025.
 Gaussian 16:  ES64L-G16RevC.01  3-Jul-2019

 ----------------------------------------------------------------------
 #t hf aug-cc-pvdz iop(5/13=1,5/36=2,99/5=2) pseudo=read geom=check gue
 ss=(read,tcheck) scf=(maxcycle=1)
 ----------------------------------------------------------------------
 -----
 title
 -----
 Structure from the checkpoint file:  "E2SN2_253_mol2.chk"
 Charge = -1 Multiplicity = 1

                         Standard orientation:
 ---------------------------------------------------------------------
 Center     Atomic      Atomic             Coordinates (Angstroms)
 Number     Number       Type             X           Y           Z
 ---------------------------------------------------------------------
      1          6           0        0.536790    0.120788    0.195225
      2          6           0       -0.556216   -0.254885   -0.820461
      3         17           0        2.107832   -0.577689   -0.317343
      4          1           0       -0.243903    0.062230   -1.824349
      5          1           0        0.190734   -0.398565    1.143722
      6          6           0        0.690693    1.558889    0.326059
      7          7           0        0.820424    2.721765    0.443592
      8          6           0       -1.777338    0.517420   -0.485063
      9          7           0       -2.790238    1.088591   -0.313721
     10          7           0       -0.752664   -1.690770   -0.773900
     11          1           0       -0.922170   -1.876844    0.240090
     12          1           0       -1.580604   -1.924813   -1.309943
     13          9           0       -0.842604   -1.392407    1.817661
 ---------------------------------------------------------------------

 SCF Done:  E(RHF) =  -876.287838425     A.U. after    2 cycles

 The electronic state is 1-A.
 Alpha  occ. eigenvalues -- -103.54715 -25.78379 -15.53586 -15.52572 -15.48111
 Alpha  occ. eigenvalues --  -11.21070 -11.20910 -11.18764 -11.17466 -10.58000
 Alpha  occ. eigenvalues --   -8.23726  -8.23430  -8.23420  -1.27779  -1.10376
 Alpha  occ. eigenvalues --   -1.06894  -1.05356  -1.02616  -0.89507  -0.77965
 Alpha  occ. eigenvalues --   -0.63024  -0.60526  -0.52938  -0.48874  -0.47650
 Alpha  occ. eigenvalues --   -0.45505  -0.44050  -0.43213  -0.38999  -0.37771
 Alpha  occ. eigenvalues --   -0.36741  -0.35959  -0.35703  -0.34407  -0.33544
 Alpha  occ. eigenvalues --   -0.33297  -0.29958  -0.27801
 Alpha virt. eigenvalues --    0.12516   0.14064   0.15888   0.17652   0.18793
 Alpha virt. eigenvalues --    0.19128   0.19248   0.22079   0.23060   0.23223
 Alpha virt. eigenvalues --    0.23769   0.24317   0.26042   0.26322   0.26668

 Mulliken charges:
               1
     1  C    0.334539
     2  C    0.799593
     3  Cl  -0.099791
     4  H   -0.090670
     5  H    0.117546
     6  C   -0.175923
     7  N   -0.252073
     8  C   -0.130200
     9  N   -0.301427
    10  N   -0.470643
    11  H    0.209093
    12  H   -0.007579
    13  F   -0.932463
 Sum of Mulliken charges =  -1.00000

 Dipole moment (field-independent basis, Debye):
    X=              2.7283    Y=             -0.2309    Z=             -5.5764  Tot=              6.2124

 Test job not archived.
 1\1\GINC-SE424\SP\RHF\Aug-CC-pVDZ\C4H4Cl1F1N3(1-)\OHZDE\09-Apr-2025\0\
 \#t hf aug-cc-pvdz iop(5/13=1,5/36=2,99/5=2) pseudo=read geom=check gu
 ess=(read,tcheck) scf=(maxcycle=1)\\title\\-1,1\C,0,-0.208584,0.13608,
 0.045062\C,0,-0.44164,0.131238,-1.475817\Cl,0,1.18019,-0.925157,0.4498
 47\H,0,0.488133,0.414558,-1.98684\H,0,-1.162214,-0.329166,0.449124\C,0
 ,0.064819,1.469149,0.552128\N,0,0.282351,2.544949,0.974337\C,0,-1.4422
 3,1.180542,-1.788654\N,0,-2.215504,1.990793,-2.145165\N,0,-0.86007,-1.
 199289,-1.872226\H,0,-1.667182,-1.395583,-1.23853\H,0,-1.177392,-1.168

 Normal termination of Gaussian 16 at Wed Apr  9 02:43:14 2025.
