 Gaussian 16, Revision C.01,

 ----------------------------------------------------------------------
 #t hf aug-cc-pvdz symm=none int=(grid=ultrafine) guess=(read,tcheck) s
 table=(opt,rrhf)
 ----------------------------------------------------------------------
 -----
 title
 -----
 Symbolic Z-matrix:
 Charge = -1 Multiplicity = 1

 SCF Done:  E(RHF) =  -763.487674832     A.U. after   17 cycles
 Normal termination of Gaussian 16 at Wed Apr  9 02:52:25 2025.
 Gaussian 16:  ES64L-G16RevC.01  3-Jul-2019

 ----------------------------------------------------------------------
 #t hf aug-cc-pvdz iop(5/13=1,5/36=2,99/5=2) pseudo=read geom=check gue
 ss=(read,tcheck) scf=(maxcycle=1)
 ----------------------------------------------------------------------
 -----
 title
 -----
 Structure from the checkpoint file:  "E2SN2_346_mol1.chk"
 Charge = -1 Multiplicity = 1

                         Standard orientation:
 ---------------------------------------------------------------------
 Center     Atomic      Atomic             Coordinates (Angstroms)
 Number     Number       Type             X           Y           Z
 ---------------------------------------------------------------------
      1          6           0        0.727296    0.107864    0.552573
      2          1           0       -0.723342    1.421665    1.309948
      3         17           0        0.552039   -0.940064   -1.310535
      4          1           0        0.848074    1.263637    2.397102
      5          6           0       -0.623253    0.843183    0.394533
      6          6           0        2.016789    0.878295    0.291182
      7          1           0        2.517421    0.499057   -0.607202
      8          1           0        1.795036    1.933967    0.157332
      9          1           0        2.677273    0.781067    1.147086
     10          6           0        0.788584   -1.153897    1.402357
     11          1           0        0.881470   -0.892967    2.449843
     12          1           0       -0.100373   -1.768168    1.243812
     13          1           0        1.653363   -1.743368    1.084322
     14          6           0       -1.768242   -0.092565    0.354836
     15          7           0       -2.765406   -0.717005    0.357152
     16          7           0       -0.620599    1.776997   -0.727014
     17          1           0       -1.475009    2.320271   -0.695578
     18          1           0       -0.603592    1.248703   -1.591417
 ---------------------------------------------------------------------

 SCF Done:  E(RHF) =  -763.593709778     A.U. after    2 cycles

 The electronic state is 1-A.
 Alpha  occ. eigenvalues -- -103.45950 -15.51468 -15.50293 -11.21974 -11.18433
 Alpha  occ. eigenvalues --  -11.16755 -11.10243 -11.09715 -10.49320  -8.14965
 Alpha  occ. eigenvalues --   -8.14818  -8.14804  -1.07993  -1.03877  -0.97100
 Alpha  occ. eigenvalues --   -0.89570  -0.82718  -0.81294  -0.64852  -0.58754
 Alpha  occ. eigenvalues --   -0.55382  -0.50234  -0.48046  -0.44883  -0.44095
 Alpha  occ. eigenvalues --   -0.42770  -0.41961  -0.38634  -0.38128  -0.34242
 Alpha  occ. eigenvalues --   -0.32862  -0.29475  -0.29117  -0.28316  -0.27845
 Alpha  occ. eigenvalues --   -0.09629
 Alpha virt. eigenvalues --    0.12578   0.13561   0.14477   0.15159   0.15998
 Alpha virt. eigenvalues --    0.16208   0.17045   0.17565   0.18220   0.19757
 Alpha virt. eigenvalues --    0.20589   0.22471   0.22636   0.23683   0.25076

 Mulliken charges:
               1
     1  C   -2.409717
     2  H   -0.095574
     3  Cl  -0.562430
     4  H   -0.600053
     5  C    1.625463
     6  C    1.132592
     7  H   -0.005535
     8  H   -0.042282
     9  H   -0.031432
    10  C    0.930172
    11  H   -0.022331
    12  H   -0.058539
    13  H    0.050109
    14  C   -0.218967
    15  N   -0.327514
    16  N   -0.424114
    17  H   -0.010877
    18  H    0.071030
 Sum of Mulliken charges =  -1.00000

 Dipole moment (field-independent basis, Debye):
    X=             -0.0539    Y=             -0.6139    Z=             -4.5365  Tot=              4.5782

 Test job not archived.
 1\1\GINC-SE164\SP\RHF\Aug-CC-pVDZ\C5H10Cl1N2(1-)\OHZDE\09-Apr-2025\0\\
 #t hf aug-cc-pvdz iop(5/13=1,5/36=2,99/5=2) pseudo=read geom=check gue
 ss=(read,tcheck) scf=(maxcycle=1)\\title\\-1,1\C,0,0.46989146,-0.08075
 167,0.00170689\H,0,1.68469457,1.63046267,-0.00436667\Cl,0,-1.67281602,
 -0.03991684,0.08641078\H,0,2.64400943,-0.02335898,-0.14863416\C,0,0.61
 086387,1.45865502,-0.00092169\C,0,0.65865728,-0.83672962,-1.30884529\H
 ,0,-0.28850245,-1.27868759,-1.63916067\H,0,1.02300347,-0.15885973,-2.0
 7648951\H,0,1.39981074,-1.61813541,-1.17334951\C,0,0.63412179,-0.83726

 Normal termination of Gaussian 16 at Wed Apr  9 02:52:34 2025.
