 Gaussian 16, Revision C.01,

 ----------------------------------------------------------------------
 #t hf aug-cc-pvdz symm=none int=(grid=ultrafine) guess=(read,tcheck) s
 table=(opt,rrhf)
 ----------------------------------------------------------------------
 -----
 title
 -----
 Symbolic Z-matrix:
 Charge = -1 Multiplicity = 1

 SCF Done:  E(RHF) =  -1144.53311107     A.U. after   14 cycles
 Normal termination of Gaussian 16 at Wed Apr  9 02:35:35 2025.
 Gaussian 16:  ES64L-G16RevC.01  3-Jul-2019

 ----------------------------------------------------------------------
 #t hf aug-cc-pvdz iop(5/13=1,5/36=2,99/5=2) pseudo=read geom=check gue
 ss=(read,tcheck) scf=(maxcycle=1)
 ----------------------------------------------------------------------
 -----
 title
 -----
 Structure from the checkpoint file:  "E2SN2_166_mol2.chk"
 Charge = -1 Multiplicity = 1

                         Standard orientation:
 ---------------------------------------------------------------------
 Center     Atomic      Atomic             Coordinates (Angstroms)
 Number     Number       Type             X           Y           Z
 ---------------------------------------------------------------------
      1          6           0       -0.272149    0.662879   -0.688337
      2          6           0       -0.218851   -0.726670   -0.055297
      3         17           0       -1.472436    1.714628    0.136861
      4          1           0        0.544872   -1.262149   -0.630631
      5          1           0       -0.563054    0.612719   -1.738393
      6          1           0        0.714420    1.109940   -0.580792
      7          6           0       -1.506609   -1.422045   -0.230739
      8          7           0       -2.535268   -1.964530   -0.391446
      9          7           0        0.202707   -0.778818    1.332303
     10          1           0       -0.273444   -0.050177    1.852054
     11          1           0        1.200501   -0.566062    1.312897
     12         17           0        3.042453   -0.051441   -0.193032
 ---------------------------------------------------------------------

 SCF Done:  E(RHF) =  -1144.63018946     A.U. after    2 cycles

 The electronic state is 1-A.
 Alpha  occ. eigenvalues -- -103.54860-103.38424 -15.53224 -15.49464 -11.20110
 Alpha  occ. eigenvalues --  -11.19434 -11.18269 -10.58203 -10.41502  -8.23922
 Alpha  occ. eigenvalues --   -8.23655  -8.23638  -8.07097  -8.07075  -8.07067
 Alpha  occ. eigenvalues --   -1.09701  -1.06135  -1.03370  -0.88230  -0.83737
 Alpha  occ. eigenvalues --   -0.76203  -0.60854  -0.55141  -0.51807  -0.48609
 Alpha  occ. eigenvalues --   -0.47986  -0.43635  -0.41941  -0.36028  -0.34821
 Alpha  occ. eigenvalues --   -0.34282  -0.34123  -0.29249  -0.21769  -0.21585
 Alpha  occ. eigenvalues --   -0.21509
 Alpha virt. eigenvalues --    0.13331   0.14207   0.15394   0.17065   0.17458
 Alpha virt. eigenvalues --    0.18823   0.19117   0.21688   0.22945   0.24212
 Alpha virt. eigenvalues --    0.25245   0.25585   0.26068   0.26630   0.27177

 Mulliken charges:
               1
     1  C    0.184811
     2  C    0.761488
     3  Cl  -0.181179
     4  H   -0.009188
     5  H   -0.021585
     6  H    0.093747
     7  C   -0.381834
     8  N   -0.230909
     9  N   -0.401441
    10  H    0.040201
    11  H    0.090630
    12  Cl  -0.944742
 Sum of Mulliken charges =  -1.00000

 Dipole moment (field-independent basis, Debye):
    X=             -6.2508    Y=              2.3707    Z=             -0.1671  Tot=              6.6873

 Test job not archived.
 1\1\GINC-SE159\SP\RHF\Aug-CC-pVDZ\C3H5Cl2N2(1-)\OHZDE\09-Apr-2025\0\\#
 t hf aug-cc-pvdz iop(5/13=1,5/36=2,99/5=2) pseudo=read geom=check gues
 s=(read,tcheck) scf=(maxcycle=1)\\title\\-1,1\C,0,-0.039268,-0.226788,
 0.008035\C,0,-0.512482,-0.357679,-1.43881\Cl,0,1.685049,0.270649,0.092
 332\H,0,-1.565318,-0.651146,-1.358594\H,0,-0.122883,-1.173658,0.543018
 \H,0,-0.646684,0.541353,0.48317\C,0,0.220688,-1.436934,-2.124607\N,0,0
 .806042,-2.308469,-2.650007\N,0,-0.485789,0.858349,-2.230281\H,0,0.392
 247,1.339474,-2.071064\H,0,-1.243464,1.43174,-1.858278\Cl,0,-3.019664,

 Normal termination of Gaussian 16 at Wed Apr  9 02:35:42 2025.
