 Gaussian 16, Revision C.01,

 ----------------------------------------------------------------------
 #t hf aug-cc-pvdz symm=none int=(grid=ultrafine) guess=(read,tcheck) s
 table=(opt,rrhf)
 ----------------------------------------------------------------------
 -----
 title
 -----
 Symbolic Z-matrix:
 Charge = -1 Multiplicity = 1

 SCF Done:  E(RHF) =  -852.223056294     A.U. after   17 cycles
 Normal termination of Gaussian 16 at Wed Apr  9 02:57:45 2025.
 Gaussian 16:  ES64L-G16RevC.01  3-Jul-2019

 ----------------------------------------------------------------------
 #t hf aug-cc-pvdz iop(5/13=1,5/36=2,99/5=2) pseudo=read geom=check gue
 ss=(read,tcheck) scf=(maxcycle=1)
 ----------------------------------------------------------------------
 -----
 title
 -----
 Structure from the checkpoint file:  "E2SN2_46_mol1.chk"
 Charge = -1 Multiplicity = 1

                         Standard orientation:
 ---------------------------------------------------------------------
 Center     Atomic      Atomic             Coordinates (Angstroms)
 Number     Number       Type             X           Y           Z
 ---------------------------------------------------------------------
      1          6           0        0.119426   -0.044295    0.202345
      2          6           0        1.010476   -0.702775   -0.747436
      3         17           0        0.120322    1.888429    0.096214
      4          1           0        1.203148   -3.052739   -0.169005
      5          1           0        0.862910   -1.968895   -0.508759
      6          1           0        0.777835   -0.490604   -1.793353
      7          7           0       -1.300947   -0.416824   -0.173503
      8          8           0       -1.940663   -1.096134    0.627640
      9          8           0       -1.693415   -0.085253   -1.288398
     10          7           0        0.354235   -0.346937    1.570792
     11          1           0        1.359696   -0.211943    1.661171
     12          1           0        0.198574   -1.352204    1.660545
     13          7           0        2.396724   -0.591955   -0.342413
     14          1           0        2.933917   -0.053489   -1.007805
     15          1           0        2.761564   -1.549899   -0.305957
 ---------------------------------------------------------------------

 SCF Done:  E(RHF) =  -852.358665374     A.U. after    2 cycles

 The electronic state is 1-A.
 Alpha  occ. eigenvalues -- -103.51185 -20.49867 -20.49363 -15.78825 -15.49783
 Alpha  occ. eigenvalues --  -15.47921 -11.26977 -11.10388 -10.54460  -8.20151
 Alpha  occ. eigenvalues --   -8.19902  -8.19891  -1.41942  -1.23717  -1.10548
 Alpha  occ. eigenvalues --   -1.00745  -0.97990  -0.89517  -0.77222  -0.68103
 Alpha  occ. eigenvalues --   -0.61670  -0.61343  -0.58374  -0.54819  -0.52036
 Alpha  occ. eigenvalues --   -0.49452  -0.46373  -0.42469  -0.39319  -0.38561
 Alpha  occ. eigenvalues --   -0.35567  -0.34329  -0.32486  -0.32367  -0.29313
 Alpha  occ. eigenvalues --   -0.26990  -0.10760
 Alpha virt. eigenvalues --    0.12848   0.14189   0.15699   0.16729   0.17764
 Alpha virt. eigenvalues --    0.18755   0.19346   0.20659   0.21217   0.22911
 Alpha virt. eigenvalues --    0.24013   0.25770   0.26361   0.26994   0.28021

 Mulliken charges:
               1
     1  C    0.757574
     2  C    0.567955
     3  Cl  -0.275404
     4  H   -0.767099
     5  H    0.266991
     6  H   -0.155852
     7  N    0.354280
     8  O   -0.597866
     9  O   -0.630175
    10  N   -0.480697
    11  H    0.150757
    12  H    0.120047
    13  N   -0.395623
    14  H    0.010015
    15  H    0.075098
 Sum of Mulliken charges =  -1.00000

 Dipole moment (field-independent basis, Debye):
    X=              0.5924    Y=              5.7505    Z=             -0.1754  Tot=              5.7836

 Test job not archived.
 1\1\GINC-SE060\SP\RHF\Aug-CC-pVDZ\C2H7Cl1N3O2(1-)\OHZDE\09-Apr-2025\0\
 \#t hf aug-cc-pvdz iop(5/13=1,5/36=2,99/5=2) pseudo=read geom=check gu
 ess=(read,tcheck) scf=(maxcycle=1)\\title\\-1,1\C,0,-0.12265859,-0.001
 77648,-0.3830998\C,0,-0.20319774,-0.01096713,1.07397884\Cl,0,1.6724353
 5,-0.16481379,-1.08860992\H,0,-2.43965828,0.64127931,1.75724695\H,0,-1
 .46840117,0.11115001,1.33117815\H,0,0.18464845,-0.92294163,1.53328245\
 N,0,-0.81305339,-1.25458531,-0.88442242\O,0,-1.8393637,-1.11093074,-1.
 54667535\O,0,-0.3485385,-2.33376473,-0.52867164\N,0,-0.67483369,1.1433

 Normal termination of Gaussian 16 at Wed Apr  9 02:57:52 2025.
