 Gaussian 16, Revision C.01,

 ----------------------------------------------------------------------
 #t hf aug-cc-pvdz symm=none int=(grid=ultrafine) guess=(read,tcheck) s
 table=(opt,rrhf)
 ----------------------------------------------------------------------
 -----
 title
 -----
 Symbolic Z-matrix:
 Charge = -1 Multiplicity = 1

 SCF Done:  E(RHF) =  -987.977089058     A.U. after   16 cycles
 Normal termination of Gaussian 16 at Wed Apr  9 02:39:18 2025.
 Gaussian 16:  ES64L-G16RevC.01  3-Jul-2019

 ----------------------------------------------------------------------
 #t hf aug-cc-pvdz iop(5/13=1,5/36=2,99/5=2) pseudo=read geom=check gue
 ss=(read,tcheck) scf=(maxcycle=1)
 ----------------------------------------------------------------------
 -----
 title
 -----
 Structure from the checkpoint file:  "E2SN2_203_mol2.chk"
 Charge = -1 Multiplicity = 1

                         Standard orientation:
 ---------------------------------------------------------------------
 Center     Atomic      Atomic             Coordinates (Angstroms)
 Number     Number       Type             X           Y           Z
 ---------------------------------------------------------------------
      1          6           0       -0.039207    0.821151   -0.951313
      2          6           0        0.293925   -0.082596    0.228096
      3          9           0        1.124733    1.473246   -1.358283
      4          1           0       -0.649420   -0.597056    0.503063
      5          1           0       -0.339532    0.190403   -1.792279
      6          7           0       -0.993610    1.789119   -0.520608
      7          1           0       -1.327497    2.297186   -1.331435
      8          1           0       -1.789650    1.272691   -0.136867
      9          6           0        0.839477    0.663882    1.352940
     10          7           0        1.262453    1.266643    2.266741
     11          7           0        1.266717   -1.151617   -0.195048
     12          8           0        1.038790   -1.698572   -1.269209
     13          8           0        2.186573   -1.437199    0.565949
     14         17           0       -2.890206   -0.769406    0.351307
 ---------------------------------------------------------------------

 SCF Done:  E(RHF) =  -988.152043900     A.U. after    2 cycles

 The electronic state is 1-A.
 Alpha  occ. eigenvalues -- -103.40201 -26.01716 -20.53052 -20.52842 -15.82674
 Alpha  occ. eigenvalues --  -15.54972 -15.51226 -11.27312 -11.24196 -11.20047
 Alpha  occ. eigenvalues --  -10.43317  -8.08920  -8.08888  -8.08869  -1.55320
 Alpha  occ. eigenvalues --   -1.45499  -1.27297  -1.10500  -1.07456  -1.00596
 Alpha  occ. eigenvalues --   -0.85818  -0.83131  -0.78295  -0.70222  -0.67648
 Alpha  occ. eigenvalues --   -0.66636  -0.65321  -0.63008  -0.61904  -0.54221
 Alpha  occ. eigenvalues --   -0.53830  -0.49595  -0.48182  -0.45216  -0.43115
 Alpha  occ. eigenvalues --   -0.41609  -0.38443  -0.35997  -0.35669  -0.31452
 Alpha  occ. eigenvalues --   -0.23678  -0.23432  -0.23315
 Alpha virt. eigenvalues --    0.12369   0.14657   0.16209   0.17055   0.17813
 Alpha virt. eigenvalues --    0.18614   0.20958   0.21280   0.22044   0.22716
 Alpha virt. eigenvalues --    0.23743   0.24611   0.25280   0.26184   0.26607

 Mulliken charges:
               1
     1  C    1.054879
     2  C    1.250897
     3  F   -0.410954
     4  H   -0.131026
     5  H   -0.038259
     6  N   -0.458166
     7  H   -0.004667
     8  H    0.125001
     9  C   -0.395255
    10  N   -0.237119
    11  N    0.342085
    12  O   -0.591069
    13  O   -0.602170
    14  Cl  -0.904177
 Sum of Mulliken charges =  -1.00000

 Dipole moment (field-independent basis, Debye):
    X=              4.1535    Y=              2.1677    Z=             -3.5882  Tot=              5.9013

 Test job not archived.
 1\1\GINC-SE368\SP\RHF\Aug-CC-pVDZ\C3H4Cl1F1N3O2(1-)\OHZDE\09-Apr-2025\
 0\\#t hf aug-cc-pvdz iop(5/13=1,5/36=2,99/5=2) pseudo=read geom=check
 guess=(read,tcheck) scf=(maxcycle=1)\\title\\-1,1\C,0,0.029238,0.00330
 8,0.003019\C,0,-0.509216,0.084311,-1.419039\F,0,1.422707,-0.032924,-0.
 047392\H,0,-1.613762,0.13496,-1.331934\H,0,-0.228331,0.931348,0.520379
 \N,0,-0.450566,-1.20067,0.597643\H,0,-0.218896,-1.18885,1.584174\H,0,-
 1.471383,-1.182742,0.525208\C,0,-0.091532,-1.051866,-2.228219\N,0,0.22
 9486,-1.976087,-2.876313\N,0,-0.063587,1.366678,-2.071058\O,0,-0.14504

 Normal termination of Gaussian 16 at Wed Apr  9 02:39:23 2025.
