 Gaussian 16, Revision C.01,

 ----------------------------------------------------------------------
 #t hf aug-cc-pvdz symm=none int=(grid=ultrafine) guess=(read,tcheck) s
 table=(opt,rrhf)
 ----------------------------------------------------------------------
 -----
 title
 -----
 Symbolic Z-matrix:
 Charge = -1 Multiplicity = 1

 SCF Done:  E(RHF) =  -567.932148139     A.U. after   18 cycles
 Normal termination of Gaussian 16 at Wed Apr  9 02:55:57 2025.
 Gaussian 16:  ES64L-G16RevC.01  3-Jul-2019

 ----------------------------------------------------------------------
 #t hf aug-cc-pvdz iop(5/13=1,5/36=2,99/5=2) pseudo=read geom=check gue
 ss=(read,tcheck) scf=(maxcycle=1)
 ----------------------------------------------------------------------
 -----
 title
 -----
 Structure from the checkpoint file:  "E2SN2_390_mol2.chk"
 Charge = -1 Multiplicity = 1

                         Standard orientation:
 ---------------------------------------------------------------------
 Center     Atomic      Atomic             Coordinates (Angstroms)
 Number     Number       Type             X           Y           Z
 ---------------------------------------------------------------------
      1          6           0        0.711575   -0.448919    0.189234
      2          6           0       -0.320796    0.335036   -0.638649
      3          9           0        0.451121   -0.207147    1.569002
      4          1           0       -0.288338   -0.119959   -1.643894
      5          7           0        0.628809   -1.799815   -0.128381
      6          1           0        1.453987   -2.294923    0.193971
      7          1           0        0.570215   -1.882179   -1.239535
      8          6           0        2.065025    0.157898    0.000391
      9          7           0        3.154526    0.571923   -0.156186
     10          6           0       -0.106803    1.833286   -0.644473
     11          1           0        0.790981    2.064564   -1.220205
     12          1           0       -0.955776    2.333328   -1.114646
     13          1           0        0.001878    2.219168    0.369210
     14          7           0       -1.672016    0.017493   -0.074026
     15          8           0       -2.233412   -0.999748   -0.469748
     16          8           0       -2.146622    0.807311    0.746887
     17          1           0        0.533989   -1.707190   -2.611906
 ---------------------------------------------------------------------

 SCF Done:  E(RHF) =  -568.106468524     A.U. after    2 cycles

 The electronic state is 1-A.
 Alpha  occ. eigenvalues --  -26.00488 -20.50126 -20.49646 -15.79182 -15.54707
 Alpha  occ. eigenvalues --  -15.47717 -11.29694 -11.19807 -11.19200 -11.14186
 Alpha  occ. eigenvalues --   -1.53594  -1.42117  -1.23820  -1.10019  -1.06261
 Alpha  occ. eigenvalues --   -0.98920  -0.84785  -0.83436  -0.72245  -0.68319
 Alpha  occ. eigenvalues --   -0.65941  -0.63446  -0.61454  -0.59969  -0.57486
 Alpha  occ. eigenvalues --   -0.54823  -0.50814  -0.48967  -0.47187  -0.45255
 Alpha  occ. eigenvalues --   -0.42851  -0.41687  -0.39229  -0.38382  -0.37107
 Alpha  occ. eigenvalues --   -0.35757  -0.35092  -0.28570  -0.11871
 Alpha virt. eigenvalues --    0.12137   0.13930   0.14490   0.15039   0.17697
 Alpha virt. eigenvalues --    0.17972   0.19438   0.19689   0.20646   0.21507
 Alpha virt. eigenvalues --    0.21944   0.22844   0.23577   0.24122   0.24837

 Mulliken charges:
               1
     1  C    1.063789
     2  C    0.523519
     3  F   -0.488431
     4  H   -0.095988
     5  N   -0.520486
     6  H   -0.018532
     7  H    0.156722
     8  C   -0.354674
     9  N   -0.256658
    10  C    0.445569
    11  H   -0.001426
    12  H   -0.010787
    13  H    0.110062
    14  N    0.201781
    15  O   -0.520725
    16  O   -0.613704
    17  H   -0.620033
 Sum of Mulliken charges =  -1.00000

 Dipole moment (field-independent basis, Debye):
    X=             -0.6282    Y=              5.4668    Z=              4.9285  Tot=              7.3871

 Test job not archived.
 1\1\GINC-SE041\SP\RHF\Aug-CC-pVDZ\C4H7F1N3O2(1-)\OHZDE\09-Apr-2025\0\\
 #t hf aug-cc-pvdz iop(5/13=1,5/36=2,99/5=2) pseudo=read geom=check gue
 ss=(read,tcheck) scf=(maxcycle=1)\\title\\-1,1\C,0,0.003461,0.020558,0
 .017007\C,0,-0.501487,0.087708,-1.434297\F,0,1.402022,0.292717,0.01420
 8\H,0,-1.597627,0.189791,-1.352765\N,0,-0.703518,0.930476,0.794747\H,0
 ,-0.583313,0.727637,1.781848\H,0,-1.78379,0.828742,0.534859\C,0,-0.053
 802,-1.393785,0.498744\N,0,-0.126742,-2.483115,0.935763\C,0,-0.063844,
 -1.073491,-2.300706\H,0,-0.582506,-1.977396,-1.976794\H,0,-0.32224,-0.

 Normal termination of Gaussian 16 at Wed Apr  9 02:56:07 2025.
