 Gaussian 16, Revision C.01,

 ----------------------------------------------------------------------
 #t hf aug-cc-pvdz symm=none int=(grid=ultrafine) guess=(read,tcheck) s
 table=(opt,rrhf)
 ----------------------------------------------------------------------
 -----
 title
 -----
 Symbolic Z-matrix:
 Charge = -1 Multiplicity = 1

 SCF Done:  E(RHF) =  -740.465436406     A.U. after   17 cycles
 Normal termination of Gaussian 16 at Wed Apr  9 02:53:50 2025.
 Gaussian 16:  ES64L-G16RevC.01  3-Jul-2019

 ----------------------------------------------------------------------
 #t hf aug-cc-pvdz iop(5/13=1,5/36=2,99/5=2) pseudo=read geom=check gue
 ss=(read,tcheck) scf=(maxcycle=1)
 ----------------------------------------------------------------------
 -----
 title
 -----
 Structure from the checkpoint file:  "E2SN2_369_mol1.chk"
 Charge = -1 Multiplicity = 1

                         Standard orientation:
 ---------------------------------------------------------------------
 Center     Atomic      Atomic             Coordinates (Angstroms)
 Number     Number       Type             X           Y           Z
 ---------------------------------------------------------------------
      1          6           0       -0.559700    0.570286   -0.591949
      2          1           0        0.931094    1.798031    0.263899
      3         17           0       -1.204114   -1.354477   -0.040838
      4          1           0        0.151322    2.164979   -1.737544
      5          6           0        0.686585    0.740275    0.285621
      6          1           0       -0.391707    0.286117   -1.614649
      7          7           0       -1.705906    1.339333   -0.190768
      8          1           0       -2.534922    0.843076   -0.495349
      9          1           0       -1.619876    2.202736   -0.711462
     10          6           0        1.813479    0.026606   -0.358300
     11          7           0        2.730629   -0.582660   -0.769223
     12          7           0        0.500792    0.363819    1.685673
     13          1           0        1.389008    0.473243    2.160836
     14          1           0        0.224222   -0.608519    1.736506
 ---------------------------------------------------------------------

 SCF Done:  E(RHF) =  -740.563511247     A.U. after    2 cycles

 The electronic state is 1-A.
 Alpha  occ. eigenvalues -- -103.46980 -15.51445 -15.50001 -15.48703 -11.23022
 Alpha  occ. eigenvalues --  -11.18982 -11.16558 -10.50281  -8.15936  -8.15780
 Alpha  occ. eigenvalues --   -8.15753  -1.08536  -1.04674  -1.02513  -0.93573
 Alpha  occ. eigenvalues --   -0.86059  -0.70279  -0.60247  -0.57092  -0.53854
 Alpha  occ. eigenvalues --   -0.49447  -0.47511  -0.44669  -0.42434  -0.34113
 Alpha  occ. eigenvalues --   -0.33680  -0.31513  -0.30024  -0.29253  -0.28838
 Alpha  occ. eigenvalues --   -0.27696  -0.10947
 Alpha virt. eigenvalues --    0.12706   0.13826   0.15068   0.16510   0.17369
 Alpha virt. eigenvalues --    0.17902   0.19002   0.20727   0.21839   0.23130
 Alpha virt. eigenvalues --    0.24413   0.24530   0.25732   0.26375   0.27478

 Mulliken charges:
               1
     1  C    0.051514
     2  H   -0.104162
     3  Cl  -0.559580
     4  H   -0.577182
     5  C    1.493850
     6  H   -0.285663
     7  N   -0.220186
     8  H    0.025930
     9  H    0.096287
    10  C   -0.201732
    11  N   -0.296304
    12  N   -0.473829
    13  H   -0.010803
    14  H    0.061859
 Sum of Mulliken charges =  -1.00000

 Dipole moment (field-independent basis, Debye):
    X=             -1.4687    Y=             -2.3764    Z=              4.9550  Tot=              5.6883

 Test job not archived.
 1\1\GINC-SE116\SP\RHF\Aug-CC-pVDZ\C3H7Cl1N3(1-)\OHZDE\09-Apr-2025\0\\#
 t hf aug-cc-pvdz iop(5/13=1,5/36=2,99/5=2) pseudo=read geom=check gues
 s=(read,tcheck) scf=(maxcycle=1)\\title\\-1,1\C,0,0.36183118,-0.064835
 23,-0.11869875\H,0,1.67673896,1.57005458,-0.36457379\Cl,0,-1.73682696,
 -0.13914983,-0.23623725\H,0,2.31083164,-0.27804064,0.60027928\C,0,0.61
 846537,1.44681403,-0.15487659\H,0,0.38374384,-0.53257528,0.84858081\N,
 0,0.70234712,-0.77700665,-1.31995889\H,0,0.10473673,-1.59303047,-1.377
 17661\H,0,1.65943351,-1.07020399,-1.17160422\C,0,0.38371464,1.99412234

 Normal termination of Gaussian 16 at Wed Apr  9 02:53:56 2025.
