 Gaussian 16, Revision C.01,

 ----------------------------------------------------------------------
 #t hf aug-cc-pvdz symm=none int=(grid=ultrafine) guess=(read,tcheck) s
 table=(opt,rrhf)
 ----------------------------------------------------------------------
 -----
 title
 -----
 Symbolic Z-matrix:
 Charge = -1 Multiplicity = 1

 SCF Done:  E(RHF) =  -987.885243021     A.U. after   17 cycles
 Normal termination of Gaussian 16 at Wed Apr  9 02:44:36 2025.
 Gaussian 16:  ES64L-G16RevC.01  3-Jul-2019

 ----------------------------------------------------------------------
 #t hf aug-cc-pvdz iop(5/13=1,5/36=2,99/5=2) pseudo=read geom=check gue
 ss=(read,tcheck) scf=(maxcycle=1)
 ----------------------------------------------------------------------
 -----
 title
 -----
 Structure from the checkpoint file:  "E2SN2_25_mol2.chk"
 Charge = -1 Multiplicity = 1

                         Standard orientation:
 ---------------------------------------------------------------------
 Center     Atomic      Atomic             Coordinates (Angstroms)
 Number     Number       Type             X           Y           Z
 ---------------------------------------------------------------------
      1          6           0        0.313580   -0.227774   -0.103561
      2          6           0       -0.994008    0.309374   -0.650033
      3         17           0        1.252085   -1.127571   -1.344414
      4          1           0       -1.681670   -0.516014   -0.878453
      5          1           0       -0.757203    0.845728   -1.576475
      6          7           0        1.205944    0.951920    0.304729
      7          8           0        1.814314    0.871607    1.364987
      8          8           0        1.261743    1.880857   -0.489195
      9          6           0        0.136649   -1.089068    1.059305
     10          7           0       -0.005255   -1.849902    1.942757
     11          7           0       -1.601836    1.079164    0.409839
     12          1           0       -2.613790    0.726394    0.331839
     13          1           0       -1.556122    2.065131    0.182796
     14          9           0       -3.690489   -0.132858   -0.294062
 ---------------------------------------------------------------------

 SCF Done:  E(RHF) =  -988.060320208     A.U. after    2 cycles

 The electronic state is 1-A.
 Alpha  occ. eigenvalues -- -103.59600 -25.75206 -20.53924 -20.53541 -15.83320
 Alpha  occ. eigenvalues --  -15.55804 -15.45153 -11.31267 -11.20685 -11.15623
 Alpha  occ. eigenvalues --  -10.62881  -8.28607  -8.28292  -8.28283  -1.46339
 Alpha  occ. eigenvalues --   -1.28248  -1.24165  -1.14011  -1.08005  -1.02759
 Alpha  occ. eigenvalues --   -0.94980  -0.81798  -0.75908  -0.70671  -0.65157
 Alpha  occ. eigenvalues --   -0.64395  -0.56928  -0.53053  -0.52395  -0.46537
 Alpha  occ. eigenvalues --   -0.45542  -0.44028  -0.43801  -0.40514  -0.39929
 Alpha  occ. eigenvalues --   -0.38645  -0.38303  -0.36291  -0.35877  -0.34207
 Alpha  occ. eigenvalues --   -0.33785  -0.31814  -0.25545
 Alpha virt. eigenvalues --    0.13538   0.14555   0.14845   0.16234   0.17467
 Alpha virt. eigenvalues --    0.18299   0.19438   0.20716   0.22319   0.22633
 Alpha virt. eigenvalues --    0.24090   0.24606   0.25041   0.25249   0.25777

 Mulliken charges:
               1
     1  C    0.617993
     2  C    1.057953
     3  Cl  -0.108241
     4  H   -0.077755
     5  H   -0.021098
     6  N    0.343299
     7  O   -0.589727
     8  O   -0.602559
     9  C   -0.267567
    10  N   -0.205970
    11  N   -0.455441
    12  H    0.238330
    13  H    0.013625
    14  F   -0.942844
 Sum of Mulliken charges =  -1.00000

 Dipole moment (field-independent basis, Debye):
    X=              9.6766    Y=              0.8116    Z=             -2.8201  Tot=             10.1117

 Test job not archived.
 1\1\GINC-SE292\SP\RHF\Aug-CC-pVDZ\C3H4Cl1F1N3O2(1-)\OHZDE\09-Apr-2025\
 0\\#t hf aug-cc-pvdz iop(5/13=1,5/36=2,99/5=2) pseudo=read geom=check
 guess=(read,tcheck) scf=(maxcycle=1)\\title\\-1,1\C,0,-0.571261,0.0188
 94,-1.535037\C,0,0.034383,-0.105618,-0.151333\Cl,0,-0.451853,-1.510725
 ,-2.471065\H,0,1.123764,-0.22777,-0.219511\H,0,-0.398968,-1.001864,0.3
 0801\N,0,-2.074403,0.295816,-1.398768\O,0,-2.570536,1.144191,-2.130084
 \O,0,-2.671951,-0.385472,-0.577101\C,0,0.020242,1.092917,-2.323699\N,0
 ,0.549644,1.899963,-2.992955\N,0,-0.204554,1.149934,0.520871\H,0,0.762

 Normal termination of Gaussian 16 at Wed Apr  9 02:44:43 2025.
