 Gaussian 16, Revision C.01,

 ----------------------------------------------------------------------
 #t hf aug-cc-pvdz symm=none int=(grid=ultrafine) guess=(read,tcheck) s
 table=(opt,rrhf)
 ----------------------------------------------------------------------
 -----
 title
 -----
 Symbolic Z-matrix:
 Charge = -1 Multiplicity = 1

 SCF Done:  E(RHF) =  -876.140489507     A.U. after   16 cycles
 Normal termination of Gaussian 16 at Wed Apr  9 02:39:08 2025.
 Gaussian 16:  ES64L-G16RevC.01  3-Jul-2019

 ----------------------------------------------------------------------
 #t hf aug-cc-pvdz iop(5/13=1,5/36=2,99/5=2) pseudo=read geom=check gue
 ss=(read,tcheck) scf=(maxcycle=1)
 ----------------------------------------------------------------------
 -----
 title
 -----
 Structure from the checkpoint file:  "E2SN2_202_mol2.chk"
 Charge = -1 Multiplicity = 1

                         Standard orientation:
 ---------------------------------------------------------------------
 Center     Atomic      Atomic             Coordinates (Angstroms)
 Number     Number       Type             X           Y           Z
 ---------------------------------------------------------------------
      1          6           0        0.767499   -0.274056    0.362476
      2          6           0       -0.329654    0.324101   -0.554689
      3         17           0        2.392860    0.211448   -0.332402
      4          1           0        0.124309    0.541939   -1.530157
      5          1           0        0.724159    0.217507    1.330348
      6          7           0        0.647590   -1.699529    0.400608
      7          1           0        1.392855   -2.058436    0.989446
      8          1           0       -0.241344   -1.739759    0.945167
      9          6           0       -0.803185    1.597337   -0.007381
     10          7           0       -1.116994    2.670660    0.347822
     11          6           0       -1.461978   -0.569700   -0.830621
     12          7           0       -2.320104   -1.197300   -1.330162
     13          9           0       -1.354236   -0.604307    1.574383
 ---------------------------------------------------------------------

 SCF Done:  E(RHF) =  -876.277920942     A.U. after    2 cycles

 The electronic state is 1-A.
 Alpha  occ. eigenvalues -- -103.53780 -25.76996 -15.52680 -15.50616 -15.48403
 Alpha  occ. eigenvalues --  -11.23144 -11.21266 -11.18426 -11.17392 -10.57153
 Alpha  occ. eigenvalues --   -8.22859  -8.22607  -8.22590  -1.26384  -1.10111
 Alpha  occ. eigenvalues --   -1.06520  -1.04633  -0.99738  -0.94455  -0.73603
 Alpha  occ. eigenvalues --   -0.64810  -0.59114  -0.55556  -0.51445  -0.47790
 Alpha  occ. eigenvalues --   -0.43632  -0.42331  -0.41153  -0.37381  -0.36847
 Alpha  occ. eigenvalues --   -0.36686  -0.35434  -0.34144  -0.33790  -0.33192
 Alpha  occ. eigenvalues --   -0.32012  -0.30561  -0.28037
 Alpha virt. eigenvalues --    0.13058   0.13368   0.15718   0.17426   0.18945
 Alpha virt. eigenvalues --    0.18992   0.20031   0.22031   0.23175   0.23738
 Alpha virt. eigenvalues --    0.24521   0.25288   0.25820   0.26338   0.26624

 Mulliken charges:
               1
     1  C    0.294303
     2  C    0.998917
     3  Cl  -0.259468
     4  H    0.112717
     5  H    0.030413
     6  N   -0.501916
     7  H    0.001681
     8  H    0.247119
     9  C   -0.245268
    10  N   -0.305168
    11  C   -0.040153
    12  N   -0.384300
    13  F   -0.948876
 Sum of Mulliken charges =  -1.00000

 Dipole moment (field-independent basis, Debye):
    X=              6.4498    Y=              0.3717    Z=             -2.3243  Tot=              6.8659

 Test job not archived.
 1\1\GINC-SE338\SP\RHF\Aug-CC-pVDZ\C4H4Cl1F1N3(1-)\OHZDE\09-Apr-2025\0\
 \#t hf aug-cc-pvdz iop(5/13=1,5/36=2,99/5=2) pseudo=read geom=check gu
 ess=(read,tcheck) scf=(maxcycle=1)\\title\\-1,1\C,0,-0.089194,0.03801,
 0.020712\C,0,-0.516985,-0.074334,-1.46492\Cl,0,1.700652,0.432828,0.051
 344\H,0,0.383739,-0.257523,-2.065096\H,0,-0.570179,0.906915,0.461104\N
 ,0,-0.338122,-1.199456,0.694892\H,0,-0.026116,-1.098076,1.655797\H,0,-
 1.379846,-1.143711,0.686542\C,0,-1.08639,1.195419,-1.921441\N,0,-1.439
 559,2.231973,-2.342744\C,0,-1.430519,-1.184657,-1.764613\N,0,-1.972152

 Normal termination of Gaussian 16 at Wed Apr  9 02:39:14 2025.
