 Gaussian 16, Revision C.01,

 ----------------------------------------------------------------------
 #t hf aug-cc-pvdz symm=none int=(grid=ultrafine) guess=(read,tcheck) s
 table=(opt,rrhf)
 ----------------------------------------------------------------------
 -----
 title
 -----
 Symbolic Z-matrix:
 Charge = -1 Multiplicity = 1

 SCF Done:  E(RHF) =  -935.293060044     A.U. after   15 cycles
 Normal termination of Gaussian 16 at Wed Apr  9 02:53:07 2025.
 Gaussian 16:  ES64L-G16RevC.01  3-Jul-2019

 ----------------------------------------------------------------------
 #t hf aug-cc-pvdz iop(5/13=1,5/36=2,99/5=2) pseudo=read geom=check gue
 ss=(read,tcheck) scf=(maxcycle=1)
 ----------------------------------------------------------------------
 -----
 title
 -----
 Structure from the checkpoint file:  "E2SN2_356_mol2.chk"
 Charge = -1 Multiplicity = 1

                         Standard orientation:
 ---------------------------------------------------------------------
 Center     Atomic      Atomic             Coordinates (Angstroms)
 Number     Number       Type             X           Y           Z
 ---------------------------------------------------------------------
      1          6           0        0.145215    1.025315    0.078574
      2          6           0        0.460160   -0.258703   -0.704728
      3          9           0        1.382436    1.682874    0.234858
      4          1           0        0.738398   -0.038980   -1.733532
      5          1           0       -0.416989   -0.911511   -0.653266
      6          6           0       -0.760280    1.903439   -0.755002
      7          1           0       -1.694240    1.373013   -0.950734
      8          1           0       -0.966305    2.811448   -0.186223
      9          1           0       -0.270284    2.168150   -1.694608
     10          7           0       -0.415073    0.840730    1.379756
     11          1           0        0.127688    0.137603    1.869090
     12          1           0       -1.346797    0.444763    1.243566
     13          7           0        1.628015   -0.970006   -0.127686
     14          8           0        1.556370   -1.343195    1.043926
     15          8           0        2.609489   -1.145710   -0.850329
     16         17           0       -2.911849   -0.960852   -0.119667
 ---------------------------------------------------------------------

 SCF Done:  E(RHF) =  -935.454644734     A.U. after    2 cycles

 The electronic state is 1-A.
 Alpha  occ. eigenvalues -- -103.38447 -25.99346 -20.51328 -20.51023 -15.80455
 Alpha  occ. eigenvalues --  -15.48444 -11.25410 -11.18582 -11.11909 -10.41523
 Alpha  occ. eigenvalues --   -8.07119  -8.07097  -8.07090  -1.52781  -1.43363
 Alpha  occ. eigenvalues --   -1.25072  -1.06936  -0.97252  -0.88769  -0.83745
 Alpha  occ. eigenvalues --   -0.76628  -0.72735  -0.65796  -0.64475  -0.63734
 Alpha  occ. eigenvalues --   -0.61754  -0.59058  -0.57036  -0.52206  -0.48832
 Alpha  occ. eigenvalues --   -0.47965  -0.44236  -0.42333  -0.42053  -0.40169
 Alpha  occ. eigenvalues --   -0.38757  -0.36749  -0.29049  -0.21814  -0.21620
 Alpha  occ. eigenvalues --   -0.21523
 Alpha virt. eigenvalues --    0.12344   0.13552   0.14963   0.15717   0.16567
 Alpha virt. eigenvalues --    0.17703   0.18448   0.19453   0.20137   0.21505
 Alpha virt. eigenvalues --    0.23846   0.24955   0.25300   0.25682   0.26250

 Mulliken charges:
               1
     1  C   -0.262649
     2  C    1.250454
     3  F   -0.480495
     4  H   -0.180303
     5  H   -0.042733
     6  C    0.647180
     7  H    0.036387
     8  H   -0.009294
     9  H   -0.005333
    10  N   -0.422492
    11  H    0.038424
    12  H    0.136555
    13  N    0.510072
    14  O   -0.645988
    15  O   -0.630137
    16  Cl  -0.939648
 Sum of Mulliken charges =  -1.00000

 Dipole moment (field-independent basis, Debye):
    X=              5.6540    Y=              3.4681    Z=             -1.7803  Tot=              6.8677

 Test job not archived.
 1\1\GINC-SE040\SP\RHF\Aug-CC-pVDZ\C3H7Cl1F1N2O2(1-)\OHZDE\09-Apr-2025\
 0\\#t hf aug-cc-pvdz iop(5/13=1,5/36=2,99/5=2) pseudo=read geom=check
 guess=(read,tcheck) scf=(maxcycle=1)\\title\\-1,1\C,0,-0.007183,0.0062
 05,0.011486\C,0,-0.43645,0.131632,-1.458702\F,0,1.40087,-0.05956,-0.01
 2729\H,0,-0.165338,1.101516,-1.870959\H,0,-1.515478,-0.044137,-1.51346
 2\C,0,-0.413981,1.258877,0.753915\H,0,-1.499849,1.364328,0.712496\H,0,
 -0.094877,1.154199,1.792015\H,0,0.069174,2.133667,0.313085\N,0,-0.4833
 24,-1.149112,0.704018\H,0,-0.328541,-1.96339,0.119707\H,0,-1.495568,-1

 Normal termination of Gaussian 16 at Wed Apr  9 02:53:14 2025.
