 Gaussian 16, Revision C.01,

 ----------------------------------------------------------------------
 #t hf aug-cc-pvdz symm=none int=(grid=ultrafine) guess=(read,tcheck) s
 table=(opt,rrhf)
 ----------------------------------------------------------------------
 -----
 title
 -----
 Symbolic Z-matrix:
 Charge = -1 Multiplicity = 1

 SCF Done:  E(RHF) =  -591.119438992     A.U. after   15 cycles
 Normal termination of Gaussian 16 at Wed Apr  9 02:54:08 2025.
 Gaussian 16:  ES64L-G16RevC.01  3-Jul-2019

 ----------------------------------------------------------------------
 #t hf aug-cc-pvdz iop(5/13=1,5/36=2,99/5=2) pseudo=read geom=check gue
 ss=(read,tcheck) scf=(maxcycle=1)
 ----------------------------------------------------------------------
 -----
 title
 -----
 Structure from the checkpoint file:  "E2SN2_377_mol1.chk"
 Charge = -1 Multiplicity = 1

                         Standard orientation:
 ---------------------------------------------------------------------
 Center     Atomic      Atomic             Coordinates (Angstroms)
 Number     Number       Type             X           Y           Z
 ---------------------------------------------------------------------
      1          6           0        0.029411   -0.516733    0.024194
      2          1           0       -1.757919   -1.549004   -0.211716
      3          9           0       -0.512642   -0.094509    1.646688
      4          9           0        0.787417   -0.750933   -1.596329
      5          6           0       -1.397800   -0.571583   -0.542495
      6          1           0       -1.324716   -0.577399   -1.626055
      7          7           0        0.689000   -1.674197    0.505273
      8          1           0        0.929782   -1.506520    1.470306
      9          1           0        1.508503   -1.804274   -0.067185
     10          7           0        0.775088    0.800587    0.006859
     11          8           0        0.228845    1.768618   -0.514499
     12          8           0        1.887093    0.825421    0.519602
     13          7           0       -2.360412    0.443648   -0.130993
     14          1           0       -2.018679    1.325812   -0.491724
     15          1           0       -2.252844    0.507685    0.874147
 ---------------------------------------------------------------------

 SCF Done:  E(RHF) =  -591.298971193     A.U. after    2 cycles

 The electronic state is 1-A.
 Alpha  occ. eigenvalues --  -25.85758 -25.83496 -20.46678 -20.46603 -15.76602
 Alpha  occ. eigenvalues --  -15.47754 -15.45673 -11.29076 -11.12463  -1.40013
 Alpha  occ. eigenvalues --   -1.36120  -1.33850  -1.21010  -1.04741  -1.00345
 Alpha  occ. eigenvalues --   -0.87456  -0.77770  -0.66718  -0.60137  -0.59079
 Alpha  occ. eigenvalues --   -0.58966  -0.55527  -0.53354  -0.50080  -0.47054
 Alpha  occ. eigenvalues --   -0.45023  -0.43137  -0.42800  -0.41920  -0.40837
 Alpha  occ. eigenvalues --   -0.39054  -0.36597  -0.36113  -0.34908  -0.32562
 Alpha  occ. eigenvalues --   -0.29304  -0.25131
 Alpha virt. eigenvalues --    0.13643   0.14701   0.15390   0.15473   0.17484
 Alpha virt. eigenvalues --    0.18437   0.22063   0.22780   0.23333   0.24845
 Alpha virt. eigenvalues --    0.26688   0.27159   0.27656   0.29168   0.30404

 Mulliken charges:
               1
     1  C    1.135323
     2  H   -0.041773
     3  F   -0.748042
     4  F   -0.755627
     5  C    0.872608
     6  H   -0.016878
     7  N   -0.404094
     8  H    0.073752
     9  H    0.073085
    10  N    0.554591
    11  O   -0.728240
    12  O   -0.687839
    13  N   -0.490533
    14  H    0.087482
    15  H    0.076186
 Sum of Mulliken charges =  -1.00000

 Dipole moment (field-independent basis, Debye):
    X=             -0.2089    Y=             -0.8658    Z=              0.9272  Tot=              1.2857

 Test job not archived.
 1\1\GINC-SE455\SP\RHF\Aug-CC-pVDZ\C2H6F2N3O2(1-)\OHZDE\09-Apr-2025\0\\
 #t hf aug-cc-pvdz iop(5/13=1,5/36=2,99/5=2) pseudo=read geom=check gue
 ss=(read,tcheck) scf=(maxcycle=1)\\title\\-1,1\C,0,0.72653425,-0.00767
 812,-0.23193086\H,0,1.14805929,1.53011114,-1.56358604\F,0,-0.87699318,
 -0.09797147,-0.95658856\F,0,2.25989958,-0.08224043,0.71609288\C,0,0.87
 139247,1.49716297,-0.50678789\H,0,1.70725211,1.86320911,0.08213119\N,0
 ,1.22725588,-0.98401291,-1.12762207\H,0,0.44986822,-1.55936952,-1.4140
 0252\H,0,1.92038406,-1.5157725,-0.62461165\N,0,0.0885781,-0.45809655,1

 Normal termination of Gaussian 16 at Wed Apr  9 02:54:14 2025.
