 Gaussian 16, Revision C.01,

 ----------------------------------------------------------------------
 #t hf aug-cc-pvdz symm=none int=(grid=ultrafine) guess=(read,tcheck) s
 table=(opt,rrhf)
 ----------------------------------------------------------------------
 -----
 title
 -----
 Symbolic Z-matrix:
 Charge = -1 Multiplicity = 1

 SCF Done:  E(RHF) =  -627.865132738     A.U. after   16 cycles
 Normal termination of Gaussian 16 at Wed Apr  9 02:33:08 2025.
 Gaussian 16:  ES64L-G16RevC.01  3-Jul-2019

 ----------------------------------------------------------------------
 #t hf aug-cc-pvdz iop(5/13=1,5/36=2,99/5=2) pseudo=read geom=check gue
 ss=(read,tcheck) scf=(maxcycle=1)
 ----------------------------------------------------------------------
 -----
 title
 -----
 Structure from the checkpoint file:  "E2SN2_137_mol1.chk"
 Charge = -1 Multiplicity = 1

                         Standard orientation:
 ---------------------------------------------------------------------
 Center     Atomic      Atomic             Coordinates (Angstroms)
 Number     Number       Type             X           Y           Z
 ---------------------------------------------------------------------
      1          6           0       -0.162023   -0.389562    0.326767
      2          6           0        0.765006   -0.011122   -0.789497
      3          9           0       -0.136993   -1.739876    0.636532
      4          9           0        0.549391    2.441065   -0.255500
      5          1           0        0.670964    1.358940   -0.695605
      6          1           0        0.462059   -0.462824   -1.735805
      7          7           0       -0.024176    0.331429    1.546253
      8          1           0        0.098329    1.308082    1.272207
      9          1           0        0.844443    0.016195    1.965292
     10          6           0        2.120140   -0.347265   -0.456348
     11          7           0        3.239224   -0.594212   -0.179375
     12          7           0       -1.585426   -0.153455   -0.210089
     13          8           0       -1.991347   -0.971775   -1.032747
     14          8           0       -2.200336    0.830558    0.180442
 ---------------------------------------------------------------------

 SCF Done:  E(RHF) =  -628.059513483     A.U. after    2 cycles

 The electronic state is 1-A.
 Alpha  occ. eigenvalues --  -26.01348 -25.85114 -20.50458 -20.49811 -15.78787
 Alpha  occ. eigenvalues --  -15.50168 -15.49964 -11.30786 -11.16303 -11.10733
 Alpha  occ. eigenvalues --   -1.55369  -1.42209  -1.35978  -1.24258  -1.08838
 Alpha  occ. eigenvalues --   -1.04125  -0.92753  -0.85562  -0.73626  -0.68801
 Alpha  occ. eigenvalues --   -0.65024  -0.63773  -0.61118  -0.58348  -0.57027
 Alpha  occ. eigenvalues --   -0.54102  -0.52669  -0.51685  -0.48413  -0.44646
 Alpha  occ. eigenvalues --   -0.43642  -0.41374  -0.39880  -0.38299  -0.36583
 Alpha  occ. eigenvalues --   -0.35422  -0.32274  -0.29908  -0.24467
 Alpha virt. eigenvalues --    0.14019   0.14249   0.17198   0.17969   0.18829
 Alpha virt. eigenvalues --    0.18995   0.19950   0.22185   0.22627   0.24277
 Alpha virt. eigenvalues --    0.24777   0.25978   0.26164   0.26945   0.27975

 Mulliken charges:
               1
     1  C    1.329559
     2  C   -0.068150
     3  F   -0.387849
     4  F   -0.648587
     5  H    0.519124
     6  H   -0.072135
     7  N   -0.489747
     8  H    0.153336
     9  H    0.042693
    10  C   -0.067085
    11  N   -0.388123
    12  N    0.194922
    13  O   -0.587529
    14  O   -0.530430
 Sum of Mulliken charges =  -1.00000

 Dipole moment (field-independent basis, Debye):
    X=             -1.7750    Y=             -2.7170    Z=              0.7585  Tot=              3.3329

 Test job not archived.
 1\1\GINC-SE364\SP\RHF\Aug-CC-pVDZ\C3H4F2N3O2(1-)\OHZDE\09-Apr-2025\0\\
 #t hf aug-cc-pvdz iop(5/13=1,5/36=2,99/5=2) pseudo=read geom=check gue
 ss=(read,tcheck) scf=(maxcycle=1)\\title\\-1,1\C,0,-0.12330698,-0.0526
 1096,-0.33619204\C,0,-0.09364358,0.06397214,1.15852369\F,0,1.13253941,
 -0.17098515,-0.90957294\F,0,-2.5664016,-0.38393967,1.3308733\H,0,-1.44
 075399,-0.05898988,1.41328403\H,0,0.38715051,0.98916345,1.48127635\N,0
 ,-0.94134322,-1.0814229,-0.88239626\H,0,-1.80637851,-1.05804429,-0.339
 14025\H,0,-0.4706727,-1.95661091,-0.67750772\C,0,0.53506033,-1.0867839

 Normal termination of Gaussian 16 at Wed Apr  9 02:33:15 2025.
