 Gaussian 16, Revision C.01,

 ----------------------------------------------------------------------
 #t hf aug-cc-pvdz symm=none int=(grid=ultrafine) guess=(read,tcheck) s
 table=(opt,rrhf)
 ----------------------------------------------------------------------
 -----
 title
 -----
 Symbolic Z-matrix:
 Charge = -1 Multiplicity = 1

 SCF Done:  E(RHF) =  -627.835554414     A.U. after   17 cycles
 Normal termination of Gaussian 16 at Wed Apr  9 02:44:21 2025.
 Gaussian 16:  ES64L-G16RevC.01  3-Jul-2019

 ----------------------------------------------------------------------
 #t hf aug-cc-pvdz iop(5/13=1,5/36=2,99/5=2) pseudo=read geom=check gue
 ss=(read,tcheck) scf=(maxcycle=1)
 ----------------------------------------------------------------------
 -----
 title
 -----
 Structure from the checkpoint file:  "E2SN2_264_mol2.chk"
 Charge = -1 Multiplicity = 1

                         Standard orientation:
 ---------------------------------------------------------------------
 Center     Atomic      Atomic             Coordinates (Angstroms)
 Number     Number       Type             X           Y           Z
 ---------------------------------------------------------------------
      1          6           0        0.012272    0.094204    0.522513
      2          6           0        0.899218   -1.147248    0.722735
      3          9           0       -0.422626    0.514883    1.799763
      4          1           0        0.262841   -2.005474    0.510588
      5          1           0        1.144870   -1.152184    1.790151
      6          6           0        0.708156    1.227743   -0.082842
      7          7           0        1.339437    2.197442   -0.292361
      8          7           0       -1.318678   -0.143528   -0.164310
      9          8           0       -1.808069   -1.262096   -0.071500
     10          8           0       -1.893459    0.852932   -0.581733
     11          7           0        2.105338   -1.240128   -0.073645
     12          1           0        2.712433   -0.464197    0.169747
     13          1           0        1.746569   -1.049275   -1.020345
     14          9           0        0.327621   -0.381578   -1.742708
 ---------------------------------------------------------------------

 SCF Done:  E(RHF) =  -628.027144215     A.U. after    2 cycles

 The electronic state is 1-A.
 Alpha  occ. eigenvalues --  -26.02639 -25.78244 -20.48796 -20.48710 -15.79175
 Alpha  occ. eigenvalues --  -15.52096 -15.46716 -11.30926 -11.18200 -11.15664
 Alpha  occ. eigenvalues --   -1.55897  -1.41486  -1.27861  -1.23414  -1.06799
 Alpha  occ. eigenvalues --   -1.03159  -0.96222  -0.80623  -0.76421  -0.68946
 Alpha  occ. eigenvalues --   -0.67426  -0.63432  -0.60690  -0.59806  -0.56543
 Alpha  occ. eigenvalues --   -0.54722  -0.50263  -0.44240  -0.42262  -0.41964
 Alpha  occ. eigenvalues --   -0.40302  -0.38887  -0.38030  -0.36958  -0.35976
 Alpha  occ. eigenvalues --   -0.33934  -0.33299  -0.31847  -0.27065
 Alpha virt. eigenvalues --    0.12997   0.14784   0.15400   0.18526   0.19060
 Alpha virt. eigenvalues --    0.19364   0.20952   0.22167   0.23046   0.23901
 Alpha virt. eigenvalues --    0.24628   0.25709   0.26189   0.27266   0.28109

 Mulliken charges:
               1
     1  C    1.051336
     2  C    0.820098
     3  F   -0.483385
     4  H    0.049748
     5  H    0.003084
     6  C   -0.222302
     7  N   -0.332859
     8  N    0.669094
     9  O   -0.667100
    10  O   -0.662927
    11  N   -0.448293
    12  H    0.016421
    13  H    0.156411
    14  F   -0.949326
 Sum of Mulliken charges =  -1.00000

 Dipole moment (field-independent basis, Debye):
    X=              0.3857    Y=             -0.7709    Z=              5.2077  Tot=              5.2786

 Test job not archived.
 1\1\GINC-SE455\SP\RHF\Aug-CC-pVDZ\C3H4F2N3O2(1-)\OHZDE\09-Apr-2025\0\\
 #t hf aug-cc-pvdz iop(5/13=1,5/36=2,99/5=2) pseudo=read geom=check gue
 ss=(read,tcheck) scf=(maxcycle=1)\\title\\-1,1\C,0,-0.004326,-0.015761
 ,-0.015062\C,0,-0.313142,-0.380636,-1.477753\F,0,1.392103,-0.136629,0.
 166188\H,0,-0.659154,-1.413358,-1.460572\H,0,0.654564,-0.346836,-1.989
 757\C,0,-0.360731,1.356041,0.340964\N,0,-0.380117,2.517401,0.524262\N,
 0,-0.509865,-0.987741,1.03344\O,0,-0.666065,-2.15316,0.691811\O,0,-0.5
 26248,-0.574934,2.185338\N,0,-1.283703,0.43535,-2.177576\H,0,-0.92719,

 Normal termination of Gaussian 16 at Wed Apr  9 02:44:27 2025.
