 Gaussian 16, Revision C.01,

 ----------------------------------------------------------------------
 #t hf aug-cc-pvdz symm=none int=(grid=ultrafine) guess=(read,tcheck) s
 table=(opt,rrhf)
 ----------------------------------------------------------------------
 -----
 title
 -----
 Symbolic Z-matrix:
 Charge = -1 Multiplicity = 1

 SCF Done:  E(RHF) =  -852.266066504     A.U. after   16 cycles
 Normal termination of Gaussian 16 at Wed Apr  9 02:54:01 2025.
 Gaussian 16:  ES64L-G16RevC.01  3-Jul-2019

 ----------------------------------------------------------------------
 #t hf aug-cc-pvdz iop(5/13=1,5/36=2,99/5=2) pseudo=read geom=check gue
 ss=(read,tcheck) scf=(maxcycle=1)
 ----------------------------------------------------------------------
 -----
 title
 -----
 Structure from the checkpoint file:  "E2SN2_374_mol2.chk"
 Charge = -1 Multiplicity = 1

                         Standard orientation:
 ---------------------------------------------------------------------
 Center     Atomic      Atomic             Coordinates (Angstroms)
 Number     Number       Type             X           Y           Z
 ---------------------------------------------------------------------
      1          6           0        1.011610    0.204476    0.500719
      2          6           0       -0.439943   -0.159908    0.856372
      3         17           0        1.460348   -0.620959   -1.059320
      4          1           0       -0.658407    0.460502    1.729317
      5          1           0        1.576301   -0.276597    1.303166
      6          7           0        1.354886    1.589141    0.464216
      7          1           0        0.586145    2.125127    0.079733
      8          1           0        1.496495    1.862416    1.432462
      9          7           0       -0.671627   -1.515724    1.218208
     10          1           0       -0.181479   -2.132136    0.580515
     11          1           0       -0.225982   -1.566340    2.145117
     12          7           0       -1.357820    0.284622   -0.242986
     13          8           0       -1.486948    1.507446   -0.390872
     14          8           0       -1.886522   -0.557198   -0.960813
     15          1           0        0.860682   -0.292332    3.332996
 ---------------------------------------------------------------------

 SCF Done:  E(RHF) =  -852.402858237     A.U. after    2 cycles

 The electronic state is 1-A.
 Alpha  occ. eigenvalues -- -103.53196 -20.50870 -20.49947 -15.79158 -15.50425
 Alpha  occ. eigenvalues --  -15.49045 -11.21815 -11.21175 -10.56565  -8.22276
 Alpha  occ. eigenvalues --   -8.22013  -8.22004  -1.42463  -1.24186  -1.10961
 Alpha  occ. eigenvalues --   -1.05176  -1.00260  -0.90331  -0.77882  -0.70493
 Alpha  occ. eigenvalues --   -0.64297  -0.62314  -0.60922  -0.56327  -0.54132
 Alpha  occ. eigenvalues --   -0.51103  -0.48815  -0.44154  -0.41752  -0.39815
 Alpha  occ. eigenvalues --   -0.38363  -0.36259  -0.34694  -0.33446  -0.32312
 Alpha  occ. eigenvalues --   -0.26964  -0.10675
 Alpha virt. eigenvalues --    0.13557   0.14552   0.15516   0.16846   0.17400
 Alpha virt. eigenvalues --    0.18684   0.19173   0.20248   0.21830   0.22429
 Alpha virt. eigenvalues --    0.23613   0.24584   0.25764   0.26759   0.27544

 Mulliken charges:
               1
     1  C    0.112279
     2  C    1.175513
     3  Cl  -0.213297
     4  H   -0.146735
     5  H   -0.008880
     6  N   -0.340632
     7  H    0.070628
     8  H    0.077003
     9  N   -0.323671
    10  H    0.038948
    11  H    0.156517
    12  N    0.419090
    13  O   -0.675834
    14  O   -0.582833
    15  H   -0.758096
 Sum of Mulliken charges =  -1.00000

 Dipole moment (field-independent basis, Debye):
    X=             -1.0549    Y=              0.8812    Z=             -7.2869  Tot=              7.4154

 Test job not archived.
 1\1\GINC-SE367\SP\RHF\Aug-CC-pVDZ\C2H7Cl1N3O2(1-)\OHZDE\09-Apr-2025\0\
 \#t hf aug-cc-pvdz iop(5/13=1,5/36=2,99/5=2) pseudo=read geom=check gu
 ess=(read,tcheck) scf=(maxcycle=1)\\title\\-1,1\C,0,-0.097511,0.0857,0
 .015704\C,0,-0.580118,0.417832,-1.406635\Cl,0,1.686267,-0.277225,-0.03
 7714\H,0,-1.617832,0.730005,-1.263926\H,0,-0.618973,-0.851308,0.226232
 \N,0,-0.398675,1.021093,1.050502\H,0,-0.32221,1.966215,0.694175\H,0,-1
 .364867,0.84266,1.309089\N,0,-0.574552,-0.660081,-2.334489\H,0,0.28728
 6,-1.18602,-2.247975\H,0,-1.356747,-1.236547,-1.993638\N,0,0.17052,1.6

 Normal termination of Gaussian 16 at Wed Apr  9 02:54:07 2025.
