 Gaussian 16, Revision C.01,

 ----------------------------------------------------------------------
 #t hf aug-cc-pvdz symm=none int=(grid=ultrafine) guess=(read,tcheck) s
 table=(opt,rrhf)
 ----------------------------------------------------------------------
 -----
 title
 -----
 Symbolic Z-matrix:
 Charge = -1 Multiplicity = 1

 SCF Done:  E(RHF) =  -515.183495344     A.U. after   17 cycles
 Normal termination of Gaussian 16 at Wed Apr  9 02:51:59 2025.
 Gaussian 16:  ES64L-G16RevC.01  3-Jul-2019

 ----------------------------------------------------------------------
 #t hf aug-cc-pvdz iop(5/13=1,5/36=2,99/5=2) pseudo=read geom=check gue
 ss=(read,tcheck) scf=(maxcycle=1)
 ----------------------------------------------------------------------
 -----
 title
 -----
 Structure from the checkpoint file:  "E2SN2_331_mol1.chk"
 Charge = -1 Multiplicity = 1

                         Standard orientation:
 ---------------------------------------------------------------------
 Center     Atomic      Atomic             Coordinates (Angstroms)
 Number     Number       Type             X           Y           Z
 ---------------------------------------------------------------------
      1          6           0        0.139606   -0.414864   -0.177200
      2          1           0       -1.391112   -0.021647   -1.589636
      3          9           0       -0.030794   -0.516244    1.410039
      4          1           0        0.670247    0.062137   -1.930399
      5          6           0       -1.256890    0.137457   -0.521130
      6          6           0        0.353488   -1.859898   -0.567210
      7          1           0        1.404813   -2.027127   -0.781124
      8          1           0        0.038098   -2.488939    0.268292
      9          1           0       -0.244357   -2.104724   -1.442666
     10          7           0        1.353729    0.419468   -0.116953
     11          8           0        1.230987    1.633496    0.114713
     12          8           0        2.445601   -0.166132   -0.021333
     13          6           0       -1.492717    1.613727   -0.220403
     14          1           0       -1.272864    1.829050    0.825866
     15          1           0       -0.867023    2.253891   -0.838880
     16          1           0       -2.548960    1.838442   -0.420324
     17          7           0       -2.233382   -0.742113    0.156624
     18          1           0       -3.159368   -0.377943   -0.043160
     19          1           0       -2.068379   -0.655880    1.152607
 ---------------------------------------------------------------------

 SCF Done:  E(RHF) =  -515.342193083     A.U. after    2 cycles

 The electronic state is 1-A.
 Alpha  occ. eigenvalues --  -25.90096 -20.42185 -20.42063 -15.73955 -15.47529
 Alpha  occ. eigenvalues --  -11.23879 -11.13937 -11.08840 -11.08576  -1.41566
 Alpha  occ. eigenvalues --   -1.34415  -1.16015  -1.03373  -0.93592  -0.84414
 Alpha  occ. eigenvalues --   -0.80009  -0.71984  -0.63679  -0.59449  -0.56974
 Alpha  occ. eigenvalues --   -0.55346  -0.52977  -0.49578  -0.48330  -0.46619
 Alpha  occ. eigenvalues --   -0.45488  -0.43875  -0.43575  -0.40827  -0.39619
 Alpha  occ. eigenvalues --   -0.36223  -0.35441  -0.32887  -0.31754  -0.29562
 Alpha  occ. eigenvalues --   -0.26172  -0.12120
 Alpha virt. eigenvalues --    0.11931   0.13148   0.14105   0.14776   0.16134
 Alpha virt. eigenvalues --    0.16605   0.17206   0.17500   0.17683   0.20061
 Alpha virt. eigenvalues --    0.21874   0.23239   0.24385   0.25283   0.25749

 Mulliken charges:
               1
     1  C   -0.286707
     2  H   -0.246780
     3  F   -0.707670
     4  H   -0.179544
     5  C   -0.089873
     6  C    0.838211
     7  H    0.053000
     8  H    0.061225
     9  H    0.019553
    10  N    0.472333
    11  O   -0.709229
    12  O   -0.748674
    13  C    0.834835
    14  H    0.004696
    15  H    0.057274
    16  H   -0.092010
    17  N   -0.330054
    18  H   -0.051851
    19  H    0.101263
 Sum of Mulliken charges =  -1.00000

 Dipole moment (field-independent basis, Debye):
    X=             -5.7716    Y=             -0.9310    Z=              1.0206  Tot=              5.9346

 Test job not archived.
 1\1\GINC-SE132\SP\RHF\Aug-CC-pVDZ\C4H10F1N2O2(1-)\OHZDE\09-Apr-2025\0\
 \#t hf aug-cc-pvdz iop(5/13=1,5/36=2,99/5=2) pseudo=read geom=check gu
 ess=(read,tcheck) scf=(maxcycle=1)\\title\\-1,1\C,0,0.39079892,-0.0628
 7761,-0.04851799\H,0,1.66258454,1.62556132,-0.20480597\F,0,-1.19900221
 ,-0.07857455,-0.22438034\H,0,2.15751322,-0.23619402,0.6083678\C,0,0.60
 176106,1.46301859,-0.02240966\C,0,0.85812658,-0.73664269,-1.31880211\H
 ,0,1.15956744,-1.75655011,-1.09986723\H,0,0.02868873,-0.73717246,-2.02
 961754\H,0,1.69456732,-0.18908741,-1.74814011\N,0,0.38851315,-0.905999

 Normal termination of Gaussian 16 at Wed Apr  9 02:52:09 2025.
