 Gaussian 16, Revision C.01,

 ----------------------------------------------------------------------
 #t hf aug-cc-pvdz symm=none int=(grid=ultrafine) guess=(read,tcheck) s
 table=(opt,rrhf)
 ----------------------------------------------------------------------
 -----
 title
 -----
 Symbolic Z-matrix:
 Charge = -1 Multiplicity = 1

 SCF Done:  E(RHF) =  -878.553195588     A.U. after   15 cycles
 Normal termination of Gaussian 16 at Wed Apr  9 02:50:41 2025.
 Gaussian 16:  ES64L-G16RevC.01  3-Jul-2019

 ----------------------------------------------------------------------
 #t hf aug-cc-pvdz iop(5/13=1,5/36=2,99/5=2) pseudo=read geom=check gue
 ss=(read,tcheck) scf=(maxcycle=1)
 ----------------------------------------------------------------------
 -----
 title
 -----
 Structure from the checkpoint file:  "E2SN2_319_mol2.chk"
 Charge = -1 Multiplicity = 1

                         Standard orientation:
 ---------------------------------------------------------------------
 Center     Atomic      Atomic             Coordinates (Angstroms)
 Number     Number       Type             X           Y           Z
 ---------------------------------------------------------------------
      1          6           0        1.009114   -0.135418   -0.404378
      2          6           0        0.460435    1.132281    0.284492
      3          9           0        1.610575    0.348019   -1.626376
      4          1           0        1.312074    1.824481    0.311542
      5          6           0        2.166583   -0.685755    0.338253
      6          7           0        3.070971   -1.122821    0.947790
      7          7           0        0.051181   -1.097799   -0.662295
      8          1           0        0.318756   -2.063285   -0.603355
      9          1           0       -0.929753   -0.909922   -0.444999
     10          6           0       -0.011430    0.845226    1.701618
     11          1           0        0.774289    0.381055    2.302854
     12          1           0       -0.887703    0.194920    1.680897
     13          1           0       -0.301773    1.787999    2.170072
     14          7           0       -0.610053    1.758110   -0.471158
     15          1           0       -1.468272    1.217674   -0.368199
     16          1           0       -0.364704    1.765759   -1.454299
     17         17           0       -3.075352   -0.648899    0.048389
 ---------------------------------------------------------------------

 SCF Done:  E(RHF) =  -878.694987502     A.U. after    2 cycles

 The electronic state is 1-A.
 Alpha  occ. eigenvalues -- -103.38739 -25.99405 -15.55492 -15.50133 -15.48338
 Alpha  occ. eigenvalues --  -11.28762 -11.20089 -11.17037 -11.11276 -10.41846
 Alpha  occ. eigenvalues --   -8.07451  -8.07416  -8.07406  -1.52238  -1.11127
 Alpha  occ. eigenvalues --   -1.07623  -1.03082  -0.89633  -0.84628  -0.83515
 Alpha  occ. eigenvalues --   -0.72499  -0.67184  -0.62595  -0.61537  -0.58278
 Alpha  occ. eigenvalues --   -0.53958  -0.53121  -0.49363  -0.47418  -0.45529
 Alpha  occ. eigenvalues --   -0.41438  -0.40335  -0.39194  -0.37760  -0.37262
 Alpha  occ. eigenvalues --   -0.30763  -0.27201  -0.22215  -0.21949  -0.21843
 Alpha virt. eigenvalues --    0.12239   0.13544   0.13812   0.14706   0.15550
 Alpha virt. eigenvalues --    0.17553   0.18214   0.18607   0.19780   0.20761
 Alpha virt. eigenvalues --    0.22164   0.23125   0.23976   0.24315   0.24502

 Mulliken charges:
               1
     1  C    1.554573
     2  C   -0.298743
     3  F   -0.456174
     4  H   -0.224375
     5  C   -0.585025
     6  N   -0.213866
     7  N   -0.488982
     8  H   -0.020044
     9  H    0.026874
    10  C    0.950053
    11  H   -0.095878
    12  H   -0.065456
    13  H   -0.048603
    14  N   -0.205263
    15  H    0.069317
    16  H    0.018125
    17  Cl  -0.916533
 Sum of Mulliken charges =  -1.00000

 Dipole moment (field-independent basis, Debye):
    X=              6.7828    Y=              1.5982    Z=              0.2990  Tot=              6.9749

 Test job not archived.
 1\1\GINC-SE113\SP\RHF\Aug-CC-pVDZ\C4H8Cl1F1N3(1-)\OHZDE\09-Apr-2025\0\
 \#t hf aug-cc-pvdz iop(5/13=1,5/36=2,99/5=2) pseudo=read geom=check gu
 ess=(read,tcheck) scf=(maxcycle=1)\\title\\-1,1\C,0,-0.032707,0.04614,
 -0.003539\C,0,-0.374463,0.061004,-1.508741\F,0,1.216448,-0.67626,0.077
 055\H,0,0.531089,0.446026,-1.995462\C,0,0.337186,1.399552,0.471393\N,0
 ,0.609345,2.481773,0.839098\N,0,-1.002436,-0.53682,0.79026\H,0,-1.1498
 18,-0.165902,1.711092\H,0,-1.828897,-0.955522,0.358521\C,0,-1.5486,0.9
 79048,-1.811893\H,0,-1.376527,1.991704,-1.438781\H,0,-2.462544,0.57762

 Normal termination of Gaussian 16 at Wed Apr  9 02:50:49 2025.
