 Gaussian 16, Revision C.01,

 ----------------------------------------------------------------------
 #t hf aug-cc-pvdz symm=none int=(grid=ultrafine) guess=(read,tcheck) s
 table=(opt,rrhf)
 ----------------------------------------------------------------------
 -----
 title
 -----
 Symbolic Z-matrix:
 Charge = -1 Multiplicity = 1

 SCF Done:  E(RHF) =  -852.235599242     A.U. after   17 cycles
 Normal termination of Gaussian 16 at Wed Apr  9 02:39:11 2025.
 Gaussian 16:  ES64L-G16RevC.01  3-Jul-2019

 ----------------------------------------------------------------------
 #t hf aug-cc-pvdz iop(5/13=1,5/36=2,99/5=2) pseudo=read geom=check gue
 ss=(read,tcheck) scf=(maxcycle=1)
 ----------------------------------------------------------------------
 -----
 title
 -----
 Structure from the checkpoint file:  "E2SN2_199_mol1.chk"
 Charge = -1 Multiplicity = 1

                         Standard orientation:
 ---------------------------------------------------------------------
 Center     Atomic      Atomic             Coordinates (Angstroms)
 Number     Number       Type             X           Y           Z
 ---------------------------------------------------------------------
      1          6           0       -0.838235    0.650081    0.697545
      2          1           0        1.081809    0.600703    1.618742
      3         17           0       -1.720659   -0.712208   -0.683241
      4          1           0       -0.518797    1.844594    2.381748
      5          6           0        0.513646   -0.019181    0.934882
      6          1           0       -1.556659    0.445271    1.472083
      7          7           0       -0.874366    1.805650   -0.141290
      8          1           0       -0.590049    2.574940    0.448583
      9          1           0       -1.834970    1.946849   -0.429566
     10          7           0        1.365655    0.040367   -0.347366
     11          8           0        1.540075   -0.996758   -0.986936
     12          8           0        1.892309    1.119684   -0.605958
     13          7           0        0.367734   -1.335570    1.443345
     14          1           0        1.274432   -1.745182    1.621564
     15          1           0       -0.129262   -1.901564    0.767703
 ---------------------------------------------------------------------

 SCF Done:  E(RHF) =  -852.369285684     A.U. after    2 cycles

 The electronic state is 1-A.
 Alpha  occ. eigenvalues -- -103.46403 -20.48871 -20.48769 -15.77426 -15.50821
 Alpha  occ. eigenvalues --  -15.48849 -11.23652 -11.21659 -10.49702  -8.15356
 Alpha  occ. eigenvalues --   -8.15200  -8.15174  -1.40823  -1.22708  -1.09304
 Alpha  occ. eigenvalues --   -1.04344  -0.93014  -0.89234  -0.77755  -0.68793
 Alpha  occ. eigenvalues --   -0.63090  -0.60869  -0.59580  -0.56378  -0.54515
 Alpha  occ. eigenvalues --   -0.52052  -0.47654  -0.43800  -0.39848  -0.38183
 Alpha  occ. eigenvalues --   -0.34660  -0.32780  -0.30790  -0.29132  -0.28570
 Alpha  occ. eigenvalues --   -0.27345  -0.11051
 Alpha virt. eigenvalues --    0.12589   0.14030   0.14807   0.16387   0.17403
 Alpha virt. eigenvalues --    0.18046   0.20420   0.20947   0.21621   0.22691
 Alpha virt. eigenvalues --    0.23595   0.24583   0.26051   0.26482   0.26605

 Mulliken charges:
               1
     1  C    0.022037
     2  H   -0.173007
     3  Cl  -0.541354
     4  H   -0.600778
     5  C    1.464329
     6  H   -0.172352
     7  N   -0.230437
     8  H    0.114990
     9  H    0.027538
    10  N    0.450206
    11  O   -0.628804
    12  O   -0.609300
    13  N   -0.171038
    14  H   -0.025090
    15  H    0.073060
 Sum of Mulliken charges =  -1.00000

 Dipole moment (field-independent basis, Debye):
    X=              1.5517    Y=             -3.5845    Z=             -2.4245  Tot=              4.5973

 Test job not archived.
 1\1\GINC-SE165\SP\RHF\Aug-CC-pVDZ\C2H7Cl1N3O2(1-)\OHZDE\09-Apr-2025\0\
 \#t hf aug-cc-pvdz iop(5/13=1,5/36=2,99/5=2) pseudo=read geom=check gu
 ess=(read,tcheck) scf=(maxcycle=1)\\title\\-1,1\C,0,0.46615693,-0.0569
 6038,0.01528533\H,0,1.74093166,1.6359096,0.23150918\Cl,0,-1.63922472,-
 0.14344644,-0.30246288\H,0,2.52404851,-0.33287302,-0.2179445\C,0,0.688
 15878,1.45345893,0.04954281\H,0,0.70232154,-0.50065058,-0.93621572\N,0
 ,0.49046139,-0.7648421,1.25568889\H,0,1.46853123,-0.90705065,1.4648543
 7\H,0,0.04976433,-1.66430041,1.10548708\N,0,0.02866968,2.05663795,1.30

 Normal termination of Gaussian 16 at Wed Apr  9 02:39:21 2025.
