 Gaussian 16, Revision C.01,

 ----------------------------------------------------------------------
 #t hf aug-cc-pvdz symm=none int=(grid=ultrafine) guess=(read,tcheck) s
 table=(opt,rrhf)
 ----------------------------------------------------------------------
 -----
 title
 -----
 Symbolic Z-matrix:
 Charge = -1 Multiplicity = 1

 SCF Done:  E(RHF) =  -974.235334644     A.U. after   16 cycles
 Normal termination of Gaussian 16 at Wed Apr  9 02:53:40 2025.
 Gaussian 16:  ES64L-G16RevC.01  3-Jul-2019

 ----------------------------------------------------------------------
 #t hf aug-cc-pvdz iop(5/13=1,5/36=2,99/5=2) pseudo=read geom=check gue
 ss=(read,tcheck) scf=(maxcycle=1)
 ----------------------------------------------------------------------
 -----
 title
 -----
 Structure from the checkpoint file:  "E2SN2_350_mol1.chk"
 Charge = -1 Multiplicity = 1

                         Standard orientation:
 ---------------------------------------------------------------------
 Center     Atomic      Atomic             Coordinates (Angstroms)
 Number     Number       Type             X           Y           Z
 ---------------------------------------------------------------------
      1          6           0        0.641920    0.341564    0.354879
      2          1           0       -0.005860   -0.854690   -1.346791
      3          9           0       -0.954637    1.410321    1.049847
      4         17           0        2.340511   -0.863222   -0.627558
      5          6           0       -0.384946   -0.044432   -0.725650
      6          6           0        0.766057   -0.387243    1.670670
      7          1           0       -0.028719   -0.031154    2.321960
      8          1           0        0.695557   -1.462215    1.548220
      9          1           0        1.740748   -0.151266    2.100486
     10          6           0        1.402430    1.643846    0.219049
     11          1           0        2.424280    1.507832    0.569440
     12          1           0        1.425758    1.961398   -0.820419
     13          1           0        0.887574    2.387219    0.823838
     14          7           0       -0.734835    1.078632   -1.517398
     15          1           0       -1.147602    1.727910   -0.851011
     16          1           0       -1.431023    0.808834   -2.198756
     17          7           0       -1.640067   -0.702948   -0.097031
     18          8           0       -2.739385   -0.293088   -0.455451
     19          8           0       -1.471378   -1.689935    0.612977
 ---------------------------------------------------------------------

 SCF Done:  E(RHF) =  -974.404224825     A.U. after    2 cycles

 The electronic state is 1-A.
 Alpha  occ. eigenvalues -- -103.42660 -25.80614 -20.48064 -20.47870 -15.76920
 Alpha  occ. eigenvalues --  -15.48875 -11.23419 -11.21620 -11.09789 -11.09610
 Alpha  occ. eigenvalues --  -10.45979  -8.11609  -8.11501  -8.11487  -1.40369
 Alpha  occ. eigenvalues --   -1.30707  -1.22143  -1.07389  -0.95749  -0.87886
 Alpha  occ. eigenvalues --   -0.86701  -0.81544  -0.73036  -0.66053  -0.62357
 Alpha  occ. eigenvalues --   -0.60161  -0.57370  -0.54733  -0.50165  -0.48879
 Alpha  occ. eigenvalues --   -0.45809  -0.44728  -0.43327  -0.41480  -0.38984
 Alpha  occ. eigenvalues --   -0.38622  -0.38139  -0.37294  -0.36613  -0.36430
 Alpha  occ. eigenvalues --   -0.33610  -0.29350  -0.25776  -0.25649  -0.25578
 Alpha virt. eigenvalues --    0.12983   0.13428   0.14405   0.14951   0.16193
 Alpha virt. eigenvalues --    0.16395   0.17321   0.17536   0.19029   0.21297
 Alpha virt. eigenvalues --    0.22215   0.22671   0.23560   0.24421   0.24899

 Mulliken charges:
               1
     1  C   -1.524850
     2  H   -0.129346
     3  F   -0.864336
     4  Cl  -0.658222
     5  C    1.357400
     6  C    0.907271
     7  H    0.138462
     8  H    0.063041
     9  H   -0.051684
    10  C    0.693884
    11  H   -0.063448
    12  H    0.046200
    13  H    0.093280
    14  N   -0.321251
    15  H    0.160614
    16  H   -0.018155
    17  N    0.458018
    18  O   -0.654553
    19  O   -0.632325
 Sum of Mulliken charges =  -1.00000

 Dipole moment (field-independent basis, Debye):
    X=             -0.2322    Y=              0.9940    Z=             -1.0614  Tot=              1.4726

 Test job not archived.
 1\1\GINC-SE115\SP\RHF\Aug-CC-pVDZ\C4H9Cl1F1N2O2(1-)\OHZDE\09-Apr-2025\
 0\\#t hf aug-cc-pvdz iop(5/13=1,5/36=2,99/5=2) pseudo=read geom=check
 guess=(read,tcheck) scf=(maxcycle=1)\\title\\-1,1\C,0,0.75869611,-0.06
 459573,0.01656927\H,0,1.85272035,1.80644729,-0.20396494\F,0,-1.2399091
 9,0.35119576,0.09969932\Cl,0,3.04613525,-0.32793952,0.00335521\C,0,0.8
 4059789,1.47302147,0.02070376\C,0,0.56896596,-0.87569687,-1.24199886\H
 ,0,-0.48533988,-0.83512708,-1.50551493\H,0,1.17359821,-0.50271354,-2.0
 6104171\H,0,0.86664096,-1.90432552,-1.03280627\C,0,0.618796,-0.8000405

 Normal termination of Gaussian 16 at Wed Apr  9 02:53:52 2025.
