 Gaussian 16, Revision C.01,

 ----------------------------------------------------------------------
 #t hf aug-cc-pvdz symm=none int=(grid=ultrafine) guess=(read,tcheck) s
 table=(opt,rrhf)
 ----------------------------------------------------------------------
 -----
 title
 -----
 Symbolic Z-matrix:
 Charge = -1 Multiplicity = 1

 SCF Done:  E(RHF) =  -875.298772150     A.U. after   17 cycles
 Normal termination of Gaussian 16 at Wed Apr  9 02:52:30 2025.
 Gaussian 16:  ES64L-G16RevC.01  3-Jul-2019

 ----------------------------------------------------------------------
 #t hf aug-cc-pvdz iop(5/13=1,5/36=2,99/5=2) pseudo=read geom=check gue
 ss=(read,tcheck) scf=(maxcycle=1)
 ----------------------------------------------------------------------
 -----
 title
 -----
 Structure from the checkpoint file:  "E2SN2_344_mol2.chk"
 Charge = -1 Multiplicity = 1

                         Standard orientation:
 ---------------------------------------------------------------------
 Center     Atomic      Atomic             Coordinates (Angstroms)
 Number     Number       Type             X           Y           Z
 ---------------------------------------------------------------------
      1          6           0       -0.925210    0.046844    0.033799
      2          6           0        0.362412    0.637609   -0.554455
      3         17           0       -0.793710   -1.771747   -0.126163
      4          1           0        0.431535    0.320708   -1.602045
      5          6           0       -1.175989    0.392799    1.488712
      6          1           0       -1.325655    1.476271    1.555033
      7          1           0       -0.346570    0.088246    2.122810
      8          1           0       -2.091241   -0.108009    1.817011
      9          6           0       -2.092927    0.501528   -0.825972
     10          1           0       -2.216912    1.583123   -0.684664
     11          1           0       -1.918961    0.268976   -1.880290
     12          1           0       -3.004737   -0.007941   -0.503384
     13          7           0        1.610006   -0.075723    0.021309
     14          8           0        2.365741   -0.602037   -0.800439
     15          8           0        1.819848   -0.031966    1.228645
     16          7           0        0.480753    2.022444   -0.320125
     17          1           0       -0.400300    2.553907   -0.023777
     18          1           0        0.859263    2.495443   -1.130138
     19          1           0       -1.623085    3.421264    0.287785
 ---------------------------------------------------------------------

 SCF Done:  E(RHF) =  -875.443553718     A.U. after    2 cycles

 The electronic state is 1-A.
 Alpha  occ. eigenvalues -- -103.53387 -20.49340 -20.49277 -15.77585 -15.47529
 Alpha  occ. eigenvalues --  -11.22245 -11.20849 -11.11543 -11.10592 -10.56762
 Alpha  occ. eigenvalues --   -8.22466  -8.22218  -8.22205  -1.41182  -1.23076
 Alpha  occ. eigenvalues --   -1.08982  -1.03488  -0.91804  -0.87862  -0.82592
 Alpha  occ. eigenvalues --   -0.73660  -0.67044  -0.61973  -0.59826  -0.58773
 Alpha  occ. eigenvalues --   -0.56323  -0.51699  -0.50000  -0.46807  -0.45113
 Alpha  occ. eigenvalues --   -0.43044  -0.41254  -0.40109  -0.38351  -0.37720
 Alpha  occ. eigenvalues --   -0.36638  -0.34994  -0.33518  -0.33109  -0.27129
 Alpha  occ. eigenvalues --   -0.10597
 Alpha virt. eigenvalues --    0.12493   0.12923   0.14180   0.15125   0.15954
 Alpha virt. eigenvalues --    0.16438   0.17893   0.18622   0.19518   0.20637
 Alpha virt. eigenvalues --    0.21590   0.22206   0.22710   0.24068   0.24565

 Mulliken charges:
               1
     1  C   -2.017165
     2  C    2.029896
     3  Cl  -0.305489
     4  H   -0.198972
     5  C    0.861410
     6  H   -0.007536
     7  H   -0.003315
     8  H   -0.047962
     9  C    1.050409
    10  H   -0.118009
    11  H   -0.027187
    12  H   -0.031349
    13  N    0.317650
    14  O   -0.641845
    15  O   -0.642032
    16  N   -0.474713
    17  H   -0.072296
    18  H   -0.003326
    19  H   -0.668167
 Sum of Mulliken charges =  -1.00000

 Dipole moment (field-independent basis, Debye):
    X=              0.9976    Y=             -8.1176    Z=             -2.5387  Tot=              8.5636

 Test job not archived.
 1\1\GINC-SE049\SP\RHF\Aug-CC-pVDZ\C4H10Cl1N2O2(1-)\OHZDE\09-Apr-2025\0
 \\#t hf aug-cc-pvdz iop(5/13=1,5/36=2,99/5=2) pseudo=read geom=check g
 uess=(read,tcheck) scf=(maxcycle=1)\\title\\-1,1\C,0,-0.020404,0.00784
 ,-0.020788\C,0,-0.38311,-0.025895,-1.510862\Cl,0,1.807186,-0.004064,0.
 078847\H,0,0.046484,-0.937945,-1.942443\C,0,-0.543277,1.21517,0.733073
 \H,0,-1.63795,1.16661,0.726585\H,0,-0.205504,2.146362,0.284119\H,0,-0.
 196349,1.160864,1.768914\C,0,-0.524925,-1.274274,0.620421\H,0,-1.62231
 5,-1.243908,0.620963\H,0,-0.164891,-2.153159,0.078325\H,0,-0.168432,-1

 Normal termination of Gaussian 16 at Wed Apr  9 02:52:42 2025.
