 Gaussian 16, Revision C.01,

 ----------------------------------------------------------------------
 #t hf aug-cc-pvdz symm=none int=(grid=ultrafine) guess=(read,tcheck) s
 table=(opt,rrhf)
 ----------------------------------------------------------------------
 -----
 title
 -----
 Symbolic Z-matrix:
 Charge = -1 Multiplicity = 1

 SCF Done:  E(RHF) =  -614.213522662     A.U. after   16 cycles
 Normal termination of Gaussian 16 at Wed Apr  9 02:54:08 2025.
 Gaussian 16:  ES64L-G16RevC.01  3-Jul-2019

 ----------------------------------------------------------------------
 #t hf aug-cc-pvdz iop(5/13=1,5/36=2,99/5=2) pseudo=read geom=check gue
 ss=(read,tcheck) scf=(maxcycle=1)
 ----------------------------------------------------------------------
 -----
 title
 -----
 Structure from the checkpoint file:  "E2SN2_359_mol2.chk"
 Charge = -1 Multiplicity = 1

                         Standard orientation:
 ---------------------------------------------------------------------
 Center     Atomic      Atomic             Coordinates (Angstroms)
 Number     Number       Type             X           Y           Z
 ---------------------------------------------------------------------
      1          6           0       -0.675926   -0.413012   -0.564708
      2          6           0        0.245347   -0.019190    0.625114
      3          9           0        0.094405   -1.232906   -1.419398
      4          1           0       -0.301148    0.828550    1.072204
      5          6           0       -1.866288   -1.200102   -0.062306
      6          1           0       -1.567131   -2.148494    0.386702
      7          1           0       -2.512372   -1.393114   -0.920618
      8          1           0       -2.373664   -0.546193    0.651133
      9          7           0       -1.162258    0.710130   -1.302959
     10          1           0       -0.367575    1.290704   -1.553156
     11          1           0       -1.673876    1.231768   -0.556653
     12          7           0        1.532099    0.477018    0.058297
     13          8           0        2.531447   -0.243146    0.125458
     14          8           0        1.531214    1.586543   -0.483536
     15          6           0        0.525779   -1.124024    1.621502
     16          1           0        1.301534   -0.816589    2.326064
     17          1           0       -0.386244   -1.320398    2.185730
     18          1           0        0.859015   -2.038050    1.126961
     19          9           0       -2.032425    1.498749    1.101763
 ---------------------------------------------------------------------

 SCF Done:  E(RHF) =  -614.403518962     A.U. after    2 cycles

 The electronic state is 1-A.
 Alpha  occ. eigenvalues --  -25.96925 -25.75907 -20.49018 -20.48757 -15.77915
 Alpha  occ. eigenvalues --  -15.44647 -11.22462 -11.15910 -11.12031 -11.09005
 Alpha  occ. eigenvalues --   -1.50217  -1.40939  -1.24868  -1.22558  -1.04245
 Alpha  occ. eigenvalues --   -0.96342  -0.85912  -0.82266  -0.73157  -0.68818
 Alpha  occ. eigenvalues --   -0.63605  -0.62168  -0.60669  -0.59142  -0.56462
 Alpha  occ. eigenvalues --   -0.54008  -0.48782  -0.47079  -0.46040  -0.43486
 Alpha  occ. eigenvalues --   -0.42739  -0.41712  -0.39503  -0.39162  -0.37569
 Alpha  occ. eigenvalues --   -0.35899  -0.34509  -0.34166  -0.33401  -0.32920
 Alpha  occ. eigenvalues --   -0.25257
 Alpha virt. eigenvalues --    0.12505   0.13166   0.14781   0.14892   0.16020
 Alpha virt. eigenvalues --    0.16890   0.17984   0.18645   0.19339   0.20692
 Alpha virt. eigenvalues --    0.20884   0.22719   0.24068   0.24615   0.25441

 Mulliken charges:
               1
     1  C   -0.098483
     2  C    0.784400
     3  F   -0.546317
     4  H   -0.167152
     5  C    0.638854
     6  H    0.011556
     7  H   -0.050398
     8  H    0.103781
     9  N   -0.541222
    10  H    0.031674
    11  H    0.226831
    12  N    0.222204
    13  O   -0.616022
    14  O   -0.640137
    15  C    0.539719
    16  H   -0.036391
    17  H    0.028301
    18  H    0.106557
    19  F   -0.997755
 Sum of Mulliken charges =  -1.00000

 Dipole moment (field-independent basis, Debye):
    X=              2.8435    Y=             -4.6834    Z=              0.6907  Tot=              5.5224

 Test job not archived.
 1\1\GINC-SE060\SP\RHF\Aug-CC-pVDZ\C4H9F2N2O2(1-)\OHZDE\09-Apr-2025\0\\
 #t hf aug-cc-pvdz iop(5/13=1,5/36=2,99/5=2) pseudo=read geom=check gue
 ss=(read,tcheck) scf=(maxcycle=1)\\title\\-1,1\C,0,-0.003207,0.00605,0
 .009198\C,0,-0.471264,-0.100123,-1.470385\F,0,1.406655,-0.084703,-0.00
 4404\H,0,-1.546907,-0.318905,-1.359309\C,0,-0.40876,1.343653,0.588184\
 H,0,0.082545,2.173814,0.078279\H,0,-0.119147,1.342094,1.640562\H,0,-1.
 496797,1.387789,0.497362\N,0,-0.532688,-1.022982,0.848081\H,0,-0.34629
 3,-1.917557,0.405161\H,0,-1.558477,-0.858706,0.740363\N,0,0.204886,-1.

 Normal termination of Gaussian 16 at Wed Apr  9 02:54:19 2025.
