 Gaussian 16, Revision C.01,

 ----------------------------------------------------------------------
 #t hf aug-cc-pvdz symm=none int=(grid=ultrafine) guess=(read,tcheck) s
 table=(opt,rrhf)
 ----------------------------------------------------------------------
 -----
 title
 -----
 Symbolic Z-matrix:
 Charge = -1 Multiplicity = 1

 SCF Done:  E(RHF) =  -630.152755521     A.U. after   16 cycles
 Normal termination of Gaussian 16 at Wed Apr  9 02:53:53 2025.
 Gaussian 16:  ES64L-G16RevC.01  3-Jul-2019

 ----------------------------------------------------------------------
 #t hf aug-cc-pvdz iop(5/13=1,5/36=2,99/5=2) pseudo=read geom=check gue
 ss=(read,tcheck) scf=(maxcycle=1)
 ----------------------------------------------------------------------
 -----
 title
 -----
 Structure from the checkpoint file:  "E2SN2_361_mol1.chk"
 Charge = -1 Multiplicity = 1

                         Standard orientation:
 ---------------------------------------------------------------------
 Center     Atomic      Atomic             Coordinates (Angstroms)
 Number     Number       Type             X           Y           Z
 ---------------------------------------------------------------------
      1          6           0        0.912860    0.042911    0.154561
      2          1           0       -0.229627    0.572248   -1.586016
      3          9           0        0.404199   -1.413984    1.129023
      4          9           0        1.382745    1.563829   -0.821198
      5          6           0       -0.304263   -0.142688   -0.773376
      6          6           0        2.228658   -0.598133   -0.243185
      7          1           0        2.477742   -1.387725    0.464006
      8          1           0        2.140394   -1.028737   -1.240921
      9          1           0        2.995629    0.173089   -0.260868
     10          7           0        0.769064    0.856237    1.323078
     11          1           0        1.341196    1.673741    1.174554
     12          1           0        1.063098    0.302681    2.113584
     13          7           0       -1.557325    0.330907   -0.025138
     14          8           0       -2.290246   -0.512430    0.490539
     15          8           0       -1.785541    1.537268   -0.035900
     16          7           0       -0.432422   -1.476441   -1.252203
     17          1           0       -1.282341   -1.573457   -1.791561
     18          1           0       -0.461047   -2.066611   -0.428482
 ---------------------------------------------------------------------

 SCF Done:  E(RHF) =  -630.342580023     A.U. after    2 cycles

 The electronic state is 1-A.
 Alpha  occ. eigenvalues --  -25.82596 -25.80589 -20.46436 -20.46347 -15.75037
 Alpha  occ. eigenvalues --  -15.48038 -15.46012 -11.24170 -11.18837 -11.08513
 Alpha  occ. eigenvalues --   -1.38505  -1.33361  -1.31034  -1.20239  -1.05883
 Alpha  occ. eigenvalues --   -1.01379  -0.87074  -0.84434  -0.72065  -0.64992
 Alpha  occ. eigenvalues --   -0.60716  -0.58499  -0.56917  -0.54976  -0.54297
 Alpha  occ. eigenvalues --   -0.48376  -0.47377  -0.46797  -0.44378  -0.41765
 Alpha  occ. eigenvalues --   -0.40165  -0.39609  -0.38737  -0.38400  -0.36544
 Alpha  occ. eigenvalues --   -0.35964  -0.35560  -0.34956  -0.31900  -0.27880
 Alpha  occ. eigenvalues --   -0.25529
 Alpha virt. eigenvalues --    0.12939   0.13355   0.14498   0.14848   0.16219
 Alpha virt. eigenvalues --    0.16656   0.17994   0.18555   0.21607   0.23164
 Alpha virt. eigenvalues --    0.23795   0.24541   0.25938   0.26354   0.26761

 Mulliken charges:
               1
     1  C   -0.421699
     2  H   -0.026256
     3  F   -0.787670
     4  F   -0.793751
     5  C    1.592511
     6  C    0.795096
     7  H    0.012263
     8  H   -0.006195
     9  H    0.002837
    10  N   -0.351057
    11  H    0.016182
    12  H    0.004677
    13  N    0.414316
    14  O   -0.655362
    15  O   -0.626761
    16  N   -0.235787
    17  H   -0.052034
    18  H    0.118691
 Sum of Mulliken charges =  -1.00000

 Dipole moment (field-independent basis, Debye):
    X=              0.7501    Y=             -2.0842    Z=             -1.2858  Tot=              2.5612

 Test job not archived.
 1\1\GINC-SE222\SP\RHF\Aug-CC-pVDZ\C3H8F2N3O2(1-)\OHZDE\09-Apr-2025\0\\
 #t hf aug-cc-pvdz iop(5/13=1,5/36=2,99/5=2) pseudo=read geom=check gue
 ss=(read,tcheck) scf=(maxcycle=1)\\title\\-1,1\C,0,0.5892497,-0.063783
 72,-0.04750577\H,0,1.76122789,1.73656746,-0.03060182\F,0,-1.21673006,0
 .0663358,-0.27632815\F,0,2.43025343,-0.17260614,0.24395878\C,0,0.70898
 866,1.47326637,-0.05408976\C,0,0.76961515,-0.8078356,-1.35682509\H,0,-
 0.17458751,-1.26437023,-1.64952751\H,0,1.08443381,-0.11145678,-2.13440
 736\H,0,1.54627111,-1.5575426,-1.22234471\N,0,0.36836023,-0.73102895,1

 Normal termination of Gaussian 16 at Wed Apr  9 02:54:03 2025.
