 Gaussian 16, Revision C.01,

 ----------------------------------------------------------------------
 #t hf aug-cc-pvdz symm=none int=(grid=ultrafine) guess=(read,tcheck) s
 table=(opt,rrhf)
 ----------------------------------------------------------------------
 -----
 title
 -----
 Symbolic Z-matrix:
 Charge = -1 Multiplicity = 1

 SCF Done:  E(RHF) =  -1292.94449723     A.U. after   16 cycles
 Normal termination of Gaussian 16 at Wed Apr  9 02:35:42 2025.
 Gaussian 16:  ES64L-G16RevC.01  3-Jul-2019

 ----------------------------------------------------------------------
 #t hf aug-cc-pvdz iop(5/13=1,5/36=2,99/5=2) pseudo=read geom=check gue
 ss=(read,tcheck) scf=(maxcycle=1)
 ----------------------------------------------------------------------
 -----
 title
 -----
 Structure from the checkpoint file:  "E2SN2_170_mol1.chk"
 Charge = -1 Multiplicity = 1

                         Standard orientation:
 ---------------------------------------------------------------------
 Center     Atomic      Atomic             Coordinates (Angstroms)
 Number     Number       Type             X           Y           Z
 ---------------------------------------------------------------------
      1          6           0        0.067649    0.000848   -0.205150
      2          1           0       -0.851639    0.906355    1.505642
      3         17           0        0.032004   -2.281696   -0.436618
      4         17           0        0.124711    2.281989   -0.438210
      5          6           0       -0.976052    0.021088    0.883964
      6          1           0       -0.102236    0.004483   -1.262363
      7          1           0       -0.880975   -0.864585    1.510141
      8          7           0        1.473139   -0.028143    0.235215
      9          8           0        1.668430   -0.028213    1.448994
     10          8           0        2.333207   -0.049061   -0.633865
     11          6           0       -2.313101    0.041578    0.300314
     12          7           0       -3.403623    0.054698   -0.131951
 ---------------------------------------------------------------------

 SCF Done:  E(RHF) =  -1293.08386716     A.U. after    2 cycles

 The electronic state is 1-A.
 Alpha  occ. eigenvalues -- -103.46071-103.46046 -20.51121 -20.51085 -15.81811
 Alpha  occ. eigenvalues --  -15.54107 -11.30740 -11.19902 -11.19582 -10.49333
 Alpha  occ. eigenvalues --  -10.49308  -8.14975  -8.14950  -8.14826  -8.14823
 Alpha  occ. eigenvalues --   -8.14801  -8.14798  -1.43992  -1.25742  -1.08564
 Alpha  occ. eigenvalues --   -1.03586  -0.92801  -0.91458  -0.89674  -0.73218
 Alpha  occ. eigenvalues --   -0.66900  -0.63809  -0.61620  -0.59897  -0.54168
 Alpha  occ. eigenvalues --   -0.52328  -0.44684  -0.41692  -0.40833  -0.36742
 Alpha  occ. eigenvalues --   -0.36186  -0.35532  -0.33853  -0.29165  -0.29019
 Alpha  occ. eigenvalues --   -0.28822  -0.28408  -0.25297
 Alpha virt. eigenvalues --    0.13414   0.13784   0.15425   0.15482   0.17790
 Alpha virt. eigenvalues --    0.20612   0.20637   0.21720   0.23106   0.23916
 Alpha virt. eigenvalues --    0.24395   0.25364   0.26053   0.26460   0.27942

 Mulliken charges:
               1
     1  C    0.643902
     2  H    0.118019
     3  Cl  -0.607328
     4  Cl  -0.607329
     5  C    0.628509
     6  H   -0.333736
     7  H    0.119787
     8  N    0.744351
     9  O   -0.658264
    10  O   -0.666474
    11  C   -0.099952
    12  N   -0.281484
 Sum of Mulliken charges =  -1.00000

 Dipole moment (field-independent basis, Debye):
    X=             -0.1606    Y=              0.0220    Z=              2.3898  Tot=              2.3952

 Test job not archived.
 1\1\GINC-SE341\SP\RHF\Aug-CC-pVDZ\C3H3Cl2N2O2(1-)\OHZDE\09-Apr-2025\0\
 \#t hf aug-cc-pvdz iop(5/13=1,5/36=2,99/5=2) pseudo=read geom=check gu
 ess=(read,tcheck) scf=(maxcycle=1)\\title\\-1,1\C,0,0.60150494,-0.0326
 9298,0.012893\H,0,1.36426821,1.90664929,0.51187833\Cl,0,-1.6608017,-0.
 41123778,0.0723121\Cl,0,2.86344563,0.00747771,-0.36550667\C,0,0.467386
 31,1.46858243,0.07672319\H,0,0.57403257,-0.6466765,-0.86394361\H,0,-0.
 39033472,1.74214682,0.68912107\N,0,0.78963279,-0.72854355,1.29763578\O
 ,0,0.8252653,-0.0233719,2.30404599\O,0,0.89610212,-1.94637535,1.265919

 Normal termination of Gaussian 16 at Wed Apr  9 02:35:49 2025.
