 Gaussian 16, Revision C.01,

 ----------------------------------------------------------------------
 #t hf aug-cc-pvdz symm=none int=(grid=ultrafine) guess=(read,tcheck) s
 table=(opt,rrhf)
 ----------------------------------------------------------------------
 -----
 title
 -----
 Symbolic Z-matrix:
 Charge = -1 Multiplicity = 1

 SCF Done:  E(RHF) =  -463.341248479     A.U. after   15 cycles
 Normal termination of Gaussian 16 at Wed Apr  9 02:36:53 2025.
 Gaussian 16:  ES64L-G16RevC.01  3-Jul-2019

 ----------------------------------------------------------------------
 #t hf aug-cc-pvdz iop(5/13=1,5/36=2,99/5=2) pseudo=read geom=check gue
 ss=(read,tcheck) scf=(maxcycle=1)
 ----------------------------------------------------------------------
 -----
 title
 -----
 Structure from the checkpoint file:  "E2SN2_179_mol1.chk"
 Charge = -1 Multiplicity = 1

                         Standard orientation:
 ---------------------------------------------------------------------
 Center     Atomic      Atomic             Coordinates (Angstroms)
 Number     Number       Type             X           Y           Z
 ---------------------------------------------------------------------
      1          6           0        0.265167    0.170985   -0.581591
      2          1           0       -0.898369    1.559002    0.480320
      3          9           0       -0.246906   -1.468328   -0.959214
      4          9           0        1.024606    1.840473   -0.316440
      5          6           0       -0.952910    0.491932    0.276779
      6          1           0        0.247837    0.429521   -1.624827
      7          6           0        1.489856   -0.328338    0.009672
      8          7           0        2.456341   -0.778290    0.503163
      9          6           0       -0.916474   -0.282206    1.592639
     10          1           0       -0.890906   -1.351984    1.380735
     11          1           0       -0.036062   -0.017281    2.184397
     12          1           0       -1.809078   -0.051545    2.185885
     13          7           0       -2.156248    0.234967   -0.525550
     14          1           0       -2.965106    0.297820    0.083830
     15          1           0       -2.062095   -0.725806   -0.837739
 ---------------------------------------------------------------------

 SCF Done:  E(RHF) =  -463.481461335     A.U. after    2 cycles

 The electronic state is 1-A.
 Alpha  occ. eigenvalues --  -25.85071 -25.80691 -15.48197 -15.47003 -11.22258
 Alpha  occ. eigenvalues --  -11.14836 -11.13607 -11.09540  -1.35451  -1.30687
 Alpha  occ. eigenvalues --   -1.03319  -1.01989  -0.88610  -0.82149  -0.69158
 Alpha  occ. eigenvalues --   -0.58425  -0.55730  -0.50317  -0.47258  -0.45947
 Alpha  occ. eigenvalues --   -0.44523  -0.42836  -0.42185  -0.41390  -0.40471
 Alpha  occ. eigenvalues --   -0.38651  -0.37641  -0.35310  -0.35093  -0.29981
 Alpha  occ. eigenvalues --   -0.29264  -0.25669
 Alpha virt. eigenvalues --    0.12102   0.13788   0.14775   0.15381   0.16672
 Alpha virt. eigenvalues --    0.17568   0.18047   0.20042   0.22922   0.23585
 Alpha virt. eigenvalues --    0.24902   0.25539   0.26371   0.26953   0.27411

 Mulliken charges:
               1
     1  C    1.980777
     2  H   -0.093126
     3  F   -0.807968
     4  F   -0.840836
     5  C   -0.232090
     6  H   -0.328243
     7  C   -0.765140
     8  N   -0.281406
     9  C    0.721757
    10  H    0.056854
    11  H   -0.036500
    12  H   -0.114145
    13  N   -0.323670
    14  H   -0.044148
    15  H    0.107885
 Sum of Mulliken charges =  -1.00000

 Dipole moment (field-independent basis, Debye):
    X=             -5.3088    Y=             -0.7022    Z=              1.9273  Tot=              5.6913

 Test job not archived.
 1\1\GINC-SE112\SP\RHF\Aug-CC-pVDZ\C4H7F2N2(1-)\OHZDE\09-Apr-2025\0\\#t
  hf aug-cc-pvdz iop(5/13=1,5/36=2,99/5=2) pseudo=read geom=check guess
 =(read,tcheck) scf=(maxcycle=1)\\title\\-1,1\C,0,0.6372319,0.00180671,
 -0.01229849\H,0,1.71178501,1.80324322,-0.10299218\F,0,-1.11085566,-0.1
 1789146,-0.16072271\F,0,2.47696182,-0.13458476,0.16385921\C,0,0.663235
 55,1.52586661,-0.02144568\H,0,0.76414378,-0.52519854,-0.94054454\C,0,0
 .60076541,-0.74106243,1.2309208\N,0,0.5219753,-1.32286972,2.24845416\C
 ,0,0.08350856,2.09249166,1.27275558\H,0,-0.94414733,1.74566355,1.38943

 Normal termination of Gaussian 16 at Wed Apr  9 02:36:58 2025.
