 Gaussian 16, Revision C.01,

 ----------------------------------------------------------------------
 #t hf aug-cc-pvdz symm=none int=(grid=ultrafine) guess=(read,tcheck) s
 table=(opt,rrhf)
 ----------------------------------------------------------------------
 -----
 title
 -----
 Symbolic Z-matrix:
 Charge = -1 Multiplicity = 1

 SCF Done:  E(RHF) =  -1236.26666100     A.U. after   15 cycles
 Normal termination of Gaussian 16 at Wed Apr  9 02:44:17 2025.
 Gaussian 16:  ES64L-G16RevC.01  3-Jul-2019

 ----------------------------------------------------------------------
 #t hf aug-cc-pvdz iop(5/13=1,5/36=2,99/5=2) pseudo=read geom=check gue
 ss=(read,tcheck) scf=(maxcycle=1)
 ----------------------------------------------------------------------
 -----
 title
 -----
 Structure from the checkpoint file:  "E2SN2_262_mol2.chk"
 Charge = -1 Multiplicity = 1

                         Standard orientation:
 ---------------------------------------------------------------------
 Center     Atomic      Atomic             Coordinates (Angstroms)
 Number     Number       Type             X           Y           Z
 ---------------------------------------------------------------------
      1          6           0        0.147410    0.578382    0.146959
      2          6           0        0.123622   -0.858915   -0.426235
      3         17           0        0.984010    0.620161    1.733286
      4          1           0       -0.440565   -0.769650   -1.361327
      5          1           0       -0.904732    0.847160    0.304776
      6          6           0        0.790287    1.518880   -0.760036
      7          7           0        1.307891    2.256077   -1.514566
      8          7           0       -0.562123   -1.836012    0.387059
      9          1           0       -1.543791   -1.552670    0.389003
     10          1           0       -0.208941   -1.795231    1.336280
     11          6           0        1.491477   -1.308412   -0.732904
     12          7           0        2.583794   -1.668201   -0.969211
     13         17           0       -3.073756    0.110882   -0.283781
 ---------------------------------------------------------------------

 SCF Done:  E(RHF) =  -1236.38763739     A.U. after    2 cycles

 The electronic state is 1-A.
 Alpha  occ. eigenvalues -- -103.57785-103.39963 -15.55984 -15.54851 -15.51327
 Alpha  occ. eigenvalues --  -11.24932 -11.23089 -11.20875 -11.19663 -10.61093
 Alpha  occ. eigenvalues --  -10.43077  -8.26815  -8.26526  -8.26505  -8.08676
 Alpha  occ. eigenvalues --   -8.08650  -8.08636  -1.13284  -1.09212  -1.07768
 Alpha  occ. eigenvalues --   -1.05679  -0.92511  -0.85592  -0.81586  -0.65232
 Alpha  occ. eigenvalues --   -0.61870  -0.56002  -0.52526  -0.51767  -0.47045
 Alpha  occ. eigenvalues --   -0.45919  -0.44461  -0.39368  -0.38677  -0.36825
 Alpha  occ. eigenvalues --   -0.36199  -0.36044  -0.35782  -0.30924  -0.23365
 Alpha  occ. eigenvalues --   -0.23232  -0.23118
 Alpha virt. eigenvalues --    0.13161   0.14553   0.15300   0.16862   0.17814
 Alpha virt. eigenvalues --    0.18651   0.18826   0.21175   0.22000   0.22399
 Alpha virt. eigenvalues --    0.23777   0.23962   0.24341   0.24803   0.25341

 Mulliken charges:
               1
     1  C    0.447594
     2  C    0.635845
     3  Cl  -0.130159
     4  H   -0.091270
     5  H    0.096798
     6  C   -0.210128
     7  N   -0.220650
     8  N   -0.344940
     9  H    0.094129
    10  H    0.026511
    11  C   -0.141569
    12  N   -0.243583
    13  Cl  -0.918577
 Sum of Mulliken charges =  -1.00000

 Dipole moment (field-independent basis, Debye):
    X=              4.9719    Y=             -0.4545    Z=              3.3027  Tot=              5.9862

 Test job not archived.
 1\1\GINC-SE457\SP\RHF\Aug-CC-pVDZ\C4H4Cl2N3(1-)\OHZDE\09-Apr-2025\0\\#
 t hf aug-cc-pvdz iop(5/13=1,5/36=2,99/5=2) pseudo=read geom=check gues
 s=(read,tcheck) scf=(maxcycle=1)\\title\\-1,1\C,0,-0.139649,0.145882,0
 .040973\C,0,-0.572962,0.388253,-1.424781\Cl,0,1.520283,-0.530485,0.113
 306\H,0,-1.602135,0.75625,-1.346981\H,0,-0.836193,-0.607248,0.430554\C
 ,0,-0.197254,1.363639,0.83735\N,0,-0.259862,2.360126,1.456853\N,0,-0.6
 09514,-0.789687,-2.259966\H,0,-1.351495,-1.377323,-1.875118\H,0,0.2712
 52,-1.285791,-2.185455\C,0,0.264201,1.43233,-2.038119\N,0,0.938206,2.2

 Normal termination of Gaussian 16 at Wed Apr  9 02:44:23 2025.
