 Gaussian 16, Revision C.01,

 ----------------------------------------------------------------------
 #t hf aug-cc-pvdz symm=none int=(grid=ultrafine) guess=(read,tcheck) s
 table=(opt,rrhf)
 ----------------------------------------------------------------------
 -----
 title
 -----
 Symbolic Z-matrix:
 Charge = -1 Multiplicity = 1

 SCF Done:  E(RHF) =  -502.376762944     A.U. after   15 cycles
 Normal termination of Gaussian 16 at Wed Apr  9 02:51:27 2025.
 Gaussian 16:  ES64L-G16RevC.01  3-Jul-2019

 ----------------------------------------------------------------------
 #t hf aug-cc-pvdz iop(5/13=1,5/36=2,99/5=2) pseudo=read geom=check gue
 ss=(read,tcheck) scf=(maxcycle=1)
 ----------------------------------------------------------------------
 -----
 title
 -----
 Structure from the checkpoint file:  "E2SN2_338_mol1.chk"
 Charge = -1 Multiplicity = 1

                         Standard orientation:
 ---------------------------------------------------------------------
 Center     Atomic      Atomic             Coordinates (Angstroms)
 Number     Number       Type             X           Y           Z
 ---------------------------------------------------------------------
      1          6           0        0.258509    0.386585    0.004717
      2          1           0       -1.013445   -0.005178    1.622826
      3          9           0       -0.266328    0.211558   -1.713235
      4          9           0        1.058737    0.340549    1.700123
      5          6           0       -1.025371   -0.234774    0.558243
      6          6           0        0.380305    1.890508   -0.036104
      7          1           0       -0.236555    2.287927   -0.838477
      8          1           0        0.059245    2.285715    0.925477
      9          1           0        1.423215    2.169101   -0.191859
     10          6           0        1.396889   -0.444808   -0.346776
     11          7           0        2.308105   -1.113108   -0.670000
     12          6           0       -1.019094   -1.748925    0.373771
     13          1           0       -0.953935   -1.983020   -0.690443
     14          1           0       -0.166758   -2.194178    0.892593
     15          1           0       -1.939758   -2.180417    0.784072
     16          7           0       -2.186496    0.439299   -0.035381
     17          1           0       -3.022308   -0.050274    0.266240
     18          1           0       -2.080061    0.326516   -1.037855
 ---------------------------------------------------------------------

 SCF Done:  E(RHF) =  -502.528104910     A.U. after    2 cycles

 The electronic state is 1-A.
 Alpha  occ. eigenvalues --  -25.84074 -25.80928 -15.47508 -15.46759 -11.23248
 Alpha  occ. eigenvalues --  -11.14399 -11.13551 -11.09320 -11.09223  -1.34519
 Alpha  occ. eigenvalues --   -1.31052  -1.03272  -1.01530  -0.91068  -0.84826
 Alpha  occ. eigenvalues --   -0.75504  -0.69442  -0.57311  -0.51087  -0.50712
 Alpha  occ. eigenvalues --   -0.47778  -0.47268  -0.43973  -0.43310  -0.42418
 Alpha  occ. eigenvalues --   -0.41613  -0.40882  -0.40283  -0.38513  -0.37428
 Alpha  occ. eigenvalues --   -0.36405  -0.35291  -0.35135  -0.29497  -0.28496
 Alpha  occ. eigenvalues --   -0.25440
 Alpha virt. eigenvalues --    0.12019   0.13500   0.14470   0.14678   0.16187
 Alpha virt. eigenvalues --    0.16750   0.17169   0.17877   0.18132   0.20692
 Alpha virt. eigenvalues --    0.22003   0.23730   0.24357   0.24924   0.25554

 Mulliken charges:
               1
     1  C    0.656436
     2  H   -0.060015
     3  F   -0.790963
     4  F   -0.800058
     5  C    0.136437
     6  C    0.470243
     7  H    0.127121
     8  H    0.106317
     9  H   -0.005879
    10  C   -1.030537
    11  N   -0.286187
    12  C    0.772521
    13  H    0.107695
    14  H   -0.009342
    15  H   -0.111120
    16  N   -0.322327
    17  H   -0.075435
    18  H    0.115092
 Sum of Mulliken charges =  -1.00000

 Dipole moment (field-independent basis, Debye):
    X=             -5.1787    Y=              0.3359    Z=              0.4447  Tot=              5.2086

 Test job not archived.
 1\1\GINC-SE412\SP\RHF\Aug-CC-pVDZ\C5H9F2N2(1-)\OHZDE\09-Apr-2025\0\\#t
  hf aug-cc-pvdz iop(5/13=1,5/36=2,99/5=2) pseudo=read geom=check guess
 =(read,tcheck) scf=(maxcycle=1)\\title\\-1,1\C,0,0.58510086,-0.0167449
 5,-0.05331901\H,0,1.59288036,1.79737492,-0.34136859\F,0,-1.21514125,-0
 .14500767,-0.06454839\F,0,2.43054623,-0.02791174,0.27998817\C,0,0.5699
 4912,1.51246719,-0.09922646\C,0,0.79036811,-0.78140518,-1.33840406\H,0
 ,-0.11556157,-0.74241314,-1.93842967\H,0,1.62415413,-0.33219393,-1.874
 04914\H,0,1.04524846,-1.81723176,-1.11117243\C,0,0.54321991,-0.7242499

 Normal termination of Gaussian 16 at Wed Apr  9 02:51:35 2025.
