 Gaussian 16, Revision C.01,

 ----------------------------------------------------------------------
 #t hf aug-cc-pvdz symm=none int=(grid=ultrafine) guess=(read,tcheck) s
 table=(opt,rrhf)
 ----------------------------------------------------------------------
 -----
 title
 -----
 Symbolic Z-matrix:
 Charge = -1 Multiplicity = 1

 SCF Done:  E(RHF) =  -516.054047321     A.U. after   15 cycles
 Normal termination of Gaussian 16 at Wed Apr  9 02:38:57 2025.
 Gaussian 16:  ES64L-G16RevC.01  3-Jul-2019

 ----------------------------------------------------------------------
 #t hf aug-cc-pvdz iop(5/13=1,5/36=2,99/5=2) pseudo=read geom=check gue
 ss=(read,tcheck) scf=(maxcycle=1)
 ----------------------------------------------------------------------
 -----
 title
 -----
 Structure from the checkpoint file:  "E2SN2_200_mol1.chk"
 Charge = -1 Multiplicity = 1

                         Standard orientation:
 ---------------------------------------------------------------------
 Center     Atomic      Atomic             Coordinates (Angstroms)
 Number     Number       Type             X           Y           Z
 ---------------------------------------------------------------------
      1          6           0        0.918001   -0.300399    0.307161
      2          1           0       -0.116476   -0.481558   -1.539955
      3          9           0        0.141223    0.609195    1.630933
      4          9           0        1.633982   -1.390490   -0.885685
      5          6           0       -0.359892   -0.157677   -0.525454
      6          1           0        0.996558   -1.113759    1.009935
      7          7           0        1.914432    0.700328    0.100897
      8          1           0        2.762576    0.224965   -0.167666
      9          1           0        2.012585    1.203255    0.970025
     10          6           0       -0.842924    1.227387   -0.587483
     11          7           0       -1.282424    2.299977   -0.770252
     12          6           0       -1.418797   -1.027248   -0.007995
     13          7           0       -2.262068   -1.750824    0.369794
 ---------------------------------------------------------------------

 SCF Done:  E(RHF) =  -516.206906479     A.U. after    2 cycles

 The electronic state is 1-A.
 Alpha  occ. eigenvalues --  -25.84484 -25.83581 -15.52736 -15.51487 -15.48351
 Alpha  occ. eigenvalues --  -11.25168 -11.19904 -11.18382 -11.17593  -1.35176
 Alpha  occ. eigenvalues --   -1.34195  -1.07708  -1.05415  -1.03585  -0.94814
 Alpha  occ. eigenvalues --   -0.74385  -0.64558  -0.58939  -0.56069  -0.53512
 Alpha  occ. eigenvalues --   -0.50485  -0.46540  -0.44034  -0.43113  -0.42508
 Alpha  occ. eigenvalues --   -0.42182  -0.41577  -0.41065  -0.36927  -0.34360
 Alpha  occ. eigenvalues --   -0.34329  -0.32938  -0.32302  -0.28113
 Alpha virt. eigenvalues --    0.13355   0.14073   0.15321   0.16361   0.18512
 Alpha virt. eigenvalues --    0.19329   0.22316   0.22989   0.23954   0.24064
 Alpha virt. eigenvalues --    0.25639   0.26282   0.26640   0.27192   0.27391

 Mulliken charges:
               1
     1  C    0.993425
     2  H    0.132680
     3  F   -0.792050
     4  F   -0.789567
     5  C    0.904665
     6  H   -0.222133
     7  N   -0.491405
     8  H    0.060788
     9  H    0.082620
    10  C   -0.169632
    11  N   -0.304970
    12  C   -0.123949
    13  N   -0.280472
 Sum of Mulliken charges =  -1.00000

 Dipole moment (field-independent basis, Debye):
    X=              2.1482    Y=             -0.2720    Z=             -0.9259  Tot=              2.3550

 Test job not archived.
 1\1\GINC-SE329\SP\RHF\Aug-CC-pVDZ\C4H4F2N3(1-)\OHZDE\09-Apr-2025\0\\#t
  hf aug-cc-pvdz iop(5/13=1,5/36=2,99/5=2) pseudo=read geom=check guess
 =(read,tcheck) scf=(maxcycle=1)\\title\\-1,1\C,0,0.66570939,-0.0856372
 9,0.02473026\H,0,1.69252147,1.76635935,0.19955349\F,0,-1.11365357,-0.0
 8676807,0.15505443\F,0,2.3970165,-0.11569168,-0.32950251\C,0,0.656542,
 1.44558482,0.0683577\H,0,0.52401077,-0.58305548,-0.92084616\N,0,0.8348
 2641,-0.74648891,1.27834433\H,0,1.64198626,-1.34531341,1.19264401\H,0,
 -0.01265582,-1.26426383,1.45621137\C,0,-0.13468183,1.97494734,1.186082

 Normal termination of Gaussian 16 at Wed Apr  9 02:39:02 2025.
