 Gaussian 16, Revision C.01,

 ----------------------------------------------------------------------
 #t hf aug-cc-pvdz symm=none int=(grid=ultrafine) guess=(read,tcheck) s
 table=(opt,rrhf)
 ----------------------------------------------------------------------
 -----
 title
 -----
 Symbolic Z-matrix:
 Charge = -1 Multiplicity = 1

 SCF Done:  E(RHF) =  -943.992177585     A.U. after   18 cycles
 Normal termination of Gaussian 16 at Wed Apr  9 02:33:41 2025.
 Gaussian 16:  ES64L-G16RevC.01  3-Jul-2019

 ----------------------------------------------------------------------
 #t hf aug-cc-pvdz iop(5/13=1,5/36=2,99/5=2) pseudo=read geom=check gue
 ss=(read,tcheck) scf=(maxcycle=1)
 ----------------------------------------------------------------------
 -----
 title
 -----
 Structure from the checkpoint file:  "E2SN2_130_mol2.chk"
 Charge = -1 Multiplicity = 1

                         Standard orientation:
 ---------------------------------------------------------------------
 Center     Atomic      Atomic             Coordinates (Angstroms)
 Number     Number       Type             X           Y           Z
 ---------------------------------------------------------------------
      1          6           0        0.251182   -0.536488   -0.156454
      2          6           0       -1.099638    0.090234   -0.565645
      3         17           0        0.269111   -0.885505    1.586361
      4          1           0       -0.993084    0.297465   -1.634735
      5          7           0        0.569719   -1.645696   -0.957415
      6          1           0       -0.143845   -1.768050   -1.729717
      7          1           0        0.614029   -2.492067   -0.409519
      8          7           0        1.353628    0.547973   -0.408959
      9          8           0        2.245613    0.733180    0.407927
     10          8           0        1.264893    1.102503   -1.501227
     11          6           0       -1.330230    1.353190    0.135027
     12          7           0       -1.545190    2.363710    0.694499
     13          7           0       -2.152604   -0.879303   -0.306359
     14          1           0       -3.040748   -0.390572   -0.263154
     15          1           0       -2.150216   -1.465598   -1.169421
     16          1           0       -1.451812   -1.961453   -2.645139
 ---------------------------------------------------------------------

 SCF Done:  E(RHF) =  -944.154076184     A.U. after    2 cycles

 The electronic state is 1-A.
 Alpha  occ. eigenvalues -- -103.56154 -20.51434 -20.50975 -15.79966 -15.54614
 Alpha  occ. eigenvalues --  -15.50236 -15.49595 -11.30306 -11.21297 -11.19440
 Alpha  occ. eigenvalues --  -10.59544  -8.25272  -8.24967  -8.24950  -1.43512
 Alpha  occ. eigenvalues --   -1.25452  -1.14699  -1.08594  -1.04502  -1.02063
 Alpha  occ. eigenvalues --   -0.90908  -0.83430  -0.71371  -0.66173  -0.63287
 Alpha  occ. eigenvalues --   -0.62060  -0.61535  -0.55053  -0.54086  -0.50634
 Alpha  occ. eigenvalues --   -0.48492  -0.45813  -0.44251  -0.41827  -0.40951
 Alpha  occ. eigenvalues --   -0.37665  -0.36669  -0.36301  -0.36011  -0.35046
 Alpha  occ. eigenvalues --   -0.30526  -0.28452  -0.12963
 Alpha virt. eigenvalues --    0.13354   0.13897   0.15383   0.16838   0.18343
 Alpha virt. eigenvalues --    0.18440   0.19791   0.19876   0.20579   0.21143
 Alpha virt. eigenvalues --    0.23288   0.23395   0.24109   0.25208   0.25671

 Mulliken charges:
               1
     1  C    0.841721
     2  C    1.028481
     3  Cl  -0.059218
     4  H    0.092708
     5  N   -0.455606
     6  H    0.049119
     7  H    0.069017
     8  N    0.305588
     9  O   -0.615490
    10  O   -0.583763
    11  C   -0.475201
    12  N   -0.237992
    13  N   -0.422892
    14  H   -0.017241
    15  H    0.121971
    16  H   -0.641202
 Sum of Mulliken charges =  -1.00000

 Dipole moment (field-independent basis, Debye):
    X=              1.5468    Y=              1.2842    Z=              5.9557  Tot=              6.2858

 Test job not archived.
 1\1\GINC-SE116\SP\RHF\Aug-CC-pVDZ\C3H6Cl1N4O2(1-)\OHZDE\09-Apr-2025\0\
 \#t hf aug-cc-pvdz iop(5/13=1,5/36=2,99/5=2) pseudo=read geom=check gu
 ess=(read,tcheck) scf=(maxcycle=1)\\title\\-1,1\C,0,-0.308677,0.016171
 ,-1.408546\C,0,0.033218,-0.175752,0.085177\Cl,0,-2.015739,0.473502,-1.
 599137\H,0,1.082099,-0.487345,0.08852\N,0,0.58573,0.900844,-2.033635\H
 ,0,1.358593,1.185167,-1.368475\H,0,0.111356,1.728066,-2.364044\N,0,-0.
 13747,-1.379529,-2.099858\O,0,-0.9583,-1.776783,-2.915742\O,0,0.903417
 ,-1.958573,-1.800377\C,0,-0.773323,-1.241406,0.679351\N,0,-1.417804,-2

 Normal termination of Gaussian 16 at Wed Apr  9 02:33:51 2025.
