 Gaussian 16, Revision C.01,

 ----------------------------------------------------------------------
 #t hf aug-cc-pvdz symm=none int=(grid=ultrafine) guess=(read,tcheck) s
 table=(opt,rrhf)
 ----------------------------------------------------------------------
 -----
 title
 -----
 Symbolic Z-matrix:
 Charge = -1 Multiplicity = 1

 SCF Done:  E(RHF) =  -967.940804358     A.U. after   15 cycles
 Normal termination of Gaussian 16 at Wed Apr  9 02:49:56 2025.
 Gaussian 16:  ES64L-G16RevC.01  3-Jul-2019

 ----------------------------------------------------------------------
 #t hf aug-cc-pvdz iop(5/13=1,5/36=2,99/5=2) pseudo=read geom=check gue
 ss=(read,tcheck) scf=(maxcycle=1)
 ----------------------------------------------------------------------
 -----
 title
 -----
 Structure from the checkpoint file:  "E2SN2_309_mol2.chk"
 Charge = -1 Multiplicity = 1

                         Standard orientation:
 ---------------------------------------------------------------------
 Center     Atomic      Atomic             Coordinates (Angstroms)
 Number     Number       Type             X           Y           Z
 ---------------------------------------------------------------------
      1          6           0       -0.389691    0.521335   -0.743983
      2          6           0       -0.356898   -0.562672    0.351341
      3          9           0       -1.617016    0.451445   -1.400751
      4          1           0        0.668527   -0.527249    0.788602
      5          6           0       -0.371794    1.873803   -0.122748
      6          7           0       -0.344968    2.970978    0.297139
      7          7           0        0.651024    0.264448   -1.663169
      8          1           0        1.523105    0.090997   -1.144745
      9          1           0        0.781525    1.054075   -2.283884
     10          6           0       -0.566963   -1.879834   -0.252201
     11          7           0       -0.759214   -2.950939   -0.692096
     12          6           0       -1.370714   -0.316476    1.375596
     13          7           0       -2.178274   -0.119684    2.205141
     14         17           0        2.843316   -0.214788    0.621744
 ---------------------------------------------------------------------

 SCF Done:  E(RHF) =  -968.103823197     A.U. after    2 cycles

 The electronic state is 1-A.
 Alpha  occ. eigenvalues -- -103.41169 -26.04946 -15.57280 -15.57030 -15.56108
 Alpha  occ. eigenvalues --  -15.53650 -11.34280 -11.24466 -11.22101 -11.21470
 Alpha  occ. eigenvalues --  -11.21347 -10.44322  -8.09930  -8.09893  -8.09867
 Alpha  occ. eigenvalues --   -1.58713  -1.14482  -1.10766  -1.09586  -1.08870
 Alpha  occ. eigenvalues --   -0.99713  -0.87571  -0.86288  -0.74163  -0.69816
 Alpha  occ. eigenvalues --   -0.68390  -0.66195  -0.60650  -0.56723  -0.54418
 Alpha  occ. eigenvalues --   -0.52242  -0.47455  -0.47269  -0.46345  -0.40165
 Alpha  occ. eigenvalues --   -0.39079  -0.38723  -0.38416  -0.37027  -0.36195
 Alpha  occ. eigenvalues --   -0.33513  -0.24783  -0.24488  -0.24333
 Alpha virt. eigenvalues --    0.12463   0.14794   0.16432   0.16569   0.17958
 Alpha virt. eigenvalues --    0.18632   0.19430   0.20094   0.21102   0.22314
 Alpha virt. eigenvalues --    0.22887   0.23411   0.23847   0.24112   0.24346

 Mulliken charges:
               1
     1  C    1.240468
     2  C    1.110597
     3  F   -0.445122
     4  H   -0.045079
     5  C   -0.433258
     6  N   -0.190587
     7  N   -0.482985
     8  H    0.118608
     9  H    0.022712
    10  C   -0.252214
    11  N   -0.247316
    12  C   -0.264783
    13  N   -0.237138
    14  Cl  -0.893905
 Sum of Mulliken charges =  -1.00000

 Dipole moment (field-independent basis, Debye):
    X=             -4.3267    Y=              1.5600    Z=             -3.3640  Tot=              5.6983

 Test job not archived.
 1\1\GINC-SE113\SP\RHF\Aug-CC-pVDZ\C5H3Cl1F1N4(1-)\OHZDE\09-Apr-2025\0\
 \#t hf aug-cc-pvdz iop(5/13=1,5/36=2,99/5=2) pseudo=read geom=check gu
 ess=(read,tcheck) scf=(maxcycle=1)\\title\\-1,1\C,0,0.027068,0.024671,
 0.018463\C,0,-0.547757,0.251106,-1.393693\F,0,1.41145,-0.102293,-0.081
 148\H,0,-1.656892,0.259451,-1.276654\C,0,-0.180327,1.239184,0.853547\N
 ,0,-0.322732,2.156147,1.574462\N,0,-0.518383,-1.168504,0.540766\H,0,-1
 .538143,-1.161945,0.401408\H,0,-0.315798,-1.250191,1.529762\C,0,-0.173
 69,-0.865792,-2.263129\N,0,0.127387,-1.727999,-3.000479\C,0,-0.073149,

 Normal termination of Gaussian 16 at Wed Apr  9 02:50:04 2025.
