 Gaussian 16, Revision C.01,

 ----------------------------------------------------------------------
 #t hf aug-cc-pvdz symm=none int=(grid=ultrafine) guess=(read,tcheck) s
 table=(opt,rrhf)
 ----------------------------------------------------------------------
 -----
 title
 -----
 Symbolic Z-matrix:
 Charge = -1 Multiplicity = 1

 SCF Done:  E(RHF) =  -888.906886512     A.U. after   17 cycles
 Normal termination of Gaussian 16 at Wed Apr  9 02:52:13 2025.
 Gaussian 16:  ES64L-G16RevC.01  3-Jul-2019

 ----------------------------------------------------------------------
 #t hf aug-cc-pvdz iop(5/13=1,5/36=2,99/5=2) pseudo=read geom=check gue
 ss=(read,tcheck) scf=(maxcycle=1)
 ----------------------------------------------------------------------
 -----
 title
 -----
 Structure from the checkpoint file:  "E2SN2_34_mol1.chk"
 Charge = -1 Multiplicity = 1

                         Standard orientation:
 ---------------------------------------------------------------------
 Center     Atomic      Atomic             Coordinates (Angstroms)
 Number     Number       Type             X           Y           Z
 ---------------------------------------------------------------------
      1          6           0        0.229682   -0.158754    0.179522
      2          6           0       -0.619344   -0.236504    1.415359
      3         17           0        0.069915   -1.593219   -0.949930
      4          1           0       -1.573490    2.084984    1.937164
      5          1           0       -0.669658    0.858503    1.834859
      6          1           0       -0.122882   -0.907382    2.124624
      7          7           0       -0.184262    1.071766   -0.626756
      8          8           0        0.519390    2.065924   -0.487469
      9          8           0       -1.235897    0.999139   -1.244763
     10          7           0       -2.016855   -0.520154    1.228102
     11          1           0       -2.206708   -0.956655    0.335972
     12          1           0       -2.469369    0.402298    1.266622
     13          6           0        1.644516   -0.047799    0.509739
     14          7           0        2.780616   -0.017210    0.810039
 ---------------------------------------------------------------------

 SCF Done:  E(RHF) =  -889.052203816     A.U. after    2 cycles

 The electronic state is 1-A.
 Alpha  occ. eigenvalues -- -103.58551 -20.52089 -20.51947 -15.81652 -15.56861
 Alpha  occ. eigenvalues --  -15.47479 -11.31315 -11.21780 -11.14767 -10.61817
 Alpha  occ. eigenvalues --   -8.27532  -8.27228  -8.27223  -1.44551  -1.26593
 Alpha  occ. eigenvalues --   -1.13245  -1.08601  -1.02852  -0.96116  -0.81773
 Alpha  occ. eigenvalues --   -0.74748  -0.69094  -0.63794  -0.62203  -0.58770
 Alpha  occ. eigenvalues --   -0.52787  -0.51086  -0.47334  -0.45225  -0.42867
 Alpha  occ. eigenvalues --   -0.41875  -0.40465  -0.38804  -0.38367  -0.37049
 Alpha  occ. eigenvalues --   -0.36225  -0.36051  -0.26558  -0.09681
 Alpha virt. eigenvalues --    0.13138   0.14188   0.15855   0.16643   0.18022
 Alpha virt. eigenvalues --    0.19531   0.19628   0.20558   0.21449   0.22153
 Alpha virt. eigenvalues --    0.22201   0.23674   0.24628   0.24942   0.25293

 Mulliken charges:
               1
     1  C    1.146371
     2  C    0.309557
     3  Cl  -0.145546
     4  H   -0.671811
     5  H    0.177458
     6  H   -0.232744
     7  N    0.308091
     8  O   -0.560856
     9  O   -0.568286
    10  N   -0.265569
    11  H    0.028121
    12  H    0.106432
    13  C   -0.445917
    14  N   -0.185302
 Sum of Mulliken charges =  -1.00000

 Dipole moment (field-independent basis, Debye):
    X=              3.6731    Y=             -8.0279    Z=             -6.1582  Tot=             10.7639

 Test job not archived.
 1\1\GINC-SE188\SP\RHF\Aug-CC-pVDZ\C3H5Cl1N3O2(1-)\OHZDE\09-Apr-2025\0\
 \#t hf aug-cc-pvdz iop(5/13=1,5/36=2,99/5=2) pseudo=read geom=check gu
 ess=(read,tcheck) scf=(maxcycle=1)\\title\\-1,1\C,0,-0.16262836,0.0885
 4143,-0.2974102\C,0,-0.24781077,0.17732749,1.19893325\Cl,0,1.51473442,
 -0.25910429,-0.9489281\H,0,-2.41587972,-0.93641042,1.99331489\H,0,-1.3
 8581332,0.05635391,1.45944669\H,0,0.12246296,1.16301429,1.50047672\N,0
 ,-1.05546641,-1.05604542,-0.77529635\O,0,-2.16216233,-0.73446197,-1.19
 325039\O,0,-0.64211989,-2.19162339,-0.59432889\N,0,0.31971017,-0.91084

 Normal termination of Gaussian 16 at Wed Apr  9 02:52:20 2025.
