 Gaussian 16, Revision C.01,

 ----------------------------------------------------------------------
 #t hf aug-cc-pvdz symm=none int=(grid=ultrafine) guess=(read,tcheck) s
 table=(opt,rrhf)
 ----------------------------------------------------------------------
 -----
 title
 -----
 Symbolic Z-matrix:
 Charge = -1 Multiplicity = 1

 SCF Done:  E(RHF) =  -987.936785970     A.U. after   17 cycles
 Normal termination of Gaussian 16 at Wed Apr  9 02:45:33 2025.
 Gaussian 16:  ES64L-G16RevC.01  3-Jul-2019

 ----------------------------------------------------------------------
 #t hf aug-cc-pvdz iop(5/13=1,5/36=2,99/5=2) pseudo=read geom=check gue
 ss=(read,tcheck) scf=(maxcycle=1)
 ----------------------------------------------------------------------
 -----
 title
 -----
 Structure from the checkpoint file:  "E2SN2_265_mol2.chk"
 Charge = -1 Multiplicity = 1

                         Standard orientation:
 ---------------------------------------------------------------------
 Center     Atomic      Atomic             Coordinates (Angstroms)
 Number     Number       Type             X           Y           Z
 ---------------------------------------------------------------------
      1          6           0        0.582569    0.503409   -0.009049
      2          6           0       -0.168139    0.917897   -1.276256
      3          9           0        1.681100    1.355129    0.149342
      4          1           0        0.588616    1.368140   -1.925965
      5          1           0       -0.557530    0.022009   -1.746538
      6          6           0       -0.172434    0.599429    1.242906
      7          7           0       -0.583203    0.941857    2.290245
      8          7           0        1.244146   -0.858613   -0.132215
      9          8           0        1.506970   -1.450817    0.906556
     10          8           0        1.581117   -1.188100   -1.264200
     11          7           0       -1.270127    1.831762   -1.059210
     12          1           0       -1.003440    2.579709   -0.430163
     13          1           0       -2.009987    1.290086   -0.620051
     14         17           0       -2.002350   -1.286719   -0.070444
 ---------------------------------------------------------------------

 SCF Done:  E(RHF) =  -988.111521256     A.U. after    2 cycles

 The electronic state is 1-A.
 Alpha  occ. eigenvalues -- -103.38408 -26.05555 -20.52489 -20.52271 -15.81905
 Alpha  occ. eigenvalues --  -15.54433 -15.50286 -11.33429 -11.19722 -11.17168
 Alpha  occ. eigenvalues --  -10.41556  -8.07160  -8.07122  -8.07116  -1.59044
 Alpha  occ. eigenvalues --   -1.44623  -1.26796  -1.09154  -1.05784  -0.99172
 Alpha  occ. eigenvalues --   -0.84152  -0.82743  -0.79414  -0.71977  -0.70487
 Alpha  occ. eigenvalues --   -0.66431  -0.63823  -0.62217  -0.59691  -0.56638
 Alpha  occ. eigenvalues --   -0.52969  -0.46988  -0.44632  -0.42820  -0.42233
 Alpha  occ. eigenvalues --   -0.41525  -0.37323  -0.36246  -0.35436  -0.29793
 Alpha  occ. eigenvalues --   -0.22048  -0.21866  -0.21405
 Alpha virt. eigenvalues --    0.12386   0.13889   0.16087   0.16899   0.18174
 Alpha virt. eigenvalues --    0.18358   0.19270   0.21443   0.21924   0.22938
 Alpha virt. eigenvalues --    0.24018   0.24484   0.24945   0.26418   0.26749

 Mulliken charges:
               1
     1  C    1.148460
     2  C    0.854377
     3  F   -0.444016
     4  H   -0.006687
     5  H    0.107306
     6  C   -0.260165
     7  N   -0.303642
     8  N    0.284553
     9  O   -0.578135
    10  O   -0.570279
    11  N   -0.434470
    12  H    0.028197
    13  H    0.101708
    14  Cl  -0.927205
 Sum of Mulliken charges =  -1.00000

 Dipole moment (field-independent basis, Debye):
    X=              5.3001    Y=              5.1702    Z=             -1.6263  Tot=              7.5807

 Test job not archived.
 1\1\GINC-SE036\SP\RHF\Aug-CC-pVDZ\C3H4Cl1F1N3O2(1-)\OHZDE\09-Apr-2025\
 0\\#t hf aug-cc-pvdz iop(5/13=1,5/36=2,99/5=2) pseudo=read geom=check
 guess=(read,tcheck) scf=(maxcycle=1)\\title\\-1,1\C,0,-0.002734,-0.035
 38,0.003491\C,0,-0.387503,0.094851,-1.471693\F,0,1.392229,-0.097786,0.
 089919\H,0,0.422157,-0.390499,-2.025233\H,0,-1.309263,-0.453486,-1.630
 096\C,0,-0.400406,1.077352,0.869704\N,0,-0.394897,2.038303,1.547532\N,
 0,-0.424294,-1.363022,0.609802\O,0,-0.538633,-1.412661,1.827706\O,0,-0
 .482883,-2.310055,-0.166856\N,0,-0.583399,1.45375,-1.931751\H,0,0.1616

 Normal termination of Gaussian 16 at Wed Apr  9 02:45:42 2025.
