 Gaussian 16, Revision C.01,

 ----------------------------------------------------------------------
 #t hf aug-cc-pvdz symm=none int=(grid=ultrafine) guess=(read,tcheck) s
 table=(opt,rrhf)
 ----------------------------------------------------------------------
 -----
 title
 -----
 Symbolic Z-matrix:
 Charge = -1 Multiplicity = 1

 SCF Done:  E(RHF) =  -951.237378716     A.U. after   15 cycles
 Normal termination of Gaussian 16 at Wed Apr  9 02:39:08 2025.
 Gaussian 16:  ES64L-G16RevC.01  3-Jul-2019

 ----------------------------------------------------------------------
 #t hf aug-cc-pvdz iop(5/13=1,5/36=2,99/5=2) pseudo=read geom=check gue
 ss=(read,tcheck) scf=(maxcycle=1)
 ----------------------------------------------------------------------
 -----
 title
 -----
 Structure from the checkpoint file:  "E2SN2_205_mol2.chk"
 Charge = -1 Multiplicity = 1

                         Standard orientation:
 ---------------------------------------------------------------------
 Center     Atomic      Atomic             Coordinates (Angstroms)
 Number     Number       Type             X           Y           Z
 ---------------------------------------------------------------------
      1          6           0       -0.527491    0.748821   -0.140591
      2          6           0        0.071359   -0.569351   -0.645784
      3         17           0        0.806870    2.019752   -0.291617
      4          1           0        0.499214   -0.421592   -1.642206
      5          1           0       -1.275528    1.029029   -0.880325
      6          7           0       -1.150057    0.758956    1.121559
      7          1           0       -0.651351    0.156343    1.761646
      8          1           0       -2.100284    0.388347    0.916517
      9          7           0       -0.881976   -1.613604   -0.528273
     10          1           0       -0.872467   -2.192001   -1.356001
     11          1           0       -1.848865   -1.223219   -0.365106
     12          7           0        1.322736   -0.933938    0.162535
     13          8           0        2.351559   -1.174767   -0.472258
     14          8           0        1.229039   -1.008455    1.385165
     15          9           0       -3.156713   -0.351516   -0.150310
 ---------------------------------------------------------------------

 SCF Done:  E(RHF) =  -951.402007625     A.U. after    2 cycles

 The electronic state is 1-A.
 Alpha  occ. eigenvalues -- -103.51775 -25.78324 -20.49689 -20.49452 -15.77874
 Alpha  occ. eigenvalues --  -15.47684 -15.45956 -11.21706 -11.21281 -10.55140
 Alpha  occ. eigenvalues --   -8.20843  -8.20591  -8.20581  -1.41472  -1.27653
 Alpha  occ. eigenvalues --   -1.23339  -1.09458  -1.03104  -0.98021  -0.88607
 Alpha  occ. eigenvalues --   -0.76852  -0.69626  -0.62322  -0.60203  -0.59485
 Alpha  occ. eigenvalues --   -0.56650  -0.54619  -0.51071  -0.45999  -0.44425
 Alpha  occ. eigenvalues --   -0.41823  -0.39186  -0.38266  -0.37504  -0.36229
 Alpha  occ. eigenvalues --   -0.35239  -0.35126  -0.32974  -0.32171  -0.27918
 Alpha  occ. eigenvalues --   -0.25266
 Alpha virt. eigenvalues --    0.12886   0.14468   0.15737   0.16245   0.18710
 Alpha virt. eigenvalues --    0.19288   0.19589   0.20336   0.22100   0.24012
 Alpha virt. eigenvalues --    0.24674   0.25458   0.26112   0.27319   0.27814

 Mulliken charges:
               1
     1  C    0.425812
     2  C    1.381279
     3  Cl  -0.259864
     4  H   -0.220910
     5  H    0.024240
     6  N   -0.478662
     7  H    0.052710
     8  H    0.163740
     9  N   -0.413472
    10  H    0.003805
    11  H    0.153731
    12  N    0.353997
    13  O   -0.632046
    14  O   -0.637405
    15  F   -0.916955
 Sum of Mulliken charges =  -1.00000

 Dipole moment (field-independent basis, Debye):
    X=              4.4173    Y=             -0.1754    Z=             -2.4191  Tot=              5.0394

 Test job not archived.
 1\1\GINC-SE462\SP\RHF\Aug-CC-pVDZ\C2H6Cl1F1N3O2(1-)\OHZDE\09-Apr-2025\
 0\\#t hf aug-cc-pvdz iop(5/13=1,5/36=2,99/5=2) pseudo=read geom=check
 guess=(read,tcheck) scf=(maxcycle=1)\\title\\-1,1\C,0,-0.045961,-0.049
 307,-0.065117\C,0,-0.223183,-0.302272,-1.567122\Cl,0,1.773798,0.095382
 ,0.228373\H,0,0.306836,0.468301,-2.135492\H,0,-0.444838,0.948582,0.109
 233\N,0,-0.676212,-0.925188,0.838393\H,0,-0.651917,-1.870826,0.482387\
 H,0,-1.649922,-0.560829,0.876558\N,0,-1.598869,-0.464181,-1.874361\H,0
 ,-1.830328,0.035269,-2.720968\H,0,-2.203925,-0.132073,-1.075919\N,0,0.

 Normal termination of Gaussian 16 at Wed Apr  9 02:39:14 2025.
