 Gaussian 16, Revision C.01,

 ----------------------------------------------------------------------
 #t hf aug-cc-pvdz symm=none int=(grid=ultrafine) guess=(read,tcheck) s
 table=(opt,rrhf)
 ----------------------------------------------------------------------
 -----
 title
 -----
 Symbolic Z-matrix:
 Charge = -1 Multiplicity = 1

 SCF Done:  E(RHF) =  -836.235552272     A.U. after   17 cycles
 Normal termination of Gaussian 16 at Wed Apr  9 02:53:45 2025.
 Gaussian 16:  ES64L-G16RevC.01  3-Jul-2019

 ----------------------------------------------------------------------
 #t hf aug-cc-pvdz iop(5/13=1,5/36=2,99/5=2) pseudo=read geom=check gue
 ss=(read,tcheck) scf=(maxcycle=1)
 ----------------------------------------------------------------------
 -----
 title
 -----
 Structure from the checkpoint file:  "E2SN2_367_mol1.chk"
 Charge = -1 Multiplicity = 1

                         Standard orientation:
 ---------------------------------------------------------------------
 Center     Atomic      Atomic             Coordinates (Angstroms)
 Number     Number       Type             X           Y           Z
 ---------------------------------------------------------------------
      1          6           0        0.961307    0.191586    0.727573
      2          1           0       -0.558280    1.615091    1.036142
      3         17           0        0.957560   -1.429941   -0.607623
      4          1           0        1.049177    1.447172    2.345260
      5          6           0       -0.303034    0.905141    0.251013
      6          1           0        0.851803   -0.390447    1.627663
      7          7           0        2.225731    0.765574    0.315587
      8          1           0        2.865452    0.005920    0.115435
      9          1           0        2.540267    1.292132    1.118225
     10          7           0       -1.466934   -0.050842    0.265395
     11          8           0       -2.261488   -0.041114   -0.675492
     12          8           0       -1.604792   -0.729644    1.280933
     13          6           0       -0.165766    1.600335   -1.081520
     14          1           0        0.667990    2.297362   -1.006846
     15          1           0        0.050826    0.883700   -1.872442
     16          1           0       -1.082138    2.138637   -1.326644
 ---------------------------------------------------------------------

 SCF Done:  E(RHF) =  -836.366033585     A.U. after    2 cycles

 The electronic state is 1-A.
 Alpha  occ. eigenvalues -- -103.46431 -20.48684 -20.48388 -15.77784 -15.48554
 Alpha  occ. eigenvalues --  -11.22902 -11.18037 -11.11129 -10.49744  -8.15405
 Alpha  occ. eigenvalues --   -8.15241  -8.15218  -1.40799  -1.22533  -1.05732
 Alpha  occ. eigenvalues --   -0.97433  -0.92738  -0.82234  -0.76409  -0.67194
 Alpha  occ. eigenvalues --   -0.61926  -0.60428  -0.58627  -0.54105  -0.52310
 Alpha  occ. eigenvalues --   -0.47775  -0.45457  -0.41694  -0.40376  -0.38113
 Alpha  occ. eigenvalues --   -0.36895  -0.34140  -0.31188  -0.29049  -0.28792
 Alpha  occ. eigenvalues --   -0.28181  -0.11429
 Alpha virt. eigenvalues --    0.12772   0.13616   0.15333   0.15475   0.16581
 Alpha virt. eigenvalues --    0.17151   0.17895   0.20497   0.21058   0.21460
 Alpha virt. eigenvalues --    0.23604   0.23898   0.24488   0.25653   0.26476

 Mulliken charges:
               1
     1  C    0.231905
     2  H   -0.166684
     3  Cl  -0.561828
     4  H   -0.565528
     5  C    0.582415
     6  H   -0.150466
     7  N   -0.296942
     8  H    0.062865
     9  H    0.112966
    10  N    0.462430
    11  O   -0.659022
    12  O   -0.634531
    13  C    0.534614
    14  H    0.025654
    15  H    0.017928
    16  H    0.004224
 Sum of Mulliken charges =  -1.00000

 Dipole moment (field-independent basis, Debye):
    X=             -0.2388    Y=              0.3080    Z=             -4.5794  Tot=              4.5959

 Test job not archived.
 1\1\GINC-SE023\SP\RHF\Aug-CC-pVDZ\C3H8Cl1N2O2(1-)\OHZDE\09-Apr-2025\0\
 \#t hf aug-cc-pvdz iop(5/13=1,5/36=2,99/5=2) pseudo=read geom=check gu
 ess=(read,tcheck) scf=(maxcycle=1)\\title\\-1,1\C,0,0.40751918,-0.0805
 5276,-0.0311722\H,0,1.69997163,1.57630001,0.09184121\Cl,0,-1.67400046,
 -0.11596715,0.24834954\H,0,2.43612245,-0.36785604,0.02671267\C,0,0.628
 70942,1.43134966,-0.03851998\H,0,0.66327485,-0.58033461,0.88845872\N,0
 ,0.43133497,-0.74691266,-1.31700281\H,0,-0.27400729,-1.47408156,-1.307
 3189\H,0,1.35558883,-1.14994327,-1.37820284\N,0,0.04859118,2.03989895,

 Normal termination of Gaussian 16 at Wed Apr  9 02:53:52 2025.
