 Gaussian 16, Revision C.01,

 ----------------------------------------------------------------------
 #t hf aug-cc-pvdz symm=none int=(grid=ultrafine) guess=(read,tcheck) s
 table=(opt,rrhf)
 ----------------------------------------------------------------------
 -----
 title
 -----
 Symbolic Z-matrix:
 Charge = -1 Multiplicity = 1

 SCF Done:  E(RHF) =  -740.488578791     A.U. after   15 cycles
 Normal termination of Gaussian 16 at Wed Apr  9 02:27:38 2025.
 Gaussian 16:  ES64L-G16RevC.01  3-Jul-2019

 ----------------------------------------------------------------------
 #t hf aug-cc-pvdz iop(5/13=1,5/36=2,99/5=2) pseudo=read geom=check gue
 ss=(read,tcheck) scf=(maxcycle=1)
 ----------------------------------------------------------------------
 -----
 title
 -----
 Structure from the checkpoint file:  "E2SN2_107_mol2.chk"
 Charge = -1 Multiplicity = 1

                         Standard orientation:
 ---------------------------------------------------------------------
 Center     Atomic      Atomic             Coordinates (Angstroms)
 Number     Number       Type             X           Y           Z
 ---------------------------------------------------------------------
      1          6           0        0.306336    0.149074    0.529071
      2          6           0       -0.863401   -0.800321    0.213397
      3         17           0        0.237847    1.664239   -0.427251
      4          1           0       -0.717434   -1.613955    0.946274
      5          1           0        0.107787    0.418733    1.618994
      6          6           0        1.589733   -0.491793    0.325029
      7          7           0        2.603072   -1.072430    0.174945
      8          7           0       -0.846369   -1.243197   -1.173033
      9          1           0       -0.016841   -1.801015   -1.345480
     10          1           0       -1.660633   -1.834095   -1.298294
     11          7           0       -2.153151   -0.225330    0.503841
     12          1           0       -2.247166    0.609327   -0.067728
     13          1           0       -2.086920    0.084114    1.484126
     14          1           0       -0.843072    0.489769    2.980111
 ---------------------------------------------------------------------

 SCF Done:  E(RHF) =  -740.589586510     A.U. after    2 cycles

 The electronic state is 1-A.
 Alpha  occ. eigenvalues -- -103.53732 -15.53167 -15.50004 -15.47223 -11.19180
 Alpha  occ. eigenvalues --  -11.18781 -11.18503 -10.57027  -8.22751  -8.22474
 Alpha  occ. eigenvalues --   -8.22446  -1.10453  -1.06636  -1.03436  -0.97636
 Alpha  occ. eigenvalues --   -0.86730  -0.70544  -0.58189  -0.57430  -0.56554
 Alpha  occ. eigenvalues --   -0.47665  -0.45713  -0.44484  -0.42832  -0.42179
 Alpha  occ. eigenvalues --   -0.35845  -0.35153  -0.33323  -0.32319  -0.29022
 Alpha  occ. eigenvalues --   -0.26875  -0.09988
 Alpha virt. eigenvalues --    0.12072   0.14276   0.15040   0.15933   0.17426
 Alpha virt. eigenvalues --    0.18960   0.19660   0.20495   0.21929   0.23096
 Alpha virt. eigenvalues --    0.24453   0.24680   0.25644   0.26205   0.26866

 Mulliken charges:
               1
     1  C    0.416390
     2  C    1.006442
     3  Cl  -0.215564
     4  H   -0.185732
     5  H    0.055353
     6  C   -0.401108
     7  N   -0.242606
     8  N   -0.407587
     9  H    0.019665
    10  H   -0.023770
    11  N   -0.459970
    12  H    0.020581
    13  H    0.103026
    14  H   -0.685121
 Sum of Mulliken charges =  -1.00000

 Dipole moment (field-independent basis, Debye):
    X=              0.3297    Y=             -1.7893    Z=             -8.8006  Tot=              8.9867

 Test job not archived.
 1\1\GINC-SE051\SP\RHF\Aug-CC-pVDZ\C3H7Cl1N3(1-)\OHZDE\09-Apr-2025\0\\#
 t hf aug-cc-pvdz iop(5/13=1,5/36=2,99/5=2) pseudo=read geom=check gues
 s=(read,tcheck) scf=(maxcycle=1)\\title\\-1,1\C,0,-0.096055,-0.042949,
 -1.378718\C,0,0.026125,-0.227652,0.144516\Cl,0,-1.631928,0.751623,-1.8
 52761\H,0,1.048884,-0.629844,0.256857\H,0,0.752821,0.685427,-1.599961\
 C,0,0.033584,-1.301153,-2.085519\N,0,0.179294,-2.345762,-2.609046\N,0,
 -1.013291,-1.099129,0.672493\H,0,-0.90127,-2.034582,0.29647\H,0,-0.875
 255,-1.139399,1.676087\N,0,0.003129,1.018367,0.869317\H,0,-0.883984,1.

 Normal termination of Gaussian 16 at Wed Apr  9 02:27:44 2025.
