 Gaussian 16, Revision C.01,

 ----------------------------------------------------------------------
 #t hf aug-cc-pvdz symm=none int=(grid=ultrafine) guess=(read,tcheck) s
 table=(opt,rrhf)
 ----------------------------------------------------------------------
 -----
 title
 -----
 Symbolic Z-matrix:
 Charge = -1 Multiplicity = 1

 SCF Done:  E(RHF) =  -891.254801807     A.U. after   18 cycles
 Normal termination of Gaussian 16 at Wed Apr  9 02:33:40 2025.
 Gaussian 16:  ES64L-G16RevC.01  3-Jul-2019

 ----------------------------------------------------------------------
 #t hf aug-cc-pvdz iop(5/13=1,5/36=2,99/5=2) pseudo=read geom=check gue
 ss=(read,tcheck) scf=(maxcycle=1)
 ----------------------------------------------------------------------
 -----
 title
 -----
 Structure from the checkpoint file:  "E2SN2_131_mol1.chk"
 Charge = -1 Multiplicity = 1

                         Standard orientation:
 ---------------------------------------------------------------------
 Center     Atomic      Atomic             Coordinates (Angstroms)
 Number     Number       Type             X           Y           Z
 ---------------------------------------------------------------------
      1          6           0        0.010671    0.080074    0.406601
      2          6           0       -0.992596   -0.801230   -0.200264
      3         17           0       -0.110424    1.953162   -0.207583
      4          1           0       -0.656432   -2.584528    1.501047
      5          1           0       -0.749454   -1.835986    0.493496
      6          7           0        0.018312    0.113404    1.817998
      7          1           0       -0.099278   -0.879897    2.105663
      8          1           0       -0.806142    0.619205    2.116758
      9          7           0        1.400741   -0.358575   -0.053862
     10          8           0        1.722461   -0.159522   -1.224554
     11          8           0        2.075108   -0.978998    0.764445
     12          7           0       -0.946099   -1.050609   -1.628380
     13          1           0       -0.127881   -1.606987   -1.845597
     14          1           0       -0.818262   -0.165647   -2.113366
     15          6           0       -2.399304   -0.489824    0.270368
     16          1           0       -2.515525   -0.749889    1.327532
     17          1           0       -2.670980    0.561939    0.118220
     18          1           0       -3.082707   -1.117463   -0.304489
 ---------------------------------------------------------------------

 SCF Done:  E(RHF) =  -891.401051470     A.U. after    2 cycles

 The electronic state is 1-A.
 Alpha  occ. eigenvalues -- -103.51724 -20.49879 -20.49150 -15.78568 -15.49888
 Alpha  occ. eigenvalues --  -15.47954 -11.27802 -11.12100 -11.09921 -10.54951
 Alpha  occ. eigenvalues --   -8.20637  -8.20403  -8.20400  -1.41762  -1.23529
 Alpha  occ. eigenvalues --   -1.10729  -1.02237  -0.98036  -0.88800  -0.86068
 Alpha  occ. eigenvalues --   -0.73427  -0.67507  -0.61503  -0.60964  -0.58702
 Alpha  occ. eigenvalues --   -0.54890  -0.52947  -0.51933  -0.46306  -0.43035
 Alpha  occ. eigenvalues --   -0.40192  -0.39689  -0.39091  -0.37373  -0.35713
 Alpha  occ. eigenvalues --   -0.33793  -0.33335  -0.32648  -0.31153  -0.26102
 Alpha  occ. eigenvalues --   -0.10650
 Alpha virt. eigenvalues --    0.12849   0.13594   0.14748   0.15147   0.16802
 Alpha virt. eigenvalues --    0.17080   0.18268   0.18998   0.19431   0.20292
 Alpha virt. eigenvalues --    0.21991   0.22480   0.24496   0.24740   0.26067

 Mulliken charges:
               1
     1  C    1.478070
     2  C   -0.227039
     3  Cl  -0.350437
     4  H   -0.498583
     5  H   -0.022953
     6  N   -0.597833
     7  H    0.149571
     8  H    0.071430
     9  N    0.105668
    10  O   -0.629306
    11  O   -0.523056
    12  N   -0.388657
    13  H    0.027001
    14  H    0.031116
    15  C    0.531502
    16  H   -0.037682
    17  H   -0.034859
    18  H   -0.083954
 Sum of Mulliken charges =  -1.00000

 Dipole moment (field-independent basis, Debye):
    X=             -1.1206    Y=              5.7242    Z=             -2.4082  Tot=              6.3105

 Test job not archived.
 1\1\GINC-SE112\SP\RHF\Aug-CC-pVDZ\C3H9Cl1N3O2(1-)\OHZDE\09-Apr-2025\0\
 \#t hf aug-cc-pvdz iop(5/13=1,5/36=2,99/5=2) pseudo=read geom=check gu
 ess=(read,tcheck) scf=(maxcycle=1)\\title\\-1,1\C,0,-0.18658216,0.0003
 6335,-0.220258\C,0,-0.15805133,0.00588795,1.2462628\Cl,0,1.60217709,0.
 14778243,-1.04424394\H,0,-2.47323869,-0.8845629,1.43233087\H,0,-1.3861
 1121,-0.25034723,1.43953219\N,0,-0.81801004,-1.11456492,-0.81308513\H,
 0,-1.67093464,-1.27118799,-0.23757195\H,0,-0.21044319,-1.9141851,-0.68
 546341\N,0,-0.90992218,1.25570601,-0.70772966\O,0,-0.35122515,2.344128

 Normal termination of Gaussian 16 at Wed Apr  9 02:33:50 2025.
