 Gaussian 16, Revision C.01,

 ----------------------------------------------------------------------
 #t hf aug-cc-pvdz symm=none int=(grid=ultrafine) guess=(read,tcheck) s
 table=(opt,rrhf)
 ----------------------------------------------------------------------
 -----
 title
 -----
 Symbolic Z-matrix:
 Charge = -1 Multiplicity = 1

 SCF Done:  E(RHF) =  -1010.92432000     A.U. after   17 cycles
 Normal termination of Gaussian 16 at Wed Apr  9 02:47:35 2025.
 Gaussian 16:  ES64L-G16RevC.01  3-Jul-2019

 ----------------------------------------------------------------------
 #t hf aug-cc-pvdz iop(5/13=1,5/36=2,99/5=2) pseudo=read geom=check gue
 ss=(read,tcheck) scf=(maxcycle=1)
 ----------------------------------------------------------------------
 -----
 title
 -----
 Structure from the checkpoint file:  "E2SN2_281_mol1.chk"
 Charge = -1 Multiplicity = 1

                         Standard orientation:
 ---------------------------------------------------------------------
 Center     Atomic      Atomic             Coordinates (Angstroms)
 Number     Number       Type             X           Y           Z
 ---------------------------------------------------------------------
      1          6           0       -0.699850    0.006036    0.411417
      2          1           0        0.402295   -1.755665    0.646925
      3         17           0        0.140089    1.915725   -0.405703
      4          9           0       -1.641642   -1.643388    0.856905
      5          6           0        0.411800   -0.933980   -0.066300
      6          6           0       -1.865732    0.170617   -0.428597
      7          7           0       -2.810019    0.338985   -1.109770
      8          6           0       -0.760733    0.493207    1.841368
      9          1           0       -1.035207   -0.351532    2.468765
     10          1           0        0.199456    0.902481    2.143621
     11          1           0       -1.515132    1.275972    1.919532
     12          7           0        1.798119   -0.355101    0.093757
     13          8           0        2.512157   -0.225528   -0.895850
     14          8           0        2.159459   -0.129154    1.248331
     15          6           0        0.191441   -1.436799   -1.472106
     16          1           0       -0.763261   -1.960803   -1.473896
     17          1           0        0.166531   -0.607673   -2.179479
     18          1           0        0.987396   -2.123816   -1.763118
 ---------------------------------------------------------------------

 SCF Done:  E(RHF) =  -1011.10283436     A.U. after    2 cycles

 The electronic state is 1-A.
 Alpha  occ. eigenvalues -- -103.45453 -25.83352 -20.50306 -20.49749 -15.79378
 Alpha  occ. eigenvalues --  -15.50728 -11.27943 -11.20882 -11.17521 -11.12459
 Alpha  occ. eigenvalues --  -11.12211 -10.48766  -8.14413  -8.14262  -8.14252
 Alpha  occ. eigenvalues --   -1.42388  -1.33362  -1.24151  -1.06092  -1.02072
 Alpha  occ. eigenvalues --   -0.94356  -0.89384  -0.83822  -0.78826  -0.71792
 Alpha  occ. eigenvalues --   -0.64737  -0.62422  -0.61770  -0.53861  -0.52271
 Alpha  occ. eigenvalues --   -0.49746  -0.48254  -0.45140  -0.44776  -0.43435
 Alpha  occ. eigenvalues --   -0.42323  -0.41419  -0.40889  -0.39746  -0.38473
 Alpha  occ. eigenvalues --   -0.37599  -0.35416  -0.33265  -0.32512  -0.28669
 Alpha  occ. eigenvalues --   -0.27993  -0.26684
 Alpha virt. eigenvalues --    0.12455   0.13509   0.14505   0.15615   0.16088
 Alpha virt. eigenvalues --    0.16483   0.16887   0.19432   0.19654   0.20267
 Alpha virt. eigenvalues --    0.21354   0.22518   0.22864   0.23607   0.24341

 Mulliken charges:
               1
     1  C   -0.121528
     2  H   -0.021836
     3  Cl  -0.600504
     4  F   -0.790522
     5  C    0.719578
     6  C   -0.464510
     7  N   -0.352036
     8  C    0.627282
     9  H    0.101529
    10  H    0.106755
    11  H   -0.015398
    12  N    0.342338
    13  O   -0.610613
    14  O   -0.653368
    15  C    0.499572
    16  H    0.121930
    17  H    0.147897
    18  H   -0.036566
 Sum of Mulliken charges =  -1.00000

 Dipole moment (field-independent basis, Debye):
    X=              2.7542    Y=             -1.8096    Z=              0.9497  Tot=              3.4296

 Test job not archived.
 1\1\GINC-SE435\SP\RHF\Aug-CC-pVDZ\C5H7Cl1F1N2O2(1-)\OHZDE\09-Apr-2025\
 0\\#t hf aug-cc-pvdz iop(5/13=1,5/36=2,99/5=2) pseudo=read geom=check
 guess=(read,tcheck) scf=(maxcycle=1)\\title\\-1,1\C,0,0.43805986,-0.07
 050166,0.0841161\H,0,1.65822177,1.59362666,0.42420437\Cl,0,-1.77487731
 ,-0.10037074,0.43356469\F,0,2.28489322,-0.11097755,-0.54325754\C,0,0.6
 3182879,1.44936096,0.09306826\C,0,0.23630817,-0.72778881,-1.18838583\N
 ,0,0.04395378,-1.27794205,-2.21032188\C,0,0.77104384,-0.91537008,1.292
 88412\H,0,1.85305891,-0.9294462,1.40054699\H,0,0.2999958,-0.50639444,2

 Normal termination of Gaussian 16 at Wed Apr  9 02:47:47 2025.
