 Gaussian 16, Revision C.01,

 ----------------------------------------------------------------------
 #t hf aug-cc-pvdz symm=none int=(grid=ultrafine) guess=(read,tcheck) s
 table=(opt,rrhf)
 ----------------------------------------------------------------------
 -----
 title
 -----
 Symbolic Z-matrix:
 Charge = -1 Multiplicity = 1

 SCF Done:  E(RHF) =  -1099.75123722     A.U. after   16 cycles
 Normal termination of Gaussian 16 at Wed Apr  9 02:43:02 2025.
 Gaussian 16:  ES64L-G16RevC.01  3-Jul-2019

 ----------------------------------------------------------------------
 #t hf aug-cc-pvdz iop(5/13=1,5/36=2,99/5=2) pseudo=read geom=check gue
 ss=(read,tcheck) scf=(maxcycle=1)
 ----------------------------------------------------------------------
 -----
 title
 -----
 Structure from the checkpoint file:  "E2SN2_237_mol2.chk"
 Charge = -1 Multiplicity = 1

                         Standard orientation:
 ---------------------------------------------------------------------
 Center     Atomic      Atomic             Coordinates (Angstroms)
 Number     Number       Type             X           Y           Z
 ---------------------------------------------------------------------
      1          6           0       -0.198356   -0.517012    0.620142
      2          6           0        0.010868    0.900497    0.138465
      3          9           0       -1.253505   -0.560473    1.503981
      4          1           0        0.505840    1.473220    0.917514
      5          1           0        0.631361    0.921358   -0.756320
      6          7           0       -0.670113   -1.426953   -0.545201
      7          8           0       -1.289437   -2.438111   -0.225419
      8          8           0       -0.289536   -1.145000   -1.674510
      9          7           0        0.959285   -1.014533    1.201107
     10          1           0        1.819328   -0.644215    0.766016
     11          1           0        0.956066   -2.022229    1.275549
     12          7           0       -1.283681    1.573125   -0.153433
     13          8           0       -1.376141    2.758377    0.160909
     14          8           0       -2.159890    0.923000   -0.718522
     15         17           0        3.316204    0.488683   -0.243953
 ---------------------------------------------------------------------

 SCF Done:  E(RHF) =  -1099.96228640     A.U. after    2 cycles

 The electronic state is 1-A.
 Alpha  occ. eigenvalues -- -103.39643 -26.04560 -20.52953 -20.52911 -20.52533
 Alpha  occ. eigenvalues --  -20.52256 -15.82418 -15.81233 -15.52858 -11.34774
 Alpha  occ. eigenvalues --  -11.21935 -10.42762  -8.08369  -8.08328  -8.08314
 Alpha  occ. eigenvalues --   -1.58892  -1.45381  -1.44453  -1.27146  -1.26559
 Alpha  occ. eigenvalues --   -1.12602  -1.00681  -0.91124  -0.85223  -0.80157
 Alpha  occ. eigenvalues --   -0.75946  -0.71438  -0.69616  -0.69065  -0.65256
 Alpha  occ. eigenvalues --   -0.64389  -0.63435  -0.62209  -0.60947  -0.58651
 Alpha  occ. eigenvalues --   -0.54986  -0.51822  -0.48832  -0.43022  -0.42436
 Alpha  occ. eigenvalues --   -0.41881  -0.41100  -0.38446  -0.37377  -0.33045
 Alpha  occ. eigenvalues --   -0.23404  -0.22963  -0.22747
 Alpha virt. eigenvalues --    0.13054   0.14630   0.15943   0.17013   0.17492
 Alpha virt. eigenvalues --    0.18264   0.19561   0.20784   0.21608   0.23232
 Alpha virt. eigenvalues --    0.24530   0.24885   0.25558   0.26561   0.27171

 Mulliken charges:
               1
     1  C    1.116451
     2  C    1.116604
     3  F   -0.343191
     4  H   -0.101031
     5  H    0.022704
     6  N    0.354830
     7  O   -0.614218
     8  O   -0.584392
     9  N   -0.343087
    10  H    0.072806
    11  H    0.028047
    12  N    0.391307
    13  O   -0.605638
    14  O   -0.605282
    15  Cl  -0.905911
 Sum of Mulliken charges =  -1.00000

 Dipole moment (field-independent basis, Debye):
    X=             -6.0237    Y=             -1.5426    Z=              2.1683  Tot=              6.5853

 Test job not archived.
 1\1\GINC-SE127\SP\RHF\Aug-CC-pVDZ\C2H4Cl1F1N3O4(1-)\OHZDE\09-Apr-2025\
 0\\#t hf aug-cc-pvdz iop(5/13=1,5/36=2,99/5=2) pseudo=read geom=check
 guess=(read,tcheck) scf=(maxcycle=1)\\title\\-1,1\C,0,-0.049958,0.0472
 36,-0.034592\C,0,-0.732135,0.147809,-1.37982\F,0,1.27197,-0.299239,-0.
 204482\H,0,-0.935164,-0.851863,-1.753131\H,0,-1.674633,0.687693,-1.300
 385\N,0,0.029796,1.440655,0.644079\O,0,0.91653,1.584592,1.481485\O,0,-
 0.85966,2.244577,0.394576\N,0,-0.703594,-0.865435,0.780866\H,0,-1.7223
 36,-0.895688,0.615449\H,0,-0.464428,-0.757498,1.756649\N,0,0.133765,0.

 Normal termination of Gaussian 16 at Wed Apr  9 02:43:10 2025.
