 Gaussian 16, Revision C.01,

 ----------------------------------------------------------------------
 #t hf aug-cc-pvdz symm=none int=(grid=ultrafine) guess=(read,tcheck) s
 table=(opt,rrhf)
 ----------------------------------------------------------------------
 -----
 title
 -----
 Symbolic Z-matrix:
 Charge = -1 Multiplicity = 1

 SCF Done:  E(RHF) =  -611.812158155     A.U. after   16 cycles
 Normal termination of Gaussian 16 at Wed Apr  9 02:38:25 2025.
 Gaussian 16:  ES64L-G16RevC.01  3-Jul-2019

 ----------------------------------------------------------------------
 #t hf aug-cc-pvdz iop(5/13=1,5/36=2,99/5=2) pseudo=read geom=check gue
 ss=(read,tcheck) scf=(maxcycle=1)
 ----------------------------------------------------------------------
 -----
 title
 -----
 Structure from the checkpoint file:  "E2SN2_186_mol1.chk"
 Charge = -1 Multiplicity = 1

                         Standard orientation:
 ---------------------------------------------------------------------
 Center     Atomic      Atomic             Coordinates (Angstroms)
 Number     Number       Type             X           Y           Z
 ---------------------------------------------------------------------
      1          6           0       -1.106424    0.230591    0.375948
      2          1           0       -0.116879    0.427767   -1.501251
      3          9           0       -0.168357   -0.658803    1.661219
      4          9           0       -1.874165    1.364911   -0.737749
      5          6           0        0.162938    0.327460   -0.452192
      6          1           0       -1.265986    0.953906    1.152221
      7          6           0       -2.101997   -0.866354    0.115769
      8          1           0       -3.079019   -0.523546    0.461100
      9          1           0       -2.181838   -1.052549   -0.954835
     10          1           0       -1.814524   -1.775861    0.635153
     11          7           0        1.017219   -0.917446   -0.401136
     12          8           0        2.167252   -0.844761    0.010873
     13          8           0        0.497077   -1.919397   -0.880594
     14          6           0        0.953951    1.484724   -0.049848
     15          7           0        1.564995    2.441739    0.246290
 ---------------------------------------------------------------------

 SCF Done:  E(RHF) =  -611.996745335     A.U. after    2 cycles

 The electronic state is 1-A.
 Alpha  occ. eigenvalues --  -25.84752 -25.82274 -20.49774 -20.49240 -15.79515
 Alpha  occ. eigenvalues --  -15.53067 -11.22857 -11.22389 -11.18358 -11.10118
 Alpha  occ. eigenvalues --   -1.42301  -1.35178  -1.32627  -1.24041  -1.07314
 Alpha  occ. eigenvalues --   -1.00050  -0.88481  -0.78162  -0.70981  -0.65991
 Alpha  occ. eigenvalues --   -0.63096  -0.60762  -0.58723  -0.51316  -0.49208
 Alpha  occ. eigenvalues --   -0.47725  -0.45584  -0.44393  -0.43339  -0.42179
 Alpha  occ. eigenvalues --   -0.40458  -0.39797  -0.38944  -0.38269  -0.37831
 Alpha  occ. eigenvalues --   -0.35889  -0.35012  -0.34068  -0.33466
 Alpha virt. eigenvalues --    0.13339   0.13820   0.15156   0.16365   0.16522
 Alpha virt. eigenvalues --    0.18476   0.20509   0.21753   0.21953   0.23346
 Alpha virt. eigenvalues --    0.23812   0.24861   0.25213   0.26174   0.27392

 Mulliken charges:
               1
     1  C    0.603991
     2  H    0.026542
     3  F   -0.845014
     4  F   -0.779394
     5  C    1.135040
     6  H   -0.513506
     7  C    0.415332
     8  H    0.018027
     9  H    0.053365
    10  H    0.114673
    11  N    0.513995
    12  O   -0.635078
    13  O   -0.639988
    14  C   -0.220365
    15  N   -0.247620
 Sum of Mulliken charges =  -1.00000

 Dipole moment (field-independent basis, Debye):
    X=             -1.0472    Y=             -1.5257    Z=             -2.5151  Tot=              3.1225

 Test job not archived.
 1\1\GINC-SE195\SP\RHF\Aug-CC-pVDZ\C4H5F2N2O2(1-)\OHZDE\09-Apr-2025\0\\
 #t hf aug-cc-pvdz iop(5/13=1,5/36=2,99/5=2) pseudo=read geom=check gue
 ss=(read,tcheck) scf=(maxcycle=1)\\title\\-1,1\C,0,0.57930548,-0.05095
 404,0.05877823\H,0,1.63031794,1.73185136,0.56763079\F,0,-1.23722579,0.
 05891435,0.16392804\F,0,2.29365129,-0.06950812,-0.36205765\C,0,0.65468
 568,1.4623559,0.16217272\H,0,0.38457784,-0.48798422,-0.9016016\C,0,0.7
 5953326,-0.90646959,1.28260793\H,0,1.1094515,-1.88833572,0.95882098\H,
 0,1.52999596,-0.4817835,1.92546563\H,0,-0.17575618,-0.99839071,1.82702

 Normal termination of Gaussian 16 at Wed Apr  9 02:38:33 2025.
