 Gaussian 16, Revision C.01,

 ----------------------------------------------------------------------
 #t hf aug-cc-pvdz symm=none int=(grid=ultrafine) guess=(read,tcheck) s
 table=(opt,rrhf)
 ----------------------------------------------------------------------
 -----
 title
 -----
 Symbolic Z-matrix:
 Charge = -1 Multiplicity = 1

 SCF Done:  E(RHF) =  -426.702983522     A.U. after   13 cycles
 Normal termination of Gaussian 16 at Wed Apr  9 02:55:46 2025.
 Gaussian 16:  ES64L-G16RevC.01  3-Jul-2019

 ----------------------------------------------------------------------
 #t hf aug-cc-pvdz iop(5/13=1,5/36=2,99/5=2) pseudo=read geom=check gue
 ss=(read,tcheck) scf=(maxcycle=1)
 ----------------------------------------------------------------------
 -----
 title
 -----
 Structure from the checkpoint file:  "E2SN2_399_mol2.chk"
 Charge = -1 Multiplicity = 1

                         Standard orientation:
 ---------------------------------------------------------------------
 Center     Atomic      Atomic             Coordinates (Angstroms)
 Number     Number       Type             X           Y           Z
 ---------------------------------------------------------------------
      1          6           0       -0.725654   -0.160868   -0.025854
      2          6           0       -0.344265    1.305377   -0.264329
      3          9           0       -2.146772   -0.186045   -0.166643
      4          1           0       -0.582539    1.524737   -1.315761
      5          1           0       -1.003056    1.939089    0.343773
      6          7           0       -0.170068   -1.080710   -0.968391
      7          1           0       -0.233064   -0.666508   -1.893898
      8          1           0        0.845592   -1.151875   -0.725438
      9          6           0       -0.374533   -0.628917    1.369148
     10          1           0       -0.853502   -1.595508    1.538471
     11          1           0        0.710426   -0.749623    1.400560
     12          1           0       -0.720745    0.083709    2.124152
     13          7           0        1.053671    1.632630    0.006580
     14          1           0        1.140856    1.781846    1.005550
     15          1           0        1.634656    0.791770   -0.169020
     16          9           0        2.318203   -0.804470   -0.061080
 ---------------------------------------------------------------------

 SCF Done:  E(RHF) =  -426.836913792     A.U. after    2 cycles

 The electronic state is 1-A.
 Alpha  occ. eigenvalues --  -25.94334 -25.75466 -15.43786 -15.43390 -11.19000
 Alpha  occ. eigenvalues --  -11.11374 -11.07493  -1.47266  -1.24551  -1.02571
 Alpha  occ. eigenvalues --   -0.96825  -0.84080  -0.76901  -0.66256  -0.57083
 Alpha  occ. eigenvalues --   -0.56512  -0.54760  -0.50477  -0.47715  -0.45353
 Alpha  occ. eigenvalues --   -0.41619  -0.40524  -0.38821  -0.37605  -0.35154
 Alpha  occ. eigenvalues --   -0.33880  -0.32809  -0.32460  -0.25344  -0.21756
 Alpha virt. eigenvalues --    0.13231   0.13950   0.14612   0.15729   0.16573
 Alpha virt. eigenvalues --    0.16886   0.19169   0.19817   0.20442   0.21242
 Alpha virt. eigenvalues --    0.24564   0.25346   0.26178   0.26448   0.26941

 Mulliken charges:
               1
     1  C   -0.223936
     2  C    0.915191
     3  F   -0.497859
     4  H   -0.123046
     5  H   -0.080400
     6  N   -0.488843
     7  H   -0.008210
     8  H    0.173894
     9  C    0.701446
    10  H   -0.056414
    11  H   -0.025357
    12  H   -0.015432
    13  N   -0.493449
    14  H    0.033644
    15  H    0.155482
    16  F   -0.966713
 Sum of Mulliken charges =  -1.00000

 Dipole moment (field-independent basis, Debye):
    X=             -4.7543    Y=              2.4541    Z=              1.3219  Tot=              5.5112

 Test job not archived.
 1\1\GINC-SE021\SP\RHF\Aug-CC-pVDZ\C3H9F2N2(1-)\OHZDE\09-Apr-2025\0\\#t
  hf aug-cc-pvdz iop(5/13=1,5/36=2,99/5=2) pseudo=read geom=check guess
 =(read,tcheck) scf=(maxcycle=1)\\title\\-1,1\C,0,-0.001663,-0.007077,-
 0.040882\C,0,-0.179848,0.233072,-1.545136\F,0,1.407839,0.087541,0.1697
 94\H,0,0.119877,1.274573,-1.734461\H,0,0.5356,-0.40073,-2.085333\N,0,-
 0.641165,0.959684,0.795522\H,0,-0.493812,1.879627,0.390445\H,0,-1.6649
 14,0.750453,0.733759\C,0,-0.457149,-1.386482,0.381209\H,0,-0.114622,-1
 .564311,1.402694\H,0,-1.549015,-1.381674,0.358868\H,0,-0.045979,-2.157

 Normal termination of Gaussian 16 at Wed Apr  9 02:55:52 2025.
