 Gaussian 16, Revision C.01,

 ----------------------------------------------------------------------
 #t hf aug-cc-pvdz symm=none int=(grid=ultrafine) guess=(read,tcheck) s
 table=(opt,rrhf)
 ----------------------------------------------------------------------
 -----
 title
 -----
 Symbolic Z-matrix:
 Charge = -1 Multiplicity = 1

 SCF Done:  E(RHF) =  -1295.32306122     A.U. after   15 cycles
 Normal termination of Gaussian 16 at Wed Apr  9 02:59:47 2025.
 Gaussian 16:  ES64L-G16RevC.01  3-Jul-2019

 ----------------------------------------------------------------------
 #t hf aug-cc-pvdz iop(5/13=1,5/36=2,99/5=2) pseudo=read geom=check gue
 ss=(read,tcheck) scf=(maxcycle=1)
 ----------------------------------------------------------------------
 -----
 title
 -----
 Structure from the checkpoint file:  "E2SN2_7_mol2.chk"
 Charge = -1 Multiplicity = 1

                         Standard orientation:
 ---------------------------------------------------------------------
 Center     Atomic      Atomic             Coordinates (Angstroms)
 Number     Number       Type             X           Y           Z
 ---------------------------------------------------------------------
      1          6           0       -0.183311    0.302628   -0.161742
      2          6           0       -0.013984   -0.591767    1.077226
      3         17           0       -0.669331    1.953485    0.263503
      4          1           0        0.878917   -0.180332    1.557409
      5          1           0        0.764923    0.352944   -0.701837
      6          7           0       -1.220089   -0.286048   -1.068338
      7          8           0       -0.814958   -0.811930   -2.103261
      8          8           0       -2.393069   -0.288510   -0.689918
      9          6           0        0.311841   -2.006608    0.622422
     10          1           0       -0.548093   -2.477971    0.133762
     11          1           0        0.569379   -2.599881    1.500991
     12          1           0        1.162610   -1.989036   -0.059718
     13          7           0       -1.111248   -0.601740    2.032600
     14          1           0       -1.253528    0.336801    2.387084
     15          1           0       -1.965748   -0.862498    1.552109
     16         17           0        3.121557    0.176662   -0.263599
 ---------------------------------------------------------------------

 SCF Done:  E(RHF) =  -1295.46741235     A.U. after    2 cycles

 The electronic state is 1-A.
 Alpha  occ. eigenvalues -- -103.56460-103.37237 -20.52467 -20.51901 -15.81221
 Alpha  occ. eigenvalues --  -15.50633 -11.24322 -11.17372 -11.11394 -10.59793
 Alpha  occ. eigenvalues --  -10.40299  -8.25524  -8.25229  -8.25210  -8.05897
 Alpha  occ. eigenvalues --   -8.05870  -8.05866  -1.44354  -1.26097  -1.10658
 Alpha  occ. eigenvalues --   -1.04796  -0.94638  -0.87318  -0.82447  -0.76482
 Alpha  occ. eigenvalues --   -0.70926  -0.64730  -0.63258  -0.61989  -0.56213
 Alpha  occ. eigenvalues --   -0.52693  -0.51372  -0.47405  -0.43369  -0.42042
 Alpha  occ. eigenvalues --   -0.41551  -0.40238  -0.38264  -0.37755  -0.36437
 Alpha  occ. eigenvalues --   -0.35569  -0.29619  -0.20642  -0.20343  -0.20296
 Alpha virt. eigenvalues --    0.12153   0.13230   0.14196   0.15502   0.16636
 Alpha virt. eigenvalues --    0.16984   0.17666   0.18648   0.19455   0.22074
 Alpha virt. eigenvalues --    0.22857   0.23820   0.25467   0.25560   0.25993

 Mulliken charges:
               1
     1  C    1.041094
     2  C   -0.270254
     3  Cl  -0.198568
     4  H   -0.095775
     5  H   -0.164136
     6  N    0.470898
     7  O   -0.588937
     8  O   -0.687929
     9  C    0.719676
    10  H   -0.032437
    11  H   -0.055939
    12  H    0.054828
    13  N   -0.316858
    14  H   -0.001405
    15  H    0.080440
    16  Cl  -0.954697
 Sum of Mulliken charges =  -1.00000

 Dipole moment (field-independent basis, Debye):
    X=             -9.1701    Y=             -0.0602    Z=              2.3046  Tot=              9.4555

 Test job not archived.
 1\1\GINC-SE461\SP\RHF\Aug-CC-pVDZ\C3H7Cl2N2O2(1-)\OHZDE\09-Apr-2025\0\
 \#t hf aug-cc-pvdz iop(5/13=1,5/36=2,99/5=2) pseudo=read geom=check gu
 ess=(read,tcheck) scf=(maxcycle=1)\\title\\-1,1\C,0,-0.172087,0.060078
 ,-1.359917\C,0,-0.023516,0.209141,0.163028\Cl,0,0.159837,1.575189,-2.2
 18196\H,0,1.054558,0.343246,0.293025\H,0,0.52926,-0.6972,-1.717723\N,0
 ,-1.564499,-0.38387,-1.68773\O,0,-1.701935,-1.551339,-2.048114\O,0,-2.
 489926,0.407278,-1.496\C,0,-0.412934,-1.103405,0.826623\H,0,-1.487651,
 -1.295367,0.733926\H,0,-0.17096,-1.037419,1.888356\H,0,0.150383,-1.924

 Normal termination of Gaussian 16 at Wed Apr  9 02:59:55 2025.
