 Gaussian 16, Revision C.01,

 ----------------------------------------------------------------------
 #t hf aug-cc-pvdz symm=none int=(grid=ultrafine) guess=(read,tcheck) s
 table=(opt,rrhf)
 ----------------------------------------------------------------------
 -----
 title
 -----
 Symbolic Z-matrix:
 Charge = -1 Multiplicity = 1

 SCF Done:  E(RHF) =  -518.377455624     A.U. after   15 cycles
 Normal termination of Gaussian 16 at Wed Apr  9 02:50:04 2025.
 Gaussian 16:  ES64L-G16RevC.01  3-Jul-2019

 ----------------------------------------------------------------------
 #t hf aug-cc-pvdz iop(5/13=1,5/36=2,99/5=2) pseudo=read geom=check gue
 ss=(read,tcheck) scf=(maxcycle=1)
 ----------------------------------------------------------------------
 -----
 title
 -----
 Structure from the checkpoint file:  "E2SN2_318_mol1.chk"
 Charge = -1 Multiplicity = 1

                         Standard orientation:
 ---------------------------------------------------------------------
 Center     Atomic      Atomic             Coordinates (Angstroms)
 Number     Number       Type             X           Y           Z
 ---------------------------------------------------------------------
      1          6           0        0.268572    0.287855    0.139803
      2          1           0       -0.886831    0.338966   -1.628026
      3          9           0       -0.149865   -0.770660    1.518534
      4          9           0        0.886334    1.358588   -1.242678
      5          6           0       -1.000287   -0.087561   -0.633344
      6          6           0        1.480951   -0.501644   -0.078447
      7          7           0        2.489901   -1.096288   -0.177060
      8          7           0        0.296970    1.437794    1.002465
      9          1           0        0.970849    2.070211    0.595780
     10          1           0        0.582246    1.115436    1.916118
     11          6           0       -2.226672    0.521016    0.039680
     12          1           0       -2.306261    0.138560    1.057538
     13          1           0       -2.150052    1.608414    0.081632
     14          1           0       -3.125322    0.247099   -0.526900
     15          7           0       -1.053531   -1.543744   -0.781997
     16          1           0       -1.920430   -1.789648   -1.246797
     17          1           0       -1.061180   -1.922715    0.157936
 ---------------------------------------------------------------------

 SCF Done:  E(RHF) =  -518.532579869     A.U. after    2 cycles

 The electronic state is 1-A.
 Alpha  occ. eigenvalues --  -25.84783 -25.81664 -15.47955 -15.47457 -15.46374
 Alpha  occ. eigenvalues --  -11.26388 -11.14406 -11.13073 -11.08870  -1.35472
 Alpha  occ. eigenvalues --   -1.32059  -1.04934  -1.01414  -1.00675  -0.85534
 Alpha  occ. eigenvalues --   -0.80417  -0.67894  -0.58220  -0.56016  -0.54635
 Alpha  occ. eigenvalues --   -0.48284  -0.46980  -0.44697  -0.43573  -0.42693
 Alpha  occ. eigenvalues --   -0.41748  -0.41304  -0.40317  -0.39441  -0.38513
 Alpha  occ. eigenvalues --   -0.36463  -0.34836  -0.30280  -0.29154  -0.27414
 Alpha  occ. eigenvalues --   -0.24810
 Alpha virt. eigenvalues --    0.12153   0.13363   0.14249   0.14841   0.16092
 Alpha virt. eigenvalues --    0.16814   0.17934   0.18185   0.19965   0.22260
 Alpha virt. eigenvalues --    0.23706   0.24601   0.25313   0.26089   0.27148

 Mulliken charges:
               1
     1  C    1.523818
     2  H   -0.083897
     3  F   -0.777592
     4  F   -0.802205
     5  C    0.104156
     6  C   -0.777097
     7  N   -0.223553
     8  N   -0.586877
     9  H    0.119989
    10  H    0.099263
    11  C    0.752394
    12  H    0.052524
    13  H   -0.038820
    14  H   -0.100861
    15  N   -0.317793
    16  H   -0.048242
    17  H    0.104792
 Sum of Mulliken charges =  -1.00000

 Dipole moment (field-independent basis, Debye):
    X=             -5.0009    Y=              0.9162    Z=              1.1263  Tot=              5.2074

 Test job not archived.
 1\1\GINC-SE090\SP\RHF\Aug-CC-pVDZ\C4H8F2N3(1-)\OHZDE\09-Apr-2025\0\\#t
  hf aug-cc-pvdz iop(5/13=1,5/36=2,99/5=2) pseudo=read geom=check guess
 =(read,tcheck) scf=(maxcycle=1)\\title\\-1,1\C,0,0.65289646,-0.0085158
 ,0.0155158\H,0,1.69133034,1.8266367,-0.1135542\F,0,-1.12799526,-0.1038
 0866,-0.11012834\F,0,2.50549325,-0.08104665,0.05999705\C,0,0.65054886,
 1.52366611,-0.01778515\C,0,0.76560315,-0.73626634,-1.24879519\N,0,0.82
 935244,-1.3973321,-2.21845152\N,0,0.62533676,-0.72201294,1.26351958\H,
 0,1.49812232,-1.22745343,1.31077071\H,0,-0.17118466,-1.34220855,1.2323

 Normal termination of Gaussian 16 at Wed Apr  9 02:50:12 2025.
