 Gaussian 16, Revision C.01,

 ----------------------------------------------------------------------
 #t hf aug-cc-pvdz symm=none int=(grid=ultrafine) guess=(read,tcheck) s
 table=(opt,rrhf)
 ----------------------------------------------------------------------
 -----
 title
 -----
 Symbolic Z-matrix:
 Charge = -1 Multiplicity = 1

 SCF Done:  E(RHF) =  -571.151942208     A.U. after   15 cycles
 Normal termination of Gaussian 16 at Wed Apr  9 02:49:31 2025.
 Gaussian 16:  ES64L-G16RevC.01  3-Jul-2019

 ----------------------------------------------------------------------
 #t hf aug-cc-pvdz iop(5/13=1,5/36=2,99/5=2) pseudo=read geom=check gue
 ss=(read,tcheck) scf=(maxcycle=1)
 ----------------------------------------------------------------------
 -----
 title
 -----
 Structure from the checkpoint file:  "E2SN2_312_mol2.chk"
 Charge = -1 Multiplicity = 1

                         Standard orientation:
 ---------------------------------------------------------------------
 Center     Atomic      Atomic             Coordinates (Angstroms)
 Number     Number       Type             X           Y           Z
 ---------------------------------------------------------------------
      1          6           0        0.004264    0.652508   -0.434071
      2          6           0       -0.013281   -0.856418   -0.075439
      3          9           0       -0.844146    0.802477   -1.575473
      4          1           0        0.572399   -1.330864   -0.869981
      5          6           0       -0.683479    1.428786    0.629783
      6          7           0       -1.176228    2.045114    1.500843
      7          7           0        1.296345    1.084493   -0.682181
      8          1           0        2.056998    0.360446   -0.468000
      9          1           0        1.498414    2.012609   -0.347901
     10          6           0       -1.395035   -1.364499   -0.134431
     11          7           0       -2.489749   -1.788722   -0.144330
     12          7           0        0.614854   -1.207765    1.176885
     13          1           0        0.299560   -0.583813    1.911312
     14          1           0        1.629902   -1.088378    0.996356
     15          9           0        2.927631   -0.742932    0.009322
 ---------------------------------------------------------------------

 SCF Done:  E(RHF) =  -571.323209433     A.U. after    2 cycles

 The electronic state is 1-A.
 Alpha  occ. eigenvalues --  -25.99857 -25.80123 -15.55340 -15.52950 -15.48500
 Alpha  occ. eigenvalues --  -15.48388 -11.29366 -11.20550 -11.19777 -11.17998
 Alpha  occ. eigenvalues --   -1.52901  -1.29766  -1.11394  -1.07884  -1.06166
 Alpha  occ. eigenvalues --   -1.02712  -0.88078  -0.80139  -0.68485  -0.64214
 Alpha  occ. eigenvalues --   -0.62637  -0.59992  -0.55891  -0.52540  -0.50512
 Alpha  occ. eigenvalues --   -0.48518  -0.46963  -0.44856  -0.43227  -0.39589
 Alpha  occ. eigenvalues --   -0.38835  -0.37826  -0.37165  -0.36206  -0.34290
 Alpha  occ. eigenvalues --   -0.33956  -0.28729  -0.28112
 Alpha virt. eigenvalues --    0.13593   0.14504   0.14812   0.16801   0.18424
 Alpha virt. eigenvalues --    0.19004   0.19260   0.19737   0.21734   0.23246
 Alpha virt. eigenvalues --    0.23525   0.24068   0.25020   0.25278   0.25957

 Mulliken charges:
               1
     1  C    1.334761
     2  C    0.916089
     3  F   -0.464094
     4  H   -0.051236
     5  C   -0.501950
     6  N   -0.207473
     7  N   -0.632275
     8  H    0.191530
     9  H    0.014664
    10  C   -0.160604
    11  N   -0.279245
    12  N   -0.440399
    13  H    0.000976
    14  H    0.170673
    15  F   -0.891415
 Sum of Mulliken charges =  -1.00000

 Dipole moment (field-independent basis, Debye):
    X=             -1.7470    Y=              2.7006    Z=             -0.0139  Tot=              3.2164

 Test job not archived.
 1\1\GINC-SE398\SP\RHF\Aug-CC-pVDZ\C4H5F2N4(1-)\OHZDE\09-Apr-2025\0\\#t
  hf aug-cc-pvdz iop(5/13=1,5/36=2,99/5=2) pseudo=read geom=check guess
 =(read,tcheck) scf=(maxcycle=1)\\title\\-1,1\C,0,0.062337,-0.035393,0.
 018373\C,0,-0.444709,0.071438,-1.443569\F,0,1.295944,-0.756623,-0.0375
 77\H,0,-0.774447,-0.943164,-1.691102\C,0,0.454224,1.309747,0.512747\N,
 0,0.7079,2.382794,0.919717\N,0,-0.875541,-0.664296,0.819939\H,0,-1.816
 219,-0.85186,0.34176\H,0,-0.949024,-0.288492,1.751253\C,0,0.6728,0.438
 559,-2.330849\N,0,1.538318,0.760014,-3.056113\N,0,-1.577558,0.943599,-

 Normal termination of Gaussian 16 at Wed Apr  9 02:49:38 2025.
