 Gaussian 16, Revision C.01,

 ----------------------------------------------------------------------
 #t hf aug-cc-pvdz symm=none int=(grid=ultrafine) guess=(read,tcheck) s
 table=(opt,rrhf)
 ----------------------------------------------------------------------
 -----
 title
 -----
 Symbolic Z-matrix:
 Charge = -1 Multiplicity = 1

 SCF Done:  E(RHF) =  -784.427773345     A.U. after   15 cycles
 Normal termination of Gaussian 16 at Wed Apr  9 02:35:30 2025.
 Gaussian 16:  ES64L-G16RevC.01  3-Jul-2019

 ----------------------------------------------------------------------
 #t hf aug-cc-pvdz iop(5/13=1,5/36=2,99/5=2) pseudo=read geom=check gue
 ss=(read,tcheck) scf=(maxcycle=1)
 ----------------------------------------------------------------------
 -----
 title
 -----
 Structure from the checkpoint file:  "E2SN2_16_mol2.chk"
 Charge = -1 Multiplicity = 1

                         Standard orientation:
 ---------------------------------------------------------------------
 Center     Atomic      Atomic             Coordinates (Angstroms)
 Number     Number       Type             X           Y           Z
 ---------------------------------------------------------------------
      1          6           0        0.127269   -0.551166   -0.310945
      2          6           0        0.206142    0.752196    0.468479
      3         17           0       -1.492880   -1.384147    0.043116
      4          1           0        1.229984    1.096902    0.287794
      5          1           0        0.036839   -0.336078   -1.382269
      6          1           0        0.105237    0.524244    1.532599
      7          7           0        1.213465   -1.370332    0.076234
      8          1           0        1.345846   -2.100068   -0.614169
      9          1           0        2.051719   -0.710227    0.063351
     10          6           0       -0.794070    1.730321    0.071331
     11          7           0       -1.580844    2.539221   -0.254819
     12          9           0        2.882772    0.587267   -0.082598
 ---------------------------------------------------------------------

 SCF Done:  E(RHF) =  -784.542100386     A.U. after    2 cycles

 The electronic state is 1-A.
 Alpha  occ. eigenvalues -- -103.51194 -25.77103 -15.51409 -15.45970 -11.21334
 Alpha  occ. eigenvalues --  -11.17035 -11.13326 -10.54570  -8.20267  -8.20018
 Alpha  occ. eigenvalues --   -8.20008  -1.26311  -1.07322  -1.05080  -0.97363
 Alpha  occ. eigenvalues --   -0.89561  -0.70142  -0.59647  -0.53762  -0.50059
 Alpha  occ. eigenvalues --   -0.47826  -0.44001  -0.41888  -0.40447  -0.36402
 Alpha  occ. eigenvalues --   -0.36235  -0.34591  -0.33461  -0.32041  -0.31722
 Alpha  occ. eigenvalues --   -0.30108  -0.25409
 Alpha virt. eigenvalues --    0.13809   0.14482   0.15640   0.17313   0.18557
 Alpha virt. eigenvalues --    0.19554   0.19805   0.23295   0.24324   0.25386
 Alpha virt. eigenvalues --    0.25923   0.26974   0.27224   0.28154   0.28349

 Mulliken charges:
               1
     1  C    0.269519
     2  C    0.835320
     3  Cl  -0.269838
     4  H   -0.036570
     5  H   -0.102790
     6  H    0.016976
     7  N   -0.454372
     8  H   -0.023581
     9  H    0.215239
    10  C   -0.246036
    11  N   -0.286073
    12  F   -0.917794
 Sum of Mulliken charges =  -1.00000

 Dipole moment (field-independent basis, Debye):
    X=             -4.0960    Y=             -3.1185    Z=             -0.2602  Tot=              5.1546

 Test job not archived.
 1\1\GINC-SE335\SP\RHF\Aug-CC-pVDZ\C3H5Cl1F1N2(1-)\OHZDE\09-Apr-2025\0\
 \#t hf aug-cc-pvdz iop(5/13=1,5/36=2,99/5=2) pseudo=read geom=check gu
 ess=(read,tcheck) scf=(maxcycle=1)\\title\\-1,1\C,0,-0.067128,-0.06100
 4,-1.488679\C,0,0.026706,0.04951,0.025077\Cl,0,-1.801229,-0.517079,-1.
 967209\H,0,1.096734,0.199234,0.204926\H,0,0.032967,0.933825,-1.938649\
 H,0,-0.261566,-0.911068,0.459456\N,0,0.853395,-1.043048,-1.923406\H,0,
 1.013686,-0.935401,-2.918099\H,0,1.748318,-0.811602,-1.390375\C,0,-0.7
 91065,1.114494,0.583592\N,0,-1.428034,1.985827,1.047009\F,0,2.723972,-

 Normal termination of Gaussian 16 at Wed Apr  9 02:35:35 2025.
