 Gaussian 16, Revision C.01,

 ----------------------------------------------------------------------
 #t hf aug-cc-pvdz symm=none int=(grid=ultrafine) guess=(read,tcheck) s
 table=(opt,rrhf)
 ----------------------------------------------------------------------
 -----
 title
 -----
 Symbolic Z-matrix:
 Charge = -1 Multiplicity = 1

 SCF Done:  E(RHF) =  -825.850080981     A.U. after   13 cycles
 Normal termination of Gaussian 16 at Wed Apr  9 02:52:29 2025.
 Gaussian 16:  ES64L-G16RevC.01  3-Jul-2019

 ----------------------------------------------------------------------
 #t hf aug-cc-pvdz iop(5/13=1,5/36=2,99/5=2) pseudo=read geom=check gue
 ss=(read,tcheck) scf=(maxcycle=1)
 ----------------------------------------------------------------------
 -----
 title
 -----
 Structure from the checkpoint file:  "E2SN2_354_mol2.chk"
 Charge = -1 Multiplicity = 1

                         Standard orientation:
 ---------------------------------------------------------------------
 Center     Atomic      Atomic             Coordinates (Angstroms)
 Number     Number       Type             X           Y           Z
 ---------------------------------------------------------------------
      1          6           0       -0.919495   -0.631988   -0.006212
      2          6           0       -0.975826    0.831117   -0.482085
      3          9           0       -2.243710   -1.142121   -0.193136
      4          1           0       -1.081357    0.790588   -1.580324
      5          6           0       -0.006361   -1.467541   -0.871310
      6          1           0       -0.040735   -2.510256   -0.543599
      7          1           0       -0.333434   -1.420489   -1.914267
      8          1           0        1.024719   -1.113663   -0.790854
      9          6           0       -0.587200   -0.753898    1.463214
     10          1           0       -1.203077   -0.067437    2.046750
     11          1           0        0.471981   -0.536842    1.617007
     12          1           0       -0.781019   -1.778934    1.790248
     13          7           0        0.183928    1.643418   -0.187329
     14          1           0        0.246736    1.741049    0.820228
     15          1           0        1.058344    1.203508   -0.472608
     16          7           0       -2.111801    1.490516    0.159777
     17          1           0       -2.131070    2.442049   -0.188697
     18          1           0       -2.964371    1.021190   -0.117155
     19         17           0        3.197357    0.041450    0.037807
 ---------------------------------------------------------------------

 SCF Done:  E(RHF) =  -825.978013620     A.U. after    2 cycles

 The electronic state is 1-A.
 Alpha  occ. eigenvalues -- -103.36630 -25.97718 -15.49492 -15.46819 -11.19615
 Alpha  occ. eigenvalues --  -11.17394 -11.10290 -11.09651 -10.39679  -8.05273
 Alpha  occ. eigenvalues --   -8.05251  -8.05247  -1.50523  -1.08191  -0.97041
 Alpha  occ. eigenvalues --   -0.93779  -0.82259  -0.81729  -0.76372  -0.67674
 Alpha  occ. eigenvalues --   -0.61689  -0.59725  -0.56022  -0.55884  -0.52252
 Alpha  occ. eigenvalues --   -0.47881  -0.45278  -0.43525  -0.42933  -0.41596
 Alpha  occ. eigenvalues --   -0.40801  -0.37778  -0.36664  -0.28678  -0.26010
 Alpha  occ. eigenvalues --   -0.19783  -0.19661  -0.19642
 Alpha virt. eigenvalues --    0.11562   0.12612   0.12847   0.14256   0.14987
 Alpha virt. eigenvalues --    0.15186   0.17136   0.18053   0.18259   0.18963
 Alpha virt. eigenvalues --    0.20273   0.21921   0.23972   0.24380   0.24694

 Mulliken charges:
               1
     1  C   -1.209118
     2  C    1.104811
     3  F   -0.546765
     4  H   -0.174724
     5  C    0.844155
     6  H    0.008573
     7  H    0.047398
     8  H   -0.119926
     9  C    0.621368
    10  H    0.014331
    11  H    0.127836
    12  H   -0.051465
    13  N   -0.460007
    14  H    0.009782
    15  H    0.076129
    16  N   -0.298979
    17  H   -0.056004
    18  H    0.022061
    19  Cl  -0.959455
 Sum of Mulliken charges =  -1.00000

 Dipole moment (field-independent basis, Debye):
    X=            -10.2978    Y=             -0.4659    Z=             -0.3955  Tot=             10.3159

 Test job not archived.
 1\1\GINC-SE455\SP\RHF\Aug-CC-pVDZ\C4H11Cl1F1N2(1-)\OHZDE\09-Apr-2025\0
 \\#t hf aug-cc-pvdz iop(5/13=1,5/36=2,99/5=2) pseudo=read geom=check g
 uess=(read,tcheck) scf=(maxcycle=1)\\title\\-1,1\C,0,-0.043326,-0.0114
 54,-0.027229\C,0,-0.345196,0.294721,-1.505551\F,0,1.383149,-0.091654,0
 .05913\H,0,-0.020086,1.336334,-1.673643\C,0,-0.469996,1.119842,0.87747
 \H,0,-0.183185,0.895241,1.908549\H,0,0.024007,2.047641,0.573993\H,0,-1
 .554749,1.24943,0.840766\C,0,-0.602559,-1.34338,0.417437\H,0,-0.352368
 ,-2.118299,-0.309167\H,0,-1.68599,-1.26497,0.529954\H,0,-0.172432,-1.6

 Normal termination of Gaussian 16 at Wed Apr  9 02:52:37 2025.
