 Gaussian 16, Revision C.01,

 ----------------------------------------------------------------------
 #t hf aug-cc-pvdz symm=none int=(grid=ultrafine) guess=(read,tcheck) s
 table=(opt,rrhf)
 ----------------------------------------------------------------------
 -----
 title
 -----
 Symbolic Z-matrix:
 Charge = -1 Multiplicity = 1

 SCF Done:  E(RHF) =  -784.427475608     A.U. after   15 cycles
 Normal termination of Gaussian 16 at Wed Apr  9 02:37:31 2025.
 Gaussian 16:  ES64L-G16RevC.01  3-Jul-2019

 ----------------------------------------------------------------------
 #t hf aug-cc-pvdz iop(5/13=1,5/36=2,99/5=2) pseudo=read geom=check gue
 ss=(read,tcheck) scf=(maxcycle=1)
 ----------------------------------------------------------------------
 -----
 title
 -----
 Structure from the checkpoint file:  "E2SN2_193_mol2.chk"
 Charge = -1 Multiplicity = 1

                         Standard orientation:
 ---------------------------------------------------------------------
 Center     Atomic      Atomic             Coordinates (Angstroms)
 Number     Number       Type             X           Y           Z
 ---------------------------------------------------------------------
      1          6           0        0.110265   -0.556457   -0.309192
      2          6           0        0.224601    0.743141    0.470067
      3         17           0       -1.527739   -1.351487    0.042296
      4          1           0        1.283658    1.055077    0.287020
      5          1           0        0.026919   -0.337622   -1.380313
      6          1           0        0.114576    0.521918    1.534704
      7          7           0        1.176044   -1.405415    0.075993
      8          1           0        2.028563   -0.770734    0.061625
      9          1           0        1.286979   -2.139976   -0.612885
     10          6           0       -0.740222    1.752401    0.068019
     11          7           0       -1.507589    2.582286   -0.252328
     12          9           0        2.887091    0.530444   -0.083134
 ---------------------------------------------------------------------

 SCF Done:  E(RHF) =  -784.541639370     A.U. after    2 cycles

 The electronic state is 1-A.
 Alpha  occ. eigenvalues -- -103.51210 -25.77238 -15.51283 -15.46107 -11.21314
 Alpha  occ. eigenvalues --  -11.16938 -11.13234 -10.54587  -8.20284  -8.20034
 Alpha  occ. eigenvalues --   -8.20025  -1.26446  -1.07303  -1.05000  -0.97410
 Alpha  occ. eigenvalues --   -0.89359  -0.70127  -0.59574  -0.53704  -0.49757
 Alpha  occ. eigenvalues --   -0.47811  -0.43960  -0.41810  -0.40474  -0.36435
 Alpha  occ. eigenvalues --   -0.36355  -0.34759  -0.33417  -0.32031  -0.31625
 Alpha  occ. eigenvalues --   -0.29776  -0.25531
 Alpha virt. eigenvalues --    0.13779   0.14491   0.15640   0.17354   0.18577
 Alpha virt. eigenvalues --    0.19520   0.19826   0.23343   0.24342   0.25405
 Alpha virt. eigenvalues --    0.25922   0.26962   0.27224   0.28155   0.28366

 Mulliken charges:
               1
     1  C    0.276771
     2  C    0.762161
     3  Cl  -0.270343
     4  H    0.031180
     5  H   -0.100726
     6  H    0.009640
     7  N   -0.447197
     8  H    0.206619
     9  H   -0.023648
    10  C   -0.238968
    11  N   -0.287805
    12  F   -0.917684
 Sum of Mulliken charges =  -1.00000

 Dipole moment (field-independent basis, Debye):
    X=             -4.0954    Y=             -3.1188    Z=             -0.2682  Tot=              5.1547

 Test job not archived.
 1\1\GINC-SE453\SP\RHF\Aug-CC-pVDZ\C3H5Cl1F1N2(1-)\OHZDE\09-Apr-2025\0\
 \#t hf aug-cc-pvdz iop(5/13=1,5/36=2,99/5=2) pseudo=read geom=check gu
 ess=(read,tcheck) scf=(maxcycle=1)\\title\\-1,1\C,0,0.04333,0.028111,-
 0.000708\C,0,-0.544424,0.20822,-1.390448\Cl,0,1.880367,-0.192135,-0.12
 5042\H,0,-1.647441,0.196086,-1.201723\H,0,-0.031433,0.969849,0.555777\
 H,0,-0.292754,-0.669129,-1.991629\N,0,-0.561001,-1.103611,0.598435\H,0
 ,-1.59721,-0.978629,0.397274\H,0,-0.403188,-1.079263,1.598906\C,0,-0.0
 98297,1.417316,-2.06141\N,0,0.245444,2.395822,-2.613271\F,0,-2.91743,-

 Normal termination of Gaussian 16 at Wed Apr  9 02:37:35 2025.
