 Gaussian 16, Revision C.01,

 ----------------------------------------------------------------------
 #t hf aug-cc-pvdz symm=none int=(grid=ultrafine) guess=(read,tcheck) s
 table=(opt,rrhf)
 ----------------------------------------------------------------------
 -----
 title
 -----
 Symbolic Z-matrix:
 Charge = -1 Multiplicity = 1

 SCF Done:  E(RHF) =  -862.461985497     A.U. after   16 cycles
 Normal termination of Gaussian 16 at Wed Apr  9 02:52:59 2025.
 Gaussian 16:  ES64L-G16RevC.01  3-Jul-2019

 ----------------------------------------------------------------------
 #t hf aug-cc-pvdz iop(5/13=1,5/36=2,99/5=2) pseudo=read geom=check gue
 ss=(read,tcheck) scf=(maxcycle=1)
 ----------------------------------------------------------------------
 -----
 title
 -----
 Structure from the checkpoint file:  "E2SN2_347_mol1.chk"
 Charge = -1 Multiplicity = 1

                         Standard orientation:
 ---------------------------------------------------------------------
 Center     Atomic      Atomic             Coordinates (Angstroms)
 Number     Number       Type             X           Y           Z
 ---------------------------------------------------------------------
      1          6           0        0.737030    0.074961   -0.157478
      2          1           0        0.261935   -1.759343    0.660448
      3         17           0       -0.728288    1.876691   -0.161817
      4          9           0        1.940971   -1.614519   -0.099668
      5          6           0       -0.279540   -0.815526    0.567953
      6          6           0        1.796545    0.797342    0.634799
      7          1           0        1.947539    1.798484    0.231857
      8          1           0        1.490231    0.873495    1.676391
      9          1           0        2.703709    0.204082    0.556859
     10          6           0        0.836288    0.052621   -1.661894
     11          1           0        1.558603   -0.717773   -1.918670
     12          1           0       -0.129128   -0.161913   -2.119907
     13          1           0        1.166347    1.027697   -2.021652
     14          6           0       -1.477539   -1.082729   -0.251893
     15          7           0       -2.454251   -1.408237   -0.819682
     16          7           0       -0.608332   -0.341739    1.906580
     17          1           0       -1.162979   -1.050732    2.371186
     18          1           0       -1.162712    0.502746    1.814175
 ---------------------------------------------------------------------

 SCF Done:  E(RHF) =  -862.595344188     A.U. after    2 cycles

 The electronic state is 1-A.
 Alpha  occ. eigenvalues -- -103.42727 -25.78912 -15.51173 -15.49859 -11.22992
 Alpha  occ. eigenvalues --  -11.18188 -11.16506 -11.09918 -11.09507 -10.46059
 Alpha  occ. eigenvalues --   -8.11687  -8.11588  -8.11571  -1.28789  -1.07652
 Alpha  occ. eigenvalues --   -1.03589  -0.95499  -0.88144  -0.83054  -0.81490
 Alpha  occ. eigenvalues --   -0.64816  -0.58506  -0.55467  -0.50625  -0.48573
 Alpha  occ. eigenvalues --   -0.46350  -0.44636  -0.44015  -0.42046  -0.38815
 Alpha  occ. eigenvalues --   -0.38664  -0.37736  -0.36314  -0.35672  -0.33580
 Alpha  occ. eigenvalues --   -0.31598  -0.28805  -0.26369  -0.25839  -0.25587
 Alpha virt. eigenvalues --    0.12661   0.13618   0.14452   0.15164   0.16089
 Alpha virt. eigenvalues --    0.16569   0.17171   0.17286   0.18344   0.19720
 Alpha virt. eigenvalues --    0.22228   0.22777   0.22922   0.24173   0.24863

 Mulliken charges:
               1
     1  C   -1.789590
     2  H    0.099767
     3  Cl  -0.709892
     4  F   -0.898501
     5  C    1.558042
     6  C    0.793899
     7  H    0.017470
     8  H   -0.006558
     9  H    0.154893
    10  C    0.709933
    11  H    0.146397
    12  H   -0.063491
    13  H    0.017801
    14  C   -0.319420
    15  N   -0.311013
    16  N   -0.438408
    17  H   -0.019165
    18  H    0.057836
 Sum of Mulliken charges =  -1.00000

 Dipole moment (field-independent basis, Debye):
    X=              0.2827    Y=              0.8299    Z=              1.8010  Tot=              2.0031

 Test job not archived.
 1\1\GINC-SE208\SP\RHF\Aug-CC-pVDZ\C5H9Cl1F1N2(1-)\OHZDE\09-Apr-2025\0\
 \#t hf aug-cc-pvdz iop(5/13=1,5/36=2,99/5=2) pseudo=read geom=check gu
 ess=(read,tcheck) scf=(maxcycle=1)\\title\\-1,1\C,0,0.5540382,-0.07716
 567,-0.00474391\H,0,1.74014985,1.61174376,0.00585446\Cl,0,-1.76676337,
 0.00609781,-0.0235513\F,0,2.62807078,-0.00969691,0.02678969\C,0,0.6597
 7571,1.45301406,-0.00592262\C,0,0.64708143,-0.8332681,-1.30542064\H,0,
 -0.06511072,-1.65801166,-1.31050981\H,0,0.42719008,-0.16573175,-2.1364
 3556\H,0,1.66780519,-1.19823555,-1.38224228\C,0,0.59317829,-0.84502846

 Normal termination of Gaussian 16 at Wed Apr  9 02:53:08 2025.
