 Gaussian 16, Revision C.01,

 ----------------------------------------------------------------------
 #t hf aug-cc-pvdz symm=none int=(grid=ultrafine) guess=(read,tcheck) s
 table=(opt,rrhf)
 ----------------------------------------------------------------------
 -----
 title
 -----
 Symbolic Z-matrix:
 Charge = -1 Multiplicity = 1

 SCF Done:  E(RHF) =  -627.871674611     A.U. after   16 cycles
 Normal termination of Gaussian 16 at Wed Apr  9 02:47:15 2025.
 Gaussian 16:  ES64L-G16RevC.01  3-Jul-2019

 ----------------------------------------------------------------------
 #t hf aug-cc-pvdz iop(5/13=1,5/36=2,99/5=2) pseudo=read geom=check gue
 ss=(read,tcheck) scf=(maxcycle=1)
 ----------------------------------------------------------------------
 -----
 title
 -----
 Structure from the checkpoint file:  "E2SN2_291_mol2.chk"
 Charge = -1 Multiplicity = 1

                         Standard orientation:
 ---------------------------------------------------------------------
 Center     Atomic      Atomic             Coordinates (Angstroms)
 Number     Number       Type             X           Y           Z
 ---------------------------------------------------------------------
      1          6           0       -0.620944    0.288720    0.527571
      2          6           0        0.310588   -0.816261    0.060920
      3          9           0       -0.009503    0.904739    1.655188
      4          1           0        0.386840   -1.537484    0.870353
      5          1           0       -0.151489   -1.312791   -0.805826
      6          6           0       -0.765112    1.413051   -0.437917
      7          7           0       -1.019577    2.314605   -1.147346
      8          7           0       -1.842024   -0.311513    0.866798
      9          1           0       -2.000429   -1.129145    0.171504
     10          1           0       -2.595059    0.362844    0.826654
     11          7           0        1.679423   -0.329144   -0.213123
     12          8           0        1.817257    0.552080   -1.061439
     13          8           0        2.610111   -0.857758    0.398196
     14          9           0       -1.805024   -2.123484   -0.900130
 ---------------------------------------------------------------------

 SCF Done:  E(RHF) =  -628.063336961     A.U. after    2 cycles

 The electronic state is 1-A.
 Alpha  occ. eigenvalues --  -26.00339 -25.79027 -20.51006 -20.50866 -15.80220
 Alpha  occ. eigenvalues --  -15.53654 -15.48210 -11.29496 -11.18426 -11.18362
 Alpha  occ. eigenvalues --   -1.53504  -1.43130  -1.28466  -1.24809  -1.09483
 Alpha  occ. eigenvalues --   -1.05525  -0.97287  -0.83182  -0.75185  -0.68770
 Alpha  occ. eigenvalues --   -0.66050  -0.64425  -0.62987  -0.60212  -0.58618
 Alpha  occ. eigenvalues --   -0.53883  -0.51406  -0.48403  -0.46055  -0.44073
 Alpha  occ. eigenvalues --   -0.40573  -0.40092  -0.38297  -0.37144  -0.36581
 Alpha  occ. eigenvalues --   -0.36017  -0.35377  -0.34405  -0.28654
 Alpha virt. eigenvalues --    0.13899   0.14878   0.16383   0.17796   0.18810
 Alpha virt. eigenvalues --    0.19203   0.20070   0.21659   0.22200   0.23084
 Alpha virt. eigenvalues --    0.24830   0.25670   0.25967   0.26581   0.28016

 Mulliken charges:
               1
     1  C    1.077046
     2  C    1.198728
     3  F   -0.473170
     4  H   -0.064165
     5  H   -0.022695
     6  C   -0.448842
     7  N   -0.215900
     8  N   -0.628756
     9  H    0.271772
    10  H    0.013739
    11  N    0.394364
    12  O   -0.597942
    13  O   -0.613920
    14  F   -0.890259
 Sum of Mulliken charges =  -1.00000

 Dipole moment (field-independent basis, Debye):
    X=              1.9148    Y=              2.0549    Z=              2.6598  Tot=              3.8683

 Test job not archived.
 1\1\GINC-SE071\SP\RHF\Aug-CC-pVDZ\C3H4F2N3O2(1-)\OHZDE\09-Apr-2025\0\\
 #t hf aug-cc-pvdz iop(5/13=1,5/36=2,99/5=2) pseudo=read geom=check gue
 ss=(read,tcheck) scf=(maxcycle=1)\\title\\-1,1\C,0,0.025685,0.021704,0
 .028767\C,0,-0.592812,0.332758,-1.322974\F,0,1.41766,-0.183376,-0.1838
 53\H,0,-0.447731,-0.540805,-1.953053\H,0,-1.673608,0.483895,-1.180346\
 C,0,-0.007888,1.157778,0.990682\N,0,-0.046225,1.9498,1.857904\N,0,-0.5
 97767,-1.136215,0.515515\H,0,-1.634995,-1.097679,0.199731\H,0,-0.51664
 6,-1.189372,1.522503\N,0,0.065624,1.468871,-2.002534\O,0,0.077292,2.55

 Normal termination of Gaussian 16 at Wed Apr  9 02:47:21 2025.
