 Gaussian 16, Revision C.01,

 ----------------------------------------------------------------------
 #t hf aug-cc-pvdz symm=none int=(grid=ultrafine) guess=(read,tcheck) s
 table=(opt,rrhf)
 ----------------------------------------------------------------------
 -----
 title
 -----
 Symbolic Z-matrix:
 Charge = -1 Multiplicity = 1

 SCF Done:  E(RHF) =  -862.549709225     A.U. after   14 cycles
 Normal termination of Gaussian 16 at Wed Apr  9 02:49:51 2025.
 Gaussian 16:  ES64L-G16RevC.01  3-Jul-2019

 ----------------------------------------------------------------------
 #t hf aug-cc-pvdz iop(5/13=1,5/36=2,99/5=2) pseudo=read geom=check gue
 ss=(read,tcheck) scf=(maxcycle=1)
 ----------------------------------------------------------------------
 -----
 title
 -----
 Structure from the checkpoint file:  "E2SN2_316_mol2.chk"
 Charge = -1 Multiplicity = 1

                         Standard orientation:
 ---------------------------------------------------------------------
 Center     Atomic      Atomic             Coordinates (Angstroms)
 Number     Number       Type             X           Y           Z
 ---------------------------------------------------------------------
      1          6           0       -0.769392   -0.268020    0.461919
      2          6           0       -0.323956    0.889000   -0.433157
      3          9           0       -1.843245    0.182749    1.274887
      4          1           0        0.466286    0.484579   -1.075407
      5          6           0       -1.397686   -1.351132   -0.348888
      6          7           0       -1.869328   -2.233328   -0.965489
      7          7           0        0.276966   -0.722624    1.285931
      8          1           0        1.197538   -0.617556    0.838244
      9          1           0        0.148650   -1.679579    1.583903
     10          6           0        0.286027    2.002929    0.415918
     11          1           0        0.511919    2.860723   -0.224352
     12          1           0       -0.413236    2.319723    1.193979
     13          1           0        1.218220    1.675647    0.872840
     14          6           0       -1.482710    1.406310   -1.281053
     15          1           0       -1.129384    2.208756   -1.934120
     16          1           0       -2.277324    1.805715   -0.645952
     17          1           0       -1.909500    0.624100   -1.914546
     18         17           0        3.061698   -0.394688   -0.311771
 ---------------------------------------------------------------------

 SCF Done:  E(RHF) =  -862.687947867     A.U. after    2 cycles

 The electronic state is 1-A.
 Alpha  occ. eigenvalues -- -103.37839 -26.00153 -15.54451 -15.49563 -11.28407
 Alpha  occ. eigenvalues --  -11.18964 -11.13625 -11.12569 -11.10806 -10.40926
 Alpha  occ. eigenvalues --   -8.06531  -8.06495  -8.06487  -1.53392  -1.09731
 Alpha  occ. eigenvalues --   -1.06187  -0.96097  -0.84463  -0.82969  -0.82161
 Alpha  occ. eigenvalues --   -0.71058  -0.67906  -0.63260  -0.60107  -0.56036
 Alpha  occ. eigenvalues --   -0.51873  -0.50604  -0.48682  -0.45464  -0.44245
 Alpha  occ. eigenvalues --   -0.43144  -0.39248  -0.38214  -0.37706  -0.36542
 Alpha  occ. eigenvalues --   -0.35211  -0.29774  -0.21347  -0.20991  -0.20900
 Alpha virt. eigenvalues --    0.11707   0.13103   0.13710   0.14255   0.15256
 Alpha virt. eigenvalues --    0.15861   0.17378   0.18425   0.18961   0.19736
 Alpha virt. eigenvalues --    0.21353   0.22530   0.22944   0.23194   0.24106

 Mulliken charges:
               1
     1  C    1.540749
     2  C   -1.494970
     3  F   -0.483032
     4  H   -0.163495
     5  C   -0.630090
     6  N   -0.190242
     7  N   -0.430314
     8  H    0.081172
     9  H   -0.022849
    10  C    0.929632
    11  H   -0.072214
    12  H   -0.006570
    13  H    0.007984
    14  C    0.928275
    15  H   -0.021109
    16  H    0.033824
    17  H   -0.078708
    18  Cl  -0.928043
 Sum of Mulliken charges =  -1.00000

 Dipole moment (field-independent basis, Debye):
    X=             -7.7774    Y=              3.2898    Z=              0.9008  Tot=              8.4925

 Test job not archived.
 1\1\GINC-SE073\SP\RHF\Aug-CC-pVDZ\C5H9Cl1F1N2(1-)\OHZDE\09-Apr-2025\0\
 \#t hf aug-cc-pvdz iop(5/13=1,5/36=2,99/5=2) pseudo=read geom=check gu
 ess=(read,tcheck) scf=(maxcycle=1)\\title\\-1,1\C,0,0.042618,0.095094,
 -0.005703\C,0,-0.492714,-0.248032,-1.39637\F,0,1.449351,-0.100795,-0.0
 06711\H,0,-1.566984,-0.034695,-1.365486\C,0,-0.089778,1.556021,0.26532
 4\N,0,-0.209657,2.697369,0.518044\N,0,-0.537349,-0.712519,0.990252\H,0
 ,-1.50287,-0.982283,0.758062\H,0,-0.513014,-0.280421,1.903331\C,0,-0.3
 18784,-1.740799,-1.670672\H,0,-0.616851,-1.954359,-2.701367\H,0,0.7250

 Normal termination of Gaussian 16 at Wed Apr  9 02:50:01 2025.
