 Gaussian 16, Revision C.01,

 ----------------------------------------------------------------------
 #t hf aug-cc-pvdz symm=none int=(grid=ultrafine) guess=(read,tcheck) s
 table=(opt,rrhf)
 ----------------------------------------------------------------------
 -----
 title
 -----
 Symbolic Z-matrix:
 Charge = -1 Multiplicity = 1

 SCF Done:  E(RHF) =  -476.157783593     A.U. after   17 cycles
 Normal termination of Gaussian 16 at Wed Apr  9 02:38:03 2025.
 Gaussian 16:  ES64L-G16RevC.01  3-Jul-2019

 ----------------------------------------------------------------------
 #t hf aug-cc-pvdz iop(5/13=1,5/36=2,99/5=2) pseudo=read geom=check gue
 ss=(read,tcheck) scf=(maxcycle=1)
 ----------------------------------------------------------------------
 -----
 title
 -----
 Structure from the checkpoint file:  "E2SN2_196_mol1.chk"
 Charge = -1 Multiplicity = 1

                         Standard orientation:
 ---------------------------------------------------------------------
 Center     Atomic      Atomic             Coordinates (Angstroms)
 Number     Number       Type             X           Y           Z
 ---------------------------------------------------------------------
      1          6           0       -1.237550    0.457425    0.120583
      2          1           0        0.011697    0.597310   -1.611808
      3          9           0       -0.762202   -0.528571    1.377594
      4          1           0       -1.812564    1.744111   -1.095442
      5          6           0        0.129007    0.651921   -0.534978
      6          1           0       -1.561339    1.234013    0.796440
      7          7           0       -2.148640   -0.493346   -0.465398
      8          1           0       -2.923061    0.015375   -0.858446
      9          1           0       -2.444022   -1.103315    0.285519
     10          7           0        1.045656   -0.523509   -0.230102
     11          8           0        1.939294   -0.400795    0.606813
     12          8           0        0.859034   -1.544168   -0.889758
     13          6           0        0.791311    1.929209   -0.070642
     14          1           0        0.126809    2.748482   -0.344156
     15          1           0        0.931283    1.896642    1.010073
     16          1           0        1.768670    2.070887   -0.538245
 ---------------------------------------------------------------------

 SCF Done:  E(RHF) =  -476.305420795     A.U. after    2 cycles

 The electronic state is 1-A.
 Alpha  occ. eigenvalues --  -25.86435 -20.46380 -20.46352 -15.75457 -15.46255
 Alpha  occ. eigenvalues --  -11.21553 -11.16260 -11.10090  -1.38853  -1.36947
 Alpha  occ. eigenvalues --   -1.20265  -1.01887  -0.95447  -0.80272  -0.75136
 Alpha  occ. eigenvalues --   -0.66454  -0.59812  -0.58149  -0.57844  -0.54371
 Alpha  occ. eigenvalues --   -0.50992  -0.48167  -0.45632  -0.43646  -0.43576
 Alpha  occ. eigenvalues --   -0.41992  -0.39391  -0.37823  -0.35821  -0.34692
 Alpha  occ. eigenvalues --   -0.31926  -0.25706  -0.11783
 Alpha virt. eigenvalues --    0.13232   0.14035   0.14570   0.15892   0.16592
 Alpha virt. eigenvalues --    0.17215   0.17507   0.20655   0.22961   0.23348
 Alpha virt. eigenvalues --    0.24199   0.24690   0.26338   0.26457   0.27634

 Mulliken charges:
               1
     1  C    0.564315
     2  H   -0.255708
     3  F   -0.710823
     4  H   -0.433596
     5  C    0.360052
     6  H   -0.360094
     7  N   -0.241674
     8  H    0.067473
     9  H    0.026553
    10  N    0.480700
    11  O   -0.670465
    12  O   -0.663101
    13  C    0.679645
    14  H    0.056305
    15  H    0.137882
    16  H   -0.037464
 Sum of Mulliken charges =  -1.00000

 Dipole moment (field-independent basis, Debye):
    X=              1.8606    Y=              0.3847    Z=              0.7931  Tot=              2.0589

 Test job not archived.
 1\1\GINC-SE459\SP\RHF\Aug-CC-pVDZ\C3H8F1N2O2(1-)\OHZDE\09-Apr-2025\0\\
 #t hf aug-cc-pvdz iop(5/13=1,5/36=2,99/5=2) pseudo=read geom=check gue
 ss=(read,tcheck) scf=(maxcycle=1)\\title\\-1,1\C,0,0.37117582,-0.06883
 185,0.09516254\H,0,1.65570787,1.5948103,0.49968402\F,0,-1.19427774,-0.
 03393938,0.66643845\H,0,2.01193827,-0.18100612,-0.77675268\C,0,0.65014
 453,1.43324826,0.12679592\H,0,0.06073404,-0.48019407,-0.85305573\N,0,0
 .89132403,-0.88419557,1.16383089\H,0,1.61085425,-1.47697776,0.78449218
 \H,0,0.11049439,-1.42204067,1.51627335\N,0,-0.21705564,2.12100802,1.17

 Normal termination of Gaussian 16 at Wed Apr  9 02:38:09 2025.
