 Gaussian 16, Revision C.01,

 ----------------------------------------------------------------------
 #t hf aug-cc-pvdz symm=none int=(grid=ultrafine) guess=(read,tcheck) s
 table=(opt,rrhf)
 ----------------------------------------------------------------------
 -----
 title
 -----
 Symbolic Z-matrix:
 Charge = -1 Multiplicity = 1

 SCF Done:  E(RHF) =  -502.386901890     A.U. after   15 cycles
 Normal termination of Gaussian 16 at Wed Apr  9 02:53:47 2025.
 Gaussian 16:  ES64L-G16RevC.01  3-Jul-2019

 ----------------------------------------------------------------------
 #t hf aug-cc-pvdz iop(5/13=1,5/36=2,99/5=2) pseudo=read geom=check gue
 ss=(read,tcheck) scf=(maxcycle=1)
 ----------------------------------------------------------------------
 -----
 title
 -----
 Structure from the checkpoint file:  "E2SN2_363_mol1.chk"
 Charge = -1 Multiplicity = 1

                         Standard orientation:
 ---------------------------------------------------------------------
 Center     Atomic      Atomic             Coordinates (Angstroms)
 Number     Number       Type             X           Y           Z
 ---------------------------------------------------------------------
      1          6           0        0.688148   -0.193329    0.079098
      2          1           0       -0.330984    0.644035   -1.584211
      3          9           0       -0.277240   -0.448441    1.631075
      4          9           0        1.657369    0.168724   -1.435496
      5          6           0       -0.523075    0.546234   -0.514245
      6          6           0        0.833095   -1.680409   -0.179739
      7          1           0        0.475950   -2.244393    0.679212
      8          1           0        0.261851   -1.962287   -1.066800
      9          1           0        1.881578   -1.897306   -0.383606
     10          7           0        1.653449    0.546577    0.845509
     11          1           0        2.538203    0.439302    0.371606
     12          1           0        1.655690    0.147099    1.772629
     13          6           0       -0.693111    1.935419    0.091685
     14          1           0       -0.841306    1.829639    1.164322
     15          1           0        0.217615    2.505675   -0.086357
     16          1           0       -1.547628    2.449871   -0.359707
     17          6           0       -1.762323   -0.226311   -0.379628
     18          7           0       -2.794669   -0.787121   -0.395556
 ---------------------------------------------------------------------

 SCF Done:  E(RHF) =  -502.538065031     A.U. after    2 cycles

 The electronic state is 1-A.
 Alpha  occ. eigenvalues --  -25.81523 -25.80935 -15.48649 -15.46048 -11.23379
 Alpha  occ. eigenvalues --  -11.14647 -11.13305 -11.09365 -11.08407  -1.32134
 Alpha  occ. eigenvalues --   -1.31452  -1.03540  -1.01681  -0.92425  -0.84451
 Alpha  occ. eigenvalues --   -0.75134  -0.65580  -0.55654  -0.53805  -0.50361
 Alpha  occ. eigenvalues --   -0.48675  -0.47402  -0.43481  -0.42092  -0.41056
 Alpha  occ. eigenvalues --   -0.40825  -0.39697  -0.39087  -0.38661  -0.36584
 Alpha  occ. eigenvalues --   -0.36453  -0.35891  -0.35103  -0.30646  -0.29418
 Alpha  occ. eigenvalues --   -0.25335
 Alpha virt. eigenvalues --    0.13042   0.13328   0.14243   0.15372   0.16106
 Alpha virt. eigenvalues --    0.16242   0.17093   0.17613   0.18286   0.20267
 Alpha virt. eigenvalues --    0.21881   0.23846   0.24878   0.25360   0.26165

 Mulliken charges:
               1
     1  C   -0.410923
     2  H    0.027273
     3  F   -0.792585
     4  F   -0.786272
     5  C    0.254541
     6  C    0.906974
     7  H    0.092944
     8  H   -0.036131
     9  H   -0.034609
    10  N   -0.535805
    11  H    0.050910
    12  H    0.087383
    13  C    0.822347
    14  H    0.072756
    15  H   -0.016418
    16  H   -0.087327
    17  C   -0.285068
    18  N   -0.329990
 Sum of Mulliken charges =  -1.00000

 Dipole moment (field-independent basis, Debye):
    X=              2.1033    Y=              1.1435    Z=             -0.0470  Tot=              2.3945

 Test job not archived.
 1\1\GINC-SE247\SP\RHF\Aug-CC-pVDZ\C5H9F2N2(1-)\OHZDE\09-Apr-2025\0\\#t
  hf aug-cc-pvdz iop(5/13=1,5/36=2,99/5=2) pseudo=read geom=check guess
 =(read,tcheck) scf=(maxcycle=1)\\title\\-1,1\C,0,0.64758645,-0.0692354
 9,-0.00846548\H,0,1.60351962,1.80908252,-0.26246964\F,0,-1.1958186,-0.
 10597246,-0.08718168\F,0,2.4710938,0.00436329,0.17557775\C,0,0.5868046
 9,1.46685862,-0.06131201\C,0,0.80633433,-0.83786733,-1.305931\H,0,-0.1
 602726,-1.20929141,-1.6393139\H,0,1.23485532,-0.18995791,-2.0735484\H,
 0,1.50634298,-1.6569274,-1.14146193\N,0,0.56899327,-0.7294506,1.266128

 Normal termination of Gaussian 16 at Wed Apr  9 02:53:56 2025.
