 Gaussian 16, Revision C.01,

 ----------------------------------------------------------------------
 #t hf aug-cc-pvdz symm=none int=(grid=ultrafine) guess=(read,tcheck) s
 table=(opt,rrhf)
 ----------------------------------------------------------------------
 -----
 title
 -----
 Symbolic Z-matrix:
 Charge = -1 Multiplicity = 1

 SCF Done:  E(RHF) =  -463.344055957     A.U. after   15 cycles
 Normal termination of Gaussian 16 at Wed Apr  9 02:48:03 2025.
 Gaussian 16:  ES64L-G16RevC.01  3-Jul-2019

 ----------------------------------------------------------------------
 #t hf aug-cc-pvdz iop(5/13=1,5/36=2,99/5=2) pseudo=read geom=check gue
 ss=(read,tcheck) scf=(maxcycle=1)
 ----------------------------------------------------------------------
 -----
 title
 -----
 Structure from the checkpoint file:  "E2SN2_298_mol1.chk"
 Charge = -1 Multiplicity = 1

                         Standard orientation:
 ---------------------------------------------------------------------
 Center     Atomic      Atomic             Coordinates (Angstroms)
 Number     Number       Type             X           Y           Z
 ---------------------------------------------------------------------
      1          6           0       -0.245214   -0.364558    0.015204
      2          1           0        1.335570   -1.363179   -0.945142
      3          9           0       -0.203202   -0.194642    1.816656
      4          9           0       -0.389835   -0.284876   -1.790954
      5          6           0        1.214222   -0.757692   -0.047181
      6          1           0        1.403632   -1.373566    0.832048
      7          6           0       -0.658042    1.040992   -0.002179
      8          7           0       -1.021019    2.158876   -0.014365
      9          7           0       -1.225957   -1.412458    0.090812
     10          1           0       -1.817496   -1.304811   -0.720957
     11          1           0       -1.737037   -1.260526    0.948860
     12          6           0        2.147267    0.442158   -0.073138
     13          1           0        1.940456    1.057079   -0.951536
     14          1           0        1.996622    1.045335    0.824025
     15          1           0        3.195018    0.125007   -0.109981
 ---------------------------------------------------------------------

 SCF Done:  E(RHF) =  -463.484501330     A.U. after    2 cycles

 The electronic state is 1-A.
 Alpha  occ. eigenvalues --  -25.82717 -25.82577 -15.47857 -15.47446 -11.25883
 Alpha  occ. eigenvalues --  -11.14430 -11.09271 -11.09020  -1.33430  -1.32778
 Alpha  occ. eigenvalues --   -1.04027  -1.00949  -0.90656  -0.78494  -0.70949
 Alpha  occ. eigenvalues --   -0.55701  -0.54918  -0.50340  -0.49619  -0.45842
 Alpha  occ. eigenvalues --   -0.42262  -0.41972  -0.41183  -0.40186  -0.39630
 Alpha  occ. eigenvalues --   -0.38596  -0.36752  -0.35632  -0.34087  -0.30512
 Alpha  occ. eigenvalues --   -0.28974  -0.27202
 Alpha virt. eigenvalues --    0.12708   0.13954   0.15099   0.15530   0.16870
 Alpha virt. eigenvalues --    0.17673   0.18124   0.19558   0.23413   0.23930
 Alpha virt. eigenvalues --    0.25029   0.25400   0.26003   0.26760   0.26959

 Mulliken charges:
               1
     1  C    0.994797
     2  H   -0.019784
     3  F   -0.756388
     4  F   -0.761910
     5  C    0.465406
     6  H   -0.016517
     7  C   -0.629990
     8  N   -0.279601
     9  N   -0.522040
    10  H    0.073879
    11  H    0.072077
    12  C    0.490772
    13  H    0.002942
    14  H    0.012235
    15  H   -0.125879
 Sum of Mulliken charges =  -1.00000

 Dipole moment (field-independent basis, Debye):
    X=              1.8384    Y=             -2.2729    Z=              0.0335  Tot=              2.9235

 Test job not archived.
 1\1\GINC-SE227\SP\RHF\Aug-CC-pVDZ\C4H7F2N2(1-)\OHZDE\09-Apr-2025\0\\#t
  hf aug-cc-pvdz iop(5/13=1,5/36=2,99/5=2) pseudo=read geom=check guess
 =(read,tcheck) scf=(maxcycle=1)\\title\\-1,1\C,0,0.61237849,-0.0342266
 4,0.04630046\H,0,1.55571826,1.81794266,0.35929362\F,0,-1.17248668,-0.1
 6096027,0.31844372\F,0,2.36036575,-0.07292272,-0.4358983\C,0,0.5703067
 5,1.47792555,0.0414464\H,0,-0.16954453,1.76638925,0.78819158\C,0,0.374
 5778,-0.80790108,-1.17483836\N,0,0.18833699,-1.45662328,-2.13714762\N,
 0,0.89553872,-0.69959632,1.288384\H,0,1.73344537,-1.24219412,1.1335455

 Normal termination of Gaussian 16 at Wed Apr  9 02:48:08 2025.
