 Gaussian 16, Revision C.01,

 ----------------------------------------------------------------------
 #t hf aug-cc-pvdz symm=none int=(grid=ultrafine) guess=(read,tcheck) s
 table=(opt,rrhf)
 ----------------------------------------------------------------------
 -----
 title
 -----
 Symbolic Z-matrix:
 Charge = -1 Multiplicity = 1

 SCF Done:  E(RHF) =  -1347.96638009     A.U. after   16 cycles
 Normal termination of Gaussian 16 at Wed Apr  9 02:47:37 2025.
 Gaussian 16:  ES64L-G16RevC.01  3-Jul-2019

 ----------------------------------------------------------------------
 #t hf aug-cc-pvdz iop(5/13=1,5/36=2,99/5=2) pseudo=read geom=check gue
 ss=(read,tcheck) scf=(maxcycle=1)
 ----------------------------------------------------------------------
 -----
 title
 -----
 Structure from the checkpoint file:  "E2SN2_294_mol1.chk"
 Charge = -1 Multiplicity = 1

                         Standard orientation:
 ---------------------------------------------------------------------
 Center     Atomic      Atomic             Coordinates (Angstroms)
 Number     Number       Type             X           Y           Z
 ---------------------------------------------------------------------
      1          6           0       -0.468499    0.424748   -0.318534
      2          1           0        0.966648   -0.289531   -1.717660
      3         17           0       -2.435486   -0.921105   -0.252964
      4         17           0        1.470589    1.775266   -0.131632
      5          6           0        0.387071   -0.687979   -0.892655
      6          1           0       -0.241792   -1.511245   -1.225791
      7          6           0       -0.703510    0.655592    1.087046
      8          7           0       -0.952516    0.964759    2.196830
      9          7           0       -1.058106    1.266438   -1.316025
     10          1           0       -0.579748    2.157192   -1.313997
     11          1           0       -2.039639    1.383357   -1.106704
     12          7           0        1.363022   -1.298344    0.046976
     13          8           0        2.410830   -1.706687   -0.450266
     14          8           0        1.031746   -1.436395    1.219350
 ---------------------------------------------------------------------

 SCF Done:  E(RHF) =  -1348.11954034     A.U. after    2 cycles

 The electronic state is 1-A.
 Alpha  occ. eigenvalues -- -103.45715-103.45267 -20.51271 -20.50942 -15.80751
 Alpha  occ. eigenvalues --  -15.53670 -15.52591 -11.33299 -11.21834 -11.18946
 Alpha  occ. eigenvalues --  -10.49007 -10.48547  -8.14638  -8.14515  -8.14501
 Alpha  occ. eigenvalues --   -8.14176  -8.14053  -8.14040  -1.43624  -1.25414
 Alpha  occ. eigenvalues --   -1.12369  -1.05324  -0.99880  -0.92418  -0.91462
 Alpha  occ. eigenvalues --   -0.84158  -0.75891  -0.68012  -0.63511  -0.63337
 Alpha  occ. eigenvalues --   -0.58699  -0.57945  -0.53809  -0.50318  -0.43682
 Alpha  occ. eigenvalues --   -0.41309  -0.40789  -0.39668  -0.36727  -0.34999
 Alpha  occ. eigenvalues --   -0.32718  -0.29338  -0.28891  -0.28637  -0.28133
 Alpha  occ. eigenvalues --   -0.26728  -0.26300
 Alpha virt. eigenvalues --    0.12663   0.13802   0.15066   0.15169   0.16787
 Alpha virt. eigenvalues --    0.18552   0.19145   0.20854   0.21225   0.22125
 Alpha virt. eigenvalues --    0.22656   0.24484   0.25175   0.25508   0.26162

 Mulliken charges:
               1
     1  C    0.862148
     2  H   -0.088757
     3  Cl  -0.624309
     4  Cl  -0.627141
     5  C    1.270200
     6  H    0.030042
     7  C   -0.367937
     8  N   -0.342679
     9  N   -0.547559
    10  H    0.107349
    11  H    0.083123
    12  N    0.473298
    13  O   -0.627383
    14  O   -0.600395
 Sum of Mulliken charges =  -1.00000

 Dipole moment (field-independent basis, Debye):
    X=             -0.1545    Y=              0.2363    Z=             -4.1270  Tot=              4.1366

 Test job not archived.
 1\1\GINC-SE074\SP\RHF\Aug-CC-pVDZ\C3H4Cl2N3O2(1-)\OHZDE\09-Apr-2025\0\
 \#t hf aug-cc-pvdz iop(5/13=1,5/36=2,99/5=2) pseudo=read geom=check gu
 ess=(read,tcheck) scf=(maxcycle=1)\\title\\-1,1\C,0,0.54562046,-0.0862
 3326,-0.01331832\H,0,1.17912517,1.83040309,0.65941342\Cl,0,-1.77056057
 ,-0.48175544,0.39106385\Cl,0,2.81415114,0.19618122,-0.64013935\C,0,0.3
 9279297,1.42177694,0.0349063\H,0,-0.5872424,1.68745469,0.42626349\C,0,
 0.37468014,-0.90471472,-1.19019747\N,0,0.28860196,-1.67700957,-2.07640
 185\N,0,0.88238318,-0.66835941,1.25111257\H,0,1.85139837,-0.95608657,1

 Normal termination of Gaussian 16 at Wed Apr  9 02:47:45 2025.
