 Gaussian 16, Revision C.01,

 ----------------------------------------------------------------------
 #t hf aug-cc-pvdz symm=none int=(grid=ultrafine) guess=(read,tcheck) s
 table=(opt,rrhf)
 ----------------------------------------------------------------------
 -----
 title
 -----
 Symbolic Z-matrix:
 Charge = -1 Multiplicity = 1

 SCF Done:  E(RHF) =  -1063.60270837     A.U. after   18 cycles
 Normal termination of Gaussian 16 at Wed Apr  9 02:42:37 2025.
 Gaussian 16:  ES64L-G16RevC.01  3-Jul-2019

 ----------------------------------------------------------------------
 #t hf aug-cc-pvdz iop(5/13=1,5/36=2,99/5=2) pseudo=read geom=check gue
 ss=(read,tcheck) scf=(maxcycle=1)
 ----------------------------------------------------------------------
 -----
 title
 -----
 Structure from the checkpoint file:  "E2SN2_226_mol1.chk"
 Charge = -1 Multiplicity = 1

                         Standard orientation:
 ---------------------------------------------------------------------
 Center     Atomic      Atomic             Coordinates (Angstroms)
 Number     Number       Type             X           Y           Z
 ---------------------------------------------------------------------
      1          6           0       -0.166455   -0.184074   -0.011233
      2          1           0        0.881661    0.471587   -1.671950
      3         17           0       -0.860191    1.104151    1.577527
      4          9           0        0.195958   -1.481944   -1.354064
      5          6           0        1.015998    0.601877   -0.598465
      6          7           0       -1.460919   -0.073368   -0.757689
      7          8           0       -1.513400    0.801896   -1.613988
      8          8           0       -2.360518   -0.833052   -0.443593
      9          6           0       -0.016346   -1.317519    0.864993
     10          7           0        0.128752   -2.201238    1.626934
     11          6           0        2.259678   -0.089374   -0.255374
     12          7           0        3.314995   -0.535845    0.002091
     13          6           0        1.156956    2.095497   -0.305911
     14          1           0        0.225808    2.605106   -0.545484
     15          1           0        1.412088    2.290329    0.732896
     16          1           0        1.952630    2.483864   -0.949616
 ---------------------------------------------------------------------

 SCF Done:  E(RHF) =  -1063.79537985     A.U. after    2 cycles

 The electronic state is 1-A.
 Alpha  occ. eigenvalues -- -103.50106 -25.85847 -20.51386 -20.51167 -15.82338
 Alpha  occ. eigenvalues --  -15.53630 -15.53268 -11.34794 -11.20827 -11.19485
 Alpha  occ. eigenvalues --  -11.18971 -11.14646 -10.53388  -8.19048  -8.18854
 Alpha  occ. eigenvalues --   -8.18849  -1.44655  -1.35945  -1.26287  -1.09362
 Alpha  occ. eigenvalues --   -1.07106  -1.03503  -0.96184  -0.93270  -0.82452
 Alpha  occ. eigenvalues --   -0.77436  -0.69931  -0.64544  -0.62667  -0.61258
 Alpha  occ. eigenvalues --   -0.56837  -0.52263  -0.48116  -0.47251  -0.45651
 Alpha  occ. eigenvalues --   -0.45153  -0.43810  -0.43563  -0.41995  -0.41811
 Alpha  occ. eigenvalues --   -0.41047  -0.36895  -0.35940  -0.35031  -0.34600
 Alpha  occ. eigenvalues --   -0.34186  -0.32322  -0.31925  -0.30245
 Alpha virt. eigenvalues --    0.11664   0.13908   0.14471   0.15050   0.16088
 Alpha virt. eigenvalues --    0.18219   0.18662   0.19818   0.21043   0.21815
 Alpha virt. eigenvalues --    0.22542   0.22915   0.23831   0.24391   0.25136

 Mulliken charges:
               1
     1  C    0.992466
     2  H    0.226227
     3  Cl  -0.431544
     4  F   -0.737963
     5  C    0.054358
     6  N    0.587284
     7  O   -0.659934
     8  O   -0.652665
     9  C   -0.288070
    10  N   -0.245161
    11  C   -0.254523
    12  N   -0.263721
    13  C    0.736123
    14  H    0.000599
    15  H   -0.001262
    16  H   -0.062214
 Sum of Mulliken charges =  -1.00000

 Dipole moment (field-independent basis, Debye):
    X=              0.2385    Y=              5.9334    Z=             -0.7907  Tot=              5.9906

 Test job not archived.
 1\1\GINC-SE113\SP\RHF\Aug-CC-pVDZ\C5H4Cl1F1N3O2(1-)\OHZDE\09-Apr-2025\
 0\\#t hf aug-cc-pvdz iop(5/13=1,5/36=2,99/5=2) pseudo=read geom=check
 guess=(read,tcheck) scf=(maxcycle=1)\\title\\-1,1\C,0,0.44329099,-0.09
 636243,-0.06591044\H,0,1.66730439,1.48409193,-0.60477064\Cl,0,-1.57958
 122,-0.36594795,-0.77320482\F,0,2.23908921,-0.16131913,0.5585046\C,0,0
 .6559579,1.41901147,-0.20435401\N,0,1.01212508,-0.94006917,-1.16576332
 \O,0,1.37961196,-0.33839576,-2.16827606\O,0,1.04154591,-2.14623367,-0.
 9944266\C,0,0.17792129,-0.75489809,1.18745009\N,0,-0.09821952,-1.26299

 Normal termination of Gaussian 16 at Wed Apr  9 02:42:48 2025.
