 Gaussian 16, Revision C.01,

 ----------------------------------------------------------------------
 #t hf aug-cc-pvdz symm=none int=(grid=ultrafine) guess=(read,tcheck) s
 table=(opt,rrhf)
 ----------------------------------------------------------------------
 -----
 title
 -----
 Symbolic Z-matrix:
 Charge = -1 Multiplicity = 1

 SCF Done:  E(RHF) =  -726.785870416     A.U. after   15 cycles
 Normal termination of Gaussian 16 at Wed Apr  9 02:53:23 2025.
 Gaussian 16:  ES64L-G16RevC.01  3-Jul-2019

 ----------------------------------------------------------------------
 #t hf aug-cc-pvdz iop(5/13=1,5/36=2,99/5=2) pseudo=read geom=check gue
 ss=(read,tcheck) scf=(maxcycle=1)
 ----------------------------------------------------------------------
 -----
 title
 -----
 Structure from the checkpoint file:  "E2SN2_365_mol1.chk"
 Charge = -1 Multiplicity = 1

                         Standard orientation:
 ---------------------------------------------------------------------
 Center     Atomic      Atomic             Coordinates (Angstroms)
 Number     Number       Type             X           Y           Z
 ---------------------------------------------------------------------
      1          6           0        0.354381    0.661253    0.195883
      2          1           0       -1.584758    1.317004    0.634421
      3         17           0        0.986557   -1.351575   -0.441138
      4          1           0        0.034529    2.665188    0.882489
      5          6           0       -1.171856    0.391477    0.244242
      6          6           0        0.957741    1.367153   -1.020405
      7          1           0        0.923101    0.727692   -1.906090
      8          1           0        0.443475    2.301637   -1.212257
      9          1           0        2.002804    1.600107   -0.803215
     10          7           0        1.040539    0.543199    1.474801
     11          1           0        1.161552    1.497353    1.781912
     12          1           0        1.932727    0.085614    1.326926
     13          7           0       -1.567162   -0.665965    1.172443
     14          1           0       -1.066371   -0.464146    2.034121
     15          1           0       -1.141637   -1.522729    0.830621
     16          6           0       -1.792045    0.143590   -1.123908
     17          1           0       -1.615599    0.985063   -1.798375
     18          1           0       -1.393545   -0.762248   -1.584605
     19          1           0       -2.870721    0.024762   -0.992188
 ---------------------------------------------------------------------

 SCF Done:  E(RHF) =  -726.882348895     A.U. after    2 cycles

 The electronic state is 1-A.
 Alpha  occ. eigenvalues -- -103.44086 -15.46880 -15.45831 -11.22921 -11.12574
 Alpha  occ. eigenvalues --  -11.09573 -11.09240 -10.47443  -8.13079  -8.12954
 Alpha  occ. eigenvalues --   -8.12943  -1.05206  -0.99734  -0.91182  -0.86950
 Alpha  occ. eigenvalues --   -0.82658  -0.72791  -0.60713  -0.53270  -0.51619
 Alpha  occ. eigenvalues --   -0.50248  -0.47505  -0.45127  -0.42878  -0.41153
 Alpha  occ. eigenvalues --   -0.38833  -0.36649  -0.36093  -0.27722  -0.27243
 Alpha  occ. eigenvalues --   -0.26950  -0.26605  -0.25001  -0.09732
 Alpha virt. eigenvalues --    0.13031   0.13624   0.13904   0.15414   0.15568
 Alpha virt. eigenvalues --    0.15966   0.17083   0.17420   0.18270   0.18652
 Alpha virt. eigenvalues --    0.19388   0.21068   0.23277   0.24508   0.25238

 Mulliken charges:
               1
     1  C   -0.934572
     2  H   -0.146935
     3  Cl  -0.654624
     4  H   -0.646842
     5  C    0.510319
     6  C    0.888853
     7  H    0.023903
     8  H   -0.035929
     9  H   -0.095245
    10  N   -0.291665
    11  H    0.131495
    12  H    0.033618
    13  N   -0.391211
    14  H    0.067314
    15  H    0.061586
    16  C    0.670859
    17  H   -0.038381
    18  H   -0.070889
    19  H   -0.081655
 Sum of Mulliken charges =  -1.00000

 Dipole moment (field-independent basis, Debye):
    X=              0.4243    Y=             -3.6867    Z=             -2.6590  Tot=              4.5653

 Test job not archived.
 1\1\GINC-SE339\SP\RHF\Aug-CC-pVDZ\C4H12Cl1N2(1-)\OHZDE\09-Apr-2025\0\\
 #t hf aug-cc-pvdz iop(5/13=1,5/36=2,99/5=2) pseudo=read geom=check gue
 ss=(read,tcheck) scf=(maxcycle=1)\\title\\-1,1\C,0,0.63395089,0.010397
 87,0.0201921\H,0,1.70065613,1.79949433,-0.18923482\Cl,0,-1.52249623,-0
 .23843205,0.40063602\H,0,2.75732229,-0.03890636,-0.25972344\C,0,0.6475
 3901,1.55771362,-0.08054068\C,0,0.6278095,-0.82906929,-1.25924182\H,0,
 -0.32440226,-0.73714067,-1.78781598\H,0,1.44632146,-0.54016839,-1.9081
 7164\H,0,0.77200675,-1.8772715,-0.9870747\N,0,0.99251294,-0.5239699,1.

 Normal termination of Gaussian 16 at Wed Apr  9 02:53:31 2025.
