 Gaussian 16, Revision C.01,

 ----------------------------------------------------------------------
 #t hf aug-cc-pvdz symm=none int=(grid=ultrafine) guess=(read,tcheck) s
 table=(opt,rrhf)
 ----------------------------------------------------------------------
 -----
 title
 -----
 Symbolic Z-matrix:
 Charge = -1 Multiplicity = 1

 SCF Done:  E(RHF) =  -1275.27016293     A.U. after   16 cycles
 Normal termination of Gaussian 16 at Wed Apr  9 02:47:05 2025.
 Gaussian 16:  ES64L-G16RevC.01  3-Jul-2019

 ----------------------------------------------------------------------
 #t hf aug-cc-pvdz iop(5/13=1,5/36=2,99/5=2) pseudo=read geom=check gue
 ss=(read,tcheck) scf=(maxcycle=1)
 ----------------------------------------------------------------------
 -----
 title
 -----
 Structure from the checkpoint file:  "E2SN2_275_mol2.chk"
 Charge = -1 Multiplicity = 1

                         Standard orientation:
 ---------------------------------------------------------------------
 Center     Atomic      Atomic             Coordinates (Angstroms)
 Number     Number       Type             X           Y           Z
 ---------------------------------------------------------------------
      1          6           0        0.735017   -0.277801    0.087472
      2          6           0       -0.142516    1.006146   -0.020941
      3         17           0        2.236252   -0.097333   -0.930232
      4          1           0       -0.985402    0.808042    0.653430
      5          6           0        1.184255   -0.504461    1.461990
      6          7           0        1.543054   -0.646535    2.572081
      7          6           0        0.051306   -1.469380   -0.416779
      8          7           0       -0.424361   -2.434865   -0.888095
      9          7           0       -0.719764    1.187595   -1.327473
     10          1           0       -1.607068    0.686403   -1.344841
     11          1           0       -0.107646    0.880930   -2.072990
     12          6           0        0.628361    2.238113    0.433945
     13          1           0       -0.088071    3.058142    0.494021
     14          1           0        1.395471    2.512893   -0.293355
     15          1           0        1.095704    2.106744    1.413878
     16         17           0       -3.250018   -0.064562    0.305535
 ---------------------------------------------------------------------

 SCF Done:  E(RHF) =  -1275.40271114     A.U. after    2 cycles

 The electronic state is 1-A.
 Alpha  occ. eigenvalues -- -103.59808-103.37244 -15.57897 -15.56302 -15.49389
 Alpha  occ. eigenvalues --  -11.30566 -11.22866 -11.21121 -11.18700 -11.13445
 Alpha  occ. eigenvalues --  -10.63089 -10.40324  -8.28804  -8.28500  -8.28496
 Alpha  occ. eigenvalues --   -8.05924  -8.05897  -8.05885  -1.15365  -1.10212
 Alpha  occ. eigenvalues --   -1.08301  -1.05409  -0.94836  -0.88600  -0.82565
 Alpha  occ. eigenvalues --   -0.73047  -0.70441  -0.61639  -0.55858  -0.53786
 Alpha  occ. eigenvalues --   -0.49465  -0.48229  -0.46862  -0.44635  -0.43483
 Alpha  occ. eigenvalues --   -0.41739  -0.40761  -0.40201  -0.38394  -0.37980
 Alpha  occ. eigenvalues --   -0.36435  -0.35919  -0.28667  -0.20713  -0.20373
 Alpha  occ. eigenvalues --   -0.20275
 Alpha virt. eigenvalues --    0.11461   0.13094   0.14173   0.14603   0.15661
 Alpha virt. eigenvalues --    0.16185   0.18283   0.18742   0.19268   0.20002
 Alpha virt. eigenvalues --    0.21284   0.21672   0.22336   0.23008   0.23857

 Mulliken charges:
               1
     1  C    0.665004
     2  C   -0.104730
     3  Cl  -0.103843
     4  H   -0.187712
     5  C   -0.269441
     6  N   -0.253738
     7  C   -0.151547
     8  N   -0.218944
     9  N   -0.270061
    10  H    0.091230
    11  H   -0.014029
    12  C    0.867740
    13  H   -0.025229
    14  H   -0.029775
    15  H   -0.060992
    16  Cl  -0.933932
 Sum of Mulliken charges =  -1.00000

 Dipole moment (field-independent basis, Debye):
    X=             11.2767    Y=              2.6442    Z=             -2.3037  Tot=             11.8094

 Test job not archived.
 1\1\GINC-SE090\SP\RHF\Aug-CC-pVDZ\C5H6Cl2N3(1-)\OHZDE\09-Apr-2025\0\\#
 t hf aug-cc-pvdz iop(5/13=1,5/36=2,99/5=2) pseudo=read geom=check gues
 s=(read,tcheck) scf=(maxcycle=1)\\title\\-1,1\C,0,0.120642,0.083448,0.
 040631\C,0,-0.522895,0.252019,-1.369256\Cl,0,1.931632,-0.055721,-0.110
 841\H,0,-1.593903,0.366981,-1.159013\C,0,-0.141536,1.245632,0.890974\N
 ,0,-0.354295,2.201727,1.540465\C,0,-0.318886,-1.138137,0.71601\N,0,-0.
 576598,-2.147243,1.259928\N,0,-0.408167,-0.927101,-2.187595\H,0,-1.212
 802,-1.520136,-1.988411\H,0,0.461764,-1.423366,-2.04107\C,0,0.019066,1

 Normal termination of Gaussian 16 at Wed Apr  9 02:47:14 2025.
