 Gaussian 16, Revision C.01,

 ----------------------------------------------------------------------
 #t hf aug-cc-pvdz symm=none int=(grid=ultrafine) guess=(read,tcheck) s
 table=(opt,rrhf)
 ----------------------------------------------------------------------
 -----
 title
 -----
 Symbolic Z-matrix:
 Charge = -1 Multiplicity = 1

 SCF Done:  E(RHF) =  -1347.96992131     A.U. after   16 cycles
 Normal termination of Gaussian 16 at Wed Apr  9 02:42:33 2025.
 Gaussian 16:  ES64L-G16RevC.01  3-Jul-2019

 ----------------------------------------------------------------------
 #t hf aug-cc-pvdz iop(5/13=1,5/36=2,99/5=2) pseudo=read geom=check gue
 ss=(read,tcheck) scf=(maxcycle=1)
 ----------------------------------------------------------------------
 -----
 title
 -----
 Structure from the checkpoint file:  "E2SN2_240_mol1.chk"
 Charge = -1 Multiplicity = 1

                         Standard orientation:
 ---------------------------------------------------------------------
 Center     Atomic      Atomic             Coordinates (Angstroms)
 Number     Number       Type             X           Y           Z
 ---------------------------------------------------------------------
      1          6           0       -0.222502   -0.267976   -0.465703
      2          1           0       -0.284128    1.629620   -1.436370
      3         17           0        1.840295   -1.363081   -0.282075
      4         17           0       -2.318875    0.823666   -0.281237
      5          6           0        0.472644    0.958323   -1.032232
      6          1           0        1.083415    0.596152   -1.860034
      7          7           0       -0.383603   -0.496742    1.026233
      8          8           0        0.032102    0.366691    1.781224
      9          8           0       -0.919998   -1.548896    1.342932
     10          7           0       -0.758911   -1.190332   -1.373268
     11          1           0       -1.681968   -1.466456   -1.070724
     12          1           0       -0.150548   -1.993876   -1.445364
     13          6           0        1.350128    1.733048   -0.161289
     14          7           0        2.095464    2.447344    0.397160
 ---------------------------------------------------------------------

 SCF Done:  E(RHF) =  -1348.12362904     A.U. after    2 cycles

 The electronic state is 1-A.
 Alpha  occ. eigenvalues -- -103.45982-103.45277 -20.50297 -20.50109 -15.81157
 Alpha  occ. eigenvalues --  -15.53549 -15.52413 -11.35258 -11.19589 -11.18350
 Alpha  occ. eigenvalues --  -10.49292 -10.48581  -8.14928  -8.14794  -8.14789
 Alpha  occ. eigenvalues --   -8.14216  -8.14089  -8.14078  -1.43410  -1.25328
 Alpha  occ. eigenvalues --   -1.12523  -1.06562  -0.97076  -0.92892  -0.90713
 Alpha  occ. eigenvalues --   -0.88248  -0.71439  -0.67873  -0.62705  -0.61620
 Alpha  occ. eigenvalues --   -0.58135  -0.56214  -0.54052  -0.53042  -0.43457
 Alpha  occ. eigenvalues --   -0.42454  -0.40066  -0.36200  -0.35873  -0.34324
 Alpha  occ. eigenvalues --   -0.32699  -0.30955  -0.29204  -0.29022  -0.27960
 Alpha  occ. eigenvalues --   -0.27744  -0.26491
 Alpha virt. eigenvalues --    0.12649   0.13607   0.13856   0.15276   0.16866
 Alpha virt. eigenvalues --    0.18183   0.20679   0.21332   0.22039   0.23082
 Alpha virt. eigenvalues --    0.23860   0.24390   0.25280   0.25372   0.25570

 Mulliken charges:
               1
     1  C   -0.050434
     2  H    0.068128
     3  Cl  -0.571204
     4  Cl  -0.596232
     5  C    0.771568
     6  H    0.140633
     7  N    0.813359
     8  O   -0.672530
     9  O   -0.685709
    10  N   -0.126226
    11  H    0.112637
    12  H    0.101180
    13  C    0.006944
    14  N   -0.312115
 Sum of Mulliken charges =  -1.00000

 Dipole moment (field-independent basis, Debye):
    X=             -1.0105    Y=             -1.7591    Z=             -3.9463  Tot=              4.4372

 Test job not archived.
 1\1\GINC-SE344\SP\RHF\Aug-CC-pVDZ\C3H4Cl2N3O2(1-)\OHZDE\09-Apr-2025\0\
 \#t hf aug-cc-pvdz iop(5/13=1,5/36=2,99/5=2) pseudo=read geom=check gu
 ess=(read,tcheck) scf=(maxcycle=1)\\title\\-1,1\C,0,0.67015369,-0.0709
 7827,0.00748263\H,0,1.66321711,1.80121763,0.24321414\Cl,0,-1.66928508,
 -0.08779895,-0.1143805\Cl,0,3.0271548,-0.21486823,-0.20306436\C,0,0.66
 605783,1.44802952,-0.01679113\H,0,-0.02040707,1.75466777,0.77327478\N,
 0,0.66004304,-0.90610161,-1.26004571\O,0,0.68981823,-0.31737985,-2.328
 15516\O,0,0.61563265,-2.11654598,-1.09301709\N,0,0.7220737,-0.70248774

 Normal termination of Gaussian 16 at Wed Apr  9 02:42:41 2025.
