 Gaussian 16, Revision C.01,

 ----------------------------------------------------------------------
 #t hf aug-cc-pvdz symm=none int=(grid=ultrafine) guess=(read,tcheck) s
 table=(opt,rrhf)
 ----------------------------------------------------------------------
 -----
 title
 -----
 Symbolic Z-matrix:
 Charge = -1 Multiplicity = 1

 SCF Done:  E(RHF) =  -479.339659261     A.U. after   15 cycles
 Normal termination of Gaussian 16 at Wed Apr  9 02:47:54 2025.
 Gaussian 16:  ES64L-G16RevC.01  3-Jul-2019

 ----------------------------------------------------------------------
 #t hf aug-cc-pvdz iop(5/13=1,5/36=2,99/5=2) pseudo=read geom=check gue
 ss=(read,tcheck) scf=(maxcycle=1)
 ----------------------------------------------------------------------
 -----
 title
 -----
 Structure from the checkpoint file:  "E2SN2_301_mol1.chk"
 Charge = -1 Multiplicity = 1

                         Standard orientation:
 ---------------------------------------------------------------------
 Center     Atomic      Atomic             Coordinates (Angstroms)
 Number     Number       Type             X           Y           Z
 ---------------------------------------------------------------------
      1          6           0       -0.189586   -0.300544    0.181061
      2          1           0        0.903312   -1.375060   -1.291228
      3          9           0        0.663704    0.475003    1.542015
      4          9           0       -1.193535   -0.942520   -1.239316
      5          6           0        1.121702   -0.783423   -0.405748
      6          1           0        1.548022   -1.426936    0.374615
      7          6           0       -0.731075    1.004685   -0.196671
      8          7           0       -1.210793    2.053447   -0.422159
      9          7           0       -0.912142   -1.168910    1.068957
     10          1           0       -1.798032   -1.346027    0.618296
     11          1           0       -1.024451   -0.668973    1.939624
     12          7           0        1.971733    0.351116   -0.765415
     13          1           0        2.858472    0.001407   -1.108795
     14          1           0        2.133322    0.849364    0.101662
 ---------------------------------------------------------------------

 SCF Done:  E(RHF) =  -479.483236383     A.U. after    2 cycles

 The electronic state is 1-A.
 Alpha  occ. eigenvalues --  -25.84550 -25.81398 -15.47770 -15.47527 -15.46806
 Alpha  occ. eigenvalues --  -11.26121 -11.14289 -11.12310  -1.35164  -1.31740
 Alpha  occ. eigenvalues --   -1.04623  -1.01007  -1.00501  -0.83028  -0.72561
 Alpha  occ. eigenvalues --   -0.57034  -0.55658  -0.54444  -0.48379  -0.46328
 Alpha  occ. eigenvalues --   -0.44679  -0.44382  -0.41654  -0.40675  -0.39488
 Alpha  occ. eigenvalues --   -0.39089  -0.37302  -0.36467  -0.30333  -0.28931
 Alpha  occ. eigenvalues --   -0.27342  -0.25335
 Alpha virt. eigenvalues --    0.12610   0.13856   0.15365   0.15467   0.17652
 Alpha virt. eigenvalues --    0.17970   0.20168   0.22462   0.24055   0.24608
 Alpha virt. eigenvalues --    0.25904   0.26057   0.27854   0.28137   0.28905

 Mulliken charges:
               1
     1  C    1.072007
     2  H   -0.040769
     3  F   -0.754734
     4  F   -0.806882
     5  C    1.034003
     6  H   -0.030728
     7  C   -0.445780
     8  N   -0.308459
     9  N   -0.557569
    10  H    0.086950
    11  H    0.067286
    12  N   -0.373902
    13  H   -0.033498
    14  H    0.092076
 Sum of Mulliken charges =  -1.00000

 Dipole moment (field-independent basis, Debye):
    X=              2.9269    Y=             -2.5313    Z=              1.5493  Tot=              4.1683

 Test job not archived.
 1\1\GINC-SE367\SP\RHF\Aug-CC-pVDZ\C3H6F2N3(1-)\OHZDE\09-Apr-2025\0\\#t
  hf aug-cc-pvdz iop(5/13=1,5/36=2,99/5=2) pseudo=read geom=check guess
 =(read,tcheck) scf=(maxcycle=1)\\title\\-1,1\C,0,0.67326184,-0.0115432
 9,0.01038046\H,0,1.73470807,1.82859564,0.07255516\F,0,-1.11029248,-0.0
 1683016,-0.01569704\F,0,2.51853463,-0.15732835,-0.09559824\C,0,0.69917
 878,1.50381808,0.00930354\H,0,0.16533724,1.78537832,0.92612497\C,0,0.6
 7364239,-0.75066021,-1.25184841\N,0,0.63532018,-1.41268397,-2.22196791
 \N,0,0.70267018,-0.70352046,1.26927218\H,0,1.54916264,-1.25363811,1.25

 Normal termination of Gaussian 16 at Wed Apr  9 02:47:59 2025.
