 Gaussian 16, Revision C.01,

 ----------------------------------------------------------------------
 #t hf aug-cc-pvdz symm=none int=(grid=ultrafine) guess=(read,tcheck) s
 table=(opt,rrhf)
 ----------------------------------------------------------------------
 -----
 title
 -----
 Symbolic Z-matrix:
 Charge = -1 Multiplicity = 1

 SCF Done:  E(RHF) =  -839.449548707     A.U. after   15 cycles
 Normal termination of Gaussian 16 at Wed Apr  9 02:47:58 2025.
 Gaussian 16:  ES64L-G16RevC.01  3-Jul-2019

 ----------------------------------------------------------------------
 #t hf aug-cc-pvdz iop(5/13=1,5/36=2,99/5=2) pseudo=read geom=check gue
 ss=(read,tcheck) scf=(maxcycle=1)
 ----------------------------------------------------------------------
 -----
 title
 -----
 Structure from the checkpoint file:  "E2SN2_302_mol2.chk"
 Charge = -1 Multiplicity = 1

                         Standard orientation:
 ---------------------------------------------------------------------
 Center     Atomic      Atomic             Coordinates (Angstroms)
 Number     Number       Type             X           Y           Z
 ---------------------------------------------------------------------
      1          6           0        0.336735   -0.095660    0.120456
      2          6           0       -0.165306   -1.170298   -0.873346
      3         17           0        2.170678   -0.266080    0.194017
      4          1           0        0.390258   -2.081082   -0.632068
      5          1           0        0.134022   -0.856625   -1.880322
      6          6           0        0.144272    1.265085   -0.433122
      7          7           0        0.062583    2.342678   -0.895424
      8          7           0       -0.218057   -0.302325    1.416400
      9          1           0        0.208933    0.366471    2.050986
     10          1           0       -1.233517    0.013453    1.279998
     11          7           0       -1.588975   -1.442851   -0.818770
     12          1           0       -1.737218   -2.046659   -0.018252
     13          1           0       -2.086211   -0.578131   -0.542786
     14          9           0       -2.473427    0.614296    0.627199
 ---------------------------------------------------------------------

 SCF Done:  E(RHF) =  -839.578261378     A.U. after    2 cycles

 The electronic state is 1-A.
 Alpha  occ. eigenvalues -- -103.53683 -25.77483 -15.51208 -15.47077 -15.45339
 Alpha  occ. eigenvalues --  -11.24655 -11.16370 -11.14722 -10.57021  -8.22725
 Alpha  occ. eigenvalues --   -8.22456  -8.22451  -1.26991  -1.10408  -1.03874
 Alpha  occ. eigenvalues --   -1.00711  -0.98375  -0.82802  -0.72540  -0.58761
 Alpha  occ. eigenvalues --   -0.55332  -0.51581  -0.49132  -0.43332  -0.42731
 Alpha  occ. eigenvalues --   -0.41500  -0.40442  -0.37959  -0.36360  -0.35608
 Alpha  occ. eigenvalues --   -0.34496  -0.33305  -0.32460  -0.31188  -0.27334
 Alpha  occ. eigenvalues --   -0.24831
 Alpha virt. eigenvalues --    0.13321   0.14268   0.15061   0.16069   0.18084
 Alpha virt. eigenvalues --    0.19483   0.19744   0.20617   0.21993   0.23725
 Alpha virt. eigenvalues --    0.24589   0.24971   0.25675   0.26339   0.27598

 Mulliken charges:
               1
     1  C    0.297883
     2  C    1.046785
     3  Cl  -0.207267
     4  H   -0.078585
     5  H   -0.157134
     6  C   -0.040866
     7  N   -0.320044
     8  N   -0.624303
     9  H    0.021330
    10  H    0.242822
    11  N   -0.456092
    12  H    0.046270
    13  H    0.150011
    14  F   -0.920810
 Sum of Mulliken charges =  -1.00000

 Dipole moment (field-independent basis, Debye):
    X=              6.0094    Y=             -3.2273    Z=              0.3594  Tot=              6.8306

 Test job not archived.
 1\1\GINC-SE462\SP\RHF\Aug-CC-pVDZ\C3H6Cl1F1N3(1-)\OHZDE\09-Apr-2025\0\
 \#t hf aug-cc-pvdz iop(5/13=1,5/36=2,99/5=2) pseudo=read geom=check gu
 ess=(read,tcheck) scf=(maxcycle=1)\\title\\-1,1\C,0,0.000339,0.016255,
 -0.058087\C,0,-0.2,0.385403,-1.547425\Cl,0,1.820448,-0.075419,0.21868\
 H,0,0.508429,-0.233872,-2.105119\H,0,0.103417,1.431339,-1.673693\C,0,-
 0.421126,1.130779,0.822436\N,0,-0.68405,2.036596,1.523841\N,0,-0.59548
 3,-1.243526,0.23843\H,0,-0.360115,-1.484259,1.197053\H,0,-1.640863,-1.
 005563,0.232563\N,0,-1.539549,0.170322,-2.060694\H,0,-1.621674,-0.8225

 Normal termination of Gaussian 16 at Wed Apr  9 02:48:03 2025.
