 Gaussian 16, Revision C.01,

 ----------------------------------------------------------------------
 #t hf aug-cc-pvdz symm=none int=(grid=ultrafine) guess=(read,tcheck) s
 table=(opt,rrhf)
 ----------------------------------------------------------------------
 -----
 title
 -----
 Symbolic Z-matrix:
 Charge = -1 Multiplicity = 1

 SCF Done:  E(RHF) =  -664.508739556     A.U. after   17 cycles
 Normal termination of Gaussian 16 at Wed Apr  9 02:41:20 2025.
 Gaussian 16:  ES64L-G16RevC.01  3-Jul-2019

 ----------------------------------------------------------------------
 #t hf aug-cc-pvdz iop(5/13=1,5/36=2,99/5=2) pseudo=read geom=check gue
 ss=(read,tcheck) scf=(maxcycle=1)
 ----------------------------------------------------------------------
 -----
 title
 -----
 Structure from the checkpoint file:  "E2SN2_225_mol1.chk"
 Charge = -1 Multiplicity = 1

                         Standard orientation:
 ---------------------------------------------------------------------
 Center     Atomic      Atomic             Coordinates (Angstroms)
 Number     Number       Type             X           Y           Z
 ---------------------------------------------------------------------
      1          6           0       -0.137260    0.071202    0.155202
      2          1           0        0.974864   -0.805741    1.761590
      3          9           0        0.321491   -0.250485   -1.495143
      4          9           0       -0.792319    0.373836    1.721646
      5          6           0        0.933391   -0.868987    0.675969
      6          1           0        0.613205   -1.871165    0.387155
      7          7           0       -1.486485   -0.481768   -0.213442
      8          8           0       -1.661182   -1.681399   -0.043804
      9          8           0       -2.310172    0.309291   -0.644991
     10          6           0        0.101462    1.487028   -0.040408
     11          7           0        0.327954    2.631954   -0.168559
     12          6           0        2.258531   -0.607061    0.120231
     13          7           0        3.370455   -0.428684   -0.209838
 ---------------------------------------------------------------------

 SCF Done:  E(RHF) =  -664.707085482     A.U. after    2 cycles

 The electronic state is 1-A.
 Alpha  occ. eigenvalues --  -25.90145 -25.89188 -20.50449 -20.50345 -15.81084
 Alpha  occ. eigenvalues --  -15.53309 -15.53157 -11.34906 -11.19255 -11.19117
 Alpha  occ. eigenvalues --  -11.18902  -1.44451  -1.40423  -1.39538  -1.25246
 Alpha  occ. eigenvalues --   -1.07898  -1.06813  -1.00738  -0.90519  -0.78792
 Alpha  occ. eigenvalues --   -0.69142  -0.64355  -0.63104  -0.61057  -0.58217
 Alpha  occ. eigenvalues --   -0.53995  -0.53164  -0.49328  -0.48538  -0.47397
 Alpha  occ. eigenvalues --   -0.46467  -0.44631  -0.43684  -0.42856  -0.40594
 Alpha  occ. eigenvalues --   -0.38310  -0.35914  -0.34952  -0.34481  -0.34089
 Alpha  occ. eigenvalues --   -0.34001
 Alpha virt. eigenvalues --    0.13239   0.14624   0.17590   0.18318   0.19437
 Alpha virt. eigenvalues --    0.20239   0.22379   0.22455   0.22778   0.23754
 Alpha virt. eigenvalues --    0.24590   0.24931   0.25047   0.25872   0.27243

 Mulliken charges:
               1
     1  C    1.645437
     2  H    0.102692
     3  F   -0.688863
     4  F   -0.704236
     5  C    0.289139
     6  H    0.256221
     7  N    0.451338
     8  O   -0.646313
     9  O   -0.644628
    10  C   -0.781464
    11  N   -0.153000
    12  C    0.217205
    13  N   -0.343527
 Sum of Mulliken charges =  -1.00000

 Dipole moment (field-independent basis, Debye):
    X=             -0.1404    Y=             -2.9794    Z=              2.1175  Tot=              3.6579

 Test job not archived.
 1\1\GINC-SE128\SP\RHF\Aug-CC-pVDZ\C4H2F2N3O2(1-)\OHZDE\09-Apr-2025\0\\
 #t hf aug-cc-pvdz iop(5/13=1,5/36=2,99/5=2) pseudo=read geom=check gue
 ss=(read,tcheck) scf=(maxcycle=1)\\title\\-1,1\C,0,0.67400923,-0.05807
 126,0.04730097\H,0,1.86012135,1.7124337,0.25891315\F,0,-1.0629738,0.06
 452151,-0.02642089\F,0,2.3755282,-0.32889057,-0.02967902\C,0,0.8164456
 7,1.45153517,0.09470102\H,0,0.5079701,1.80896833,-0.88885278\N,0,0.585
 63045,-0.74753665,-1.28645638\O,0,0.66291088,-0.04176336,-2.28361369\O
 ,0,0.45350577,-1.96115895,-1.27488586\C,0,0.57936625,-0.86673451,1.246

 Normal termination of Gaussian 16 at Wed Apr  9 02:41:27 2025.
