 Gaussian 16, Revision C.01,

 ----------------------------------------------------------------------
 #t hf aug-cc-pvdz symm=none int=(grid=ultrafine) guess=(read,tcheck) s
 table=(opt,rrhf)
 ----------------------------------------------------------------------
 -----
 title
 -----
 Symbolic Z-matrix:
 Charge = -1 Multiplicity = 1

 SCF Done:  E(RHF) =  -465.728466175     A.U. after   13 cycles
 Normal termination of Gaussian 16 at Wed Apr  9 02:52:20 2025.
 Gaussian 16:  ES64L-G16RevC.01  3-Jul-2019

 ----------------------------------------------------------------------
 #t hf aug-cc-pvdz iop(5/13=1,5/36=2,99/5=2) pseudo=read geom=check gue
 ss=(read,tcheck) scf=(maxcycle=1)
 ----------------------------------------------------------------------
 -----
 title
 -----
 Structure from the checkpoint file:  "E2SN2_353_mol2.chk"
 Charge = -1 Multiplicity = 1

                         Standard orientation:
 ---------------------------------------------------------------------
 Center     Atomic      Atomic             Coordinates (Angstroms)
 Number     Number       Type             X           Y           Z
 ---------------------------------------------------------------------
      1          6           0       -0.873742    0.046443   -0.002274
      2          6           0        0.281670   -1.000994    0.016189
      3          9           0       -2.089305   -0.708465   -0.044804
      4          1           0       -0.227900   -1.971682    0.036383
      5          6           0       -0.935643    0.896014    1.249399
      6          1           0       -0.028257    1.501156    1.273359
      7          1           0       -1.820067    1.539998    1.200058
      8          1           0       -0.980808    0.271441    2.140300
      9          6           0       -0.870152    0.933658   -1.228769
     10          1           0       -1.743165    1.594081   -1.195144
     11          1           0        0.052171    1.516725   -1.199091
     12          1           0       -0.895230    0.332461   -2.136392
     13          7           0        1.074075   -0.877748    1.245167
     14          1           0        1.746824   -1.639763    1.228857
     15          1           0        1.604199   -0.006018    1.072753
     16          7           0        1.064716   -0.924071   -1.222998
     17          1           0        1.600360   -0.051076   -1.083732
     18          1           0        1.734985   -1.687642   -1.185970
     19          9           0        1.908477    1.370945   -0.012288
 ---------------------------------------------------------------------

 SCF Done:  E(RHF) =  -465.873176063     A.U. after    2 cycles

 The electronic state is 1-A.
 Alpha  occ. eigenvalues --  -25.93932 -25.74945 -15.43511 -15.43373 -11.16447
 Alpha  occ. eigenvalues --  -11.13465 -11.06693 -11.06365  -1.46738  -1.23904
 Alpha  occ. eigenvalues --   -1.03553  -0.91979  -0.90389  -0.78164  -0.73300
 Alpha  occ. eigenvalues --   -0.63620  -0.56344  -0.55873  -0.55145  -0.48439
 Alpha  occ. eigenvalues --   -0.46665  -0.45004  -0.43961  -0.40347  -0.38282
 Alpha  occ. eigenvalues --   -0.37721  -0.37647  -0.34959  -0.33253  -0.33024
 Alpha  occ. eigenvalues --   -0.32741  -0.30232  -0.27296  -0.20942
 Alpha virt. eigenvalues --    0.13043   0.13579   0.14057   0.14774   0.15449
 Alpha virt. eigenvalues --    0.16161   0.17800   0.18562   0.19112   0.20188
 Alpha virt. eigenvalues --    0.20817   0.21912   0.25069   0.25922   0.25952

 Mulliken charges:
               1
     1  C   -1.308341
     2  C    1.034255
     3  F   -0.538460
     4  H   -0.088774
     5  C    0.582206
     6  H    0.179503
     7  H   -0.083497
     8  H    0.030070
     9  C    0.584399
    10  H   -0.088563
    11  H    0.190183
    12  H    0.040888
    13  N   -0.364054
    14  H   -0.103704
    15  H    0.216179
    16  N   -0.355800
    17  H    0.201155
    18  H   -0.103634
    19  F   -1.024010
 Sum of Mulliken charges =  -1.00000

 Dipole moment (field-independent basis, Debye):
    X=             -2.5375    Y=             -2.9291    Z=              0.1081  Tot=              3.8769

 Test job not archived.
 1\1\GINC-SE080\SP\RHF\Aug-CC-pVDZ\C4H11F2N2(1-)\OHZDE\09-Apr-2025\0\\#
 t hf aug-cc-pvdz iop(5/13=1,5/36=2,99/5=2) pseudo=read geom=check gues
 s=(read,tcheck) scf=(maxcycle=1)\\title\\-1,1\C,0,-0.012554,0.000959,0
 .020742\C,0,-0.538917,0.064137,-1.44602\F,0,1.415616,-0.024757,-0.0739
 \H,0,0.367415,0.113849,-2.061159\C,0,-0.369847,1.22218,0.84126\H,0,-1.
 45546,1.232163,0.948338\H,0,0.107684,1.144058,1.823714\H,0,-0.044463,2
 .133662,0.342099\C,0,-0.421707,-1.255253,0.759646\H,0,0.037227,-1.2509
 39,1.754032\H,0,-1.510159,-1.238684,0.840425\H,0,-0.107893,-2.141832,0

 Normal termination of Gaussian 16 at Wed Apr  9 02:52:29 2025.
