 Gaussian 16, Revision C.01,

 ----------------------------------------------------------------------
 #t hf aug-cc-pvdz symm=none int=(grid=ultrafine) guess=(read,tcheck) s
 table=(opt,rrhf)
 ----------------------------------------------------------------------
 -----
 title
 -----
 Symbolic Z-matrix:
 Charge = -1 Multiplicity = 1

 SCF Done:  E(RHF) =  -1275.21857468     A.U. after   18 cycles
 Normal termination of Gaussian 16 at Wed Apr  9 02:59:01 2025.
 Gaussian 16:  ES64L-G16RevC.01  3-Jul-2019

 ----------------------------------------------------------------------
 #t hf aug-cc-pvdz iop(5/13=1,5/36=2,99/5=2) pseudo=read geom=check gue
 ss=(read,tcheck) scf=(maxcycle=1)
 ----------------------------------------------------------------------
 -----
 title
 -----
 Structure from the checkpoint file:  "E2SN2_57_mol1.chk"
 Charge = -1 Multiplicity = 1

                         Standard orientation:
 ---------------------------------------------------------------------
 Center     Atomic      Atomic             Coordinates (Angstroms)
 Number     Number       Type             X           Y           Z
 ---------------------------------------------------------------------
      1          6           0        0.566178    0.041579    0.272696
      2          6           0       -0.428074   -0.224865   -0.699191
      3         17           0        2.618517   -0.022358   -0.657991
      4         17           0       -3.123991    0.106179    0.323168
      5          1           0       -1.522899   -0.085583    0.008734
      6          6           0        0.654832    1.399722    0.753349
      7          7           0        0.669765    2.514975    1.132759
      8          6           0       -0.552076   -1.647961   -1.191352
      9          1           0       -0.602224   -2.362219   -0.367550
     10          1           0       -1.465025   -1.736759   -1.782848
     11          1           0        0.312524   -1.868768   -1.824953
     12          7           0       -0.557308    0.742009   -1.752365
     13          1           0        0.027725    1.552974   -1.590742
     14          1           0       -1.524924    1.041633   -1.818342
     15          6           0        0.787580   -0.958431    1.285875
     16          7           0        0.915721   -1.775056    2.125240
 ---------------------------------------------------------------------

 SCF Done:  E(RHF) =  -1275.35067702     A.U. after    2 cycles

 The electronic state is 1-A.
 Alpha  occ. eigenvalues -- -103.49536-103.44781 -15.57108 -15.57065 -15.51162
 Alpha  occ. eigenvalues --  -11.30034 -11.22222 -11.22142 -11.17289 -11.12616
 Alpha  occ. eigenvalues --  -10.52653 -10.48042  -8.18303  -8.18117  -8.18115
 Alpha  occ. eigenvalues --   -8.13686  -8.13549  -8.13545  -1.12932  -1.09612
 Alpha  occ. eigenvalues --   -1.07794  -0.99451  -0.93619  -0.91699  -0.87891
 Alpha  occ. eigenvalues --   -0.73586  -0.70886  -0.60296  -0.55833  -0.50109
 Alpha  occ. eigenvalues --   -0.47746  -0.47217  -0.45513  -0.44288  -0.43380
 Alpha  occ. eigenvalues --   -0.41026  -0.38831  -0.38537  -0.37239  -0.33204
 Alpha  occ. eigenvalues --   -0.31183  -0.30991  -0.30696  -0.27850  -0.27752
 Alpha  occ. eigenvalues --   -0.20249
 Alpha virt. eigenvalues --    0.11591   0.12872   0.13884   0.15007   0.15532
 Alpha virt. eigenvalues --    0.16381   0.17375   0.18807   0.19650   0.20375
 Alpha virt. eigenvalues --    0.21835   0.21974   0.22616   0.23930   0.24078

 Mulliken charges:
               1
     1  C    1.486844
     2  C   -0.986851
     3  Cl  -0.460283
     4  Cl  -0.756202
     5  H    0.556075
     6  C   -0.452031
     7  N   -0.248693
     8  C    0.859625
     9  H   -0.021986
    10  H   -0.007195
    11  H    0.016223
    12  N   -0.293351
    13  H    0.032559
    14  H    0.015026
    15  C   -0.487875
    16  N   -0.251887
 Sum of Mulliken charges =  -1.00000

 Dipole moment (field-independent basis, Debye):
    X=              1.4718    Y=             -0.5776    Z=             -2.1426  Tot=              2.6628

 Test job not archived.
 1\1\GINC-SE419\SP\RHF\Aug-CC-pVDZ\C5H6Cl2N3(1-)\OHZDE\09-Apr-2025\0\\#
 t hf aug-cc-pvdz iop(5/13=1,5/36=2,99/5=2) pseudo=read geom=check gues
 s=(read,tcheck) scf=(maxcycle=1)\\title\\-1,1\C,0,-0.29906297,-0.04316
 304,-0.3057256\C,0,-0.14673534,0.06243518,1.09774901\Cl,0,1.71425353,-
 0.17242271,-1.31181221\Cl,0,-2.67461083,-0.04611072,2.51931056\H,0,-1.
 39717556,0.06498243,1.49220172\C,0,-0.80640716,-1.29693142,-0.80981437
 \N,0,-1.24786896,-2.32834784,-1.16933706\C,0,0.35649909,1.37861681,1.6
 4292982\H,0,-0.19958194,2.22704631,1.24010134\H,0,0.24439009,1.3749895

 Normal termination of Gaussian 16 at Wed Apr  9 02:59:10 2025.
