 Gaussian 16, Revision C.01,

 ----------------------------------------------------------------------
 #t hf aug-cc-pvdz symm=none int=(grid=ultrafine) guess=(read,tcheck) s
 table=(opt,rrhf)
 ----------------------------------------------------------------------
 -----
 title
 -----
 Symbolic Z-matrix:
 Charge = -1 Multiplicity = 1

 SCF Done:  E(RHF) =  -987.976300877     A.U. after   16 cycles
 Normal termination of Gaussian 16 at Wed Apr  9 02:54:35 2025.
 Gaussian 16:  ES64L-G16RevC.01  3-Jul-2019

 ----------------------------------------------------------------------
 #t hf aug-cc-pvdz iop(5/13=1,5/36=2,99/5=2) pseudo=read geom=check gue
 ss=(read,tcheck) scf=(maxcycle=1)
 ----------------------------------------------------------------------
 -----
 title
 -----
 Structure from the checkpoint file:  "E2SN2_375_mol2.chk"
 Charge = -1 Multiplicity = 1

                         Standard orientation:
 ---------------------------------------------------------------------
 Center     Atomic      Atomic             Coordinates (Angstroms)
 Number     Number       Type             X           Y           Z
 ---------------------------------------------------------------------
      1          6           0       -0.126956   -0.373477    0.465516
      2          6           0       -0.031895    0.930261   -0.330006
      3          9           0       -0.540907   -0.119535    1.739358
      4          1           0        0.364468    0.658736   -1.310985
      5          1           0        0.849706   -0.866340    0.461627
      6          7           0       -1.127673   -1.298952   -0.171995
      7          8           0       -2.040763   -1.747352    0.511017
      8          8           0       -0.927596   -1.532705   -1.361385
      9          7           0        0.862110    1.902744    0.267722
     10          1           0        1.798628    1.497155    0.196958
     11          1           0        0.634977    1.994622    1.251607
     12          6           0       -1.377566    1.507332   -0.496530
     13          7           0       -2.455905    1.957686   -0.607694
     14         17           0        3.131532   -0.369585   -0.217682
 ---------------------------------------------------------------------

 SCF Done:  E(RHF) =  -988.151342157     A.U. after    2 cycles

 The electronic state is 1-A.
 Alpha  occ. eigenvalues -- -103.39813 -26.05209 -20.53491 -20.52984 -15.82423
 Alpha  occ. eigenvalues --  -15.55360 -15.51614 -11.29864 -11.23070 -11.20095
 Alpha  occ. eigenvalues --  -10.42918  -8.08516  -8.08492  -8.08475  -1.59371
 Alpha  occ. eigenvalues --   -1.45486  -1.27543  -1.11252  -1.07179  -0.99366
 Alpha  occ. eigenvalues --   -0.86101  -0.85194  -0.78726  -0.71595  -0.70874
 Alpha  occ. eigenvalues --   -0.68371  -0.63877  -0.62963  -0.62511  -0.57432
 Alpha  occ. eigenvalues --   -0.52845  -0.49834  -0.48421  -0.45156  -0.43036
 Alpha  occ. eigenvalues --   -0.41928  -0.38415  -0.36750  -0.36458  -0.31650
 Alpha  occ. eigenvalues --   -0.23270  -0.23101  -0.22928
 Alpha virt. eigenvalues --    0.13360   0.14302   0.15625   0.16727   0.17319
 Alpha virt. eigenvalues --    0.18622   0.20917   0.21046   0.21748   0.22181
 Alpha virt. eigenvalues --    0.23988   0.24976   0.25389   0.25859   0.26908

 Mulliken charges:
               1
     1  C    1.336172
     2  C    0.661186
     3  F   -0.347852
     4  H   -0.005084
     5  H   -0.124231
     6  N    0.367094
     7  O   -0.575762
     8  O   -0.587247
     9  N   -0.413438
    10  H    0.098380
    11  H    0.034436
    12  C   -0.293439
    13  N   -0.232530
    14  Cl  -0.917687
 Sum of Mulliken charges =  -1.00000

 Dipole moment (field-independent basis, Debye):
    X=             -4.9027    Y=              0.7260    Z=              1.7781  Tot=              5.2655

 Test job not archived.
 1\1\GINC-SE462\SP\RHF\Aug-CC-pVDZ\C3H4Cl1F1N3O2(1-)\OHZDE\09-Apr-2025\
 0\\#t hf aug-cc-pvdz iop(5/13=1,5/36=2,99/5=2) pseudo=read geom=check
 guess=(read,tcheck) scf=(maxcycle=1)\\title\\-1,1\C,0,-0.329396,0.0744
 75,0.071171\C,0,-0.592232,0.049834,-1.436123\F,0,0.712273,-0.748314,0.
 381749\H,0,-1.472816,0.67485,-1.600672\H,0,-1.239154,-0.229151,0.59743
 \N,0,0.031409,1.467061,0.512627\O,0,1.072849,1.641699,1.134082\O,0,-0.
 783421,2.332581,0.202393\N,0,-0.875297,-1.277189,-1.947134\H,0,-1.7703
 75,-1.547857,-1.532225\H,0,-0.166629,-1.917156,-1.606115\C,0,0.556227,

 Normal termination of Gaussian 16 at Wed Apr  9 02:54:42 2025.
