 Gaussian 16, Revision C.01,

 ----------------------------------------------------------------------
 #t hf aug-cc-pvdz symm=none int=(grid=ultrafine) guess=(read,tcheck) s
 table=(opt,rrhf)
 ----------------------------------------------------------------------
 -----
 title
 -----
 Symbolic Z-matrix:
 Charge = -1 Multiplicity = 1

 SCF Done:  E(RHF) =  -419.478281530     A.U. after   15 cycles
 Normal termination of Gaussian 16 at Wed Apr  9 02:49:09 2025.
 Gaussian 16:  ES64L-G16RevC.01  3-Jul-2019

 ----------------------------------------------------------------------
 #t hf aug-cc-pvdz iop(5/13=1,5/36=2,99/5=2) pseudo=read geom=check gue
 ss=(read,tcheck) scf=(maxcycle=1)
 ----------------------------------------------------------------------
 -----
 title
 -----
 Structure from the checkpoint file:  "E2SN2_317_mol2.chk"
 Charge = -1 Multiplicity = 1

                         Standard orientation:
 ---------------------------------------------------------------------
 Center     Atomic      Atomic             Coordinates (Angstroms)
 Number     Number       Type             X           Y           Z
 ---------------------------------------------------------------------
      1          6           0        0.439635    0.284604    0.372466
      2          6           0       -1.083027    0.101020    0.195483
      3          9           0        0.808121   -0.346191    1.607104
      4          1           0       -1.515561    0.748154    0.967635
      5          6           0        1.160789   -0.528265   -0.647044
      6          7           0        1.712696   -1.148188   -1.479720
      7          7           0        0.806057    1.628580    0.386205
      8          1           0        0.116226    2.305488   -0.057014
      9          1           0        1.739009    1.799110    0.037311
     10          6           0       -1.505169   -1.341783    0.440340
     11          1           0       -1.176611   -1.704930    1.414901
     12          1           0       -1.088830   -1.997192   -0.332377
     13          1           0       -2.593291   -1.397782    0.373451
     14          7           0       -1.583331    0.562214   -1.084970
     15          1           0       -1.056402    0.124954   -1.835121
     16          1           0       -1.442926    1.584230   -1.147249
     17          1           0       -0.876027    3.261994   -0.803558
 ---------------------------------------------------------------------

 SCF Done:  E(RHF) =  -419.608864308     A.U. after    2 cycles

 The electronic state is 1-A.
 Alpha  occ. eigenvalues --  -25.98722 -15.54055 -15.47623 -15.46473 -11.27080
 Alpha  occ. eigenvalues --  -11.18629 -11.15540 -11.11410  -1.51637  -1.09380
 Alpha  occ. eigenvalues --   -1.05784  -1.01091  -0.88190  -0.82068  -0.72379
 Alpha  occ. eigenvalues --   -0.65507  -0.61562  -0.59749  -0.55169  -0.53127
 Alpha  occ. eigenvalues --   -0.50402  -0.47748  -0.46204  -0.44444  -0.40545
 Alpha  occ. eigenvalues --   -0.39828  -0.37478  -0.36762  -0.35427  -0.28225
 Alpha  occ. eigenvalues --   -0.26109  -0.10709
 Alpha virt. eigenvalues --    0.12298   0.13825   0.14352   0.14729   0.16482
 Alpha virt. eigenvalues --    0.16804   0.18137   0.19979   0.20296   0.21770
 Alpha virt. eigenvalues --    0.22380   0.23151   0.23307   0.23949   0.25026

 Mulliken charges:
               1
     1  C    1.472249
     2  C   -0.104326
     3  F   -0.506229
     4  H   -0.127674
     5  C   -0.452936
     6  N   -0.239111
     7  N   -0.560778
     8  H    0.012313
     9  H    0.015995
    10  C    0.671021
    11  H   -0.014737
    12  H   -0.094459
    13  H   -0.026527
    14  N   -0.390828
    15  H    0.004916
    16  H    0.040421
    17  H   -0.699309
 Sum of Mulliken charges =  -1.00000

 Dipole moment (field-independent basis, Debye):
    X=              1.6437    Y=             -8.5691    Z=              2.5804  Tot=              9.0989

 Test job not archived.
 1\1\GINC-SE462\SP\RHF\Aug-CC-pVDZ\C4H9F1N3(1-)\OHZDE\09-Apr-2025\0\\#t
  hf aug-cc-pvdz iop(5/13=1,5/36=2,99/5=2) pseudo=read geom=check guess
 =(read,tcheck) scf=(maxcycle=1)\\title\\-1,1\C,0,-0.092623,0.228887,0.
 014406\C,0,-0.475983,0.1369,-1.478276\F,0,1.339287,0.275384,0.088482\H
 ,0,-0.158869,-0.871961,-1.767627\C,0,-0.498956,1.557981,0.551641\N,0,-
 0.857074,2.597701,0.967562\N,0,-0.5814,-0.85042,0.747155\H,0,-1.399973
 ,-1.375001,0.316728\H,0,-0.774437,-0.630905,1.7145\C,0,0.271783,1.1684
 24,-2.312928\H,0,1.352024,1.097744,-2.179962\H,0,-0.045545,2.181116,-2

 Normal termination of Gaussian 16 at Wed Apr  9 02:49:16 2025.
