 Gaussian 16, Revision C.01,

 ----------------------------------------------------------------------
 #t hf aug-cc-pvdz symm=none int=(grid=ultrafine) guess=(read,tcheck) s
 table=(opt,rrhf)
 ----------------------------------------------------------------------
 -----
 title
 -----
 Symbolic Z-matrix:
 Charge = -1 Multiplicity = 1

 SCF Done:  E(RHF) =  -515.191776541     A.U. after   17 cycles
 Normal termination of Gaussian 16 at Wed Apr  9 02:55:44 2025.
 Gaussian 16:  ES64L-G16RevC.01  3-Jul-2019

 ----------------------------------------------------------------------
 #t hf aug-cc-pvdz iop(5/13=1,5/36=2,99/5=2) pseudo=read geom=check gue
 ss=(read,tcheck) scf=(maxcycle=1)
 ----------------------------------------------------------------------
 -----
 title
 -----
 Structure from the checkpoint file:  "E2SN2_380_mol1.chk"
 Charge = -1 Multiplicity = 1

                         Standard orientation:
 ---------------------------------------------------------------------
 Center     Atomic      Atomic             Coordinates (Angstroms)
 Number     Number       Type             X           Y           Z
 ---------------------------------------------------------------------
      1          6           0        0.141020   -0.403757   -0.262978
      2          1           0       -1.492230   -0.184317   -1.525604
      3          9           0        0.065893   -0.840708    1.286804
      4          1           0        0.517509    0.366902   -1.888056
      5          6           0       -1.296001    0.094790   -0.490067
      6          7           0        0.431342   -1.702810   -0.788172
      7          1           0        1.027493   -2.152344   -0.103185
      8          1           0        0.952471   -1.572322   -1.641452
      9          7           0        1.315520    0.484431   -0.000638
     10          8           0        1.123401    1.610751    0.464877
     11          8           0        2.434737   -0.032785   -0.095802
     12          6           0       -1.521879    1.595740   -0.379084
     13          1           0       -1.363927    1.948077    0.640659
     14          1           0       -0.837634    2.130300   -1.037648
     15          1           0       -2.554531    1.817367   -0.676170
     16          6           0       -2.301219   -0.670341    0.377208
     17          1           0       -2.114836   -1.743405    0.316439
     18          1           0       -2.237180   -0.370685    1.423210
     19          1           0       -3.314843   -0.466871    0.009165
 ---------------------------------------------------------------------

 SCF Done:  E(RHF) =  -515.351014383     A.U. after    2 cycles

 The electronic state is 1-A.
 Alpha  occ. eigenvalues --  -25.89249 -20.43755 -20.43582 -15.74599 -15.47422
 Alpha  occ. eigenvalues --  -11.26728 -11.10657 -11.08784 -11.08103  -1.41070
 Alpha  occ. eigenvalues --   -1.35814  -1.17849  -1.04218  -0.92787  -0.85323
 Alpha  occ. eigenvalues --   -0.78829  -0.71176  -0.64099  -0.59577  -0.57102
 Alpha  occ. eigenvalues --   -0.56456  -0.53603  -0.51777  -0.47664  -0.46187
 Alpha  occ. eigenvalues --   -0.45754  -0.44188  -0.42102  -0.39861  -0.37452
 Alpha  occ. eigenvalues --   -0.35636  -0.34047  -0.33721  -0.33041  -0.30568
 Alpha  occ. eigenvalues --   -0.27870  -0.12631
 Alpha virt. eigenvalues --    0.12365   0.13408   0.14337   0.14689   0.16059
 Alpha virt. eigenvalues --    0.16492   0.16766   0.17633   0.17968   0.20015
 Alpha virt. eigenvalues --    0.23078   0.23713   0.24240   0.25010   0.25892

 Mulliken charges:
               1
     1  C    0.760839
     2  H   -0.136719
     3  F   -0.615606
     4  H   -0.232693
     5  C   -0.887069
     6  N   -0.274551
     7  H    0.040085
     8  H    0.071586
     9  N    0.423017
    10  O   -0.687789
    11  O   -0.723190
    12  C    0.856314
    13  H    0.037087
    14  H   -0.035573
    15  H   -0.057269
    16  C    0.569221
    17  H   -0.043938
    18  H    0.007637
    19  H   -0.071389
 Sum of Mulliken charges =  -1.00000

 Dipole moment (field-independent basis, Debye):
    X=             -3.7682    Y=             -1.6021    Z=              0.5932  Tot=              4.1374

 Test job not archived.
 1\1\GINC-SE129\SP\RHF\Aug-CC-pVDZ\C4H10F1N2O2(1-)\OHZDE\09-Apr-2025\0\
 \#t hf aug-cc-pvdz iop(5/13=1,5/36=2,99/5=2) pseudo=read geom=check gu
 ess=(read,tcheck) scf=(maxcycle=1)\\title\\-1,1\C,0,0.49138177,-0.0741
 1487,-0.07364442\H,0,1.54940665,1.67229344,-0.44851128\F,0,-1.04036921
 ,-0.34236097,-0.49811654\H,0,2.1207365,0.03914955,0.7683247\C,0,0.5340
 7949,1.46274334,-0.11095766\N,0,1.09198671,-0.73323577,-1.19279013\H,0
 ,0.49634775,-1.52619374,-1.40043289\H,0,1.99436111,-1.06992474,-0.8943
 7751\N,0,0.33456829,-0.88837968,1.17115769\O,0,-0.18940721,-0.37353169

 Normal termination of Gaussian 16 at Wed Apr  9 02:55:53 2025.
