 Gaussian 16, Revision C.01,

 ----------------------------------------------------------------------
 #t hf aug-cc-pvdz symm=none int=(grid=ultrafine) guess=(read,tcheck) s
 table=(opt,rrhf)
 ----------------------------------------------------------------------
 -----
 title
 -----
 Symbolic Z-matrix:
 Charge = -1 Multiplicity = 1

 SCF Done:  E(RHF) =  -784.403571536     A.U. after   15 cycles
 Normal termination of Gaussian 16 at Wed Apr  9 02:37:30 2025.
 Gaussian 16:  ES64L-G16RevC.01  3-Jul-2019

 ----------------------------------------------------------------------
 #t hf aug-cc-pvdz iop(5/13=1,5/36=2,99/5=2) pseudo=read geom=check gue
 ss=(read,tcheck) scf=(maxcycle=1)
 ----------------------------------------------------------------------
 -----
 title
 -----
 Structure from the checkpoint file:  "E2SN2_193_mol1.chk"
 Charge = -1 Multiplicity = 1

                         Standard orientation:
 ---------------------------------------------------------------------
 Center     Atomic      Atomic             Coordinates (Angstroms)
 Number     Number       Type             X           Y           Z
 ---------------------------------------------------------------------
      1          6           0        0.320289    0.513037   -0.147584
      2          1           0       -1.122667    0.782304    1.349391
      3         17           0        1.764223   -1.151772   -0.186768
      4          9           0       -1.055158    1.922508   -0.507944
      5          6           0       -0.662346   -0.064926    0.843656
      6          1           0        0.168984    0.368188   -1.201952
      7          1           0       -0.151080   -0.701043    1.566793
      8          7           0        1.181824    1.512918    0.387656
      9          1           0        0.652891    2.356908    0.178902
     10          1           0        2.050108    1.506342   -0.130409
     11          6           0       -1.717354   -0.833301    0.191121
     12          7           0       -2.572843   -1.473490   -0.293275
 ---------------------------------------------------------------------

 SCF Done:  E(RHF) =  -784.514779744     A.U. after    2 cycles

 The electronic state is 1-A.
 Alpha  occ. eigenvalues -- -103.43846 -25.79667 -15.50787 -15.48781 -11.24256
 Alpha  occ. eigenvalues --  -11.16480 -11.15105 -10.47156  -8.12795  -8.12662
 Alpha  occ. eigenvalues --   -8.12650  -1.29427  -1.06065  -1.04527  -0.92459
 Alpha  occ. eigenvalues --   -0.89322  -0.71158  -0.59767  -0.54819  -0.50083
 Alpha  occ. eigenvalues --   -0.48725  -0.47628  -0.41392  -0.39166  -0.38349
 Alpha  occ. eigenvalues --   -0.37980  -0.32784  -0.32020  -0.29338  -0.26871
 Alpha  occ. eigenvalues --   -0.26616  -0.26311
 Alpha virt. eigenvalues --    0.13660   0.14484   0.15721   0.16574   0.17649
 Alpha virt. eigenvalues --    0.19010   0.21334   0.22694   0.23792   0.25255
 Alpha virt. eigenvalues --    0.25903   0.26710   0.27558   0.28094   0.29654

 Mulliken charges:
               1
     1  C    0.381254
     2  H    0.142229
     3  Cl  -0.621858
     4  F   -0.862428
     5  C    0.715009
     6  H   -0.184120
     7  H    0.063077
     8  N   -0.431692
     9  H    0.145073
    10  H    0.048567
    11  C   -0.095918
    12  N   -0.299191
 Sum of Mulliken charges =  -1.00000

 Dipole moment (field-independent basis, Debye):
    X=              2.1843    Y=              0.9745    Z=              2.1851  Tot=              3.2397

 Test job not archived.
 1\1\GINC-SE367\SP\RHF\Aug-CC-pVDZ\C3H5Cl1F1N2(1-)\OHZDE\09-Apr-2025\0\
 \#t hf aug-cc-pvdz iop(5/13=1,5/36=2,99/5=2) pseudo=read geom=check gu
 ess=(read,tcheck) scf=(maxcycle=1)\\title\\-1,1\C,0,0.45500382,-0.0737
 2937,0.07181033\H,0,1.50913316,1.68885449,0.49331845\Cl,0,-1.72590402,
 -0.29421953,0.302229\F,0,2.37096398,-0.04554955,-0.5083834\C,0,0.53131
 207,1.43494751,0.08729022\H,0,0.38000352,-0.59905229,-0.86305699\H,0,-
 0.25587594,1.85413854,0.71464884\N,0,0.84930173,-0.69868261,1.28936934
 \H,0,1.83787237,-0.86284195,1.11202934\H,0,0.35839898,-1.57816052,1.37

 Normal termination of Gaussian 16 at Wed Apr  9 02:37:35 2025.
