 Gaussian 16, Revision C.01,

 ----------------------------------------------------------------------
 #t hf aug-cc-pvdz symm=none int=(grid=ultrafine) guess=(read,tcheck) s
 table=(opt,rrhf)
 ----------------------------------------------------------------------
 -----
 title
 -----
 Symbolic Z-matrix:
 Charge = -1 Multiplicity = 1

 SCF Done:  E(RHF) =  -739.643322076     A.U. after   16 cycles
 Normal termination of Gaussian 16 at Wed Apr  9 02:42:30 2025.
 Gaussian 16:  ES64L-G16RevC.01  3-Jul-2019

 ----------------------------------------------------------------------
 #t hf aug-cc-pvdz iop(5/13=1,5/36=2,99/5=2) pseudo=read geom=check gue
 ss=(read,tcheck) scf=(maxcycle=1)
 ----------------------------------------------------------------------
 -----
 title
 -----
 Structure from the checkpoint file:  "E2SN2_241_mol2.chk"
 Charge = -1 Multiplicity = 1

                         Standard orientation:
 ---------------------------------------------------------------------
 Center     Atomic      Atomic             Coordinates (Angstroms)
 Number     Number       Type             X           Y           Z
 ---------------------------------------------------------------------
      1          6           0        0.416709   -0.036764    0.415638
      2          6           0       -0.637735   -0.024287   -0.669694
      3          9           0        0.240487   -1.135994    1.270538
      4          1           0       -0.440054   -0.784896   -1.415557
      5          1           0       -0.642044    1.016735   -1.063539
      6          7           0        1.793269   -0.517294   -0.264418
      7          8           0        2.820280   -0.062763    0.233566
      8          8           0        1.764220   -1.342181   -1.174169
      9          7           0        0.541956    1.143631    1.069813
     10          1           0        0.332542    1.940540    0.373667
     11          1           0        1.421614    1.210553    1.562500
     12          7           0       -1.978634   -0.338636   -0.115848
     13          8           0       -2.626334   -1.216947   -0.694252
     14          8           0       -2.386654    0.304858    0.845205
     15          9           0       -0.064279    2.636630   -0.875246
 ---------------------------------------------------------------------

 SCF Done:  E(RHF) =  -739.871711599     A.U. after    2 cycles

 The electronic state is 1-A.
 Alpha  occ. eigenvalues --  -26.02369 -25.79507 -20.51391 -20.51381 -20.50234
 Alpha  occ. eigenvalues --  -20.50041 -15.79721 -15.79311 -15.48316 -11.32389
 Alpha  occ. eigenvalues --  -11.18056  -1.55977  -1.42930  -1.42451  -1.29005
 Alpha  occ. eigenvalues --   -1.25175  -1.24077  -1.09611  -0.97340  -0.88054
 Alpha  occ. eigenvalues --   -0.76764  -0.73445  -0.69415  -0.67085  -0.64900
 Alpha  occ. eigenvalues --   -0.62955  -0.62567  -0.62059  -0.59633  -0.58211
 Alpha  occ. eigenvalues --   -0.57707  -0.52912  -0.48668  -0.46216  -0.42310
 Alpha  occ. eigenvalues --   -0.41084  -0.39106  -0.38927  -0.38630  -0.36778
 Alpha  occ. eigenvalues --   -0.36439  -0.35937  -0.35549  -0.29110
 Alpha virt. eigenvalues --    0.13965   0.14531   0.16810   0.18547   0.19142
 Alpha virt. eigenvalues --    0.19223   0.19808   0.20798   0.22551   0.24089
 Alpha virt. eigenvalues --    0.25312   0.25727   0.26243   0.26959   0.27929

 Mulliken charges:
               1
     1  C    1.352487
     2  C    0.986758
     3  F   -0.435658
     4  H   -0.091014
     5  H   -0.041682
     6  N    0.366295
     7  O   -0.615094
     8  O   -0.629743
     9  N   -0.491586
    10  H    0.231056
    11  H    0.066734
    12  N    0.432764
    13  O   -0.633192
    14  O   -0.585877
    15  F   -0.912248
 Sum of Mulliken charges =  -1.00000

 Dipole moment (field-independent basis, Debye):
    X=              1.3533    Y=             -4.0671    Z=              1.2702  Tot=              4.4706

 Test job not archived.
 1\1\GINC-SE454\SP\RHF\Aug-CC-pVDZ\C2H4F2N3O4(1-)\OHZDE\09-Apr-2025\0\\
 #t hf aug-cc-pvdz iop(5/13=1,5/36=2,99/5=2) pseudo=read geom=check gue
 ss=(read,tcheck) scf=(maxcycle=1)\\title\\-1,1\C,0,-0.039965,0.045409,
 0.003047\C,0,-0.687954,0.195678,-1.356175\F,0,1.352079,-0.086829,-0.11
 9193\H,0,-0.512578,1.183271,-1.76583\H,0,-1.761273,-0.053892,-1.199459
 \N,0,-0.053516,1.495781,0.699137\O,0,-0.128804,1.497211,1.925378\O,0,0
 .077563,2.50174,0.006465\N,0,-0.608982,-0.910455,0.777325\H,0,-1.66276
 9,-0.947552,0.54996\H,0,-0.373937,-0.794937,1.753249\N,0,-0.106286,-0.

 Normal termination of Gaussian 16 at Wed Apr  9 02:42:38 2025.
