 Gaussian 16, Revision C.01,

 ----------------------------------------------------------------------
 #t hf aug-cc-pvdz symm=none int=(grid=ultrafine) guess=(read,tcheck) s
 table=(opt,rrhf)
 ----------------------------------------------------------------------
 -----
 title
 -----
 Symbolic Z-matrix:
 Charge = -1 Multiplicity = 1

 SCF Done:  E(RHF) =  -666.907925005     A.U. after   16 cycles
 Normal termination of Gaussian 16 at Wed Apr  9 02:56:56 2025.
 Gaussian 16:  ES64L-G16RevC.01  3-Jul-2019

 ----------------------------------------------------------------------
 #t hf aug-cc-pvdz iop(5/13=1,5/36=2,99/5=2) pseudo=read geom=check gue
 ss=(read,tcheck) scf=(maxcycle=1)
 ----------------------------------------------------------------------
 -----
 title
 -----
 Structure from the checkpoint file:  "E2SN2_402_mol2.chk"
 Charge = -1 Multiplicity = 1

                         Standard orientation:
 ---------------------------------------------------------------------
 Center     Atomic      Atomic             Coordinates (Angstroms)
 Number     Number       Type             X           Y           Z
 ---------------------------------------------------------------------
      1          6           0        0.795029    0.278062    0.645326
      2          6           0       -0.257423    0.064833   -0.457797
      3          9           0        0.186194    0.818446    1.784875
      4          1           0        0.347198   -0.442962   -1.264850
      5          7           0        1.303550   -1.021215    0.960624
      6          1           0        2.108377   -0.900731    1.567706
      7          1           0        1.639005   -1.367448    0.038445
      8          6           0        1.835765    1.269385    0.157321
      9          1           0        1.403925    2.251101   -0.051473
     10          1           0        2.273861    0.824565   -0.737884
     11          1           0        2.596462    1.380498    0.936226
     12          6           0       -0.891291    1.304025   -0.873338
     13          7           0       -1.368192    2.309685   -1.249667
     14          7           0       -1.321067   -0.873423    0.029357
     15          8           0       -2.208922   -0.404487    0.742097
     16          8           0       -1.230654   -2.048695   -0.309120
     17          9           0        1.808836   -1.098749   -1.669681
 ---------------------------------------------------------------------

 SCF Done:  E(RHF) =  -667.110898755     A.U. after    2 cycles

 The electronic state is 1-A.
 Alpha  occ. eigenvalues --  -25.98937 -25.78485 -20.50115 -20.49746 -15.79538
 Alpha  occ. eigenvalues --  -15.54226 -15.47794 -11.25563 -11.20738 -11.19434
 Alpha  occ. eigenvalues --  -11.11446  -1.52516  -1.42295  -1.27712  -1.24031
 Alpha  occ. eigenvalues --   -1.08985  -1.06427  -0.97542  -0.88136  -0.77229
 Alpha  occ. eigenvalues --   -0.73855  -0.66792  -0.65707  -0.62859  -0.61437
 Alpha  occ. eigenvalues --   -0.60001  -0.58022  -0.52371  -0.50128  -0.48035
 Alpha  occ. eigenvalues --   -0.46645  -0.45113  -0.43716  -0.41890  -0.40072
 Alpha  occ. eigenvalues --   -0.39201  -0.37345  -0.36963  -0.36660  -0.35440
 Alpha  occ. eigenvalues --   -0.34360  -0.32900  -0.27996
 Alpha virt. eigenvalues --    0.12235   0.13838   0.15516   0.15908   0.16673
 Alpha virt. eigenvalues --    0.18699   0.19061   0.19501   0.20063   0.21721
 Alpha virt. eigenvalues --    0.23472   0.24295   0.24693   0.25229   0.25738

 Mulliken charges:
               1
     1  C   -0.254330
     2  C    1.911414
     3  F   -0.491064
     4  H   -0.070641
     5  N   -0.460756
     6  H   -0.034411
     7  H    0.248017
     8  C    0.646303
     9  H   -0.018111
    10  H    0.141027
    11  H   -0.032778
    12  C   -0.307374
    13  N   -0.289671
    14  N    0.130039
    15  O   -0.589855
    16  O   -0.559051
    17  F   -0.968759
 Sum of Mulliken charges =  -1.00000

 Dipole moment (field-independent basis, Debye):
    X=              0.8851    Y=              2.5419    Z=              3.1547  Tot=              4.1469

 Test job not archived.
 1\1\GINC-SE340\SP\RHF\Aug-CC-pVDZ\C4H6F2N3O2(1-)\OHZDE\09-Apr-2025\0\\
 #t hf aug-cc-pvdz iop(5/13=1,5/36=2,99/5=2) pseudo=read geom=check gue
 ss=(read,tcheck) scf=(maxcycle=1)\\title\\-1,1\C,0,-0.008234,-0.000981
 ,0.011322\C,0,-0.576106,0.006014,-1.419578\F,0,1.388961,0.084329,-0.03
 1527\H,0,-1.689206,0.018988,-1.230907\N,0,-0.527253,1.170887,0.646515\
 H,0,-0.302423,1.113704,1.634945\H,0,-1.555731,1.055347,0.538319\C,0,-0
 .375727,-1.309181,0.687758\H,0,0.058967,-2.172761,0.178723\H,0,-1.4664
 15,-1.348982,0.686219\H,0,0.000926,-1.282664,1.714952\C,0,-0.1149,-1.1

 Normal termination of Gaussian 16 at Wed Apr  9 02:57:05 2025.
