 Gaussian 16, Revision C.01,

 ----------------------------------------------------------------------
 #t hf aug-cc-pvdz symm=none int=(grid=ultrafine) guess=(read,tcheck) s
 table=(opt,rrhf)
 ----------------------------------------------------------------------
 -----
 title
 -----
 Symbolic Z-matrix:
 Charge = -1 Multiplicity = 1

 SCF Done:  E(RHF) =  -935.288974210     A.U. after   15 cycles
 Normal termination of Gaussian 16 at Wed Apr  9 02:42:28 2025.
 Gaussian 16:  ES64L-G16RevC.01  3-Jul-2019

 ----------------------------------------------------------------------
 #t hf aug-cc-pvdz iop(5/13=1,5/36=2,99/5=2) pseudo=read geom=check gue
 ss=(read,tcheck) scf=(maxcycle=1)
 ----------------------------------------------------------------------
 -----
 title
 -----
 Structure from the checkpoint file:  "E2SN2_244_mol2.chk"
 Charge = -1 Multiplicity = 1

                         Standard orientation:
 ---------------------------------------------------------------------
 Center     Atomic      Atomic             Coordinates (Angstroms)
 Number     Number       Type             X           Y           Z
 ---------------------------------------------------------------------
      1          6           0        0.672943    0.340694   -0.319296
      2          6           0        0.003381    1.125489    0.776988
      3          9           0        1.721673    1.086491   -0.877012
      4          1           0       -0.671302    0.447417    1.305470
      5          1           0        0.781329    1.457587    1.465468
      6          7           0        1.524087   -0.825996    0.310692
      7          8           0        1.997541   -0.666840    1.432072
      8          8           0        1.718657   -1.808995   -0.401066
      9          7           0       -0.181486   -0.104317   -1.301865
     10          1           0        0.217778   -0.862116   -1.837928
     11          1           0       -1.106873   -0.352443   -0.925998
     12          6           0       -0.789343    2.300531    0.213053
     13          1           0       -1.660195    1.937707   -0.331165
     14          1           0       -0.171008    2.904471   -0.454867
     15          1           0       -1.141436    2.935144    1.030745
     16         17           0       -2.952530   -0.854565    0.135711
 ---------------------------------------------------------------------

 SCF Done:  E(RHF) =  -935.452231650     A.U. after    2 cycles

 The electronic state is 1-A.
 Alpha  occ. eigenvalues -- -103.38027 -26.01996 -20.51249 -20.51214 -15.79347
 Alpha  occ. eigenvalues --  -15.49815 -11.31099 -11.13033 -11.11638 -10.41115
 Alpha  occ. eigenvalues --   -8.06720  -8.06682  -8.06675  -1.55676  -1.42913
 Alpha  occ. eigenvalues --   -1.25127  -1.09549  -0.94045  -0.88395  -0.83383
 Alpha  occ. eigenvalues --   -0.77207  -0.73049  -0.69057  -0.64934  -0.63409
 Alpha  occ. eigenvalues --   -0.62321  -0.59756  -0.57782  -0.52733  -0.49666
 Alpha  occ. eigenvalues --   -0.47302  -0.43912  -0.42325  -0.39731  -0.38764
 Alpha  occ. eigenvalues --   -0.37858  -0.36566  -0.30826  -0.21586  -0.21187
 Alpha  occ. eigenvalues --   -0.21089
 Alpha virt. eigenvalues --    0.12079   0.13544   0.14389   0.14890   0.17676
 Alpha virt. eigenvalues --    0.17729   0.18808   0.19598   0.20693   0.21245
 Alpha virt. eigenvalues --    0.23831   0.24213   0.25009   0.25317   0.25830

 Mulliken charges:
               1
     1  C    1.075834
     2  C    0.113459
     3  F   -0.425307
     4  H    0.011805
     5  H   -0.044023
     6  N    0.385522
     7  O   -0.607553
     8  O   -0.627960
     9  N   -0.322630
    10  H    0.050211
    11  H    0.058583
    12  C    0.380550
    13  H   -0.014352
    14  H   -0.031431
    15  H   -0.076167
    16  Cl  -0.926541
 Sum of Mulliken charges =  -1.00000

 Dipole moment (field-independent basis, Debye):
    X=              6.8586    Y=              4.3082    Z=             -0.5392  Tot=              8.1174

 Test job not archived.
 1\1\GINC-SE073\SP\RHF\Aug-CC-pVDZ\C3H7Cl1F1N2O2(1-)\OHZDE\09-Apr-2025\
 0\\#t hf aug-cc-pvdz iop(5/13=1,5/36=2,99/5=2) pseudo=read geom=check
 guess=(read,tcheck) scf=(maxcycle=1)\\title\\-1,1\C,0,0.041451,0.06083
 5,0.029866\C,0,-0.406463,0.213357,-1.399177\F,0,1.432688,-0.107882,0.0
 85442\H,0,-1.452596,0.529144,-1.386735\H,0,0.195775,1.003198,-1.849686
 \N,0,-0.055687,1.451076,0.764912\O,0,0.087616,2.475255,0.103472\O,0,-0
 .203457,1.417371,1.984654\N,0,-0.596716,-0.943805,0.720494\H,0,-0.5131
 84,-0.82948,1.720987\H,0,-1.579034,-1.047714,0.431638\C,0,-0.276785,-1

 Normal termination of Gaussian 16 at Wed Apr  9 02:42:36 2025.
