 Gaussian 16, Revision C.01,

 ----------------------------------------------------------------------
 #t hf aug-cc-pvdz symm=none int=(grid=ultrafine) guess=(read,tcheck) s
 table=(opt,rrhf)
 ----------------------------------------------------------------------
 -----
 title
 -----
 Symbolic Z-matrix:
 Charge = -1 Multiplicity = 1

 SCF Done:  E(RHF) =  -836.265748416     A.U. after   16 cycles
 Normal termination of Gaussian 16 at Wed Apr  9 02:53:47 2025.
 Gaussian 16:  ES64L-G16RevC.01  3-Jul-2019

 ----------------------------------------------------------------------
 #t hf aug-cc-pvdz iop(5/13=1,5/36=2,99/5=2) pseudo=read geom=check gue
 ss=(read,tcheck) scf=(maxcycle=1)
 ----------------------------------------------------------------------
 -----
 title
 -----
 Structure from the checkpoint file:  "E2SN2_367_mol2.chk"
 Charge = -1 Multiplicity = 1

                         Standard orientation:
 ---------------------------------------------------------------------
 Center     Atomic      Atomic             Coordinates (Angstroms)
 Number     Number       Type             X           Y           Z
 ---------------------------------------------------------------------
      1          6           0       -0.914208    0.126210   -0.576775
      2          6           0        0.353356    0.761890   -0.044325
      3         17           0       -1.348659   -1.375663    0.462481
      4          1           0        0.478584    1.660615   -0.703539
      5          1           0       -0.709800   -0.346085   -1.538738
      6          7           0       -1.940690    1.092192   -0.542946
      7          1           0       -1.505477    2.012089   -0.850833
      8          1           0       -2.670842    0.845638   -1.200543
      9          7           0        1.516130   -0.134351   -0.282143
     10          8           0        2.355214   -0.269637    0.611857
     11          8           0        1.610480   -0.660855   -1.393603
     12          6           0        0.277053    1.232508    1.386519
     13          1           0        0.187116    0.397047    2.080907
     14          1           0       -0.600310    1.873685    1.468723
     15          1           0        1.164171    1.814429    1.638178
     16          1           0       -0.467066    3.144251   -1.319252
 ---------------------------------------------------------------------

 SCF Done:  E(RHF) =  -836.398144179     A.U. after    2 cycles

 The electronic state is 1-A.
 Alpha  occ. eigenvalues -- -103.51635 -20.49862 -20.49487 -15.78855 -15.47814
 Alpha  occ. eigenvalues --  -11.22137 -11.17540 -11.11196 -10.54990  -8.20683
 Alpha  occ. eigenvalues --   -8.20446  -8.20432  -1.41789  -1.23429  -1.08476
 Alpha  occ. eigenvalues --   -0.98330  -0.97267  -0.82864  -0.76610  -0.67917
 Alpha  occ. eigenvalues --   -0.63576  -0.61488  -0.60044  -0.53775  -0.51124
 Alpha  occ. eigenvalues --   -0.49222  -0.44679  -0.43005  -0.40703  -0.38747
 Alpha  occ. eigenvalues --   -0.38056  -0.37669  -0.35184  -0.33024  -0.32562
 Alpha  occ. eigenvalues --   -0.27157  -0.11080
 Alpha virt. eigenvalues --    0.13324   0.13586   0.15115   0.15432   0.16876
 Alpha virt. eigenvalues --    0.18636   0.19067   0.19728   0.20760   0.21476
 Alpha virt. eigenvalues --    0.22948   0.24301   0.24683   0.26113   0.26486

 Mulliken charges:
               1
     1  C    0.601652
     2  C   -0.009087
     3  Cl  -0.282880
     4  H   -0.174775
     5  H    0.014402
     6  N   -0.404446
     7  H    0.045495
     8  H   -0.065284
     9  N    0.363388
    10  O   -0.627876
    11  O   -0.655734
    12  C    0.658608
    13  H    0.037085
    14  H    0.034920
    15  H    0.021955
    16  H   -0.557424
 Sum of Mulliken charges =  -1.00000

 Dipole moment (field-independent basis, Debye):
    X=             -0.5777    Y=             -6.4881    Z=              3.0554  Tot=              7.1948

 Test job not archived.
 1\1\GINC-SE083\SP\RHF\Aug-CC-pVDZ\C3H8Cl1N2O2(1-)\OHZDE\09-Apr-2025\0\
 \#t hf aug-cc-pvdz iop(5/13=1,5/36=2,99/5=2) pseudo=read geom=check gu
 ess=(read,tcheck) scf=(maxcycle=1)\\title\\-1,1\C,0,0.053539,-0.026068
 ,0.019775\C,0,-0.554125,-0.272656,-1.3456\Cl,0,1.904133,0.237511,-0.15
 4157\H,0,-1.648979,-0.363071,-1.11961\H,0,0.034724,-0.949632,0.6002\N,
 0,-0.577464,1.099854,0.587284\H,0,-1.610767,1.024282,0.348558\H,0,-0.4
 77954,1.081914,1.595312\N,0,-0.097161,-1.582392,-1.881906\O,0,0.216961
 ,-1.660574,-3.072206\O,0,-0.106569,-2.546536,-1.112628\C,0,-0.367462,0

 Normal termination of Gaussian 16 at Wed Apr  9 02:53:56 2025.
