 Gaussian 16, Revision C.01,

 ----------------------------------------------------------------------
 #t hf aug-cc-pvdz symm=none int=(grid=ultrafine) guess=(read,tcheck) s
 table=(opt,rrhf)
 ----------------------------------------------------------------------
 -----
 title
 -----
 Symbolic Z-matrix:
 Charge = -1 Multiplicity = 1

 SCF Done:  E(RHF) =  -419.477065823     A.U. after   15 cycles
 Normal termination of Gaussian 16 at Wed Apr  9 02:29:57 2025.
 Gaussian 16:  ES64L-G16RevC.01  3-Jul-2019

 ----------------------------------------------------------------------
 #t hf aug-cc-pvdz iop(5/13=1,5/36=2,99/5=2) pseudo=read geom=check gue
 ss=(read,tcheck) scf=(maxcycle=1)
 ----------------------------------------------------------------------
 -----
 title
 -----
 Structure from the checkpoint file:  "E2SN2_116_mol2.chk"
 Charge = -1 Multiplicity = 1

                         Standard orientation:
 ---------------------------------------------------------------------
 Center     Atomic      Atomic             Coordinates (Angstroms)
 Number     Number       Type             X           Y           Z
 ---------------------------------------------------------------------
      1          6           0        0.415345    0.331899    0.336004
      2          6           0       -1.078538    0.025449    0.193657
      3          9           0        0.827706   -0.195768    1.607599
      4          1           0       -1.552937    0.654458    0.957081
      5          6           0        1.206876   -0.466118   -0.633884
      6          7           0        1.880533   -1.091045   -1.365816
      7          7           0        0.672249    1.700786    0.268159
      8          1           0       -0.141038    2.303546   -0.023158
      9          1           0        1.509739    1.942070   -0.239494
     10          6           0       -1.390204   -1.436895    0.467923
     11          1           0       -2.473434   -1.594429    0.433781
     12          1           0       -1.026867   -1.742913    1.449152
     13          1           0       -0.931704   -2.067735   -0.298901
     14          7           0       -1.463806    0.388283   -1.162209
     15          1           0       -2.400702    0.033455   -1.329240
     16          1           0       -1.536124    1.422413   -1.183713
     17          1           0       -1.440001    3.098860   -0.597038
 ---------------------------------------------------------------------

 SCF Done:  E(RHF) =  -419.608030195     A.U. after    2 cycles

 The electronic state is 1-A.
 Alpha  occ. eigenvalues --  -25.98076 -15.52903 -15.47589 -15.46483 -11.26702
 Alpha  occ. eigenvalues --  -11.17740 -11.15225 -11.11821  -1.50988  -1.08949
 Alpha  occ. eigenvalues --   -1.05203  -1.01015  -0.88285  -0.82006  -0.72359
 Alpha  occ. eigenvalues --   -0.65261  -0.60840  -0.58729  -0.55167  -0.52465
 Alpha  occ. eigenvalues --   -0.50603  -0.48253  -0.46298  -0.43652  -0.41172
 Alpha  occ. eigenvalues --   -0.39154  -0.38234  -0.35556  -0.34121  -0.27974
 Alpha  occ. eigenvalues --   -0.26208  -0.10699
 Alpha virt. eigenvalues --    0.11899   0.13713   0.14472   0.14825   0.16083
 Alpha virt. eigenvalues --    0.16935   0.18178   0.19746   0.20879   0.21399
 Alpha virt. eigenvalues --    0.22090   0.22824   0.23475   0.24709   0.25044

 Mulliken charges:
               1
     1  C    1.398451
     2  C   -0.143751
     3  F   -0.486253
     4  H   -0.087838
     5  C   -0.465483
     6  N   -0.251852
     7  N   -0.544777
     8  H    0.036002
     9  H    0.026162
    10  C    0.632251
    11  H   -0.069296
    12  H   -0.019288
    13  H   -0.010368
    14  N   -0.341457
    15  H   -0.004812
    16  H    0.049977
    17  H   -0.717669
 Sum of Mulliken charges =  -1.00000

 Dipole moment (field-independent basis, Debye):
    X=              0.9926    Y=             -8.0963    Z=              2.3099  Tot=              8.4777

 Test job not archived.
 1\1\GINC-SE021\SP\RHF\Aug-CC-pVDZ\C4H9F1N3(1-)\OHZDE\09-Apr-2025\0\\#t
  hf aug-cc-pvdz iop(5/13=1,5/36=2,99/5=2) pseudo=read geom=check guess
 =(read,tcheck) scf=(maxcycle=1)\\title\\-1,1\C,0,-0.25807,-0.02139,-1.
 402708\C,0,0.026215,-0.257342,0.083687\F,0,-0.278982,-1.313638,-2.0312
 67\H,0,1.059397,-0.625767,0.101594\C,0,-1.644814,0.471663,-1.597323\N,
 0,-2.739867,0.841596,-1.807277\N,0,0.707984,0.793385,-1.99206\H,0,1.38
 502,1.251635,-1.327793\H,0,0.342735,1.455011,-2.660014\C,0,-0.901137,-
 1.301749,0.683722\H,0,-0.612342,-1.496518,1.722005\H,0,-0.854043,-2.23

 Normal termination of Gaussian 16 at Wed Apr  9 02:30:04 2025.
