 Gaussian 16, Revision C.01,

 ----------------------------------------------------------------------
 #t hf aug-cc-pvdz symm=none int=(grid=ultrafine) guess=(read,tcheck) s
 table=(opt,rrhf)
 ----------------------------------------------------------------------
 -----
 title
 -----
 Symbolic Z-matrix:
 Charge = -1 Multiplicity = 1

 SCF Done:  E(RHF) =  -627.815420909     A.U. after   16 cycles
 Normal termination of Gaussian 16 at Wed Apr  9 02:47:14 2025.
 Gaussian 16:  ES64L-G16RevC.01  3-Jul-2019

 ----------------------------------------------------------------------
 #t hf aug-cc-pvdz iop(5/13=1,5/36=2,99/5=2) pseudo=read geom=check gue
 ss=(read,tcheck) scf=(maxcycle=1)
 ----------------------------------------------------------------------
 -----
 title
 -----
 Structure from the checkpoint file:  "E2SN2_291_mol1.chk"
 Charge = -1 Multiplicity = 1

                         Standard orientation:
 ---------------------------------------------------------------------
 Center     Atomic      Atomic             Coordinates (Angstroms)
 Number     Number       Type             X           Y           Z
 ---------------------------------------------------------------------
      1          6           0       -0.759128   -0.357909    0.047209
      2          1           0        0.430249   -0.620258   -1.733550
      3          9           0        0.140280   -0.164580    1.580733
      4          9           0       -1.666282   -0.485599   -1.465316
      5          6           0        0.530182   -0.745079   -0.658849
      6          1           0        0.742220   -1.773134   -0.381926
      7          6           0       -1.177099    1.039301    0.151845
      8          7           0       -1.595407    2.128225    0.292405
      9          7           0       -1.546476   -1.409622    0.632346
     10          1           0       -2.460834   -1.366702    0.207406
     11          1           0       -1.578924   -1.235032    1.626146
     12          7           0        1.718453    0.057355   -0.267246
     13          8           0        2.711445   -0.543049    0.139902
     14          8           0        1.663754    1.267691   -0.464976
 ---------------------------------------------------------------------

 SCF Done:  E(RHF) =  -628.003966848     A.U. after    2 cycles

 The electronic state is 1-A.
 Alpha  occ. eigenvalues --  -25.86332 -25.85401 -20.48653 -20.48511 -15.78172
 Alpha  occ. eigenvalues --  -15.50036 -15.49721 -11.29942 -11.18469 -11.16231
 Alpha  occ. eigenvalues --   -1.41122  -1.37192  -1.36044  -1.22736  -1.06509
 Alpha  occ. eigenvalues --   -1.02927  -0.96654  -0.81908  -0.72797  -0.65017
 Alpha  occ. eigenvalues --   -0.61479  -0.60899  -0.58466  -0.56298  -0.51288
 Alpha  occ. eigenvalues --   -0.50102  -0.48219  -0.44457  -0.44113  -0.43629
 Alpha  occ. eigenvalues --   -0.42434  -0.41478  -0.38967  -0.37762  -0.37442
 Alpha  occ. eigenvalues --   -0.34294  -0.32358  -0.31179  -0.29452
 Alpha virt. eigenvalues --    0.13079   0.14088   0.15250   0.16288   0.19131
 Alpha virt. eigenvalues --    0.21176   0.21816   0.22162   0.23257   0.23928
 Alpha virt. eigenvalues --    0.25447   0.26408   0.26712   0.27265   0.27707

 Mulliken charges:
               1
     1  C    1.414879
     2  H    0.040636
     3  F   -0.748158
     4  F   -0.740448
     5  C    1.173454
     6  H   -0.100532
     7  C   -0.662819
     8  N   -0.236487
     9  N   -0.575633
    10  H    0.058597
    11  H    0.083184
    12  N    0.581948
    13  O   -0.651573
    14  O   -0.637049
 Sum of Mulliken charges =  -1.00000

 Dipole moment (field-independent basis, Debye):
    X=             -0.0023    Y=             -3.5735    Z=             -1.0005  Tot=              3.7109

 Test job not archived.
 1\1\GINC-SE454\SP\RHF\Aug-CC-pVDZ\C3H4F2N3O2(1-)\OHZDE\09-Apr-2025\0\\
 #t hf aug-cc-pvdz iop(5/13=1,5/36=2,99/5=2) pseudo=read geom=check gue
 ss=(read,tcheck) scf=(maxcycle=1)\\title\\-1,1\C,0,0.73247076,-0.07281
 179,-0.0261473\H,0,1.84923332,1.72592401,-0.44080414\F,0,-1.0482465,0.
 05814001,-0.12567225\F,0,2.49240456,-0.2392206,0.0175188\C,0,0.8483445
 8,1.43931846,-0.1299506\H,0,0.58942079,1.84079552,0.84489254\C,0,0.706
 53966,-0.91579948,-1.22052734\N,0,0.67270586,-1.67578529,-2.11594401\N
 ,0,0.62461184,-0.64967452,1.28686336\H,0,1.39451052,-1.29366906,1.3917

 Normal termination of Gaussian 16 at Wed Apr  9 02:47:21 2025.
