 Gaussian 16, Revision C.01,

 ----------------------------------------------------------------------
 #t hf aug-cc-pvdz symm=none int=(grid=ultrafine) guess=(read,tcheck) s
 table=(opt,rrhf)
 ----------------------------------------------------------------------
 -----
 title
 -----
 Symbolic Z-matrix:
 Charge = -1 Multiplicity = 1

 SCF Done:  E(RHF) =  -899.246378057     A.U. after   15 cycles
 Normal termination of Gaussian 16 at Wed Apr  9 02:52:11 2025.
 Gaussian 16:  ES64L-G16RevC.01  3-Jul-2019

 ----------------------------------------------------------------------
 #t hf aug-cc-pvdz iop(5/13=1,5/36=2,99/5=2) pseudo=read geom=check gue
 ss=(read,tcheck) scf=(maxcycle=1)
 ----------------------------------------------------------------------
 -----
 title
 -----
 Structure from the checkpoint file:  "E2SN2_336_mol2.chk"
 Charge = -1 Multiplicity = 1

                         Standard orientation:
 ---------------------------------------------------------------------
 Center     Atomic      Atomic             Coordinates (Angstroms)
 Number     Number       Type             X           Y           Z
 ---------------------------------------------------------------------
      1          6           0        0.614261    0.650828   -0.431477
      2          6           0        0.419908   -0.532591    0.525307
      3          9           0        1.986798    0.952249   -0.499537
      4          1           0       -0.649238   -0.810778    0.448988
      5          6           0        0.103553    0.358490   -1.825106
      6          1           0        0.257886    1.228186   -2.467045
      7          1           0       -0.958894    0.109956   -1.761309
      8          1           0        0.655284   -0.491238   -2.232545
      9          6           0       -0.026062    1.861498    0.118221
     10          7           0       -0.460435    2.867762    0.539082
     11          6           0        0.770271   -0.198660    1.976395
     12          1           0        1.786504    0.194319    2.056287
     13          1           0        0.689270   -1.096126    2.592096
     14          1           0        0.064372    0.539389    2.360762
     15          6           0        1.233467   -1.649768    0.047695
     16          7           0        1.900703   -2.550295   -0.304399
     17         17           0       -2.852979   -0.788529   -0.035906
 ---------------------------------------------------------------------

 SCF Done:  E(RHF) =  -899.393343133     A.U. after    2 cycles

 The electronic state is 1-A.
 Alpha  occ. eigenvalues -- -103.38191 -26.03053 -15.55493 -15.53989 -11.28542
 Alpha  occ. eigenvalues --  -11.19950 -11.19254 -11.18197 -11.14738 -11.14073
 Alpha  occ. eigenvalues --  -10.41271  -8.06873  -8.06842  -8.06831  -1.56298
 Alpha  occ. eigenvalues --   -1.09583  -1.08250  -1.02107  -0.93078  -0.83583
 Alpha  occ. eigenvalues --   -0.81662  -0.80178  -0.69989  -0.66129  -0.63734
 Alpha  occ. eigenvalues --   -0.57859  -0.53826  -0.51872  -0.48517  -0.46799
 Alpha  occ. eigenvalues --   -0.46165  -0.45158  -0.43660  -0.43179  -0.41742
 Alpha  occ. eigenvalues --   -0.37414  -0.36859  -0.34810  -0.34255  -0.21454
 Alpha  occ. eigenvalues --   -0.21321  -0.21248
 Alpha virt. eigenvalues --    0.12075   0.12293   0.14192   0.14808   0.15291
 Alpha virt. eigenvalues --    0.17111   0.17663   0.18851   0.19559   0.20162
 Alpha virt. eigenvalues --    0.21095   0.22896   0.23719   0.24270   0.24514

 Mulliken charges:
               1
     1  C    0.187937
     2  C    0.142770
     3  F   -0.505516
     4  H   -0.207112
     5  C    0.712659
     6  H    0.027879
     7  H    0.100261
     8  H   -0.006544
     9  C   -0.517109
    10  N   -0.234124
    11  C    0.763772
    12  H   -0.002701
    13  H   -0.037647
    14  H   -0.023526
    15  C   -0.153557
    16  N   -0.320616
    17  Cl  -0.926826
 Sum of Mulliken charges =  -1.00000

 Dipole moment (field-independent basis, Debye):
    X=              7.6258    Y=              2.5705    Z=              0.1605  Tot=              8.0489

 Test job not archived.
 1\1\GINC-SE342\SP\RHF\Aug-CC-pVDZ\C6H7Cl1F1N2(1-)\OHZDE\09-Apr-2025\0\
 \#t hf aug-cc-pvdz iop(5/13=1,5/36=2,99/5=2) pseudo=read geom=check gu
 ess=(read,tcheck) scf=(maxcycle=1)\\title\\-1,1\C,0,0.037954,-0.000161
 ,0.017165\C,0,-0.539861,0.099047,-1.400571\F,0,1.440956,0.065281,-0.06
 4373\H,0,-1.637873,0.169651,-1.275393\C,0,-0.455887,1.106728,0.922374\
 H,0,-0.023683,0.992222,1.918549\H,0,-1.546887,1.058594,0.967496\H,0,-0
 .14799,2.06789,0.50546\C,0,-0.259549,-1.323977,0.597602\N,0,-0.411199,
 -2.382761,1.081699\C,0,-0.190757,-1.10325,-2.279507\H,0,0.889235,-1.26

 Normal termination of Gaussian 16 at Wed Apr  9 02:52:21 2025.
