 Gaussian 16, Revision C.01,

 ----------------------------------------------------------------------
 #t hf aug-cc-pvdz symm=none int=(grid=ultrafine) guess=(read,tcheck) s
 table=(opt,rrhf)
 ----------------------------------------------------------------------
 -----
 title
 -----
 Symbolic Z-matrix:
 Charge = -1 Multiplicity = 1

 SCF Done:  E(RHF) =  -932.933407669     A.U. after   16 cycles
 Normal termination of Gaussian 16 at Wed Apr  9 02:34:45 2025.
 Gaussian 16:  ES64L-G16RevC.01  3-Jul-2019

 ----------------------------------------------------------------------
 #t hf aug-cc-pvdz iop(5/13=1,5/36=2,99/5=2) pseudo=read geom=check gue
 ss=(read,tcheck) scf=(maxcycle=1)
 ----------------------------------------------------------------------
 -----
 title
 -----
 Structure from the checkpoint file:  "E2SN2_163_mol2.chk"
 Charge = -1 Multiplicity = 1

                         Standard orientation:
 ---------------------------------------------------------------------
 Center     Atomic      Atomic             Coordinates (Angstroms)
 Number     Number       Type             X           Y           Z
 ---------------------------------------------------------------------
      1          6           0       -0.147033   -0.571892   -0.367389
      2          6           0       -0.995713    0.025262    0.726495
      3          9           0       -0.723517   -1.720998   -0.867463
      4          1           0       -1.009419   -0.640152    1.590965
      5          1           0        0.069721    0.127534   -1.169371
      6          1           0       -0.528319    0.980889    0.990170
      7          7           0        1.191102   -1.023193    0.167179
      8          8           0        2.026640   -1.297286   -0.686845
      9          8           0        1.325981   -1.166326    1.379515
     10          6           0       -2.357908    0.241060    0.250419
     11          7           0       -3.462768    0.404483   -0.108953
     12         17           0        1.062605    2.405529   -0.188864
 ---------------------------------------------------------------------

 SCF Done:  E(RHF) =  -933.093863643     A.U. after    2 cycles

 The electronic state is 1-A.
 Alpha  occ. eigenvalues -- -103.38337 -26.05018 -20.52475 -20.52340 -15.81496
 Alpha  occ. eigenvalues --  -15.54694 -11.30238 -11.20149 -11.18734 -10.41423
 Alpha  occ. eigenvalues --   -8.07021  -8.06993  -8.06985  -1.58807  -1.44461
 Alpha  occ. eigenvalues --   -1.26596  -1.08984  -1.02193  -0.90570  -0.83691
 Alpha  occ. eigenvalues --   -0.77489  -0.70642  -0.70155  -0.67622  -0.63745
 Alpha  occ. eigenvalues --   -0.60392  -0.59134  -0.58566  -0.51194  -0.47975
 Alpha  occ. eigenvalues --   -0.45297  -0.41927  -0.41082  -0.37344  -0.35827
 Alpha  occ. eigenvalues --   -0.35611  -0.21973  -0.21516  -0.21468
 Alpha virt. eigenvalues --    0.12573   0.15242   0.16320   0.17317   0.18138
 Alpha virt. eigenvalues --    0.20706   0.21461   0.21738   0.22847   0.23532
 Alpha virt. eigenvalues --    0.24180   0.25392   0.26400   0.26649   0.27883

 Mulliken charges:
               1
     1  C    1.256760
     2  C    0.219978
     3  F   -0.403830
     4  H    0.126606
     5  H   -0.216803
     6  H    0.120756
     7  N    0.454077
     8  O   -0.592993
     9  O   -0.606219
    10  C   -0.144233
    11  N   -0.266581
    12  Cl  -0.947516
 Sum of Mulliken charges =  -1.00000

 Dipole moment (field-independent basis, Debye):
    X=             -2.6146    Y=             -6.9245    Z=              1.5232  Tot=              7.5568

 Test job not archived.
 1\1\GINC-SE073\SP\RHF\Aug-CC-pVDZ\C3H3Cl1F1N2O2(1-)\OHZDE\09-Apr-2025\
 0\\#t hf aug-cc-pvdz iop(5/13=1,5/36=2,99/5=2) pseudo=read geom=check
 guess=(read,tcheck) scf=(maxcycle=1)\\title\\-1,1\C,0,-0.11571,-0.0103
 24,0.006311\C,0,-0.502526,0.041853,-1.450082\F,0,1.237996,0.202011,0.1
 65203\H,0,-0.056702,-0.799238,-1.983074\H,0,-0.685818,0.677052,0.62424
 7\H,0,-1.595996,-0.026393,-1.479613\N,0,-0.351915,-1.385676,0.583075\O
 ,0,-0.292318,-1.454201,1.805515\O,0,-0.496962,-2.332523,-0.185612\C,0,
 -0.056145,1.295458,-2.048422\N,0,0.311484,2.289677,-2.551362\Cl,0,-3.3

 Normal termination of Gaussian 16 at Wed Apr  9 02:34:52 2025.
