 Gaussian 16, Revision C.01,

 ----------------------------------------------------------------------
 #t hf aug-cc-pvdz symm=none int=(grid=ultrafine) guess=(read,tcheck) s
 table=(opt,rrhf)
 ----------------------------------------------------------------------
 -----
 title
 -----
 Symbolic Z-matrix:
 Charge = -1 Multiplicity = 1

 SCF Done:  E(RHF) =  -862.455669544     A.U. after   16 cycles
 Normal termination of Gaussian 16 at Wed Apr  9 02:30:37 2025.
 Gaussian 16:  ES64L-G16RevC.01  3-Jul-2019

 ----------------------------------------------------------------------
 #t hf aug-cc-pvdz iop(5/13=1,5/36=2,99/5=2) pseudo=read geom=check gue
 ss=(read,tcheck) scf=(maxcycle=1)
 ----------------------------------------------------------------------
 -----
 title
 -----
 Structure from the checkpoint file:  "E2SN2_117_mol1.chk"
 Charge = -1 Multiplicity = 1

                         Standard orientation:
 ---------------------------------------------------------------------
 Center     Atomic      Atomic             Coordinates (Angstroms)
 Number     Number       Type             X           Y           Z
 ---------------------------------------------------------------------
      1          6           0        0.363502    0.172069   -0.319668
      2          6           0       -0.795462   -0.363297    0.381847
      3         17           0        2.016525   -0.912796   -0.044841
      4          9           0       -2.868670    0.749112   -0.482929
      5          1           0       -1.824453    0.415404   -0.020705
      6          6           0        0.208424    0.208961   -1.828567
      7          1           0        0.047972   -0.811331   -2.170633
      8          1           0       -0.689670    0.793199   -2.047278
      9          1           0        1.085103    0.645040   -2.310120
     10          6           0       -0.706293   -0.391004    1.891570
     11          1           0       -0.361117    0.560254    2.307388
     12          1           0       -1.697605   -0.596534    2.308883
     13          1           0       -0.016920   -1.177898    2.238168
     14          7           0       -1.236488   -1.618552   -0.215059
     15          1           0       -2.244436   -1.572140   -0.307249
     16          1           0       -0.990468   -2.402839    0.381538
     17          6           0        0.785179    1.467487    0.207947
     18          7           0        1.107430    2.526705    0.605044
 ---------------------------------------------------------------------

 SCF Done:  E(RHF) =  -862.593499800     A.U. after    2 cycles

 The electronic state is 1-A.
 Alpha  occ. eigenvalues -- -103.49547 -25.82032 -15.52121 -15.46382 -11.21674
 Alpha  occ. eigenvalues --  -11.17463 -11.11230 -11.09215 -11.08668 -10.52794
 Alpha  occ. eigenvalues --   -8.18469  -8.18255  -8.18252  -1.32592  -1.06981
 Alpha  occ. eigenvalues --   -1.02976  -0.98118  -0.90565  -0.84386  -0.76514
 Alpha  occ. eigenvalues --   -0.67510  -0.56490  -0.51356  -0.49433  -0.47752
 Alpha  occ. eigenvalues --   -0.46670  -0.44506  -0.43150  -0.41988  -0.41361
 Alpha  occ. eigenvalues --   -0.41152  -0.39858  -0.38648  -0.37786  -0.33360
 Alpha  occ. eigenvalues --   -0.33104  -0.30778  -0.30206  -0.25429  -0.19731
 Alpha virt. eigenvalues --    0.12888   0.13178   0.14326   0.15123   0.15831
 Alpha virt. eigenvalues --    0.16777   0.17126   0.17798   0.18775   0.19982
 Alpha virt. eigenvalues --    0.20692   0.21778   0.23208   0.24804   0.25586

 Mulliken charges:
               1
     1  C   -0.550991
     2  C   -0.634775
     3  Cl  -0.400758
     4  F   -0.615106
     5  H    0.434552
     6  C    0.923327
     7  H    0.047647
     8  H    0.069554
     9  H   -0.045922
    10  C    0.948187
    11  H   -0.085438
    12  H   -0.044254
    13  H   -0.037200
    14  N   -0.428509
    15  H    0.048501
    16  H    0.020728
    17  C   -0.343649
    18  N   -0.305894
 Sum of Mulliken charges =  -1.00000

 Dipole moment (field-independent basis, Debye):
    X=              2.5199    Y=             -3.3472    Z=              0.1958  Tot=              4.1943

 Test job not archived.
 1\1\GINC-SE112\SP\RHF\Aug-CC-pVDZ\C5H9Cl1F1N2(1-)\OHZDE\09-Apr-2025\0\
 \#t hf aug-cc-pvdz iop(5/13=1,5/36=2,99/5=2) pseudo=read geom=check gu
 ess=(read,tcheck) scf=(maxcycle=1)\\title\\-1,1\C,0,-0.24139607,0.0220
 7465,-0.35464988\C,0,-0.28162241,0.00941795,1.10142631\Cl,0,1.61519934
 ,0.00517729,-1.08794132\F,0,-2.61195853,-0.52179923,1.85695651\H,0,-1.
 59434891,-0.10497962,1.40293777\C,0,-0.89036585,-1.18800921,-1.0001905
 4\H,0,-0.35945146,-2.07279103,-0.65516618\H,0,-1.91971526,-1.23673277,
 -0.63439617\H,0,-0.86537434,-1.12194658,-2.0890595\C,0,0.32235495,1.21

 Normal termination of Gaussian 16 at Wed Apr  9 02:30:47 2025.
