 Gaussian 16, Revision C.01,

 ----------------------------------------------------------------------
 #t hf aug-cc-pvdz symm=none int=(grid=ultrafine) guess=(read,tcheck) s
 table=(opt,rrhf)
 ----------------------------------------------------------------------
 -----
 title
 -----
 Symbolic Z-matrix:
 Charge = -1 Multiplicity = 1

 SCF Done:  E(RHF) =  -327.685774074     A.U. after   15 cycles
 Normal termination of Gaussian 16 at Wed Apr  9 02:58:55 2025.
 Gaussian 16:  ES64L-G16RevC.01  3-Jul-2019

 ----------------------------------------------------------------------
 #t hf aug-cc-pvdz iop(5/13=1,5/36=2,99/5=2) pseudo=read geom=check gue
 ss=(read,tcheck) scf=(maxcycle=1)
 ----------------------------------------------------------------------
 -----
 title
 -----
 Structure from the checkpoint file:  "E2SN2_71_mol1.chk"
 Charge = -1 Multiplicity = 1

                         Standard orientation:
 ---------------------------------------------------------------------
 Center     Atomic      Atomic             Coordinates (Angstroms)
 Number     Number       Type             X           Y           Z
 ---------------------------------------------------------------------
      1          6           0       -0.413903    0.013348   -0.008764
      2          6           0        0.807075    0.416532   -0.707595
      3          9           0       -0.727784   -1.432319   -0.172653
      4          1           0        1.518615    2.374457    0.644990
      5          1           0        1.160029    1.785736    0.009390
      6          1           0        0.691625    0.447872   -1.797239
      7          6           0       -1.650262    0.729069   -0.510035
      8          1           0       -2.535991    0.276605   -0.058468
      9          1           0       -1.604464    1.784666   -0.227945
     10          1           0       -1.714209    0.655584   -1.598918
     11          7           0        2.031522   -0.251704   -0.300805
     12          1           0        1.849842   -1.195306    0.028289
     13          1           0        2.452796    0.271824    0.471664
     14          7           0       -0.342083    0.129614    1.451717
     15          1           0        0.162841    0.998620    1.630063
     16          1           0        0.285445   -0.608254    1.754038
 ---------------------------------------------------------------------

 SCF Done:  E(RHF) =  -327.791051427     A.U. after    2 cycles

 The electronic state is 1-A.
 Alpha  occ. eigenvalues --  -25.90589 -15.44969 -15.43121 -11.17204 -11.07870
 Alpha  occ. eigenvalues --  -11.02160  -1.42632  -1.01233  -0.94526  -0.84561
 Alpha  occ. eigenvalues --   -0.71896  -0.62461  -0.53875  -0.53169  -0.51967
 Alpha  occ. eigenvalues --   -0.47257  -0.45236  -0.43274  -0.40732  -0.39698
 Alpha  occ. eigenvalues --   -0.37317  -0.33441  -0.32988  -0.25085  -0.20962
 Alpha  occ. eigenvalues --   -0.08292
 Alpha virt. eigenvalues --    0.13584   0.14183   0.14861   0.16007   0.16826
 Alpha virt. eigenvalues --    0.17012   0.17986   0.19002   0.19904   0.21854
 Alpha virt. eigenvalues --    0.22194   0.25970   0.26079   0.26824   0.27760

 Mulliken charges:
               1
     1  C   -0.283245
     2  C    0.456239
     3  F   -0.565559
     4  H   -0.940375
     5  H    0.897853
     6  H   -0.301298
     7  C    0.631828
     8  H   -0.058934
     9  H    0.028419
    10  H   -0.001914
    11  N   -0.418811
    12  H   -0.005611
    13  H   -0.020528
    14  N   -0.474759
    15  H    0.048440
    16  H    0.008254
 Sum of Mulliken charges =  -1.00000

 Dipole moment (field-independent basis, Debye):
    X=             -3.0317    Y=             -2.4712    Z=              0.2433  Tot=              3.9188

 Test job not archived.
 1\1\GINC-SE322\SP\RHF\Aug-CC-pVDZ\C3H10F1N2(1-)\OHZDE\09-Apr-2025\0\\#
 t hf aug-cc-pvdz iop(5/13=1,5/36=2,99/5=2) pseudo=read geom=check gues
 s=(read,tcheck) scf=(maxcycle=1)\\title\\-1,1\C,0,-0.19244613,0.053982
 71,-0.35383104\C,0,-0.1407859,0.13629693,1.10639719\F,0,1.1455884,-0.1
 5059416,-0.97281926\H,0,-2.42275174,-0.62994357,1.71856747\H,0,-1.6490
 4775,-0.1449559,1.50565447\H,0,0.29797697,1.07206297,1.47172224\C,0,-0
 .7215152,1.31550064,-1.00249931\H,0,-0.59158338,1.24540787,-2.08479152
 \H,0,-1.78562046,1.42739751,-0.77640759\H,0,-0.18478145,2.18919584,-0.

 Normal termination of Gaussian 16 at Wed Apr  9 02:59:00 2025.
