 Gaussian 16, Revision C.01,

 ----------------------------------------------------------------------
 #t hf aug-cc-pvdz symm=none int=(grid=ultrafine) guess=(read,tcheck) s
 table=(opt,rrhf)
 ----------------------------------------------------------------------
 -----
 title
 -----
 Symbolic Z-matrix:
 Charge = -1 Multiplicity = 1

 SCF Done:  E(RHF) =  -555.083308148     A.U. after   16 cycles
 Normal termination of Gaussian 16 at Wed Apr  9 02:46:25 2025.
 Gaussian 16:  ES64L-G16RevC.01  3-Jul-2019

 ----------------------------------------------------------------------
 #t hf aug-cc-pvdz iop(5/13=1,5/36=2,99/5=2) pseudo=read geom=check gue
 ss=(read,tcheck) scf=(maxcycle=1)
 ----------------------------------------------------------------------
 -----
 title
 -----
 Structure from the checkpoint file:  "E2SN2_282_mol1.chk"
 Charge = -1 Multiplicity = 1

                         Standard orientation:
 ---------------------------------------------------------------------
 Center     Atomic      Atomic             Coordinates (Angstroms)
 Number     Number       Type             X           Y           Z
 ---------------------------------------------------------------------
      1          6           0        0.433992    0.332241    0.097045
      2          1           0       -0.605853    0.033871   -1.725546
      3          9           0       -0.074940   -0.558688    1.558418
      4          9           0        1.105958    1.127509   -1.436189
      5          6           0       -0.682440   -0.338008   -0.705212
      6          6           0        1.728467   -0.319089    0.174885
      7          7           0        2.783809   -0.819901    0.299740
      8          6           0        0.229657    1.703780    0.700591
      9          1           0        1.202269    2.156978    0.888718
     10          1           0       -0.291144    2.331689   -0.020795
     11          1           0       -0.335708    1.623654    1.626688
     12          6           0       -1.995448    0.082637   -0.162008
     13          7           0       -3.087471    0.352669    0.178346
     14          7           0       -0.513485   -1.784199   -0.705698
     15          1           0       -1.298344   -2.216440   -1.178530
     16          1           0       -0.515719   -2.058491    0.270883
 ---------------------------------------------------------------------

 SCF Done:  E(RHF) =  -555.246919059     A.U. after    2 cycles

 The electronic state is 1-A.
 Alpha  occ. eigenvalues --  -25.86245 -25.83111 -15.52396 -15.50216 -15.49389
 Alpha  occ. eigenvalues --  -11.26302 -11.19897 -11.17589 -11.15978 -11.11297
 Alpha  occ. eigenvalues --   -1.36880  -1.33387  -1.08486  -1.04754  -1.03205
 Alpha  occ. eigenvalues --   -0.93873  -0.82985  -0.77238  -0.60324  -0.59636
 Alpha  occ. eigenvalues --   -0.55505  -0.53200  -0.48535  -0.47635  -0.46648
 Alpha  occ. eigenvalues --   -0.44382  -0.43523  -0.42685  -0.41503  -0.41054
 Alpha  occ. eigenvalues --   -0.39954  -0.39123  -0.37872  -0.34668  -0.33614
 Alpha  occ. eigenvalues --   -0.31543  -0.30405  -0.28914
 Alpha virt. eigenvalues --    0.12480   0.13733   0.14151   0.15946   0.16598
 Alpha virt. eigenvalues --    0.17571   0.17861   0.19811   0.20885   0.22129
 Alpha virt. eigenvalues --    0.23206   0.23814   0.25035   0.25217   0.26294

 Mulliken charges:
               1
     1  C    0.690587
     2  H    0.010397
     3  F   -0.763571
     4  F   -0.789562
     5  C    1.115335
     6  C   -0.916881
     7  N   -0.250314
     8  C    0.414574
     9  H   -0.018033
    10  H    0.114080
    11  H    0.125143
    12  C   -0.179957
    13  N   -0.296164
    14  N   -0.337504
    15  H   -0.025747
    16  H    0.107618
 Sum of Mulliken charges =  -1.00000

 Dipole moment (field-independent basis, Debye):
    X=             -3.2239    Y=             -0.0994    Z=             -0.5922  Tot=              3.2794

 Test job not archived.
 1\1\GINC-SE462\SP\RHF\Aug-CC-pVDZ\C5H6F2N3(1-)\OHZDE\09-Apr-2025\0\\#t
  hf aug-cc-pvdz iop(5/13=1,5/36=2,99/5=2) pseudo=read geom=check guess
 =(read,tcheck) scf=(maxcycle=1)\\title\\-1,1\C,0,0.6443499,-0.02426897
 ,0.02210733\H,0,1.67890503,1.82268368,0.12508178\F,0,-1.13189729,-0.03
 07864,-0.16032061\F,0,2.49739832,-0.05598359,0.02140905\C,0,0.64182784
 ,1.50517207,0.03074366\C,0,0.75748825,-0.71722349,-1.24792059\N,0,0.81
 111762,-1.3278536,-2.2501198\C,0,0.64670274,-0.80007696,1.32028118\H,0
 ,1.02095612,-1.80565002,1.13184012\H,0,1.33269461,-0.31948336,2.016230

 Normal termination of Gaussian 16 at Wed Apr  9 02:46:32 2025.
