 Gaussian 16, Revision C.01,

 ----------------------------------------------------------------------
 #t hf aug-cc-pvdz symm=none int=(grid=ultrafine) guess=(read,tcheck) s
 table=(opt,rrhf)
 ----------------------------------------------------------------------
 -----
 title
 -----
 Symbolic Z-matrix:
 Charge = -1 Multiplicity = 1

 SCF Done:  E(RHF) =  -366.773007994     A.U. after   15 cycles
 Normal termination of Gaussian 16 at Wed Apr  9 02:52:15 2025.
 Gaussian 16:  ES64L-G16RevC.01  3-Jul-2019

 ----------------------------------------------------------------------
 #t hf aug-cc-pvdz iop(5/13=1,5/36=2,99/5=2) pseudo=read geom=check gue
 ss=(read,tcheck) scf=(maxcycle=1)
 ----------------------------------------------------------------------
 -----
 title
 -----
 Structure from the checkpoint file:  "E2SN2_352_mol2.chk"
 Charge = -1 Multiplicity = 1

                         Standard orientation:
 ---------------------------------------------------------------------
 Center     Atomic      Atomic             Coordinates (Angstroms)
 Number     Number       Type             X           Y           Z
 ---------------------------------------------------------------------
      1          6           0        0.656053   -0.016365    0.018369
      2          6           0       -0.755165    0.101178   -0.579277
      3          9           0        1.305588   -1.033305   -0.750292
      4          1           0       -0.581865    0.232969   -1.659220
      5          6           0        1.453442    1.251011   -0.199341
      6          1           0        1.055612    2.048083    0.426383
      7          1           0        1.380630    1.567671   -1.243653
      8          1           0        2.505149    1.069566    0.043365
      9          6           0        0.671679   -0.477909    1.458157
     10          1           0        1.675589   -0.367575    1.881422
     11          1           0       -0.067680    0.062891    2.056745
     12          1           0        0.390156   -1.530850    1.506188
     13          7           0       -1.403273    1.289959   -0.058595
     14          1           0       -1.740211    1.051644    0.894444
     15          1           0       -2.254567    1.413163   -0.598813
     16          7           0       -1.588714   -1.088368   -0.396443
     17          1           0       -1.017481   -1.921527   -0.497839
     18          1           0       -1.947103   -1.045698    0.561378
     19          1           0       -2.360664    0.160782    2.380040
 ---------------------------------------------------------------------

 SCF Done:  E(RHF) =  -366.890457445     A.U. after    2 cycles

 The electronic state is 1-A.
 Alpha  occ. eigenvalues --  -25.96663 -15.45567 -15.44868 -11.18717 -11.15255
 Alpha  occ. eigenvalues --  -11.10727 -11.08821  -1.49490  -1.05622  -0.93934
 Alpha  occ. eigenvalues --   -0.92879  -0.81672  -0.75403  -0.66374  -0.59192
 Alpha  occ. eigenvalues --   -0.58393  -0.56887  -0.51571  -0.48739  -0.47222
 Alpha  occ. eigenvalues --   -0.44264  -0.43097  -0.42537  -0.40532  -0.38518
 Alpha  occ. eigenvalues --   -0.36516  -0.34902  -0.26024  -0.24461  -0.08246
 Alpha virt. eigenvalues --    0.12128   0.12963   0.13765   0.14707   0.15534
 Alpha virt. eigenvalues --    0.15597   0.16666   0.17777   0.19008   0.20565
 Alpha virt. eigenvalues --    0.21417   0.22388   0.23662   0.24080   0.24708

 Mulliken charges:
               1
     1  C   -1.098065
     2  C    0.535003
     3  F   -0.542670
     4  H   -0.136414
     5  C    0.660900
     6  H    0.144557
     7  H   -0.012158
     8  H    0.009595
     9  C    0.686757
    10  H   -0.074637
    11  H    0.057171
    12  H   -0.035491
    13  N   -0.169667
    14  H    0.104415
    15  H   -0.036750
    16  N   -0.377897
    17  H    0.032308
    18  H    0.092018
    19  H   -0.838976
 Sum of Mulliken charges =  -1.00000

 Dipole moment (field-independent basis, Debye):
    X=              8.4519    Y=             -0.0591    Z=             -7.0089  Tot=             10.9801

 Test job not archived.
 1\1\GINC-SE364\SP\RHF\Aug-CC-pVDZ\C4H12F1N2(1-)\OHZDE\09-Apr-2025\0\\#
 t hf aug-cc-pvdz iop(5/13=1,5/36=2,99/5=2) pseudo=read geom=check gues
 s=(read,tcheck) scf=(maxcycle=1)\\title\\-1,1\C,0,0.016182,0.058749,0.
 035304\C,0,-0.424791,0.128696,-1.435473\F,0,1.418214,-0.223167,-0.0063
 03\H,0,0.280933,0.838039,-1.896412\C,0,-0.123894,1.402529,0.716555\H,0
 ,-1.178016,1.637964,0.852642\H,0,0.324582,2.186566,0.099855\H,0,0.3857
 69,1.378393,1.684841\C,0,-0.633605,-1.062906,0.813714\H,0,-0.426633,-0
 .9524,1.883346\H,0,-1.710685,-1.105282,0.625227\H,0,-0.228901,-2.01965

 Normal termination of Gaussian 16 at Wed Apr  9 02:52:22 2025.
