 Gaussian 16, Revision C.01,

 ----------------------------------------------------------------------
 #t hf aug-cc-pvdz symm=none int=(grid=ultrafine) guess=(read,tcheck) s
 table=(opt,rrhf)
 ----------------------------------------------------------------------
 -----
 title
 -----
 Symbolic Z-matrix:
 Charge = -1 Multiplicity = 1

 SCF Done:  E(RHF) =  -611.845220109     A.U. after   16 cycles
 Normal termination of Gaussian 16 at Wed Apr  9 02:38:27 2025.
 Gaussian 16:  ES64L-G16RevC.01  3-Jul-2019

 ----------------------------------------------------------------------
 #t hf aug-cc-pvdz iop(5/13=1,5/36=2,99/5=2) pseudo=read geom=check gue
 ss=(read,tcheck) scf=(maxcycle=1)
 ----------------------------------------------------------------------
 -----
 title
 -----
 Structure from the checkpoint file:  "E2SN2_186_mol2.chk"
 Charge = -1 Multiplicity = 1

                         Standard orientation:
 ---------------------------------------------------------------------
 Center     Atomic      Atomic             Coordinates (Angstroms)
 Number     Number       Type             X           Y           Z
 ---------------------------------------------------------------------
      1          6           0       -1.184141   -0.543803    0.114043
      2          6           0        0.062549    0.005754   -0.573687
      3          9           0       -1.745267   -1.503831   -0.770236
      4          1           0        0.004279   -0.283926   -1.634898
      5          1           0       -0.868607   -1.059935    1.010424
      6          6           0       -2.225501    0.498881    0.425598
      7          1           0       -3.110484    0.008864    0.839950
      8          1           0       -1.767493    1.154174    1.164381
      9          1           0       -2.518782    1.059298   -0.466280
     10          7           0        1.320752   -0.676985   -0.101174
     11          8           0        1.214081   -1.829076    0.300758
     12          8           0        2.377486   -0.092027   -0.299037
     13          6           0        0.228075    1.453539   -0.505880
     14          7           0        0.267201    2.603004   -0.750658
     15          9           0        0.314932    0.672942    1.689683
 ---------------------------------------------------------------------

 SCF Done:  E(RHF) =  -612.032657940     A.U. after    2 cycles

 The electronic state is 1-A.
 Alpha  occ. eigenvalues --  -25.98148 -25.75517 -20.48601 -20.48563 -15.78747
 Alpha  occ. eigenvalues --  -15.50430 -11.22299 -11.20650 -11.17162 -11.10603
 Alpha  occ. eigenvalues --   -1.51054  -1.41451  -1.24805  -1.23193  -1.05528
 Alpha  occ. eigenvalues --   -0.99435  -0.89674  -0.76607  -0.74007  -0.65767
 Alpha  occ. eigenvalues --   -0.64173  -0.62254  -0.60280  -0.59726  -0.56693
 Alpha  occ. eigenvalues --   -0.51853  -0.48248  -0.43264  -0.42501  -0.41838
 Alpha  occ. eigenvalues --   -0.39972  -0.38633  -0.37181  -0.35627  -0.34486
 Alpha  occ. eigenvalues --   -0.34256  -0.33816  -0.32051  -0.29890
 Alpha virt. eigenvalues --    0.12509   0.13182   0.14847   0.16705   0.17602
 Alpha virt. eigenvalues --    0.19287   0.20797   0.21740   0.22385   0.23189
 Alpha virt. eigenvalues --    0.24797   0.25160   0.25447   0.25927   0.26699

 Mulliken charges:
               1
     1  C    0.170663
     2  C    0.990978
     3  F   -0.493200
     4  H   -0.027891
     5  H    0.093953
     6  C    0.291930
     7  H   -0.095738
     8  H    0.184043
     9  H    0.050640
    10  N    0.678153
    11  O   -0.664719
    12  O   -0.671375
    13  C   -0.199080
    14  N   -0.343604
    15  F   -0.964752
 Sum of Mulliken charges =  -1.00000

 Dipole moment (field-independent basis, Debye):
    X=             -3.7789    Y=             -2.6750    Z=             -4.0515  Tot=              6.1523

 Test job not archived.
 1\1\GINC-SE041\SP\RHF\Aug-CC-pVDZ\C4H5F2N2O2(1-)\OHZDE\09-Apr-2025\0\\
 #t hf aug-cc-pvdz iop(5/13=1,5/36=2,99/5=2) pseudo=read geom=check gue
 ss=(read,tcheck) scf=(maxcycle=1)\\title\\-1,1\C,0,-0.099768,0.017085,
 0.055789\C,0,-0.589165,-0.094355,-1.385492\F,0,1.283433,0.334931,-0.00
 8987\H,0,0.302362,-0.174724,-2.027519\H,0,-0.612413,0.850087,0.517043\
 C,0,-0.272973,-1.242188,0.863823\H,0,0.174573,-1.099025,1.850842\H,0,-
 1.348587,-1.387623,0.94679\H,0,0.202234,-2.101753,0.38335\N,0,-1.24237
 3,1.176991,-1.864527\O,0,-0.872846,2.22413,-1.347621\O,0,-1.976358,1.0

 Normal termination of Gaussian 16 at Wed Apr  9 02:38:35 2025.
