 Gaussian 16, Revision C.01,

 ----------------------------------------------------------------------
 #t hf aug-cc-pvdz symm=none int=(grid=ultrafine) guess=(read,tcheck) s
 table=(opt,rrhf)
 ----------------------------------------------------------------------
 -----
 title
 -----
 Symbolic Z-matrix:
 Charge = -1 Multiplicity = 1

 SCF Done:  E(RHF) =  -403.421664893     A.U. after   16 cycles
 Normal termination of Gaussian 16 at Wed Apr  9 02:56:24 2025.
 Gaussian 16:  ES64L-G16RevC.01  3-Jul-2019

 ----------------------------------------------------------------------
 #t hf aug-cc-pvdz iop(5/13=1,5/36=2,99/5=2) pseudo=read geom=check gue
 ss=(read,tcheck) scf=(maxcycle=1)
 ----------------------------------------------------------------------
 -----
 title
 -----
 Structure from the checkpoint file:  "E2SN2_404_mol1.chk"
 Charge = -1 Multiplicity = 1

                         Standard orientation:
 ---------------------------------------------------------------------
 Center     Atomic      Atomic             Coordinates (Angstroms)
 Number     Number       Type             X           Y           Z
 ---------------------------------------------------------------------
      1          6           0       -0.842738   -0.130155   -0.203809
      2          1           0        0.570253    0.480576   -1.688054
      3          9           0       -0.329923   -0.527250    1.343305
      4          1           0       -1.453761    0.439775   -1.892619
      5          6           0        0.512576    0.495301   -0.600073
      6          7           0       -1.897555    0.713087    0.329517
      7          1           0       -2.212803    0.282464    1.191844
      8          1           0       -2.625635    0.765098   -0.363800
      9          6           0       -1.088497   -1.549955   -0.700817
     10          1           0       -0.565786   -1.722805   -1.641809
     11          1           0       -0.743166   -2.263410    0.055703
     12          1           0       -2.151991   -1.700119   -0.887492
     13          6           0        1.655439   -0.291258   -0.103689
     14          7           0        2.636339   -0.877013    0.174174
     15          6           0        0.614372    1.937356   -0.120484
     16          1           0       -0.192787    2.503390   -0.586012
     17          1           0        0.483980    1.969647    0.960890
     18          1           0        1.582600    2.370382   -0.390996
 ---------------------------------------------------------------------

 SCF Done:  E(RHF) =  -403.544571706     A.U. after    2 cycles

 The electronic state is 1-A.
 Alpha  occ. eigenvalues --  -25.86216 -15.48994 -15.46029 -11.22391 -11.14902
 Alpha  occ. eigenvalues --  -11.13482 -11.09690 -11.08737  -1.37316  -1.03709
 Alpha  occ. eigenvalues --   -1.01434  -0.92504  -0.84396  -0.75102  -0.65730
 Alpha  occ. eigenvalues --   -0.56515  -0.53472  -0.51338  -0.49308  -0.46164
 Alpha  occ. eigenvalues --   -0.43905  -0.42696  -0.41965  -0.40819  -0.39383
 Alpha  occ. eigenvalues --   -0.38490  -0.37529  -0.36092  -0.30823  -0.30094
 Alpha  occ. eigenvalues --   -0.25195  -0.11033
 Alpha virt. eigenvalues --    0.13074   0.13363   0.14249   0.15414   0.15969
 Alpha virt. eigenvalues --    0.16159   0.16943   0.17773   0.18320   0.19997
 Alpha virt. eigenvalues --    0.20321   0.22045   0.24535   0.25142   0.25431

 Mulliken charges:
               1
     1  C   -1.249670
     2  H   -0.124765
     3  F   -0.684613
     4  H   -0.385616
     5  C    0.379389
     6  N   -0.251655
     7  H    0.004873
     8  H    0.079003
     9  C    0.999903
    10  H   -0.048030
    11  H    0.063649
    12  H   -0.048229
    13  C   -0.251781
    14  N   -0.325004
    15  C    0.847971
    16  H    0.034298
    17  H    0.049423
    18  H   -0.089147
 Sum of Mulliken charges =  -1.00000

 Dipole moment (field-independent basis, Debye):
    X=             -0.6191    Y=              0.5603    Z=              1.4393  Tot=              1.6640

 Test job not archived.
 1\1\GINC-SE331\SP\RHF\Aug-CC-pVDZ\C5H10F1N2(1-)\OHZDE\09-Apr-2025\0\\#
 t hf aug-cc-pvdz iop(5/13=1,5/36=2,99/5=2) pseudo=read geom=check gues
 s=(read,tcheck) scf=(maxcycle=1)\\title\\-1,1\C,0,0.38782064,-0.089107
 16,0.04914969\H,0,1.70784822,1.58229522,0.24008562\F,0,-1.24629507,0.0
 7707662,0.39013936\H,0,2.19149173,-0.26319894,-0.46729053\C,0,0.645015
 28,1.43369972,0.05153801\N,0,0.08930764,-0.76797129,-1.19911564\H,0,-0
 .75604584,-1.30726916,-1.04758758\H,0,0.88029218,-1.34742857,-1.427297
 92\C,0,0.78071668,-0.83000735,1.3219206\H,0,1.61834385,-0.33315807,1.8

 Normal termination of Gaussian 16 at Wed Apr  9 02:56:31 2025.
