 Gaussian 16, Revision C.01,

 ----------------------------------------------------------------------
 #t hf aug-cc-pvdz symm=none int=(grid=ultrafine) guess=(read,tcheck) s
 table=(opt,rrhf)
 ----------------------------------------------------------------------
 -----
 title
 -----
 Symbolic Z-matrix:
 Charge = -1 Multiplicity = 1

 SCF Done:  E(RHF) =  -839.520916653     A.U. after   14 cycles
 Normal termination of Gaussian 16 at Wed Apr  9 02:39:57 2025.
 Gaussian 16:  ES64L-G16RevC.01  3-Jul-2019

 ----------------------------------------------------------------------
 #t hf aug-cc-pvdz iop(5/13=1,5/36=2,99/5=2) pseudo=read geom=check gue
 ss=(read,tcheck) scf=(maxcycle=1)
 ----------------------------------------------------------------------
 -----
 title
 -----
 Structure from the checkpoint file:  "E2SN2_207_mol2.chk"
 Charge = -1 Multiplicity = 1

                         Standard orientation:
 ---------------------------------------------------------------------
 Center     Atomic      Atomic             Coordinates (Angstroms)
 Number     Number       Type             X           Y           Z
 ---------------------------------------------------------------------
      1          6           0        0.678311    1.022238   -0.424415
      2          6           0        0.552865   -0.459911   -0.058311
      3          9           0        1.693324    1.552608    0.418410
      4          1           0       -0.190904   -0.904520   -0.728944
      5          1           0        1.095974    1.138190   -1.432528
      6          7           0       -0.530970    1.710679   -0.211730
      7          1           0       -1.339112    1.091955   -0.125906
      8          1           0       -0.706335    2.407425   -0.918367
      9          7           0        0.108141   -0.703549    1.303816
     10          1           0       -0.908920   -0.715415    1.283555
     11          1           0        0.418055    0.062898    1.888849
     12          6           0        1.850464   -1.118377   -0.302642
     13          7           0        2.881165   -1.634675   -0.524065
     14         17           0       -2.900404   -0.548523   -0.176253
 ---------------------------------------------------------------------

 SCF Done:  E(RHF) =  -839.651032865     A.U. after    2 cycles

 The electronic state is 1-A.
 Alpha  occ. eigenvalues -- -103.39225 -25.98601 -15.52842 -15.49376 -15.49271
 Alpha  occ. eigenvalues --  -11.24942 -11.19576 -11.17943 -10.42330  -8.07932
 Alpha  occ. eigenvalues --   -8.07900  -8.07891  -1.51773  -1.09431  -1.06159
 Alpha  occ. eigenvalues --   -1.02727  -0.87629  -0.84672  -0.76299  -0.64762
 Alpha  occ. eigenvalues --   -0.62676  -0.62319  -0.57270  -0.54112  -0.51558
 Alpha  occ. eigenvalues --   -0.49118  -0.45392  -0.43581  -0.43125  -0.34594
 Alpha  occ. eigenvalues --   -0.33966  -0.30533  -0.28767  -0.22620  -0.22462
 Alpha  occ. eigenvalues --   -0.22347
 Alpha virt. eigenvalues --    0.12208   0.13816   0.14721   0.15667   0.18188
 Alpha virt. eigenvalues --    0.18549   0.19067   0.20787   0.22229   0.23822
 Alpha virt. eigenvalues --    0.23988   0.24697   0.25381   0.25733   0.27938

 Mulliken charges:
               1
     1  C    1.148539
     2  C    0.873919
     3  F   -0.459621
     4  H   -0.093381
     5  H   -0.294472
     6  N   -0.334174
     7  H    0.060951
     8  H   -0.008141
     9  N   -0.402466
    10  H    0.083919
    11  H    0.052008
    12  C   -0.483870
    13  N   -0.225446
    14  Cl  -0.917766
 Sum of Mulliken charges =  -1.00000

 Dipole moment (field-independent basis, Debye):
    X=              4.2991    Y=              3.8769    Z=             -1.1842  Tot=              5.9089

 Test job not archived.
 1\1\GINC-SE123\SP\RHF\Aug-CC-pVDZ\C3H6Cl1F1N3(1-)\OHZDE\09-Apr-2025\0\
 \#t hf aug-cc-pvdz iop(5/13=1,5/36=2,99/5=2) pseudo=read geom=check gu
 ess=(read,tcheck) scf=(maxcycle=1)\\title\\-1,1\C,0,0.124011,-0.001603
 ,0.006456\C,0,-0.518005,0.064403,-1.382786\F,0,1.448867,-0.477892,-0.1
 93049\H,0,-1.526372,0.475776,-1.262014\H,0,0.272809,1.006866,0.412692\
 N,0,-0.577458,-0.875547,0.858342\H,0,-1.518431,-1.094898,0.527084\H,0,
 -0.618154,-0.537784,1.806922\N,0,-0.652201,-1.224474,-2.041055\H,0,-1.
 544641,-1.613866,-1.746287\H,0,0.094063,-1.830962,-1.723228\C,0,0.2645

 Normal termination of Gaussian 16 at Wed Apr  9 02:40:03 2025.
