 Gaussian 16, Revision C.01,

 ----------------------------------------------------------------------
 #t hf aug-cc-pvdz symm=none int=(grid=ultrafine) guess=(read,tcheck) s
 table=(opt,rrhf)
 ----------------------------------------------------------------------
 -----
 title
 -----
 Symbolic Z-matrix:
 Charge = -1 Multiplicity = 1

 SCF Done:  E(RHF) =  -740.497872843     A.U. after   16 cycles
 Normal termination of Gaussian 16 at Wed Apr  9 02:53:45 2025.
 Gaussian 16:  ES64L-G16RevC.01  3-Jul-2019

 ----------------------------------------------------------------------
 #t hf aug-cc-pvdz iop(5/13=1,5/36=2,99/5=2) pseudo=read geom=check gue
 ss=(read,tcheck) scf=(maxcycle=1)
 ----------------------------------------------------------------------
 -----
 title
 -----
 Structure from the checkpoint file:  "E2SN2_369_mol2.chk"
 Charge = -1 Multiplicity = 1

                         Standard orientation:
 ---------------------------------------------------------------------
 Center     Atomic      Atomic             Coordinates (Angstroms)
 Number     Number       Type             X           Y           Z
 ---------------------------------------------------------------------
      1          6           0        0.476231   -0.730538   -0.000215
      2          6           0       -0.720784   -0.034813   -0.686402
      3         17           0        1.963726    0.332473   -0.321638
      4          1           0       -0.419139    0.285194   -1.689669
      5          1           0        0.668188   -1.649629   -0.558188
      6          7           0        0.334967   -1.048426    1.357811
      7          1           0       -0.082630   -0.279715    1.871538
      8          1           0       -0.299732   -1.893490    1.418660
      9          6           0       -1.073376    1.188668    0.056768
     10          7           0       -1.346253    2.156912    0.662271
     11          7           0       -1.881162   -0.909975   -0.783100
     12          1           0       -1.886270   -1.576388    0.013995
     13          1           0       -1.751113   -1.498520   -1.598938
     14          1           0       -1.457938   -2.968982    1.130668
 ---------------------------------------------------------------------

 SCF Done:  E(RHF) =  -740.598660301     A.U. after    2 cycles

 The electronic state is 1-A.
 Alpha  occ. eigenvalues -- -103.52596 -15.52984 -15.49128 -15.47261 -11.22338
 Alpha  occ. eigenvalues --  -11.20372 -11.17981 -10.55943  -8.21643  -8.21389
 Alpha  occ. eigenvalues --   -8.21384  -1.10511  -1.06184  -1.03016  -0.98700
 Alpha  occ. eigenvalues --   -0.85336  -0.73377  -0.59861  -0.55775  -0.54287
 Alpha  occ. eigenvalues --   -0.51189  -0.46789  -0.45458  -0.42806  -0.40065
 Alpha  occ. eigenvalues --   -0.35239  -0.34483  -0.34021  -0.33178  -0.29558
 Alpha  occ. eigenvalues --   -0.26313  -0.11073
 Alpha virt. eigenvalues --    0.12193   0.14820   0.15056   0.16011   0.18002
 Alpha virt. eigenvalues --    0.18867   0.19908   0.20389   0.21922   0.22424
 Alpha virt. eigenvalues --    0.23433   0.24282   0.24931   0.25429   0.26217

 Mulliken charges:
               1
     1  C    0.228184
     2  C    1.118630
     3  Cl  -0.241566
     4  H   -0.108546
     5  H   -0.030646
     6  N   -0.356540
     7  H   -0.007421
     8  H    0.115677
     9  C   -0.340883
    10  N   -0.257227
    11  N   -0.476048
    12  H    0.028091
    13  H    0.033910
    14  H   -0.705615
 Sum of Mulliken charges =  -1.00000

 Dipole moment (field-independent basis, Debye):
    X=              4.1854    Y=              5.5663    Z=             -5.7538  Tot=              9.0337

 Test job not archived.
 1\1\GINC-SE208\SP\RHF\Aug-CC-pVDZ\C3H7Cl1N3(1-)\OHZDE\09-Apr-2025\0\\#
 t hf aug-cc-pvdz iop(5/13=1,5/36=2,99/5=2) pseudo=read geom=check gues
 s=(read,tcheck) scf=(maxcycle=1)\\title\\-1,1\C,0,-0.034249,-0.007681,
 -0.057381\C,0,-0.27786,-0.064833,-1.582215\Cl,0,1.803887,0.08837,0.183
 402\H,0,0.422481,-0.779487,-2.028007\H,0,-0.314249,-0.984552,0.342909\
 N,0,-0.715694,0.98576,0.659521\H,0,-0.681724,1.875549,0.173372\H,0,-1.
 723879,0.674955,0.746947\C,0,0.024122,1.248433,-2.180269\N,0,0.262733,
 2.301545,-2.641366\N,0,-1.643427,-0.456101,-1.904508\H,0,-2.287301,-0.

 Normal termination of Gaussian 16 at Wed Apr  9 02:53:50 2025.
