 Gaussian 16, Revision C.01,

 ----------------------------------------------------------------------
 #t hf aug-cc-pvdz symm=none int=(grid=ultrafine) guess=(read,tcheck) s
 table=(opt,rrhf)
 ----------------------------------------------------------------------
 -----
 title
 -----
 Symbolic Z-matrix:
 Charge = -1 Multiplicity = 1

 SCF Done:  E(RHF) =  -518.437349322     A.U. after   15 cycles
 Normal termination of Gaussian 16 at Wed Apr  9 02:47:30 2025.
 Gaussian 16:  ES64L-G16RevC.01  3-Jul-2019

 ----------------------------------------------------------------------
 #t hf aug-cc-pvdz iop(5/13=1,5/36=2,99/5=2) pseudo=read geom=check gue
 ss=(read,tcheck) scf=(maxcycle=1)
 ----------------------------------------------------------------------
 -----
 title
 -----
 Structure from the checkpoint file:  "E2SN2_288_mol2.chk"
 Charge = -1 Multiplicity = 1

                         Standard orientation:
 ---------------------------------------------------------------------
 Center     Atomic      Atomic             Coordinates (Angstroms)
 Number     Number       Type             X           Y           Z
 ---------------------------------------------------------------------
      1          6           0       -0.703351    0.391137    0.124587
      2          6           0        0.342813    0.121305   -0.967945
      3          9           0       -1.379537    1.586331   -0.186722
      4          1           0       -0.175713    0.319712   -1.915665
      5          6           0       -1.745736   -0.656675    0.086564
      6          7           0       -2.658889   -1.395153    0.093216
      7          6           0       -0.093437    0.528287    1.504997
      8          1           0        0.356561    1.521332    1.540552
      9          1           0        0.726214   -0.186405    1.638115
     10          1           0       -0.857410    0.442387    2.280821
     11          7           0        0.690724   -1.293772   -0.891339
     12          1           0        1.132600   -1.551839   -1.767219
     13          1           0        1.429260   -1.335373   -0.158934
     14          7           0        1.433980    1.076592   -0.804660
     15          1           0        2.053202    0.624721   -0.104673
     16          1           0        1.950268    1.096641   -1.678391
     17          9           0        2.526489   -0.691794    0.952906
 ---------------------------------------------------------------------

 SCF Done:  E(RHF) =  -518.595565709     A.U. after    2 cycles

 The electronic state is 1-A.
 Alpha  occ. eigenvalues --  -25.98843 -25.76716 -15.51754 -15.45408 -15.45069
 Alpha  occ. eigenvalues --  -11.23224 -11.16843 -11.16735 -11.09429  -1.51976
 Alpha  occ. eigenvalues --   -1.25865  -1.07086  -1.04882  -0.94133  -0.92684
 Alpha  occ. eigenvalues --   -0.79417  -0.71013  -0.65227  -0.59994  -0.59639
 Alpha  occ. eigenvalues --   -0.55727  -0.47875  -0.47355  -0.46286  -0.44767
 Alpha  occ. eigenvalues --   -0.42331  -0.42213  -0.39492  -0.39325  -0.34997
 Alpha  occ. eigenvalues --   -0.34887  -0.33912  -0.33657  -0.31726  -0.28811
 Alpha  occ. eigenvalues --   -0.23074
 Alpha virt. eigenvalues --    0.12532   0.13726   0.14430   0.14665   0.16248
 Alpha virt. eigenvalues --    0.18495   0.18740   0.19747   0.20670   0.21436
 Alpha virt. eigenvalues --    0.23053   0.23527   0.24400   0.25847   0.26247

 Mulliken charges:
               1
     1  C    0.407185
     2  C    0.846389
     3  F   -0.518614
     4  H   -0.124661
     5  C   -0.618193
     6  N   -0.240464
     7  C    0.723457
     8  H    0.102950
     9  H   -0.026589
    10  H   -0.137347
    11  N   -0.328891
    12  H   -0.036419
    13  H    0.163604
    14  N   -0.358627
    15  H    0.176652
    16  H   -0.054365
    17  F   -0.976068
 Sum of Mulliken charges =  -1.00000

 Dipole moment (field-independent basis, Debye):
    X=             -2.1731    Y=              2.4048    Z=             -3.0081  Tot=              4.4220

 Test job not archived.
 1\1\GINC-SE112\SP\RHF\Aug-CC-pVDZ\C4H8F2N3(1-)\OHZDE\09-Apr-2025\0\\#t
  hf aug-cc-pvdz iop(5/13=1,5/36=2,99/5=2) pseudo=read geom=check guess
 =(read,tcheck) scf=(maxcycle=1)\\title\\-1,1\C,0,0.08749,-0.008145,0.0
 03053\C,0,-0.553806,0.402612,-1.331455\F,0,1.36859,-0.531499,-0.256779
 \H,0,0.23911,0.928986,-1.879744\C,0,0.327936,1.192735,0.831302\N,0,0.6
 26373,2.084796,1.534441\C,0,-0.71787,-1.053492,0.748025\H,0,-0.527217,
 -2.000825,0.24195\H,0,-1.791326,-0.859866,0.645393\H,0,-0.400105,-1.12
 2722,1.790699\N,0,-1.632394,1.335525,-1.022139\H,0,-1.861027,1.837726,

 Normal termination of Gaussian 16 at Wed Apr  9 02:47:38 2025.
