 Gaussian 16, Revision C.01,

 ----------------------------------------------------------------------
 #t hf aug-cc-pvdz symm=none int=(grid=ultrafine) guess=(read,tcheck) s
 table=(opt,rrhf)
 ----------------------------------------------------------------------
 -----
 title
 -----
 Symbolic Z-matrix:
 Charge = -1 Multiplicity = 1

 SCF Done:  E(RHF) =  -860.129067339     A.U. after   16 cycles
 Normal termination of Gaussian 16 at Wed Apr  9 02:50:18 2025.
 Gaussian 16:  ES64L-G16RevC.01  3-Jul-2019

 ----------------------------------------------------------------------
 #t hf aug-cc-pvdz iop(5/13=1,5/36=2,99/5=2) pseudo=read geom=check gue
 ss=(read,tcheck) scf=(maxcycle=1)
 ----------------------------------------------------------------------
 -----
 title
 -----
 Structure from the checkpoint file:  "E2SN2_324_mol1.chk"
 Charge = -1 Multiplicity = 1

                         Standard orientation:
 ---------------------------------------------------------------------
 Center     Atomic      Atomic             Coordinates (Angstroms)
 Number     Number       Type             X           Y           Z
 ---------------------------------------------------------------------
      1          6           0       -0.847372    0.363616   -0.322262
      2          1           0        0.265451    1.499951    1.000548
      3         17           0       -0.298916   -1.592372   -1.181437
      4          9           0       -1.227261    2.243146    0.044853
      5          6           0        0.447026    0.564171    0.458552
      6          1           0       -0.896937    0.757354   -1.317082
      7          6           0       -2.070008   -0.087983    0.427766
      8          1           0       -1.877372   -1.006783    0.982304
      9          1           0       -2.373849    0.715667    1.094801
     10          1           0       -2.871121   -0.287983   -0.284243
     11          6           0        1.605782    0.783585   -0.407377
     12          7           0        2.551869    1.027061   -1.058127
     13          6           0        0.730685   -0.492624    1.434271
     14          7           0        0.974424   -1.252889    2.295089
 ---------------------------------------------------------------------

 SCF Done:  E(RHF) =  -860.260843918     A.U. after    2 cycles

 The electronic state is 1-A.
 Alpha  occ. eigenvalues -- -103.44611 -25.81723 -15.54092 -15.53805 -11.23928
 Alpha  occ. eigenvalues --  -11.21836 -11.19679 -11.19381 -11.12070 -10.47939
 Alpha  occ. eigenvalues --   -8.13580  -8.13444  -8.13434  -1.31572  -1.09318
 Alpha  occ. eigenvalues --   -1.07129  -1.00475  -0.91868  -0.87664  -0.73103
 Alpha  occ. eigenvalues --   -0.65736  -0.59261  -0.54330  -0.48587  -0.47024
 Alpha  occ. eigenvalues --   -0.45221  -0.43930  -0.42635  -0.40962  -0.40596
 Alpha  occ. eigenvalues --   -0.38743  -0.36386  -0.35898  -0.34687  -0.33487
 Alpha  occ. eigenvalues --   -0.28077  -0.27374  -0.27253
 Alpha virt. eigenvalues --    0.13241   0.14016   0.15018   0.15999   0.16576
 Alpha virt. eigenvalues --    0.18016   0.18964   0.20816   0.22199   0.23140
 Alpha virt. eigenvalues --    0.23467   0.24511   0.25096   0.25583   0.25684

 Mulliken charges:
               1
     1  C    0.119694
     2  H    0.188567
     3  Cl  -0.640356
     4  F   -0.851909
     5  C    1.082025
     6  H   -0.501494
     7  C    0.589813
     8  H   -0.004720
     9  H    0.043436
    10  H    0.009296
    11  C   -0.281475
    12  N   -0.258953
    13  C   -0.204299
    14  N   -0.289626
 Sum of Mulliken charges =  -1.00000

 Dipole moment (field-independent basis, Debye):
    X=             -1.5572    Y=             -0.3648    Z=              1.7188  Tot=              2.3478

 Test job not archived.
 1\1\GINC-SE460\SP\RHF\Aug-CC-pVDZ\C5H5Cl1F1N2(1-)\OHZDE\09-Apr-2025\0\
 \#t hf aug-cc-pvdz iop(5/13=1,5/36=2,99/5=2) pseudo=read geom=check gu
 ess=(read,tcheck) scf=(maxcycle=1)\\title\\-1,1\C,0,0.60836558,-0.0686
 1669,-0.04578505\H,0,1.60452949,1.73024688,-0.27206893\Cl,0,-1.5662015
 7,-0.3648292,0.17419448\F,0,2.53836454,0.11393952,0.18551484\C,0,0.558
 72009,1.45482039,-0.09086328\H,0,0.74219586,-0.53617814,0.90848416\C,0
 ,0.77763606,-0.81525487,-1.34008057\H,0,0.01043343,-0.53468753,-2.0622
 2879\H,0,1.77311154,-0.60467414,-1.72452006\H,0,0.68342277,-1.88461334

 Normal termination of Gaussian 16 at Wed Apr  9 02:50:24 2025.
