 Gaussian 16, Revision C.01,

 ----------------------------------------------------------------------
 #t hf aug-cc-pvdz symm=none int=(grid=ultrafine) guess=(read,tcheck) s
 table=(opt,rrhf)
 ----------------------------------------------------------------------
 -----
 title
 -----
 Symbolic Z-matrix:
 Charge = -1 Multiplicity = 1

 SCF Done:  E(RHF) =  -915.158275106     A.U. after   17 cycles
 Normal termination of Gaussian 16 at Wed Apr  9 02:46:40 2025.
 Gaussian 16:  ES64L-G16RevC.01  3-Jul-2019

 ----------------------------------------------------------------------
 #t hf aug-cc-pvdz iop(5/13=1,5/36=2,99/5=2) pseudo=read geom=check gue
 ss=(read,tcheck) scf=(maxcycle=1)
 ----------------------------------------------------------------------
 -----
 title
 -----
 Structure from the checkpoint file:  "E2SN2_283_mol1.chk"
 Charge = -1 Multiplicity = 1

                         Standard orientation:
 ---------------------------------------------------------------------
 Center     Atomic      Atomic             Coordinates (Angstroms)
 Number     Number       Type             X           Y           Z
 ---------------------------------------------------------------------
      1          6           0       -0.298708    0.039770    0.324869
      2          1           0        0.431265   -1.097884   -1.360533
      3          9           0        0.930442    1.488880    0.855156
      4         17           0       -1.824476   -1.436749   -0.405385
      5          6           0        0.741919   -0.233528   -0.772499
      6          6           0       -1.225054    1.132820    0.146846
      7          7           0       -1.974945    2.032538    0.037771
      8          6           0       -0.175115   -0.608338    1.686365
      9          1           0       -1.142879   -0.594276    2.185501
     10          1           0        0.130207   -1.648925    1.575287
     11          1           0        0.562542   -0.052054    2.258615
     12          6           0        2.024473   -0.605080   -0.129480
     13          7           0        3.065540   -0.985948    0.260608
     14          7           0        0.846444    0.907260   -1.662976
     15          1           0        1.538341    0.715245   -2.377439
     16          1           0        1.158285    1.671899   -1.070722
 ---------------------------------------------------------------------

 SCF Done:  E(RHF) =  -915.304517539     A.U. after    2 cycles

 The electronic state is 1-A.
 Alpha  occ. eigenvalues -- -103.45751 -25.83424 -15.52554 -15.50881 -15.50479
 Alpha  occ. eigenvalues --  -11.27809 -11.21537 -11.17933 -11.17380 -11.12774
 Alpha  occ. eigenvalues --  -10.49048  -8.14688  -8.14543  -8.14534  -1.33585
 Alpha  occ. eigenvalues --   -1.09446  -1.05579  -1.04239  -0.97623  -0.90121
 Alpha  occ. eigenvalues --   -0.84036  -0.78397  -0.60811  -0.60258  -0.55882
 Alpha  occ. eigenvalues --   -0.51456  -0.47972  -0.46682  -0.44935  -0.43850
 Alpha  occ. eigenvalues --   -0.43302  -0.41796  -0.41296  -0.39586  -0.35741
 Alpha  occ. eigenvalues --   -0.34346  -0.33489  -0.32427  -0.29854  -0.28326
 Alpha  occ. eigenvalues --   -0.27988  -0.27050
 Alpha virt. eigenvalues --    0.12348   0.13556   0.14095   0.15918   0.16596
 Alpha virt. eigenvalues --    0.17827   0.17837   0.19550   0.19822   0.20634
 Alpha virt. eigenvalues --    0.22003   0.22763   0.23798   0.24873   0.25427

 Mulliken charges:
               1
     1  C    0.246795
     2  H   -0.076084
     3  F   -0.812180
     4  Cl  -0.560662
     5  C    1.092161
     6  C   -0.623635
     7  N   -0.297441
     8  C    0.559889
     9  H   -0.057073
    10  H    0.097599
    11  H    0.173597
    12  C   -0.199713
    13  N   -0.303583
    14  N   -0.348046
    15  H   -0.020468
    16  H    0.128845
 Sum of Mulliken charges =  -1.00000

 Dipole moment (field-independent basis, Debye):
    X=              1.6464    Y=             -2.2383    Z=             -1.0588  Tot=              2.9735

 Test job not archived.
 1\1\GINC-SE460\SP\RHF\Aug-CC-pVDZ\C5H6Cl1F1N3(1-)\OHZDE\09-Apr-2025\0\
 \#t hf aug-cc-pvdz iop(5/13=1,5/36=2,99/5=2) pseudo=read geom=check gu
 ess=(read,tcheck) scf=(maxcycle=1)\\title\\-1,1\C,0,0.75174154,-0.0129
 8785,0.03516372\H,0,1.64176401,1.95250504,0.1464986\F,0,-1.21288737,0.
 04918877,-0.13306974\Cl,0,2.99419442,-0.11109999,-0.02075243\C,0,0.647
 84144,1.52028294,0.02524036\C,0,0.65795245,-0.72358175,-1.21816324\N,0
 ,0.55980183,-1.32798598,-2.22254694\C,0,0.64949368,-0.78655135,1.33136
 319\H,0,1.08971714,-1.77411853,1.20168745\H,0,1.20516248,-0.27162483,2

 Normal termination of Gaussian 16 at Wed Apr  9 02:46:49 2025.
