 Gaussian 16, Revision C.01,

 ----------------------------------------------------------------------
 #t hf aug-cc-pvdz symm=none int=(grid=ultrafine) guess=(read,tcheck) s
 table=(opt,rrhf)
 ----------------------------------------------------------------------
 -----
 title
 -----
 Symbolic Z-matrix:
 Charge = -1 Multiplicity = 1

 SCF Done:  E(RHF) =  -816.217211987     A.U. after   17 cycles
 Normal termination of Gaussian 16 at Wed Apr  9 03:00:37 2025.
 Gaussian 16:  ES64L-G16RevC.01  3-Jul-2019

 ----------------------------------------------------------------------
 #t hf aug-cc-pvdz iop(5/13=1,5/36=2,99/5=2) pseudo=read geom=check gue
 ss=(read,tcheck) scf=(maxcycle=1)
 ----------------------------------------------------------------------
 -----
 title
 -----
 Structure from the checkpoint file:  "E2SN2_89_mol1.chk"
 Charge = -1 Multiplicity = 1

                         Standard orientation:
 ---------------------------------------------------------------------
 Center     Atomic      Atomic             Coordinates (Angstroms)
 Number     Number       Type             X           Y           Z
 ---------------------------------------------------------------------
      1          6           0       -0.570359   -0.158865   -0.276529
      2          6           0        0.922119   -0.278474   -0.526835
      3         17           0       -1.001727   -0.547976    1.484329
      4          1           0        0.580301   -0.563015   -3.019151
      5          1           0        0.923218   -0.168646   -1.738507
      6          6           0       -1.006682    1.232537   -0.476837
      7          7           0       -1.354355    2.341007   -0.652122
      8          7           0       -1.357017   -1.015513   -1.127709
      9          1           0       -1.211908   -1.970837   -0.816254
     10          1           0       -0.891597   -0.937602   -2.057598
     11          6           0        1.466441   -1.686958   -0.342184
     12          1           0        1.108978   -2.303850   -1.172878
     13          1           0        2.557012   -1.665298   -0.403071
     14          1           0        1.178334   -2.132513    0.614147
     15          6           0        1.703437    0.725905    0.148571
     16          7           0        2.382125    1.539146    0.665917
 ---------------------------------------------------------------------

 SCF Done:  E(RHF) =  -816.337979541     A.U. after    2 cycles

 The electronic state is 1-A.
 Alpha  occ. eigenvalues -- -103.54991 -15.53727 -15.51702 -15.50867 -11.27777
 Alpha  occ. eigenvalues --  -11.18520 -11.17147 -11.14965 -11.13029 -10.58317
 Alpha  occ. eigenvalues --   -8.24019  -8.23749  -8.23741  -1.12915  -1.06189
 Alpha  occ. eigenvalues --   -1.05580  -1.01231  -0.94840  -0.84279  -0.75026
 Alpha  occ. eigenvalues --   -0.62129  -0.59218  -0.54702  -0.51642  -0.46674
 Alpha  occ. eigenvalues --   -0.45858  -0.44192  -0.43194  -0.41692  -0.40016
 Alpha  occ. eigenvalues --   -0.37220  -0.35683  -0.34717  -0.34076  -0.33628
 Alpha  occ. eigenvalues --   -0.32129  -0.30191  -0.12560
 Alpha virt. eigenvalues --    0.12130   0.13670   0.14637   0.15999   0.17376
 Alpha virt. eigenvalues --    0.17986   0.18398   0.19000   0.19435   0.20395
 Alpha virt. eigenvalues --    0.22446   0.22885   0.23327   0.24652   0.24803

 Mulliken charges:
               1
     1  C    0.971168
     2  C   -0.144580
     3  Cl  -0.247550
     4  H   -0.363781
     5  H   -0.106051
     6  C   -0.417828
     7  N   -0.212480
     8  N   -0.507002
     9  H    0.063740
    10  H    0.119623
    11  C    0.956251
    12  H   -0.005029
    13  H   -0.086892
    14  H   -0.001764
    15  C   -0.731742
    16  N   -0.286084
 Sum of Mulliken charges =  -1.00000

 Dipole moment (field-independent basis, Debye):
    X=             -1.3478    Y=             -4.5980    Z=              6.0734  Tot=              7.7359

 Test job not archived.
 1\1\GINC-SE129\SP\RHF\Aug-CC-pVDZ\C5H7Cl1N3(1-)\OHZDE\09-Apr-2025\0\\#
 t hf aug-cc-pvdz iop(5/13=1,5/36=2,99/5=2) pseudo=read geom=check gues
 s=(read,tcheck) scf=(maxcycle=1)\\title\\-1,1\C,0,-0.15198498,0.004122
 84,-0.39468601\C,0,-0.07632294,-0.04402367,1.12070411\Cl,0,1.53335426,
 0.11076785,-1.16043058\H,0,-2.4674653,0.75174299,1.36285338\H,0,-1.259
 55666,0.07798757,1.37621114\C,0,-0.72674641,-1.24819097,-0.91223903\N,
 0,-1.19968603,-2.2428773,-1.321182\N,0,-0.93577183,1.10887702,-0.88700
 764\H,0,-0.40462738,1.95775488,-0.71968403\H,0,-1.75231475,1.14282534,

 Normal termination of Gaussian 16 at Wed Apr  9 03:00:45 2025.
