 Gaussian 16, Revision C.01,

 ----------------------------------------------------------------------
 #t hf aug-cc-pvdz symm=none int=(grid=ultrafine) guess=(read,tcheck) s
 table=(opt,rrhf)
 ----------------------------------------------------------------------
 -----
 title
 -----
 Symbolic Z-matrix:
 Charge = -1 Multiplicity = 1

 SCF Done:  E(RHF) =  -1199.56742584     A.U. after   15 cycles
 Normal termination of Gaussian 16 at Wed Apr  9 02:58:21 2025.
 Gaussian 16:  ES64L-G16RevC.01  3-Jul-2019

 ----------------------------------------------------------------------
 #t hf aug-cc-pvdz iop(5/13=1,5/36=2,99/5=2) pseudo=read geom=check gue
 ss=(read,tcheck) scf=(maxcycle=1)
 ----------------------------------------------------------------------
 -----
 title
 -----
 Structure from the checkpoint file:  "E2SN2_52_mol2.chk"
 Charge = -1 Multiplicity = 1

                         Standard orientation:
 ---------------------------------------------------------------------
 Center     Atomic      Atomic             Coordinates (Angstroms)
 Number     Number       Type             X           Y           Z
 ---------------------------------------------------------------------
      1          6           0       -0.727887    0.002021   -0.149764
      2          6           0        0.008717    0.508672    1.088917
      3         17           0       -1.531353   -1.659532    0.436069
      4          1           0        0.745009   -0.258674    1.342654
      5          1           0       -0.715101    0.592436    1.902202
      6          6           0       -1.909263    0.809011   -0.479196
      7          7           0       -2.853283    1.455327   -0.745413
      8          7           0        0.119258   -0.127792   -1.223847
      9          1           0       -0.269150   -0.528570   -2.062212
     10          1           0        1.083816   -0.400406   -1.005487
     11          7           0        0.591533    1.810232    0.795059
     12          1           0        0.840368    2.249803    1.673508
     13          1           0        1.465060    1.634141    0.303258
     14         17           0        3.155944   -0.291722   -0.241614
 ---------------------------------------------------------------------

 SCF Done:  E(RHF) =  -1199.67891720     A.U. after    2 cycles

 The electronic state is 1-A.
 Alpha  occ. eigenvalues -- -103.52886-103.38878 -15.54427 -15.51343 -15.49206
 Alpha  occ. eigenvalues --  -11.27673 -11.19551 -11.16591 -10.56202 -10.41983
 Alpha  occ. eigenvalues --   -8.21883  -8.21639  -8.21637  -8.07585  -8.07554
 Alpha  occ. eigenvalues --   -8.07541  -1.13111  -1.07056  -1.03203  -1.00073
 Alpha  occ. eigenvalues --   -0.86120  -0.84249  -0.76309  -0.63093  -0.56596
 Alpha  occ. eigenvalues --   -0.53775  -0.53011  -0.49192  -0.45006  -0.44622
 Alpha  occ. eigenvalues --   -0.41787  -0.37140  -0.36124  -0.34184  -0.33046
 Alpha  occ. eigenvalues --   -0.28594  -0.28576  -0.22520  -0.22129  -0.21937
 Alpha virt. eigenvalues --    0.12422   0.13430   0.14521   0.16601   0.17529
 Alpha virt. eigenvalues --    0.18433   0.18641   0.19624   0.21254   0.22556
 Alpha virt. eigenvalues --    0.23388   0.23460   0.25203   0.25931   0.26243

 Mulliken charges:
               1
     1  C    0.525718
     2  C    1.039234
     3  Cl  -0.239353
     4  H   -0.041120
     5  H   -0.162703
     6  C   -0.305171
     7  N   -0.251537
     8  N   -0.346492
     9  H   -0.049759
    10  H    0.034083
    11  N   -0.368295
    12  H   -0.022256
    13  H    0.111367
    14  Cl  -0.923717
 Sum of Mulliken charges =  -1.00000

 Dipole moment (field-independent basis, Debye):
    X=             -5.7505    Y=              0.1299    Z=              1.6161  Tot=              5.9747

 Test job not archived.
 1\1\GINC-SE188\SP\RHF\Aug-CC-pVDZ\C3H6Cl2N3(1-)\OHZDE\09-Apr-2025\0\\#
 t hf aug-cc-pvdz iop(5/13=1,5/36=2,99/5=2) pseudo=read geom=check gues
 s=(read,tcheck) scf=(maxcycle=1)\\title\\-1,1\C,0,-0.485637,0.087994,-
 1.388354\C,0,-0.179301,-0.209773,0.07831\Cl,0,-0.279543,-1.627536,-2.2
 62424\H,0,0.846874,-0.585926,0.106618\H,0,-0.858036,-0.997176,0.412491
 \C,0,-1.904918,0.379157,-1.625579\N,0,-3.039743,0.614807,-1.816395\N,0
 ,0.329729,1.076535,-1.884464\H,0,0.246264,1.283148,-2.866647\H,0,1.281
 015,1.109036,-1.501882\N,0,-0.384988,1.000577,0.861146\H,0,-0.441042,0

 Normal termination of Gaussian 16 at Wed Apr  9 02:58:27 2025.
