 Gaussian 16, Revision C.01,

 ----------------------------------------------------------------------
 #t hf aug-cc-pvdz symm=none int=(grid=ultrafine) guess=(read,tcheck) s
 table=(opt,rrhf)
 ----------------------------------------------------------------------
 -----
 title
 -----
 Symbolic Z-matrix:
 Charge = -1 Multiplicity = 1

 SCF Done:  E(RHF) =  -630.228306645     A.U. after   16 cycles
 Normal termination of Gaussian 16 at Wed Apr  9 02:58:03 2025.
 Gaussian 16:  ES64L-G16RevC.01  3-Jul-2019

 ----------------------------------------------------------------------
 #t hf aug-cc-pvdz iop(5/13=1,5/36=2,99/5=2) pseudo=read geom=check gue
 ss=(read,tcheck) scf=(maxcycle=1)
 ----------------------------------------------------------------------
 -----
 title
 -----
 Structure from the checkpoint file:  "E2SN2_411_mol2.chk"
 Charge = -1 Multiplicity = 1

                         Standard orientation:
 ---------------------------------------------------------------------
 Center     Atomic      Atomic             Coordinates (Angstroms)
 Number     Number       Type             X           Y           Z
 ---------------------------------------------------------------------
      1          6           0       -0.653397   -0.325787   -0.610169
      2          6           0        0.262433   -0.119206    0.626624
      3          9           0        0.091832   -1.055907   -1.549014
      4          1           0       -0.278284    0.627598    1.217760
      5          7           0       -1.769206   -1.106257   -0.168723
      6          1           0       -2.395899   -1.135310   -0.969074
      7          1           0       -2.204672   -0.453097    0.517325
      8          7           0       -1.091503    0.884998   -1.239184
      9          1           0       -1.661148    1.306953   -0.487190
     10          1           0       -0.297070    1.494171   -1.402414
     11          7           0        1.541155    0.496049    0.163568
     12          8           0        1.527026    1.697378   -0.123967
     13          8           0        2.543126   -0.214332    0.064315
     14          6           0        0.549690   -1.390252    1.393828
     15          1           0       -0.382615   -1.739264    1.832461
     16          1           0        1.279999   -1.206115    2.186266
     17          1           0        0.937232   -2.162301    0.729848
     18          9           0       -2.233415    1.110456    1.226893
 ---------------------------------------------------------------------

 SCF Done:  E(RHF) =  -630.422350829     A.U. after    2 cycles

 The electronic state is 1-A.
 Alpha  occ. eigenvalues --  -25.97148 -25.77222 -20.49554 -20.49201 -15.78364
 Alpha  occ. eigenvalues --  -15.45902 -15.45819 -11.25125 -11.16538 -11.11277
 Alpha  occ. eigenvalues --   -1.50820  -1.41438  -1.26317  -1.23057  -1.08161
 Alpha  occ. eigenvalues --   -0.97053  -0.96053  -0.82239  -0.75349  -0.69742
 Alpha  occ. eigenvalues --   -0.64661  -0.62635  -0.61159  -0.59919  -0.57142
 Alpha  occ. eigenvalues --   -0.54454  -0.50032  -0.48231  -0.47165  -0.44931
 Alpha  occ. eigenvalues --   -0.44301  -0.42525  -0.39751  -0.38566  -0.37270
 Alpha  occ. eigenvalues --   -0.35423  -0.35255  -0.35061  -0.34431  -0.27443
 Alpha  occ. eigenvalues --   -0.26450
 Alpha virt. eigenvalues --    0.12851   0.13795   0.14888   0.15296   0.16208
 Alpha virt. eigenvalues --    0.17750   0.18864   0.19741   0.20258   0.21073
 Alpha virt. eigenvalues --    0.22555   0.24085   0.24724   0.25099   0.26283

 Mulliken charges:
               1
     1  C    0.941111
     2  C    0.580512
     3  F   -0.470168
     4  H   -0.219027
     5  N   -0.474087
     6  H   -0.031005
     7  H    0.228869
     8  N   -0.487066
     9  H    0.139921
    10  H    0.055875
    11  N    0.225469
    12  O   -0.630929
    13  O   -0.595135
    14  C    0.641028
    15  H    0.032137
    16  H    0.007191
    17  H    0.054494
    18  F   -0.999191
 Sum of Mulliken charges =  -1.00000

 Dipole moment (field-independent basis, Debye):
    X=              3.1489    Y=             -2.6305    Z=             -0.3723  Tot=              4.1199

 Test job not archived.
 1\1\GINC-SE222\SP\RHF\Aug-CC-pVDZ\C3H8F2N3O2(1-)\OHZDE\09-Apr-2025\0\\
 #t hf aug-cc-pvdz iop(5/13=1,5/36=2,99/5=2) pseudo=read geom=check gue
 ss=(read,tcheck) scf=(maxcycle=1)\\title\\-1,1\C,0,0.007126,-0.001,-0.
 003952\C,0,-0.4168,-0.180006,-1.486963\F,0,1.410376,0.016582,0.017263\
 H,0,-1.486256,-0.40566,-1.417118\N,0,-0.497008,1.271137,0.416234\H,0,-
 0.294805,1.312136,1.412016\H,0,-1.523873,1.110343,0.334967\N,0,-0.4349
 03,-1.043218,0.874678\H,0,-1.460687,-0.929976,0.820096\H,0,-0.203423,-
 1.947769,0.478364\N,0,0.275285,-1.386658,-2.028349\O,0,-0.156144,-2.49

 Normal termination of Gaussian 16 at Wed Apr  9 02:58:13 2025.
