 Gaussian 16, Revision C.01,

 ----------------------------------------------------------------------
 #t hf aug-cc-pvdz symm=none int=(grid=ultrafine) guess=(read,tcheck) s
 table=(opt,rrhf)
 ----------------------------------------------------------------------
 -----
 title
 -----
 Symbolic Z-matrix:
 Charge = -1 Multiplicity = 1

 SCF Done:  E(RHF) =  -1079.60478634     A.U. after   18 cycles
 Normal termination of Gaussian 16 at Wed Apr  9 02:42:38 2025.
 Gaussian 16:  ES64L-G16RevC.01  3-Jul-2019

 ----------------------------------------------------------------------
 #t hf aug-cc-pvdz iop(5/13=1,5/36=2,99/5=2) pseudo=read geom=check gue
 ss=(read,tcheck) scf=(maxcycle=1)
 ----------------------------------------------------------------------
 -----
 title
 -----
 Structure from the checkpoint file:  "E2SN2_228_mol1.chk"
 Charge = -1 Multiplicity = 1

                         Standard orientation:
 ---------------------------------------------------------------------
 Center     Atomic      Atomic             Coordinates (Angstroms)
 Number     Number       Type             X           Y           Z
 ---------------------------------------------------------------------
      1          6           0       -0.176724   -0.054530    0.134281
      2          1           0        0.762261    0.560691   -1.682812
      3          9           0       -0.212343    1.197893    1.558521
      4         17           0       -0.341680   -1.625499   -1.343159
      5          6           0        0.937684    0.736275   -0.621744
      6          7           0       -1.582297    0.404271   -0.077096
      7          8           0       -1.738416    1.273355   -0.929766
      8          8           0       -2.460097   -0.119473    0.586552
      9          6           0        0.061415   -0.969942    1.220195
     10          7           0        0.292040   -1.759163    2.060841
     11          6           0        2.221185    0.103033   -0.285360
     12          7           0        3.273953   -0.338679   -0.011397
     13          7           0        1.037721    2.164506   -0.424510
     14          1           0        0.919990    2.309608    0.574039
     15          1           0        0.214230    2.565537   -0.857592
 ---------------------------------------------------------------------

 SCF Done:  E(RHF) =  -1079.80005482     A.U. after    2 cycles

 The electronic state is 1-A.
 Alpha  occ. eigenvalues -- -103.50467 -25.87542 -20.52348 -20.51977 -15.83138
 Alpha  occ. eigenvalues --  -15.54296 -15.53655 -15.51301 -11.35156 -11.24103
 Alpha  occ. eigenvalues --  -11.19859 -11.19224 -10.53733  -8.19394  -8.19196
 Alpha  occ. eigenvalues --   -8.19191  -1.45468  -1.37694  -1.27075  -1.11541
 Alpha  occ. eigenvalues --   -1.07627  -1.06261  -1.02021  -0.94203  -0.87358
 Alpha  occ. eigenvalues --   -0.79143  -0.70685  -0.65360  -0.63361  -0.62494
 Alpha  occ. eigenvalues --   -0.60489  -0.54507  -0.50713  -0.47479  -0.46719
 Alpha  occ. eigenvalues --   -0.46634  -0.44743  -0.44398  -0.42392  -0.42153
 Alpha  occ. eigenvalues --   -0.37765  -0.36408  -0.36354  -0.35807  -0.34903
 Alpha  occ. eigenvalues --   -0.32884  -0.32578  -0.31090  -0.30422
 Alpha virt. eigenvalues --    0.12757   0.14055   0.14321   0.16111   0.17924
 Alpha virt. eigenvalues --    0.18735   0.19644   0.21313   0.21774   0.21902
 Alpha virt. eigenvalues --    0.23368   0.24005   0.24500   0.24757   0.25243

 Mulliken charges:
               1
     1  C    1.410171
     2  H   -0.015779
     3  F   -0.745615
     4  Cl  -0.421714
     5  C    0.992700
     6  N    0.364418
     7  O   -0.661306
     8  O   -0.611534
     9  C   -0.476878
    10  N   -0.222356
    11  C   -0.110849
    12  N   -0.268113
    13  N   -0.405518
    14  H    0.068087
    15  H    0.104287
 Sum of Mulliken charges =  -1.00000

 Dipole moment (field-independent basis, Debye):
    X=             -1.0094    Y=              2.2118    Z=             -3.5245  Tot=              4.2818

 Test job not archived.
 1\1\GINC-SE404\SP\RHF\Aug-CC-pVDZ\C4H3Cl1F1N4O2(1-)\OHZDE\09-Apr-2025\
 0\\#t hf aug-cc-pvdz iop(5/13=1,5/36=2,99/5=2) pseudo=read geom=check
 guess=(read,tcheck) scf=(maxcycle=1)\\title\\-1,1\C,0,0.60374453,0.028
 64701,0.04188778\H,0,1.71822822,1.76594506,-0.50742122\F,0,-1.26574089
 ,0.06143578,-0.27786248\Cl,0,2.70581993,-0.29599064,0.43415304\C,0,0.7
 233241,1.57888231,-0.10413111\N,0,0.63294367,-0.76598088,-1.22244104\O
 ,0,0.8832945,-0.13466,-2.24493079\O,0,0.42781266,-1.96502769,-1.148435
 04\C,0,0.1777838,-0.6512118,1.23781724\N,0,-0.11145708,-1.18060508,2.2

 Normal termination of Gaussian 16 at Wed Apr  9 02:42:49 2025.
