 Gaussian 16, Revision C.01,

 ----------------------------------------------------------------------
 #t hf aug-cc-pvdz symm=none int=(grid=ultrafine) guess=(read,tcheck) s
 table=(opt,rrhf)
 ----------------------------------------------------------------------
 -----
 title
 -----
 Symbolic Z-matrix:
 Charge = -1 Multiplicity = 1

 SCF Done:  E(RHF) =  -419.473444974     A.U. after   16 cycles
 Normal termination of Gaussian 16 at Wed Apr  9 02:34:03 2025.
 Gaussian 16:  ES64L-G16RevC.01  3-Jul-2019

 ----------------------------------------------------------------------
 #t hf aug-cc-pvdz iop(5/13=1,5/36=2,99/5=2) pseudo=read geom=check gue
 ss=(read,tcheck) scf=(maxcycle=1)
 ----------------------------------------------------------------------
 -----
 title
 -----
 Structure from the checkpoint file:  "E2SN2_147_mol2.chk"
 Charge = -1 Multiplicity = 1

                         Standard orientation:
 ---------------------------------------------------------------------
 Center     Atomic      Atomic             Coordinates (Angstroms)
 Number     Number       Type             X           Y           Z
 ---------------------------------------------------------------------
      1          6           0       -0.313906    0.397375    0.198767
      2          6           0        0.860480   -0.341866   -0.459916
      3          9           0       -0.332198    0.084248    1.588580
      4          1           0        0.674034   -0.251410   -1.534455
      5          7           0       -0.242169    1.775214   -0.010115
      6          1           0        0.419203    2.074256   -0.779952
      7          1           0       -1.142068    2.225415   -0.087905
      8          6           0       -1.594488   -0.192640   -0.289023
      9          7           0       -2.610037   -0.625759   -0.692552
     10          6           0        0.883254   -1.809803   -0.059157
     11          1           0        1.094561   -1.889456    1.007810
     12          1           0        1.672406   -2.329814   -0.612349
     13          1           0       -0.063981   -2.310520   -0.276048
     14          7           0        2.106773    0.305655   -0.071561
     15          1           0        2.862139   -0.291664   -0.398424
     16          1           0        2.165147    1.165974   -0.640288
     17          1           0        1.514325    2.344821   -1.900045
 ---------------------------------------------------------------------

 SCF Done:  E(RHF) =  -419.604296757     A.U. after    2 cycles

 The electronic state is 1-A.
 Alpha  occ. eigenvalues --  -25.97939 -15.53609 -15.47277 -15.46348 -11.26782
 Alpha  occ. eigenvalues --  -11.18264 -11.15150 -11.11740  -1.51044  -1.08933
 Alpha  occ. eigenvalues --   -1.05610  -1.00870  -0.88633  -0.81727  -0.71195
 Alpha  occ. eigenvalues --   -0.66062  -0.61155  -0.58384  -0.55271  -0.52294
 Alpha  occ. eigenvalues --   -0.49319  -0.47950  -0.46786  -0.44069  -0.41063
 Alpha  occ. eigenvalues --   -0.38908  -0.38444  -0.36157  -0.34740  -0.27621
 Alpha  occ. eigenvalues --   -0.25891  -0.10715
 Alpha virt. eigenvalues --    0.11998   0.14079   0.14102   0.14721   0.16305
 Alpha virt. eigenvalues --    0.17066   0.18594   0.19898   0.20831   0.20850
 Alpha virt. eigenvalues --    0.22645   0.23286   0.23475   0.24344   0.24910

 Mulliken charges:
               1
     1  C    1.066862
     2  C   -0.086243
     3  F   -0.489515
     4  H   -0.122840
     5  N   -0.415223
     6  H    0.035995
     7  H   -0.004117
     8  C   -0.204950
     9  N   -0.276157
    10  C    0.625288
    11  H    0.045773
    12  H   -0.086927
    13  H   -0.079070
    14  N   -0.376580
    15  H   -0.011134
    16  H    0.088608
    17  H   -0.709770
 Sum of Mulliken charges =  -1.00000

 Dipole moment (field-independent basis, Debye):
    X=             -2.2381    Y=             -7.1384    Z=              3.7172  Tot=              8.3536

 Test job not archived.
 1\1\GINC-SE322\SP\RHF\Aug-CC-pVDZ\C4H9F1N3(1-)\OHZDE\09-Apr-2025\0\\#t
  hf aug-cc-pvdz iop(5/13=1,5/36=2,99/5=2) pseudo=read geom=check guess
 =(read,tcheck) scf=(maxcycle=1)\\title\\-1,1\C,0,-0.299343,-0.08321,-1
 .448744\C,0,-0.013193,-0.235182,0.05277\F,0,-1.707579,0.018188,-1.6399
 34\H,0,1.03611,-0.541843,0.102779\N,0,0.367323,1.014059,-1.995348\H,0,
 1.148933,1.402425,-1.39723\H,0,0.65334,0.883824,-2.954402\C,0,0.035865
 ,-1.362585,-2.139237\N,0,0.329337,-2.353423,-2.699489\C,0,-0.896688,-1
 .30525,0.677555\H,0,-1.936767,-0.978744,0.645244\H,0,-0.6089,-1.455164

 Normal termination of Gaussian 16 at Wed Apr  9 02:34:11 2025.
