 Gaussian 16, Revision C.01,

 ----------------------------------------------------------------------
 #t hf aug-cc-pvdz symm=none int=(grid=ultrafine) guess=(read,tcheck) s
 table=(opt,rrhf)
 ----------------------------------------------------------------------
 -----
 title
 -----
 Symbolic Z-matrix:
 Charge = -1 Multiplicity = 1

 SCF Done:  E(RHF) =  -502.450037925     A.U. after   15 cycles
 Normal termination of Gaussian 16 at Wed Apr  9 02:56:43 2025.
 Gaussian 16:  ES64L-G16RevC.01  3-Jul-2019

 ----------------------------------------------------------------------
 #t hf aug-cc-pvdz iop(5/13=1,5/36=2,99/5=2) pseudo=read geom=check gue
 ss=(read,tcheck) scf=(maxcycle=1)
 ----------------------------------------------------------------------
 -----
 title
 -----
 Structure from the checkpoint file:  "E2SN2_406_mol2.chk"
 Charge = -1 Multiplicity = 1

                         Standard orientation:
 ---------------------------------------------------------------------
 Center     Atomic      Atomic             Coordinates (Angstroms)
 Number     Number       Type             X           Y           Z
 ---------------------------------------------------------------------
      1          6           0        0.470224   -0.531613   -0.397090
      2          6           0       -0.479393    0.190738    0.586395
      3          9           0       -0.222598   -1.650819   -0.910835
      4          1           0        0.118131    1.098753    0.822443
      5          7           0        0.861258    0.313325   -1.488012
      6          1           0        0.018011    0.670507   -1.929955
      7          1           0        1.308653    1.109833   -0.982586
      8          6           0        1.719977   -1.008134    0.308556
      9          1           0        1.494433   -1.752415    1.074731
     10          1           0        2.179257   -0.111398    0.731525
     11          1           0        2.378002   -1.451063   -0.441178
     12          6           0       -0.842955   -0.607807    1.840014
     13          1           0       -1.218607   -1.599461    1.573332
     14          1           0        0.035045   -0.719828    2.477674
     15          1           0       -1.612447   -0.090464    2.419120
     16          6           0       -1.697234    0.580305   -0.119681
     17          7           0       -2.691535    0.886757   -0.667102
     18          9           0        1.676794    1.951267    0.469893
 ---------------------------------------------------------------------

 SCF Done:  E(RHF) =  -502.605161030     A.U. after    2 cycles

 The electronic state is 1-A.
 Alpha  occ. eigenvalues --  -25.96496 -25.75966 -15.50890 -15.45029 -11.21790
 Alpha  occ. eigenvalues --  -11.16361 -11.13184 -11.12414 -11.08746  -1.49760
 Alpha  occ. eigenvalues --   -1.24941  -1.05869  -1.02992  -0.93237  -0.84947
 Alpha  occ. eigenvalues --   -0.78182  -0.69856  -0.60903  -0.59188  -0.58358
 Alpha  occ. eigenvalues --   -0.52980  -0.49327  -0.46921  -0.45644  -0.43484
 Alpha  occ. eigenvalues --   -0.42755  -0.41716  -0.40883  -0.39125  -0.37294
 Alpha  occ. eigenvalues --   -0.34997  -0.34271  -0.33709  -0.32102  -0.30154
 Alpha  occ. eigenvalues --   -0.25151
 Alpha virt. eigenvalues --    0.12341   0.13206   0.14527   0.14803   0.15906
 Alpha virt. eigenvalues --    0.16885   0.17836   0.18634   0.19054   0.19992
 Alpha virt. eigenvalues --    0.21014   0.22824   0.24360   0.25184   0.25993

 Mulliken charges:
               1
     1  C   -0.170476
     2  C    0.388388
     3  F   -0.547099
     4  H   -0.035697
     5  N   -0.578916
     6  H   -0.032998
     7  H    0.260356
     8  C    0.789200
     9  H   -0.014267
    10  H    0.074803
    11  H   -0.027416
    12  C    0.736960
    13  H    0.038688
    14  H   -0.039767
    15  H   -0.113864
    16  C   -0.457488
    17  N   -0.288394
    18  F   -0.982012
 Sum of Mulliken charges =  -1.00000

 Dipole moment (field-independent basis, Debye):
    X=             -1.6185    Y=             -5.0886    Z=              2.4067  Tot=              5.8571

 Test job not archived.
 1\1\GINC-SE456\SP\RHF\Aug-CC-pVDZ\C5H9F2N2(1-)\OHZDE\09-Apr-2025\0\\#t
  hf aug-cc-pvdz iop(5/13=1,5/36=2,99/5=2) pseudo=read geom=check guess
 =(read,tcheck) scf=(maxcycle=1)\\title\\-1,1\C,0,-0.019621,-0.010631,0
 .006772\C,0,-0.509317,-0.053244,-1.459239\F,0,1.39077,0.071053,-0.0193
 8\H,0,-1.610163,0.007618,-1.312002\N,0,-0.537374,1.123598,0.71557\H,0,
 -0.303875,1.960611,0.187512\H,0,-1.56638,0.973874,0.621912\C,0,-0.4260
 95,-1.263398,0.749905\H,0,0.040043,-2.155314,0.326765\H,0,-1.516288,-1
 .302257,0.687094\H,0,-0.111969,-1.151451,1.789173\C,0,-0.096025,-1.300

 Normal termination of Gaussian 16 at Wed Apr  9 02:56:50 2025.
