 Gaussian 16, Revision C.01,

 ----------------------------------------------------------------------
 #t hf aug-cc-pvdz symm=none int=(grid=ultrafine) guess=(read,tcheck) s
 table=(opt,rrhf)
 ----------------------------------------------------------------------
 -----
 title
 -----
 Symbolic Z-matrix:
 Charge = -1 Multiplicity = 1

 SCF Done:  E(RHF) =  -531.201317022     A.U. after   17 cycles
 Normal termination of Gaussian 16 at Wed Apr  9 02:32:14 2025.
 Gaussian 16:  ES64L-G16RevC.01  3-Jul-2019

 ----------------------------------------------------------------------
 #t hf aug-cc-pvdz iop(5/13=1,5/36=2,99/5=2) pseudo=read geom=check gue
 ss=(read,tcheck) scf=(maxcycle=1)
 ----------------------------------------------------------------------
 -----
 title
 -----
 Structure from the checkpoint file:  "E2SN2_126_mol1.chk"
 Charge = -1 Multiplicity = 1

                         Standard orientation:
 ---------------------------------------------------------------------
 Center     Atomic      Atomic             Coordinates (Angstroms)
 Number     Number       Type             X           Y           Z
 ---------------------------------------------------------------------
      1          6           0        0.016021   -0.473866   -0.179757
      2          6           0        1.040187    0.444999    0.319597
      3          9           0       -0.023288   -0.626058   -1.600405
      4          1           0        1.529210   -0.497172    2.500486
      5          1           0        1.167103    0.030664    1.739916
      6          7           0        0.054568   -1.815858    0.329168
      7          1           0        0.472999   -1.767965    1.258381
      8          1           0        0.679962   -2.340605   -0.267423
      9          7           0       -1.368248    0.093359    0.159109
     10          8           0       -2.000103    0.685648   -0.712369
     11          8           0       -1.732767   -0.045596    1.322532
     12          6           0        0.825115    1.916442    0.056321
     13          1           0       -0.105836    2.286578    0.500758
     14          1           0        1.651958    2.465033    0.517494
     15          1           0        0.809323    2.183184   -1.013860
     16          7           0        2.378484    0.001412   -0.021591
     17          1           0        2.406594   -0.520979   -0.891192
     18          1           0        2.719662   -0.602460    0.734008
 ---------------------------------------------------------------------

 SCF Done:  E(RHF) =  -531.367812434     A.U. after    2 cycles

 The electronic state is 1-A.
 Alpha  occ. eigenvalues --  -25.97764 -20.48132 -20.48028 -15.76724 -15.49061
 Alpha  occ. eigenvalues --  -15.45894 -11.27144 -11.07777 -11.06780  -1.50908
 Alpha  occ. eigenvalues --   -1.40102  -1.22062  -1.06904  -0.98992  -0.89529
 Alpha  occ. eigenvalues --   -0.81802  -0.72795  -0.67403  -0.65935  -0.61192
 Alpha  occ. eigenvalues --   -0.59267  -0.57731  -0.56275  -0.53203  -0.51359
 Alpha  occ. eigenvalues --   -0.48460  -0.47086  -0.41798  -0.40421  -0.38374
 Alpha  occ. eigenvalues --   -0.37828  -0.35545  -0.33781  -0.33263  -0.28828
 Alpha  occ. eigenvalues --   -0.24408  -0.10620
 Alpha virt. eigenvalues --    0.12738   0.13584   0.15046   0.15335   0.16879
 Alpha virt. eigenvalues --    0.17105   0.18485   0.19388   0.20424   0.21555
 Alpha virt. eigenvalues --    0.22182   0.23602   0.24050   0.25338   0.26468

 Mulliken charges:
               1
     1  C    1.510476
     2  C   -0.770111
     3  F   -0.430469
     4  H   -0.817592
     5  H    0.758817
     6  N   -0.449619
     7  H    0.100842
     8  H    0.015203
     9  N    0.218492
    10  O   -0.614317
    11  O   -0.611590
    12  C    0.583082
    13  H   -0.011301
    14  H   -0.081405
    15  H   -0.010167
    16  N   -0.369844
    17  H   -0.016359
    18  H   -0.004137
 Sum of Mulliken charges =  -1.00000

 Dipole moment (field-independent basis, Debye):
    X=             -0.2486    Y=             -1.1966    Z=             -3.9462  Tot=              4.1311

 Test job not archived.
 1\1\GINC-SE367\SP\RHF\Aug-CC-pVDZ\C3H9F1N3O2(1-)\OHZDE\09-Apr-2025\0\\
 #t hf aug-cc-pvdz iop(5/13=1,5/36=2,99/5=2) pseudo=read geom=check gue
 ss=(read,tcheck) scf=(maxcycle=1)\\title\\-1,1\C,0,-0.03342077,-0.0293
 3499,-0.33220612\C,0,-0.08838453,0.06135573,1.12770458\F,0,1.27849971,
 -0.16142756,-0.88389872\H,0,-2.25434519,-0.9212947,1.60322337\H,0,-1.4
 9962302,-0.30342948,1.41129882\N,0,-0.79149812,-1.08720284,-0.93856235
 \H,0,-1.57327449,-1.28642898,-0.31410306\H,0,-0.19493778,-1.90329723,-
 0.96101112\N,0,-0.54412379,1.28707381,-0.93139315\O,0,0.2698648,2.1207

 Normal termination of Gaussian 16 at Wed Apr  9 02:32:22 2025.
