 Gaussian 16, Revision C.01,

 ----------------------------------------------------------------------
 #t hf aug-cc-pvdz symm=none int=(grid=ultrafine) guess=(read,tcheck) s
 table=(opt,rrhf)
 ----------------------------------------------------------------------
 -----
 title
 -----
 Symbolic Z-matrix:
 Charge = -1 Multiplicity = 1

 SCF Done:  E(RHF) =  -508.842513208     A.U. after   17 cycles
 Normal termination of Gaussian 16 at Wed Apr  9 02:59:28 2025.
 Gaussian 16:  ES64L-G16RevC.01  3-Jul-2019

 ----------------------------------------------------------------------
 #t hf aug-cc-pvdz iop(5/13=1,5/36=2,99/5=2) pseudo=read geom=check gue
 ss=(read,tcheck) scf=(maxcycle=1)
 ----------------------------------------------------------------------
 -----
 title
 -----
 Structure from the checkpoint file:  "E2SN2_69_mol2.chk"
 Charge = -1 Multiplicity = 1

                         Standard orientation:
 ---------------------------------------------------------------------
 Center     Atomic      Atomic             Coordinates (Angstroms)
 Number     Number       Type             X           Y           Z
 ---------------------------------------------------------------------
      1          6           0       -0.475107    0.183466    0.213690
      2          6           0        0.628715   -0.659589   -0.436403
      3          9           0       -0.287375    0.242238    1.588393
      4          1           0        0.494123   -0.688605   -1.523048
      5          6           0       -0.478372    1.572660   -0.289043
      6          7           0       -0.469928    2.677556   -0.687763
      7          6           0       -1.792543   -0.424540   -0.038139
      8          7           0       -2.879182   -0.830350   -0.219216
      9          7           0        0.498388   -2.030751   -0.028603
     10          1           0        1.245717   -2.304331    0.597366
     11          1           0        0.587180   -2.525159   -0.978193
     12          6           0        1.920060   -0.028157   -0.140666
     13          7           0        2.965326    0.447007    0.112753
     14          1           0        0.640598   -2.369315   -2.488484
 ---------------------------------------------------------------------

 SCF Done:  E(RHF) =  -508.994432632     A.U. after    2 cycles

 The electronic state is 1-A.
 Alpha  occ. eigenvalues --  -26.06760 -15.58985 -15.57719 -15.54935 -15.49225
 Alpha  occ. eigenvalues --  -11.34386 -11.23223 -11.22248 -11.21926 -11.19784
 Alpha  occ. eigenvalues --   -1.60239  -1.13466  -1.10830  -1.09805  -1.06273
 Alpha  occ. eigenvalues --   -0.98691  -0.84291  -0.75886  -0.73248  -0.68731
 Alpha  occ. eigenvalues --   -0.63002  -0.60309  -0.56341  -0.50787  -0.48498
 Alpha  occ. eigenvalues --   -0.47417  -0.46811  -0.44031  -0.41061  -0.39792
 Alpha  occ. eigenvalues --   -0.38977  -0.38238  -0.36781  -0.35519  -0.29466
 Alpha  occ. eigenvalues --   -0.11992
 Alpha virt. eigenvalues --    0.13529   0.15051   0.16401   0.17543   0.17998
 Alpha virt. eigenvalues --    0.18600   0.19377   0.19748   0.20197   0.20590
 Alpha virt. eigenvalues --    0.21954   0.22609   0.22903   0.24014   0.24445

 Mulliken charges:
               1
     1  C    1.076423
     2  C    0.667366
     3  F   -0.447190
     4  H   -0.112908
     5  C   -0.212296
     6  N   -0.231919
     7  C   -0.272317
     8  N   -0.207919
     9  N   -0.407328
    10  H    0.007853
    11  H    0.186352
    12  C   -0.131393
    13  N   -0.269261
    14  H   -0.645461
 Sum of Mulliken charges =  -1.00000

 Dipole moment (field-independent basis, Debye):
    X=             -1.7342    Y=              4.8787    Z=              7.1995  Tot=              8.8681

 Test job not archived.
 1\1\GINC-SE186\SP\RHF\Aug-CC-pVDZ\C5H4F1N4(1-)\OHZDE\09-Apr-2025\0\\#t
  hf aug-cc-pvdz iop(5/13=1,5/36=2,99/5=2) pseudo=read geom=check guess
 =(read,tcheck) scf=(maxcycle=1)\\title\\-1,1\C,0,-0.537161,0.001216,-1
 .492983\C,0,0.048574,0.070449,-0.077388\F,0,-1.91857,-0.128591,-1.4349
 74\H,0,1.135912,0.194781,-0.122022\C,0,-0.242884,1.220632,-2.27339\N,0
 ,-0.011634,2.196413,-2.885126\C,0,-0.00155,-1.170212,-2.206849\N,0,0.4
 00564,-2.064859,-2.851957\N,0,-0.134882,-1.189393,0.587829\H,0,-0.8230
 34,-1.121715,1.327457\H,0,0.850317,-1.343369,0.987478\C,0,-0.529287,1.

 Normal termination of Gaussian 16 at Wed Apr  9 02:59:35 2025.
