 Gaussian 16, Revision C.01,

 ----------------------------------------------------------------------
 #t hf aug-cc-pvdz symm=none int=(grid=ultrafine) guess=(read,tcheck) s
 table=(opt,rrhf)
 ----------------------------------------------------------------------
 -----
 title
 -----
 Symbolic Z-matrix:
 Charge = -1 Multiplicity = 1

 SCF Done:  E(RHF) =  -860.107945592     A.U. after   16 cycles
 Normal termination of Gaussian 16 at Wed Apr  9 02:45:12 2025.
 Gaussian 16:  ES64L-G16RevC.01  3-Jul-2019

 ----------------------------------------------------------------------
 #t hf aug-cc-pvdz iop(5/13=1,5/36=2,99/5=2) pseudo=read geom=check gue
 ss=(read,tcheck) scf=(maxcycle=1)
 ----------------------------------------------------------------------
 -----
 title
 -----
 Structure from the checkpoint file:  "E2SN2_270_mol1.chk"
 Charge = -1 Multiplicity = 1

                         Standard orientation:
 ---------------------------------------------------------------------
 Center     Atomic      Atomic             Coordinates (Angstroms)
 Number     Number       Type             X           Y           Z
 ---------------------------------------------------------------------
      1          6           0        0.106385   -0.192673   -0.074238
      2          1           0       -0.266242    0.688732   -1.990998
      3          9           0       -0.504617   -2.060155    0.041155
      4         17           0        0.818242    1.853329    0.065792
      5          6           0       -0.748302   -0.032123   -1.328877
      6          1           0       -0.761896   -1.011643   -1.801590
      7          6           0        1.409177   -0.798220   -0.226033
      8          7           0        2.484061   -1.237586   -0.411767
      9          6           0       -0.488495   -0.190742    1.244113
     10          7           0       -0.981334   -0.090511    2.307336
     11          6           0       -2.163414    0.403037   -0.988874
     12          1           0       -2.639569   -0.363679   -0.376364
     13          1           0       -2.163722    1.347902   -0.441390
     14          1           0       -2.748306    0.534488   -1.904045
 ---------------------------------------------------------------------

 SCF Done:  E(RHF) =  -860.240416082     A.U. after    2 cycles

 The electronic state is 1-A.
 Alpha  occ. eigenvalues -- -103.48105 -25.82453 -15.52263 -15.51418 -11.29571
 Alpha  occ. eigenvalues --  -11.18634 -11.18268 -11.13993 -11.11935 -10.51351
 Alpha  occ. eigenvalues --   -8.17007  -8.16817  -8.16815  -1.32299  -1.07557
 Alpha  occ. eigenvalues --   -1.05150  -0.99800  -0.92716  -0.87234  -0.74828
 Alpha  occ. eigenvalues --   -0.68027  -0.53970  -0.53568  -0.46691  -0.44514
 Alpha  occ. eigenvalues --   -0.43825  -0.43035  -0.42443  -0.41680  -0.40374
 Alpha  occ. eigenvalues --   -0.37734  -0.34384  -0.33920  -0.33419  -0.33054
 Alpha  occ. eigenvalues --   -0.29995  -0.29005  -0.28624
 Alpha virt. eigenvalues --    0.11740   0.14199   0.15036   0.15900   0.17015
 Alpha virt. eigenvalues --    0.18202   0.18290   0.19627   0.21527   0.22185
 Alpha virt. eigenvalues --    0.22595   0.23250   0.24506   0.25005   0.25595

 Mulliken charges:
               1
     1  C    1.013032
     2  H   -0.054566
     3  F   -0.799767
     4  Cl  -0.446103
     5  C    0.507409
     6  H   -0.016695
     7  C   -0.699805
     8  N   -0.251032
     9  C   -0.355565
    10  N   -0.335011
    11  C    0.539583
    12  H    0.016958
    13  H   -0.008399
    14  H   -0.110038
 Sum of Mulliken charges =  -1.00000

 Dipole moment (field-independent basis, Debye):
    X=             -2.4652    Y=              3.1028    Z=             -3.6976  Tot=              5.4201

 Test job not archived.
 1\1\GINC-SE113\SP\RHF\Aug-CC-pVDZ\C5H5Cl1F1N2(1-)\OHZDE\09-Apr-2025\0\
 \#t hf aug-cc-pvdz iop(5/13=1,5/36=2,99/5=2) pseudo=read geom=check gu
 ess=(read,tcheck) scf=(maxcycle=1)\\title\\-1,1\C,0,0.69480171,-0.0388
 7087,0.00431462\H,0,1.40443792,1.92020865,-0.49380052\F,0,-1.24506069,
 -0.24053382,-0.26100204\Cl,0,2.82522958,-0.05657722,0.42077271\C,0,0.5
 0663732,1.47456101,-0.06279024\H,0,-0.33816301,1.6356461,-0.72872353\C
 ,0,0.77698156,-0.75821499,-1.24580001\N,0,0.90129582,-1.28862842,-2.28
 79723\C,0,0.34606866,-0.78630954,1.19244608\N,0,0.14580402,-1.35898905

 Normal termination of Gaussian 16 at Wed Apr  9 02:45:18 2025.
