 Gaussian 16, Revision C.01,

 ----------------------------------------------------------------------
 #t hf aug-cc-pvdz symm=none int=(grid=ultrafine) guess=(read,tcheck) s
 table=(opt,rrhf)
 ----------------------------------------------------------------------
 -----
 title
 -----
 Symbolic Z-matrix:
 Charge = -1 Multiplicity = 1

 SCF Done:  E(RHF) =  -971.891901977     A.U. after   16 cycles
 Normal termination of Gaussian 16 at Wed Apr  9 02:44:45 2025.
 Gaussian 16:  ES64L-G16RevC.01  3-Jul-2019

 ----------------------------------------------------------------------
 #t hf aug-cc-pvdz iop(5/13=1,5/36=2,99/5=2) pseudo=read geom=check gue
 ss=(read,tcheck) scf=(maxcycle=1)
 ----------------------------------------------------------------------
 -----
 title
 -----
 Structure from the checkpoint file:  "E2SN2_256_mol1.chk"
 Charge = -1 Multiplicity = 1

                         Standard orientation:
 ---------------------------------------------------------------------
 Center     Atomic      Atomic             Coordinates (Angstroms)
 Number     Number       Type             X           Y           Z
 ---------------------------------------------------------------------
      1          6           0       -0.691754   -0.012782    0.483287
      2          1           0        0.030019   -1.022710   -1.272257
      3          9           0        0.790757    0.685184    1.633067
      4         17           0       -2.367046   -0.883356   -0.403782
      5          6           0        0.395217   -0.759089   -0.277334
      6          1           0       -0.930864   -0.373372    1.466440
      7          6           0       -0.979347    1.380536    0.244638
      8          7           0       -1.322345    2.490209    0.062702
      9          6           0        0.816705   -1.977148    0.509787
     10          1           0        1.228173   -1.625977    1.453576
     11          1           0       -0.064304   -2.599390    0.683123
     12          1           0        1.564497   -2.560584   -0.027593
     13          7           0        1.576945    0.124926   -0.585345
     14          8           0        2.700678   -0.267854   -0.292957
     15          8           0        1.332863    1.135027   -1.237090
 ---------------------------------------------------------------------

 SCF Done:  E(RHF) =  -972.060115100     A.U. after    2 cycles

 The electronic state is 1-A.
 Alpha  occ. eigenvalues -- -103.49363 -25.80423 -20.48690 -20.48413 -15.78342
 Alpha  occ. eigenvalues --  -15.50806 -11.25858 -11.20987 -11.17147 -11.12766
 Alpha  occ. eigenvalues --  -10.52636  -8.18298  -8.18110  -8.18099  -1.41266
 Alpha  occ. eigenvalues --   -1.30214  -1.23009  -1.05697  -1.02101  -0.96113
 Alpha  occ. eigenvalues --   -0.85635  -0.83238  -0.70486  -0.64999  -0.61907
 Alpha  occ. eigenvalues --   -0.60716  -0.58515  -0.50535  -0.47875  -0.45660
 Alpha  occ. eigenvalues --   -0.44659  -0.41967  -0.41449  -0.39889  -0.39415
 Alpha  occ. eigenvalues --   -0.38238  -0.37289  -0.34318  -0.33722  -0.31832
 Alpha  occ. eigenvalues --   -0.31382  -0.30824  -0.29357
 Alpha virt. eigenvalues --    0.12067   0.13755   0.14353   0.15598   0.17060
 Alpha virt. eigenvalues --    0.18749   0.19755   0.21381   0.21539   0.22495
 Alpha virt. eigenvalues --    0.23306   0.23717   0.24400   0.25522   0.26111

 Mulliken charges:
               1
     1  C    1.294661
     2  H   -0.157241
     3  F   -0.858680
     4  Cl  -0.437523
     5  C    0.359894
     6  H   -0.192071
     7  C   -0.734798
     8  N   -0.201779
     9  C    0.521658
    10  H    0.204870
    11  H    0.026739
    12  H   -0.024171
    13  N    0.491022
    14  O   -0.642589
    15  O   -0.649993
 Sum of Mulliken charges =  -1.00000

 Dipole moment (field-independent basis, Debye):
    X=             -0.3620    Y=             -6.2347    Z=             -1.5804  Tot=              6.4421

 Test job not archived.
 1\1\GINC-SE094\SP\RHF\Aug-CC-pVDZ\C4H5Cl1F1N2O2(1-)\OHZDE\09-Apr-2025\
 0\\#t hf aug-cc-pvdz iop(5/13=1,5/36=2,99/5=2) pseudo=read geom=check
 guess=(read,tcheck) scf=(maxcycle=1)\\title\\-1,1\C,0,0.66698164,-0.02
 090724,-0.02138773\H,0,1.67066217,1.84986747,-0.36149709\F,0,-1.317074
 57,0.11870819,-0.24725668\Cl,0,2.65435147,-0.33054148,0.53167936\C,0,0
 .6727851,1.49976963,-0.08871299\H,0,0.2697483,-0.46554063,0.87208638\C
 ,0,0.60693326,-0.84309289,-1.20519606\N,0,0.63029245,-1.58240745,-2.11
 897496\C,0,0.21919166,2.0655135,1.23607565\H,0,-0.80129212,1.72637837,

 Normal termination of Gaussian 16 at Wed Apr  9 02:44:53 2025.
