 Gaussian 16, Revision C.01,

 ----------------------------------------------------------------------
 #t hf aug-cc-pvdz symm=none int=(grid=ultrafine) guess=(read,tcheck) s
 table=(opt,rrhf)
 ----------------------------------------------------------------------
 -----
 title
 -----
 Symbolic Z-matrix:
 Charge = -1 Multiplicity = 1

 SCF Done:  E(RHF) =  -518.451116324     A.U. after   15 cycles
 Normal termination of Gaussian 16 at Wed Apr  9 02:56:33 2025.
 Gaussian 16:  ES64L-G16RevC.01  3-Jul-2019

 ----------------------------------------------------------------------
 #t hf aug-cc-pvdz iop(5/13=1,5/36=2,99/5=2) pseudo=read geom=check gue
 ss=(read,tcheck) scf=(maxcycle=1)
 ----------------------------------------------------------------------
 -----
 title
 -----
 Structure from the checkpoint file:  "E2SN2_405_mol2.chk"
 Charge = -1 Multiplicity = 1

                         Standard orientation:
 ---------------------------------------------------------------------
 Center     Atomic      Atomic             Coordinates (Angstroms)
 Number     Number       Type             X           Y           Z
 ---------------------------------------------------------------------
      1          6           0        0.269522    0.817868    0.013252
      2          6           0       -0.645066   -0.149832   -0.755329
      3          9           0       -0.433087    2.045733    0.040687
      4          1           0       -0.990486    0.415863   -1.632888
      5          7           0        0.431054    0.378302    1.364419
      6          1           0        1.001279   -0.497929    1.295249
      7          1           0        1.019955    1.062685    1.831334
      8          6           0        1.570475    1.051640   -0.733750
      9          1           0        1.406966    1.260663   -1.794616
     10          1           0        2.077447    1.906338   -0.273846
     11          1           0        2.172914    0.152324   -0.600583
     12          6           0       -1.860677   -0.421755    0.046105
     13          7           0       -2.876088   -0.708379    0.563507
     14          7           0        0.066798   -1.344659   -1.183083
     15          1           0        0.793045   -1.611347   -0.480491
     16          1           0       -0.587110   -2.108647   -1.293812
     17          9           0        1.960656   -1.672879    0.660876
 ---------------------------------------------------------------------

 SCF Done:  E(RHF) =  -518.609213630     A.U. after    2 cycles

 The electronic state is 1-A.
 Alpha  occ. eigenvalues --  -25.97199 -25.77502 -15.50745 -15.46370 -15.45225
 Alpha  occ. eigenvalues --  -11.22516 -11.17831 -11.16052 -11.09640  -1.50500
 Alpha  occ. eigenvalues --   -1.26809  -1.07123  -1.03529  -0.99796  -0.86647
 Alpha  occ. eigenvalues --   -0.82512  -0.70319  -0.62331  -0.60374  -0.58209
 Alpha  occ. eigenvalues --   -0.55958  -0.50128  -0.47697  -0.46370  -0.45527
 Alpha  occ. eigenvalues --   -0.43457  -0.41909  -0.41591  -0.38834  -0.36035
 Alpha  occ. eigenvalues --   -0.35442  -0.34713  -0.32522  -0.31442  -0.25922
 Alpha  occ. eigenvalues --   -0.25227
 Alpha virt. eigenvalues --    0.12500   0.13245   0.14709   0.14894   0.16070
 Alpha virt. eigenvalues --    0.17924   0.18643   0.19609   0.20056   0.21653
 Alpha virt. eigenvalues --    0.23215   0.23667   0.24799   0.25064   0.25769

 Mulliken charges:
               1
     1  C   -0.176363
     2  C    1.224179
     3  F   -0.467740
     4  H   -0.080072
     5  N   -0.518029
     6  H    0.180234
     7  H   -0.014541
     8  C    0.750353
     9  H    0.006098
    10  H   -0.056984
    11  H    0.090854
    12  C   -0.337708
    13  N   -0.280498
    14  N   -0.508456
    15  H    0.156558
    16  H   -0.019708
    17  F   -0.948179
 Sum of Mulliken charges =  -1.00000

 Dipole moment (field-independent basis, Debye):
    X=             -0.4728    Y=              4.1084    Z=             -3.3135  Tot=              5.2992

 Test job not archived.
 1\1\GINC-SE069\SP\RHF\Aug-CC-pVDZ\C4H8F2N3(1-)\OHZDE\09-Apr-2025\0\\#t
  hf aug-cc-pvdz iop(5/13=1,5/36=2,99/5=2) pseudo=read geom=check guess
 =(read,tcheck) scf=(maxcycle=1)\\title\\-1,1\C,0,-0.039548,0.005931,-0
 .042796\C,0,-0.290709,-0.22408,-1.542011\F,0,1.345676,0.27474,0.061892
 \H,0,0.522174,-0.887272,-1.871912\N,0,-0.743564,1.16753,0.40443\H,0,-1
 .755876,0.900838,0.361758\H,0,-0.524072,1.28726,1.389662\C,0,-0.3236,-
 1.251496,0.759284\H,0,0.129878,-2.139859,0.310919\H,0,0.082599,-1.1110
 37,1.766415\H,0,-1.408489,-1.350122,0.811466\C,0,-0.090295,1.046341,-2

 Normal termination of Gaussian 16 at Wed Apr  9 02:56:41 2025.
