 Gaussian 16, Revision C.01,

 ----------------------------------------------------------------------
 #t hf aug-cc-pvdz symm=none int=(grid=ultrafine) guess=(read,tcheck) s
 table=(opt,rrhf)
 ----------------------------------------------------------------------
 -----
 title
 -----
 Symbolic Z-matrix:
 Charge = -1 Multiplicity = 1

 SCF Done:  E(RHF) =  -1423.72501272     A.U. after   17 cycles
 Normal termination of Gaussian 16 at Wed Apr  9 02:42:48 2025.
 Gaussian 16:  ES64L-G16RevC.01  3-Jul-2019

 ----------------------------------------------------------------------
 #t hf aug-cc-pvdz iop(5/13=1,5/36=2,99/5=2) pseudo=read geom=check gue
 ss=(read,tcheck) scf=(maxcycle=1)
 ----------------------------------------------------------------------
 -----
 title
 -----
 Structure from the checkpoint file:  "E2SN2_227_mol2.chk"
 Charge = -1 Multiplicity = 1

                         Standard orientation:
 ---------------------------------------------------------------------
 Center     Atomic      Atomic             Coordinates (Angstroms)
 Number     Number       Type             X           Y           Z
 ---------------------------------------------------------------------
      1          6           0       -0.763490   -0.227662    0.135799
      2          6           0        0.276526    0.806213   -0.312551
      3         17           0       -2.278799   -0.120087   -0.791125
      4          1           0        1.216448    0.619070    0.261030
      5          7           0       -0.161246   -1.636728   -0.069642
      6          8           0        0.401531   -2.109931    0.906288
      7          8           0       -0.264734   -2.127464   -1.182464
      8          6           0       -1.089848   -0.091171    1.551915
      9          7           0       -1.392674    0.064286    2.676973
     10          6           0       -0.245082    2.129729    0.012359
     11          7           0       -0.666440    3.202473    0.242359
     12          6           0        0.676797    0.710361   -1.783519
     13          1           0       -0.179344    0.821881   -2.451450
     14          1           0        1.186074   -0.234219   -1.961211
     15          1           0        1.405525    1.498500   -1.972006
     16         17           0        3.319390    0.109433    0.247667
 ---------------------------------------------------------------------

 SCF Done:  E(RHF) =  -1423.90302632     A.U. after    2 cycles

 The electronic state is 1-A.
 Alpha  occ. eigenvalues -- -103.61719-103.38387 -20.55509 -20.55061 -15.85096
 Alpha  occ. eigenvalues --  -15.59069 -15.55667 -11.35221 -11.23581 -11.21193
 Alpha  occ. eigenvalues --  -11.20700 -11.14782 -10.65026 -10.41489  -8.30755
 Alpha  occ. eigenvalues --   -8.30424  -8.30420  -8.07096  -8.07050  -8.07047
 Alpha  occ. eigenvalues --   -1.47977  -1.30150  -1.17168  -1.10969  -1.09467
 Alpha  occ. eigenvalues --   -1.02281  -0.94902  -0.84337  -0.83834  -0.78480
 Alpha  occ. eigenvalues --   -0.72292  -0.67771  -0.67064  -0.62479  -0.60167
 Alpha  occ. eigenvalues --   -0.54878  -0.49977  -0.48823  -0.46628  -0.46334
 Alpha  occ. eigenvalues --   -0.46047  -0.44653  -0.43642  -0.42600  -0.41376
 Alpha  occ. eigenvalues --   -0.39367  -0.38913  -0.38441  -0.36644  -0.35983
 Alpha  occ. eigenvalues --   -0.21749  -0.21556  -0.21541
 Alpha virt. eigenvalues --    0.11928   0.14165   0.14348   0.15380   0.15972
 Alpha virt. eigenvalues --    0.17090   0.17543   0.18525   0.19140   0.20225
 Alpha virt. eigenvalues --    0.21455   0.21751   0.22369   0.23047   0.23390

 Mulliken charges:
               1
     1  C    1.317813
     2  C   -0.252392
     3  Cl  -0.078527
     4  H   -0.072064
     5  N    0.283393
     6  O   -0.518019
     7  O   -0.577511
     8  C   -0.613373
     9  N   -0.139282
    10  C   -0.077007
    11  N   -0.308673
    12  C    0.903795
    13  H   -0.018086
    14  H    0.021234
    15  H    0.040555
    16  Cl  -0.911855
 Sum of Mulliken charges =  -1.00000

 Dipole moment (field-independent basis, Debye):
    X=            -10.2092    Y=             -1.4191    Z=             -4.0828  Tot=             11.0865

 Test job not archived.
 1\1\GINC-SE292\SP\RHF\Aug-CC-pVDZ\C5H4Cl2N3O2(1-)\OHZDE\09-Apr-2025\0\
 \#t hf aug-cc-pvdz iop(5/13=1,5/36=2,99/5=2) pseudo=read geom=check gu
 ess=(read,tcheck) scf=(maxcycle=1)\\title\\-1,1\C,0,0.214557,-0.062259
 ,0.017933\C,0,-0.560779,0.132227,-1.290722\Cl,0,1.968671,0.156781,-0.1
 87077\H,0,-1.6507,0.055956,-1.058931\N,0,-0.29454,0.981264,1.038841\O,
 0,-1.191429,0.596163,1.773937\O,0,0.208873,2.092346,0.994391\C,0,-0.01
 1192,-1.385239,0.591766\N,0,-0.149251,-2.473022,1.015196\C,0,-0.172907
 ,-0.941279,-2.19983\N,0,0.152662,-1.783787,-2.951765\C,0,-0.382164,1.5

 Normal termination of Gaussian 16 at Wed Apr  9 02:42:59 2025.
