 Gaussian 16, Revision C.01,

 ----------------------------------------------------------------------
 #t hf aug-cc-pvdz symm=none int=(grid=ultrafine) guess=(read,tcheck) s
 table=(opt,rrhf)
 ----------------------------------------------------------------------
 -----
 title
 -----
 Symbolic Z-matrix:
 Charge = -1 Multiplicity = 1

 SCF Done:  E(RHF) =  -891.277565403     A.U. after   17 cycles
 Normal termination of Gaussian 16 at Wed Apr  9 02:33:36 2025.
 Gaussian 16:  ES64L-G16RevC.01  3-Jul-2019

 ----------------------------------------------------------------------
 #t hf aug-cc-pvdz iop(5/13=1,5/36=2,99/5=2) pseudo=read geom=check gue
 ss=(read,tcheck) scf=(maxcycle=1)
 ----------------------------------------------------------------------
 -----
 title
 -----
 Structure from the checkpoint file:  "E2SN2_131_mol2.chk"
 Charge = -1 Multiplicity = 1

                         Standard orientation:
 ---------------------------------------------------------------------
 Center     Atomic      Atomic             Coordinates (Angstroms)
 Number     Number       Type             X           Y           Z
 ---------------------------------------------------------------------
      1          6           0        0.094645    0.261588    0.306119
      2          6           0       -1.101150   -0.418320   -0.417875
      3         17           0        0.209952    1.955924   -0.229557
      4          1           0       -1.113904   -0.067699   -1.454024
      5          7           0        0.032797    0.245605    1.732421
      6          1           0        0.209265   -0.701647    2.047792
      7          1           0       -0.944407    0.480680    1.912357
      8          7           0        1.364211   -0.447368   -0.137068
      9          8           0        1.737128   -0.276119   -1.291790
     10          8           0        1.865218   -1.246494    0.654898
     11          7           0       -2.306444    0.045246    0.233008
     12          1           0       -2.980329    0.282071   -0.579654
     13          1           0       -2.742089   -0.740914    0.708081
     14          6           0       -0.969381   -1.939921   -0.429211
     15          1           0       -1.855316   -2.325883   -0.937271
     16          1           0       -0.085863   -2.297967   -0.965199
     17          1           0       -0.948901   -2.346164    0.588563
     18          1           0       -3.705056    0.323247   -1.875760
 ---------------------------------------------------------------------

 SCF Done:  E(RHF) =  -891.426171514     A.U. after    2 cycles

 The electronic state is 1-A.
 Alpha  occ. eigenvalues -- -103.55104 -20.52605 -20.52575 -15.81583 -15.52426
 Alpha  occ. eigenvalues --  -15.45688 -11.28787 -11.16070 -11.12499 -10.58477
 Alpha  occ. eigenvalues --   -8.24205  -8.23894  -8.23885  -1.44983  -1.26755
 Alpha  occ. eigenvalues --   -1.14152  -1.02649  -1.01870  -0.91806  -0.85966
 Alpha  occ. eigenvalues --   -0.75709  -0.70616  -0.64619  -0.64033  -0.62448
 Alpha  occ. eigenvalues --   -0.55334  -0.54808  -0.51048  -0.48177  -0.47258
 Alpha  occ. eigenvalues --   -0.43626  -0.42902  -0.42027  -0.40963  -0.38421
 Alpha  occ. eigenvalues --   -0.37086  -0.35633  -0.34492  -0.31190  -0.26582
 Alpha  occ. eigenvalues --   -0.09193
 Alpha virt. eigenvalues --    0.11760   0.13167   0.14332   0.15229   0.16342
 Alpha virt. eigenvalues --    0.17188   0.17348   0.17604   0.18751   0.21057
 Alpha virt. eigenvalues --    0.21204   0.22369   0.23350   0.24100   0.24627

 Mulliken charges:
               1
     1  C    0.888864
     2  C    0.056503
     3  Cl  -0.123149
     4  H   -0.133206
     5  N   -0.525033
     6  H    0.073680
     7  H    0.163477
     8  N    0.321505
     9  O   -0.633504
    10  O   -0.639409
    11  N   -0.386539
    12  H    0.069807
    13  H    0.036126
    14  C    0.718397
    15  H   -0.018595
    16  H   -0.058481
    17  H   -0.052937
    18  H   -0.757508
 Sum of Mulliken charges =  -1.00000

 Dipole moment (field-independent basis, Debye):
    X=              9.3272    Y=             -2.9417    Z=              7.2007  Tot=             12.1450

 Test job not archived.
 1\1\GINC-SE128\SP\RHF\Aug-CC-pVDZ\C3H9Cl1N3O2(1-)\OHZDE\09-Apr-2025\0\
 \#t hf aug-cc-pvdz iop(5/13=1,5/36=2,99/5=2) pseudo=read geom=check gu
 ess=(read,tcheck) scf=(maxcycle=1)\\title\\-1,1\C,0,-0.707809,0.000831
 ,-1.48973\C,0,0.100652,0.096044,-0.165459\Cl,0,0.138616,-1.095649,-2.6
 088\H,0,1.164235,0.129379,-0.419194\N,0,-2.054474,-0.452589,-1.350719\
 H,0,-2.59621,0.287482,-0.918628\H,0,-1.95877,-1.225367,-0.69025\N,0,-0
 .719214,1.383078,-2.122259\O,0,0.333325,1.803367,-2.588409\O,0,-1.7546
 37,2.040862,-2.012523\N,0,-0.152268,-1.122492,0.57107\H,0,0.820912,-1.

 Normal termination of Gaussian 16 at Wed Apr  9 02:33:46 2025.
