 Gaussian 16, Revision C.01,

 ----------------------------------------------------------------------
 #t hf aug-cc-pvdz symm=none int=(grid=ultrafine) guess=(read,tcheck) s
 table=(opt,rrhf)
 ----------------------------------------------------------------------
 -----
 title
 -----
 Symbolic Z-matrix:
 Charge = -1 Multiplicity = 1

 SCF Done:  E(RHF) =  -907.303998711     A.U. after   16 cycles
 Normal termination of Gaussian 16 at Wed Apr  9 02:35:28 2025.
 Gaussian 16:  ES64L-G16RevC.01  3-Jul-2019

 ----------------------------------------------------------------------
 #t hf aug-cc-pvdz iop(5/13=1,5/36=2,99/5=2) pseudo=read geom=check gue
 ss=(read,tcheck) scf=(maxcycle=1)
 ----------------------------------------------------------------------
 -----
 title
 -----
 Structure from the checkpoint file:  "E2SN2_161_mol1.chk"
 Charge = -1 Multiplicity = 1

                         Standard orientation:
 ---------------------------------------------------------------------
 Center     Atomic      Atomic             Coordinates (Angstroms)
 Number     Number       Type             X           Y           Z
 ---------------------------------------------------------------------
      1          6           0       -0.833917   -0.077644   -0.527885
      2          6           0        0.484315    0.652041   -0.389680
      3         17           0       -1.315938   -0.566828    1.461143
      4          1           0        0.114372    2.055658   -2.432734
      5          1           0        0.595107    1.081905   -1.494444
      6          7           0       -1.901383    0.791034   -0.896965
      7          1           0       -1.506505    1.327171   -1.693929
      8          1           0       -2.046189    1.458186   -0.150183
      9          7           0       -0.863468   -1.190373   -1.310609
     10          1           0       -0.105462   -1.838543   -1.172357
     11          1           0       -1.791002   -1.571983   -1.404535
     12          7           0        1.636328   -0.222267   -0.039445
     13          8           0        2.498851    0.189851    0.731168
     14          8           0        1.713270   -1.327222   -0.603876
     15          7           0        0.473411    1.825358    0.391609
     16          1           0       -0.124411    1.752358    1.203161
     17          1           0        0.221476    2.597641   -0.219482
 ---------------------------------------------------------------------

 SCF Done:  E(RHF) =  -907.453939509     A.U. after    2 cycles

 The electronic state is 1-A.
 Alpha  occ. eigenvalues -- -103.47844 -20.49135 -20.48158 -15.78037 -15.51959
 Alpha  occ. eigenvalues --  -15.50119 -15.48945 -11.27469 -11.19342 -10.51157
 Alpha  occ. eigenvalues --   -8.16810  -8.16643  -8.16635  -1.40808  -1.22309
 Alpha  occ. eigenvalues --   -1.14491  -1.05999  -1.00831  -0.94539  -0.89724
 Alpha  occ. eigenvalues --   -0.75916  -0.69136  -0.63104  -0.62406  -0.60861
 Alpha  occ. eigenvalues --   -0.58594  -0.56308  -0.53601  -0.50336  -0.48540
 Alpha  occ. eigenvalues --   -0.43280  -0.39464  -0.38455  -0.37457  -0.34580
 Alpha  occ. eigenvalues --   -0.31190  -0.30828  -0.30462  -0.29150  -0.27161
 Alpha  occ. eigenvalues --   -0.12906
 Alpha virt. eigenvalues --    0.12444   0.13327   0.14838   0.16643   0.17036
 Alpha virt. eigenvalues --    0.18446   0.18785   0.19504   0.20519   0.21348
 Alpha virt. eigenvalues --    0.22948   0.24524   0.25238   0.25733   0.26198

 Mulliken charges:
               1
     1  C    0.572736
     2  C    0.925115
     3  Cl  -0.476224
     4  H   -0.439193
     5  H   -0.074215
     6  N   -0.444462
     7  H    0.052849
     8  H    0.088467
     9  N   -0.261973
    10  H    0.054638
    11  H   -0.002986
    12  N    0.308047
    13  O   -0.553475
    14  O   -0.728717
    15  N   -0.130832
    16  H    0.026403
    17  H    0.083821
 Sum of Mulliken charges =  -1.00000

 Dipole moment (field-independent basis, Debye):
    X=             -2.7758    Y=             -3.1123    Z=              2.9334  Tot=              5.0987

 Test job not archived.
 1\1\GINC-SE339\SP\RHF\Aug-CC-pVDZ\C2H8Cl1N4O2(1-)\OHZDE\09-Apr-2025\0\
 \#t hf aug-cc-pvdz iop(5/13=1,5/36=2,99/5=2) pseudo=read geom=check gu
 ess=(read,tcheck) scf=(maxcycle=1)\\title\\-1,1\C,0,-0.37655658,0.1230
 6771,-0.28166127\C,0,-0.13674905,0.01211538,1.20812347\Cl,0,1.5528387,
 -0.1025165,-1.09062627\H,0,-2.41804252,-0.91358495,1.67700207\H,0,-1.2
 6183643,-0.06789323,1.58935745\N,0,-1.06384003,-1.0084221,-0.80861089\
 H,0,-1.85884923,-1.13050551,-0.15166298\H,0,-0.47511844,-1.82359643,-0
 .69617391\N,0,-0.95592114,1.26290642,-0.74727928\H,0,-0.58287167,2.121

 Normal termination of Gaussian 16 at Wed Apr  9 02:35:36 2025.
