 Gaussian 16, Revision C.01,

 ----------------------------------------------------------------------
 #t hf aug-cc-pvdz symm=none int=(grid=ultrafine) guess=(read,tcheck) s
 table=(opt,rrhf)
 ----------------------------------------------------------------------
 -----
 title
 -----
 Symbolic Z-matrix:
 Charge = -1 Multiplicity = 1

 SCF Done:  E(RHF) =  -862.481567264     A.U. after   16 cycles
 Normal termination of Gaussian 16 at Wed Apr  9 02:28:36 2025.
 Gaussian 16:  ES64L-G16RevC.01  3-Jul-2019

 ----------------------------------------------------------------------
 #t hf aug-cc-pvdz iop(5/13=1,5/36=2,99/5=2) pseudo=read geom=check gue
 ss=(read,tcheck) scf=(maxcycle=1)
 ----------------------------------------------------------------------
 -----
 title
 -----
 Structure from the checkpoint file:  "E2SN2_108_mol1.chk"
 Charge = -1 Multiplicity = 1

                         Standard orientation:
 ---------------------------------------------------------------------
 Center     Atomic      Atomic             Coordinates (Angstroms)
 Number     Number       Type             X           Y           Z
 ---------------------------------------------------------------------
      1          6           0        0.411973   -0.471224   -0.264271
      2          6           0       -0.671124    0.324939    0.389442
      3         17           0        2.131832    0.165802    0.241458
      4          9           0       -2.554900   -1.230318   -0.309810
      5          1           0       -1.789047   -0.434469   -0.054365
      6          6           0        0.394507   -1.923633    0.184081
      7          1           0        0.572204   -2.001677    1.257504
      8          1           0       -0.596838   -2.320282   -0.043759
      9          1           0        1.167973   -2.495607   -0.334067
     10          6           0        0.359263   -0.361539   -1.776882
     11          1           0        1.153264   -0.954156   -2.238423
     12          1           0       -0.616430   -0.739316   -2.094752
     13          1           0        0.460984    0.676151   -2.097455
     14          7           0       -0.751879    0.271288    1.841696
     15          1           0        0.177263    0.289153    2.254592
     16          1           0       -1.212726   -0.587962    2.112080
     17          6           0       -0.746162    1.679069   -0.091033
     18          7           0       -0.827327    2.776815   -0.516820
 ---------------------------------------------------------------------

 SCF Done:  E(RHF) =  -862.620350286     A.U. after    2 cycles

 The electronic state is 1-A.
 Alpha  occ. eigenvalues -- -103.49873 -25.85187 -15.47599 -15.47259 -11.18579
 Alpha  occ. eigenvalues --  -11.13357 -11.10826 -11.10815 -11.10514 -10.53216
 Alpha  occ. eigenvalues --   -8.18901  -8.18683  -8.18676  -1.36228  -1.05353
 Alpha  occ. eigenvalues --   -1.00975  -0.99065  -0.90957  -0.82416  -0.78957
 Alpha  occ. eigenvalues --   -0.64236  -0.57998  -0.52365  -0.50407  -0.50138
 Alpha  occ. eigenvalues --   -0.49130  -0.45737  -0.44407  -0.44081  -0.42268
 Alpha  occ. eigenvalues --   -0.40409  -0.38925  -0.37847  -0.36855  -0.32773
 Alpha  occ. eigenvalues --   -0.31325  -0.30571  -0.29276  -0.26465  -0.19620
 Alpha virt. eigenvalues --    0.12411   0.13245   0.14428   0.15449   0.15981
 Alpha virt. eigenvalues --    0.16664   0.16965   0.17630   0.18643   0.20060
 Alpha virt. eigenvalues --    0.20730   0.23343   0.23799   0.24715   0.25128

 Mulliken charges:
               1
     1  C   -1.863173
     2  C    0.731887
     3  Cl  -0.438819
     4  F   -0.551308
     5  H    0.511537
     6  C    1.062106
     7  H   -0.088981
     8  H    0.022998
     9  H   -0.028732
    10  C    0.891850
    11  H   -0.026990
    12  H    0.034933
    13  H   -0.064637
    14  N   -0.454149
    15  H    0.010639
    16  H    0.018859
    17  C   -0.405918
    18  N   -0.362102
 Sum of Mulliken charges =  -1.00000

 Dipole moment (field-independent basis, Debye):
    X=              4.5795    Y=             -4.1988    Z=              0.5058  Tot=              6.2335

 Test job not archived.
 1\1\GINC-SE149\SP\RHF\Aug-CC-pVDZ\C5H9Cl1F1N2(1-)\OHZDE\09-Apr-2025\0\
 \#t hf aug-cc-pvdz iop(5/13=1,5/36=2,99/5=2) pseudo=read geom=check gu
 ess=(read,tcheck) scf=(maxcycle=1)\\title\\-1,1\C,0,-0.15927251,0.0122
 5869,-0.34092349\C,0,-0.0249838,0.0904876,1.1457376\Cl,0,1.53808485,-0
 .20531825,-1.17225795\F,0,-2.51795359,-0.06696136,1.61124988\H,0,-1.40
 692985,0.1174819,1.48176079\C,0,-0.95635597,-1.20801979,-0.77265765\H,
 0,-0.45485476,-2.12784322,-0.46880724\H,0,-1.92810737,-1.15076995,-0.2
 7826125\H,0,-1.07576592,-1.22513879,-1.85862725\C,0,-0.74408761,1.2857

 Normal termination of Gaussian 16 at Wed Apr  9 02:28:46 2025.
