 Gaussian 16, Revision C.01,

 ----------------------------------------------------------------------
 #t hf aug-cc-pvdz symm=none int=(grid=ultrafine) guess=(read,tcheck) s
 table=(opt,rrhf)
 ----------------------------------------------------------------------
 -----
 title
 -----
 Symbolic Z-matrix:
 Charge = -1 Multiplicity = 1

 SCF Done:  E(RHF) =  -403.414640210     A.U. after   17 cycles
 Normal termination of Gaussian 16 at Wed Apr  9 02:47:26 2025.
 Gaussian 16:  ES64L-G16RevC.01  3-Jul-2019

 ----------------------------------------------------------------------
 #t hf aug-cc-pvdz iop(5/13=1,5/36=2,99/5=2) pseudo=read geom=check gue
 ss=(read,tcheck) scf=(maxcycle=1)
 ----------------------------------------------------------------------
 -----
 title
 -----
 Structure from the checkpoint file:  "E2SN2_285_mol1.chk"
 Charge = -1 Multiplicity = 1

                         Standard orientation:
 ---------------------------------------------------------------------
 Center     Atomic      Atomic             Coordinates (Angstroms)
 Number     Number       Type             X           Y           Z
 ---------------------------------------------------------------------
      1          6           0        0.373360    0.284533    0.089371
      2          1           0       -0.656808   -0.448567   -1.611357
      3          9           0        0.552852   -0.908569    1.270193
      4          1           0        0.448850    1.484718   -1.337006
      5          6           0       -0.940706   -0.163108   -0.589406
      6          6           0        1.597292   -0.016323   -0.611584
      7          7           0        2.621896   -0.406978   -1.051685
      8          6           0        0.362527    1.407690    1.117772
      9          1           0        0.273913    2.391737    0.669051
     10          1           0       -0.482607    1.234556    1.785270
     11          1           0        1.281503    1.340529    1.703775
     12          7           0       -1.893575    0.956825   -0.587651
     13          1           0       -2.701261    0.674853   -1.136477
     14          1           0       -1.404432    1.690330   -1.102429
     15          6           0       -1.628291   -1.359755    0.063414
     16          1           0       -0.967746   -2.223504    0.084111
     17          1           0       -1.921669   -1.126126    1.086343
     18          1           0       -2.528753   -1.608564   -0.515067
 ---------------------------------------------------------------------

 SCF Done:  E(RHF) =  -403.536733152     A.U. after    2 cycles

 The electronic state is 1-A.
 Alpha  occ. eigenvalues --  -25.85887 -15.46697 -15.46121 -11.21280 -11.13867
 Alpha  occ. eigenvalues --  -11.13649 -11.09150 -11.09062  -1.36468  -1.03169
 Alpha  occ. eigenvalues --   -1.00412  -0.90163  -0.84399  -0.76280  -0.66605
 Alpha  occ. eigenvalues --   -0.56229  -0.53680  -0.49834  -0.48733  -0.46619
 Alpha  occ. eigenvalues --   -0.43823  -0.42343  -0.41028  -0.39422  -0.38976
 Alpha  occ. eigenvalues --   -0.37141  -0.36226  -0.35948  -0.30207  -0.28078
 Alpha  occ. eigenvalues --   -0.25832  -0.11822
 Alpha virt. eigenvalues --    0.12110   0.13585   0.14004   0.15058   0.15988
 Alpha virt. eigenvalues --    0.16401   0.16810   0.17236   0.18549   0.20256
 Alpha virt. eigenvalues --    0.21089   0.23069   0.24070   0.24647   0.25828

 Mulliken charges:
               1
     1  C    0.091642
     2  H   -0.244323
     3  F   -0.717890
     4  H   -0.286440
     5  C   -0.043204
     6  C   -0.618260
     7  N   -0.350960
     8  C    0.752978
     9  H   -0.016316
    10  H    0.109744
    11  H   -0.033634
    12  N   -0.269509
    13  H   -0.053241
    14  H    0.116934
    15  C    0.636897
    16  H    0.013966
    17  H    0.034289
    18  H   -0.122674
 Sum of Mulliken charges =  -1.00000

 Dipole moment (field-independent basis, Debye):
    X=             -5.7334    Y=             -0.2601    Z=              1.2784  Tot=              5.8800

 Test job not archived.
 1\1\GINC-SE015\SP\RHF\Aug-CC-pVDZ\C5H10F1N2(1-)\OHZDE\09-Apr-2025\0\\#
 t hf aug-cc-pvdz iop(5/13=1,5/36=2,99/5=2) pseudo=read geom=check gues
 s=(read,tcheck) scf=(maxcycle=1)\\title\\-1,1\C,0,0.58185491,-0.093360
 89,-0.07940413\H,0,1.55343115,1.61092778,-0.88102478\F,0,-0.89046039,-
 0.39023623,-0.85025031\H,0,2.33665217,0.05722639,0.53598431\C,0,0.6898
 4185,1.44136223,-0.22380967\C,0,1.38253238,-0.88470445,-0.98082175\N,0
 ,1.86819379,-1.56607203,-1.81507883\C,0,0.10743563,-0.70995899,1.22977
 098\H,0,0.87018798,-0.70369361,2.00160164\H,0,-0.75767947,-0.13833259,

 Normal termination of Gaussian 16 at Wed Apr  9 02:47:34 2025.
