 Gaussian 16, Revision C.01,

 ----------------------------------------------------------------------
 #t hf aug-cc-pvdz symm=none int=(grid=ultrafine) guess=(read,tcheck) s
 table=(opt,rrhf)
 ----------------------------------------------------------------------
 -----
 title
 -----
 Symbolic Z-matrix:
 Charge = -1 Multiplicity = 1

 SCF Done:  E(RHF) =  -472.127751445     A.U. after   17 cycles
 Normal termination of Gaussian 16 at Wed Apr  9 02:49:19 2025.
 Gaussian 16:  ES64L-G16RevC.01  3-Jul-2019

 ----------------------------------------------------------------------
 #t hf aug-cc-pvdz iop(5/13=1,5/36=2,99/5=2) pseudo=read geom=check gue
 ss=(read,tcheck) scf=(maxcycle=1)
 ----------------------------------------------------------------------
 -----
 title
 -----
 Structure from the checkpoint file:  "E2SN2_311_mol1.chk"
 Charge = -1 Multiplicity = 1

                         Standard orientation:
 ---------------------------------------------------------------------
 Center     Atomic      Atomic             Coordinates (Angstroms)
 Number     Number       Type             X           Y           Z
 ---------------------------------------------------------------------
      1          6           0       -0.513245   -0.401739   -0.212456
      2          1           0        0.640952    0.642010   -1.699514
      3          9           0       -0.189972   -0.313970    1.393250
      4          1           0       -1.125243   -0.434956   -2.004424
      5          6           0        0.618376    0.553726   -0.616734
      6          6           0       -1.860917    0.115613   -0.222755
      7          7           0       -2.950457    0.497727    0.036906
      8          7           0       -0.261570   -1.817320   -0.327235
      9          1           0       -0.796906   -2.167393   -1.106141
     10          1           0       -0.552705   -2.237184    0.548228
     11          6           0        1.910344   -0.030942   -0.187170
     12          7           0        3.003008   -0.351412    0.103305
     13          7           0        0.374056    1.869098   -0.037842
     14          1           0        1.159969    2.477743   -0.232829
     15          1           0        0.301078    1.738914    0.964187
 ---------------------------------------------------------------------

 SCF Done:  E(RHF) =  -472.266697005     A.U. after    2 cycles

 The electronic state is 1-A.
 Alpha  occ. eigenvalues --  -25.91128 -15.51654 -15.50630 -15.49465 -15.47876
 Alpha  occ. eigenvalues --  -11.27378 -11.19590 -11.17026 -11.15374  -1.42138
 Alpha  occ. eigenvalues --   -1.09062  -1.05204  -1.03676  -1.01154  -0.87178
 Alpha  occ. eigenvalues --   -0.78420  -0.62658  -0.59722  -0.57732  -0.56601
 Alpha  occ. eigenvalues --   -0.50743  -0.50101  -0.48112  -0.45630  -0.43890
 Alpha  occ. eigenvalues --   -0.42892  -0.39675  -0.34755  -0.33453  -0.32498
 Alpha  occ. eigenvalues --   -0.30976  -0.29864  -0.28020  -0.13138
 Alpha virt. eigenvalues --    0.12503   0.13519   0.13961   0.16747   0.17147
 Alpha virt. eigenvalues --    0.17822   0.19489   0.20223   0.21286   0.23225
 Alpha virt. eigenvalues --    0.24220   0.24701   0.24989   0.25682   0.26375

 Mulliken charges:
               1
     1  C    0.032333
     2  H   -0.118446
     3  F   -0.667667
     4  H   -0.292009
     5  C    1.124394
     6  C    0.147793
     7  N   -0.402158
     8  N   -0.240885
     9  H    0.068515
    10  H    0.047175
    11  C   -0.145139
    12  N   -0.295737
    13  N   -0.333204
    14  H   -0.021780
    15  H    0.096816
 Sum of Mulliken charges =  -1.00000

 Dipole moment (field-independent basis, Debye):
    X=              3.1145    Y=              0.7269    Z=              1.2481  Tot=              3.4331

 Test job not archived.
 1\1\GINC-SE229\SP\RHF\Aug-CC-pVDZ\C4H6F1N4(1-)\OHZDE\09-Apr-2025\0\\#t
  hf aug-cc-pvdz iop(5/13=1,5/36=2,99/5=2) pseudo=read geom=check guess
 =(read,tcheck) scf=(maxcycle=1)\\title\\-1,1\C,0,0.54234151,-0.0476849
 4,0.0114453\H,0,1.72238244,1.75172561,0.06193635\F,0,-1.09791575,-0.04
 065836,0.00902061\H,0,2.4185936,-0.20326332,-0.19414601\C,0,0.67048821
 ,1.48214429,0.02243927\C,0,0.78926855,-0.73044319,-1.23629181\N,0,0.72
 817749,-1.35401567,-2.24026242\N,0,0.67603786,-0.73555773,1.2721361\H,
 0,1.56070689,-1.218455,1.2719618\H,0,-0.10399417,-1.37962037,1.3370607

 Normal termination of Gaussian 16 at Wed Apr  9 02:49:26 2025.
