 Gaussian 16, Revision C.01,

 ----------------------------------------------------------------------
 #t hf aug-cc-pvdz symm=none int=(grid=ultrafine) guess=(read,tcheck) s
 table=(opt,rrhf)
 ----------------------------------------------------------------------
 -----
 title
 -----
 Symbolic Z-matrix:
 Charge = -1 Multiplicity = 1

 SCF Done:  E(RHF) =  -974.329452385     A.U. after   15 cycles
 Normal termination of Gaussian 16 at Wed Apr  9 02:57:37 2025.
 Gaussian 16:  ES64L-G16RevC.01  3-Jul-2019

 ----------------------------------------------------------------------
 #t hf aug-cc-pvdz iop(5/13=1,5/36=2,99/5=2) pseudo=read geom=check gue
 ss=(read,tcheck) scf=(maxcycle=1)
 ----------------------------------------------------------------------
 -----
 title
 -----
 Structure from the checkpoint file:  "E2SN2_401_mol2.chk"
 Charge = -1 Multiplicity = 1

                         Standard orientation:
 ---------------------------------------------------------------------
 Center     Atomic      Atomic             Coordinates (Angstroms)
 Number     Number       Type             X           Y           Z
 ---------------------------------------------------------------------
      1          6           0        0.116590    1.046970   -0.021934
      2          6           0        0.331038   -0.476735   -0.228424
      3          9           0        1.269021    1.673787   -0.527447
      4          1           0       -0.421487   -0.992119    0.371101
      5          7           0       -0.995211    1.563391   -0.761456
      6          1           0       -1.834098    1.055115   -0.465240
      7          1           0       -0.858790    1.364538   -1.746094
      8          6           0       -0.036969    1.419952    1.434148
      9          1           0       -0.136752    2.504718    1.488596
     10          1           0        0.820250    1.093588    2.021516
     11          1           0       -0.943391    0.951272    1.822800
     12          7           0        1.663530   -0.857444    0.337884
     13          8           0        1.721088   -1.093075    1.547350
     14          8           0        2.632942   -0.895187   -0.420559
     15          6           0        0.240842   -0.911909   -1.675399
     16          1           0       -0.808984   -0.891877   -1.967028
     17          1           0        0.598430   -1.937342   -1.784044
     18          1           0        0.840926   -0.269954   -2.321987
     19         17           0       -3.064516   -0.791014    0.248690
 ---------------------------------------------------------------------

 SCF Done:  E(RHF) =  -974.502371101     A.U. after    2 cycles

 The electronic state is 1-A.
 Alpha  occ. eigenvalues -- -103.38566 -25.99375 -20.50723 -20.50550 -15.79627
 Alpha  occ. eigenvalues --  -15.48948 -11.25331 -11.18822 -11.13072 -11.11284
 Alpha  occ. eigenvalues --  -10.41651  -8.07250  -8.07226  -8.07217  -1.52902
 Alpha  occ. eigenvalues --   -1.42712  -1.24432  -1.07278  -0.98672  -0.88856
 Alpha  occ. eigenvalues --   -0.83942  -0.83473  -0.75667  -0.71136  -0.65532
 Alpha  occ. eigenvalues --   -0.64474  -0.62449  -0.61676  -0.58955  -0.56881
 Alpha  occ. eigenvalues --   -0.51234  -0.49288  -0.48473  -0.45904  -0.43797
 Alpha  occ. eigenvalues --   -0.43107  -0.41539  -0.39918  -0.39253  -0.38058
 Alpha  occ. eigenvalues --   -0.35906  -0.29064  -0.21908  -0.21782  -0.21707
 Alpha virt. eigenvalues --    0.12363   0.12853   0.13849   0.15074   0.15849
 Alpha virt. eigenvalues --    0.16630   0.16976   0.18434   0.19060   0.19649
 Alpha virt. eigenvalues --    0.20214   0.21844   0.23173   0.24608   0.24781

 Mulliken charges:
               1
     1  C   -0.423915
     2  C    0.713071
     3  F   -0.470110
     4  H   -0.190190
     5  N   -0.426037
     6  H    0.129257
     7  H   -0.000894
     8  C    0.890826
     9  H   -0.006634
    10  H    0.008187
    11  H    0.034399
    12  N    0.248973
    13  O   -0.624132
    14  O   -0.600668
    15  C    0.546573
    16  H    0.109239
    17  H   -0.063443
    18  H    0.056832
    19  Cl  -0.931334
 Sum of Mulliken charges =  -1.00000

 Dipole moment (field-independent basis, Debye):
    X=              6.0380    Y=              1.7762    Z=             -2.0643  Tot=              6.6237

 Test job not archived.
 1\1\GINC-SE187\SP\RHF\Aug-CC-pVDZ\C4H9Cl1F1N2O2(1-)\OHZDE\09-Apr-2025\
 0\\#t hf aug-cc-pvdz iop(5/13=1,5/36=2,99/5=2) pseudo=read geom=check
 guess=(read,tcheck) scf=(maxcycle=1)\\title\\-1,1\C,0,-0.012222,-0.028
 863,0.016488\C,0,-0.469755,-0.142151,-1.462746\F,0,1.385178,0.121267,-
 0.019206\H,0,-1.499273,-0.504605,-1.454647\N,0,-0.537064,1.125958,0.68
 0276\H,0,-1.559611,1.075117,0.639855\H,0,-0.259819,1.956185,0.168883\C
 ,0,-0.345204,-1.261953,0.823633\H,0,0.049272,-1.114715,1.829788\H,0,0.
 08774,-2.157471,0.379849\H,0,-1.430949,-1.368145,0.870479\N,0,0.349324

 Normal termination of Gaussian 16 at Wed Apr  9 02:57:49 2025.
