 Gaussian 16, Revision C.01,

 ----------------------------------------------------------------------
 #t hf aug-cc-pvdz symm=none int=(grid=ultrafine) guess=(read,tcheck) s
 table=(opt,rrhf)
 ----------------------------------------------------------------------
 -----
 title
 -----
 Symbolic Z-matrix:
 Charge = -1 Multiplicity = 1

 SCF Done:  E(RHF) =  -1199.50603019     A.U. after   15 cycles
 Normal termination of Gaussian 16 at Wed Apr  9 02:36:54 2025.
 Gaussian 16:  ES64L-G16RevC.01  3-Jul-2019

 ----------------------------------------------------------------------
 #t hf aug-cc-pvdz iop(5/13=1,5/36=2,99/5=2) pseudo=read geom=check gue
 ss=(read,tcheck) scf=(maxcycle=1)
 ----------------------------------------------------------------------
 -----
 title
 -----
 Structure from the checkpoint file:  "E2SN2_184_mol1.chk"
 Charge = -1 Multiplicity = 1

                         Standard orientation:
 ---------------------------------------------------------------------
 Center     Atomic      Atomic             Coordinates (Angstroms)
 Number     Number       Type             X           Y           Z
 ---------------------------------------------------------------------
      1          6           0        0.178947   -0.127202   -0.388051
      2          1           0        0.792034    1.800896    0.208890
      3         17           0       -2.072494   -0.882264   -0.635828
      4         17           0        2.470423    0.172542   -0.604881
      5          6           0       -0.123798    1.213159    0.290641
      6          1           0        0.162533   -0.196537   -1.459067
      7          6           0        0.402982   -1.298878    0.410412
      8          7           0        0.619883   -2.208280    1.126326
      9          7           0       -0.496429    0.983467    1.691703
     10          1           0       -0.496179    1.886741    2.153943
     11          1           0        0.215683    0.420305    2.147963
     12          7           0       -1.121638    1.949948   -0.450738
     13          1           0       -1.190489    2.883038   -0.061248
     14          1           0       -2.009873    1.472412   -0.347475
 ---------------------------------------------------------------------

 SCF Done:  E(RHF) =  -1199.61546867     A.U. after    2 cycles

 The electronic state is 1-A.
 Alpha  occ. eigenvalues -- -103.44497-103.43080 -15.51658 -15.50306 -15.49537
 Alpha  occ. eigenvalues --  -11.25780 -11.20337 -11.17970 -10.47732 -10.46322
 Alpha  occ. eigenvalues --   -8.13366  -8.13233  -8.13223  -8.11951  -8.11842
 Alpha  occ. eigenvalues --   -8.11815  -1.10268  -1.05448  -0.98925  -0.94462
 Alpha  occ. eigenvalues --   -0.89969  -0.85923  -0.73829  -0.60810  -0.59332
 Alpha  occ. eigenvalues --   -0.55461  -0.49388  -0.47510  -0.44941  -0.42257
 Alpha  occ. eigenvalues --   -0.38931  -0.33279  -0.31270  -0.29331  -0.28631
 Alpha  occ. eigenvalues --   -0.27117  -0.26585  -0.25614  -0.25052  -0.23480
 Alpha virt. eigenvalues --    0.11159   0.13298   0.14692   0.15166   0.16949
 Alpha virt. eigenvalues --    0.17752   0.18309   0.20064   0.22341   0.23062
 Alpha virt. eigenvalues --    0.23821   0.23995   0.25249   0.25783   0.27033

 Mulliken charges:
               1
     1  C    1.457722
     2  H   -0.123364
     3  Cl  -0.697742
     4  Cl  -0.639326
     5  C    0.893921
     6  H   -0.469303
     7  C   -0.483499
     8  N   -0.276919
     9  N   -0.383593
    10  H   -0.017181
    11  H    0.041209
    12  N   -0.317041
    13  H   -0.043618
    14  H    0.058734
 Sum of Mulliken charges =  -1.00000

 Dipole moment (field-independent basis, Debye):
    X=             -0.6508    Y=              5.6746    Z=              2.2074  Tot=              6.1235

 Test job not archived.
 1\1\GINC-SE459\SP\RHF\Aug-CC-pVDZ\C3H6Cl2N3(1-)\OHZDE\09-Apr-2025\0\\#
 t hf aug-cc-pvdz iop(5/13=1,5/36=2,99/5=2) pseudo=read geom=check gues
 s=(read,tcheck) scf=(maxcycle=1)\\title\\-1,1\C,0,0.67218056,0.0098962
 7,0.00713489\H,0,1.69596245,1.84438242,-0.18340287\Cl,0,-1.67003705,-0
 .3410181,-0.29515089\Cl,0,2.97613469,-0.25576642,0.10170261\C,0,0.6595
 451,1.54211793,-0.02421504\H,0,0.72195916,-0.54033549,-0.91314755\C,0,
 0.53639513,-0.68118331,1.25794704\N,0,0.46510794,-1.18128302,2.3216243
 3\N,0,0.13443008,2.0570695,1.24608622\H,0,0.32280434,3.05390274,1.2662

 Normal termination of Gaussian 16 at Wed Apr  9 02:37:00 2025.
