 Gaussian 16, Revision C.01,

 ----------------------------------------------------------------------
 #t hf aug-cc-pvdz symm=none int=(grid=ultrafine) guess=(read,tcheck) s
 table=(opt,rrhf)
 ----------------------------------------------------------------------
 -----
 title
 -----
 Symbolic Z-matrix:
 Charge =  0 Multiplicity = 1

 SCF Done:  E(RHF) =  -328.725957684     A.U. after   15 cycles
 Normal termination of Gaussian 16 at Wed Apr  9 03:00:06 2025.
 Gaussian 16:  ES64L-G16RevC.01  3-Jul-2019

 ----------------------------------------------------------------------
 #t hf aug-cc-pvdz iop(5/13=1,5/36=2,99/5=2) pseudo=read geom=check gue
 ss=(read,tcheck) scf=(maxcycle=1)
 ----------------------------------------------------------------------
 -----
 title
 -----
 Structure from the checkpoint file:  "EIE22_6_mol2.chk"
 Charge =  0 Multiplicity = 1

                         Standard orientation:
 ---------------------------------------------------------------------
 Center     Atomic      Atomic             Coordinates (Angstroms)
 Number     Number       Type             X           Y           Z
 ---------------------------------------------------------------------
      1          6           0       -1.130504   -0.317366    0.000000
      2          8           0       -2.286709   -0.046748    0.000000
      3          6           0        0.000000    0.607358    0.000000
      4          1           0       -0.284388    1.651062    0.000000
      5          6           0        1.278466    0.227558    0.000000
      6          6           0        2.437241    1.160511    0.000000
      7          1           0        3.067735    0.983049    0.874754
      8          1           0        3.067735    0.983049   -0.874754
      9          1           0        1.502013   -0.832660    0.000000
     10          1           0        2.124408    2.203147    0.000000
     11          9           0       -0.743895   -1.631337    0.000000
 ---------------------------------------------------------------------

 SCF Done:  E(RHF) =  -328.835910503     A.U. after    2 cycles

 The electronic state is 1-A'.
 Alpha  occ. eigenvalues --  -26.14457 -20.58884 -11.43458 -11.29730 -11.27015
 Alpha  occ. eigenvalues --  -11.26385  -1.68576  -1.39222  -1.11660  -1.00374
 Alpha  occ. eigenvalues --   -0.89148  -0.82975  -0.77815  -0.76136  -0.72537
 Alpha  occ. eigenvalues --   -0.66236  -0.62742  -0.60371  -0.58380  -0.56879
 Alpha  occ. eigenvalues --   -0.54665  -0.50710  -0.40563
 Alpha virt. eigenvalues --    0.02720   0.04299   0.04996   0.05039   0.07007
 Alpha virt. eigenvalues --    0.07198   0.09371   0.10996   0.11112   0.12044
 Alpha virt. eigenvalues --    0.12637   0.13816   0.15094   0.16131   0.16292

 Mulliken charges:
               1
     1  C    0.362693
     2  O   -0.378634
     3  C    0.748581
     4  H   -0.407584
     5  C    0.143297
     6  C    0.203590
     7  H    0.089266
     8  H    0.089266
     9  H   -0.380010
    10  H   -0.100249
    11  F   -0.370216
 Sum of Mulliken charges =  -0.00000

 Dipole moment (field-independent basis, Debye):
    X=              4.6795    Y=              1.8274    Z=              0.0000  Tot=              5.0236

 Test job not archived.
 1\1\GINC-SE112\SP\RHF\Aug-CC-pVDZ\C4H5F1O1\OHZDE\09-Apr-2025\0\\#t hf
 aug-cc-pvdz iop(5/13=1,5/36=2,99/5=2) pseudo=read geom=check guess=(re
 ad,tcheck) scf=(maxcycle=1)\\title\\0,1\C,0,-1.130504,-0.317366,0.\O,0
 ,-2.286709,-0.046747,0.\C,0,0.,0.607358,0.\H,0,-0.284388,1.651062,0.\C
 ,0,1.278466,0.227558,0.\C,0,2.437241,1.160511,0.\H,0,3.067735,0.983048
 ,0.874754\H,0,3.067735,0.983048,-0.874754\H,0,1.502013,-0.83266,0.\H,0
 ,2.124408,2.203147,0.\F,0,-0.743895,-1.631337,0.\\Version=ES64L-G16Rev
 C.01\State=1-A'\HF=-328.8359105\RMSD=8.409e-03\Dipole=1.8410397,0.7189

 Normal termination of Gaussian 16 at Wed Apr  9 03:00:10 2025.
