 Gaussian 16, Revision C.01,

 ----------------------------------------------------------------------
 #t hf aug-cc-pvdz symm=none int=(grid=ultrafine) guess=(read,tcheck) s
 table=(opt,rrhf)
 ----------------------------------------------------------------------
 -----
 title
 -----
 Symbolic Z-matrix:
 Charge =  0 Multiplicity = 1

 SCF Done:  E(RHF) =  -328.718681906     A.U. after   14 cycles
 Normal termination of Gaussian 16 at Wed Apr  9 03:00:08 2025.
 Gaussian 16:  ES64L-G16RevC.01  3-Jul-2019

 ----------------------------------------------------------------------
 #t hf aug-cc-pvdz iop(5/13=1,5/36=2,99/5=2) pseudo=read geom=check gue
 ss=(read,tcheck) scf=(maxcycle=1)
 ----------------------------------------------------------------------
 -----
 title
 -----
 Structure from the checkpoint file:  "EIE22_6_mol1.chk"
 Charge =  0 Multiplicity = 1

                         Standard orientation:
 ---------------------------------------------------------------------
 Center     Atomic      Atomic             Coordinates (Angstroms)
 Number     Number       Type             X           Y           Z
 ---------------------------------------------------------------------
      1          6           0        1.000347    0.144783   -0.012972
      2          8           0        1.143109    1.311222   -0.129149
      3          6           0       -0.241450   -0.644418    0.289299
      4          1           0       -0.058041   -1.140325    1.249240
      5          6           0       -1.479788    0.195204    0.341685
      6          1           0       -0.324154   -1.444709   -0.447810
      7          6           0       -2.586990   -0.082155   -0.330066
      8          1           0       -2.656689   -0.943558   -0.983216
      9          1           0       -3.464790    0.543700   -0.251631
     10          1           0       -1.433945    1.070881    0.977850
     11          9           0        2.071115   -0.695139   -0.137657
 ---------------------------------------------------------------------

 SCF Done:  E(RHF) =  -328.828475890     A.U. after    2 cycles

 The electronic state is 1-A.
 Alpha  occ. eigenvalues --  -26.15274 -20.60236 -11.44295 -11.28654 -11.26642
 Alpha  occ. eigenvalues --  -11.25351  -1.69459  -1.40803  -1.10709  -1.00902
 Alpha  occ. eigenvalues --   -0.88975  -0.80070  -0.77261  -0.76438  -0.74390
 Alpha  occ. eigenvalues --   -0.67446  -0.64835  -0.62355  -0.59216  -0.55002
 Alpha  occ. eigenvalues --   -0.52351  -0.51573  -0.39225
 Alpha virt. eigenvalues --    0.03168   0.04333   0.04459   0.06011   0.06917
 Alpha virt. eigenvalues --    0.08730   0.09728   0.10944   0.12070   0.12893
 Alpha virt. eigenvalues --    0.13645   0.14239   0.14796   0.15503   0.15623

 Mulliken charges:
               1
     1  C    0.449537
     2  O   -0.366234
     3  C   -0.122321
     4  H    0.145971
     5  C    0.743923
     6  H   -0.029247
     7  C    0.463605
     8  H   -0.265257
     9  H   -0.271906
    10  H   -0.379057
    11  F   -0.369013
 Sum of Mulliken charges =  -0.00000

 Dipole moment (field-independent basis, Debye):
    X=             -2.7060    Y=             -2.0086    Z=              0.6698  Tot=              3.4359

 Test job not archived.
 1\1\GINC-SE102\SP\RHF\Aug-CC-pVDZ\C4H5F1O1\OHZDE\09-Apr-2025\0\\#t hf
 aug-cc-pvdz iop(5/13=1,5/36=2,99/5=2) pseudo=read geom=check guess=(re
 ad,tcheck) scf=(maxcycle=1)\\title\\0,1\C,0,1.000347,0.144783,-0.01297
 2\O,0,1.143109,1.311222,-0.129149\C,0,-0.24145,-0.644418,0.289299\H,0,
 -0.058041,-1.140325,1.24924\C,0,-1.479788,0.195204,0.341685\H,0,-0.324
 154,-1.444709,-0.44781\C,0,-2.58699,-0.082156,-0.330066\H,0,-2.656689,
 -0.943559,-0.983216\H,0,-3.46479,0.543699,-0.251631\H,0,-1.433945,1.07
 0881,0.97785\F,0,2.071115,-0.695139,-0.137657\\Version=ES64L-G16RevC.0

 Normal termination of Gaussian 16 at Wed Apr  9 03:00:12 2025.
