 Gaussian 16, Revision C.01,

 ----------------------------------------------------------------------
 #t hf aug-cc-pvdz symm=none int=(grid=ultrafine) guess=(read,tcheck) s
 table=(opt,rrhf)
 ----------------------------------------------------------------------
 -----
 title
 -----
 Symbolic Z-matrix:
 Charge =  0 Multiplicity = 1

 SCF Done:  E(RHF) =  -176.866386220     A.U. after   11 cycles
 Normal termination of Gaussian 16 at Wed Apr  9 03:00:14 2025.
 Gaussian 16:  ES64L-G16RevC.01  3-Jul-2019

 ----------------------------------------------------------------------
 #t hf aug-cc-pvdz iop(5/13=1,5/36=2,99/5=2) pseudo=read geom=check gue
 ss=(read,tcheck) scf=(maxcycle=1)
 ----------------------------------------------------------------------
 -----
 title
 -----
 Structure from the checkpoint file:  "F-set_c2h2_hf_100_dimer_mol1.chk"
 Charge =  0 Multiplicity = 1

                         Standard orientation:
 ---------------------------------------------------------------------
 Center     Atomic      Atomic             Coordinates (Angstroms)
 Number     Number       Type             X           Y           Z
 ---------------------------------------------------------------------
      1          6           0        0.600926   -1.236324    0.000000
      2          6           0       -0.594174   -1.237672    0.000000
      3          1           0        1.664836   -1.241856    0.000000
      4          1           0       -1.658114   -1.245040    0.000000
      5          9           0       -0.005248    1.825687    0.000000
      6          1           0        0.000000    0.899687    0.000000
 ---------------------------------------------------------------------

 SCF Done:  E(RHF) =  -176.929779668     A.U. after    2 cycles

 The electronic state is 1-A'.
 Alpha  occ. eigenvalues --  -26.09464 -11.28460 -11.28047  -1.62849  -1.06268
 Alpha  occ. eigenvalues --   -0.80215  -0.79339  -0.71112  -0.68676  -0.68670
 Alpha  occ. eigenvalues --   -0.45276  -0.44618
 Alpha virt. eigenvalues --    0.03300   0.03603   0.07921   0.09604   0.09633
 Alpha virt. eigenvalues --    0.10961   0.11573   0.13152   0.15078   0.16584
 Alpha virt. eigenvalues --    0.20050   0.21223   0.24589   0.25781   0.26811

 Mulliken charges:
               1
     1  C    0.268418
     2  C    0.269300
     3  H   -0.266560
     4  H   -0.266402
     5  F   -0.155814
     6  H    0.151058
 Sum of Mulliken charges =  -0.00000

 Dipole moment (field-independent basis, Debye):
    X=              0.0119    Y=             -2.7888    Z=              0.0000  Tot=              2.7888

 Test job not archived.
 1\1\GINC-SE105\SP\RHF\Aug-CC-pVDZ\C2H3F1\OHZDE\09-Apr-2025\0\\#t hf au
 g-cc-pvdz iop(5/13=1,5/36=2,99/5=2) pseudo=read geom=check guess=(read
 ,tcheck) scf=(maxcycle=1)\\title\\0,1\C,0,0.60093,-1.23632,0.\C,0,-0.5
 9417,-1.23767,0.\H,0,1.66484,-1.24185,0.\H,0,-1.65811,-1.24504,0.\F,0,
 -0.00525,1.82569,0.\H,0,0.,0.89969,0.\\Version=ES64L-G16RevC.01\State=
 1-A'\HF=-176.9297797\RMSD=7.868e-03\Dipole=0.0046979,-1.0971913,0.\Qua
 drupole=4.8910396,-4.1085587,-0.7824808,0.0190008,0.,0.\PG=CS [SG(C2H3
 F1)]\\@

 Normal termination of Gaussian 16 at Wed Apr  9 03:00:16 2025.
