 Gaussian 16, Revision C.01,

 ----------------------------------------------------------------------
 #t hf aug-cc-pvdz symm=none int=(grid=ultrafine) guess=(read,tcheck) s
 table=(opt,rrhf)
 ----------------------------------------------------------------------
 -----
 title
 -----
 Symbolic Z-matrix:
 Charge =  0 Multiplicity = 1

 SCF Done:  E(RHF) =  -666.422582323     A.U. after   14 cycles
 Normal termination of Gaussian 16 at Wed Apr  9 03:01:43 2025.
 Gaussian 16:  ES64L-G16RevC.01  3-Jul-2019

 ----------------------------------------------------------------------
 #t hf aug-cc-pvdz iop(5/13=1,5/36=2,99/5=2) pseudo=read geom=check gue
 ss=(read,tcheck) scf=(maxcycle=1)
 ----------------------------------------------------------------------
 -----
 title
 -----
 Structure from the checkpoint file:  "F-set_c6h6_cf4_100_dimer_mol1.chk"
 Charge =  0 Multiplicity = 1

                         Standard orientation:
 ---------------------------------------------------------------------
 Center     Atomic      Atomic             Coordinates (Angstroms)
 Number     Number       Type             X           Y           Z
 ---------------------------------------------------------------------
      1          6           0       -2.237109   -1.167210   -0.601279
      2          6           0       -1.763689   -1.231980    0.700391
      3          6           0       -2.454769    0.064810   -1.199259
      4          1           0       -2.435359   -2.077560   -1.150429
      5          6           0       -1.508059   -0.064710    1.404061
      6          1           0       -1.590859   -2.192560    1.166101
      7          6           0       -2.198518    1.232000   -0.495899
      8          1           0       -2.822709    0.115320   -2.214959
      9          6           0       -1.725218    1.167290    0.805841
     10          1           0       -1.135899   -0.115270    2.418241
     11          1           0       -2.366458    2.192820   -0.962949
     12          1           0       -1.522098    2.077350    1.353551
     13          6           0        1.976711   -0.000031   -0.102889
     14          9           0        3.212671   -0.002461   -0.570459
     15          9           0        1.129441   -0.000491   -1.108599
     16          9           0        1.793592    1.078279    0.633611
     17          9           0        1.790661   -1.075451    0.637071
 ---------------------------------------------------------------------

 SCF Done:  E(RHF) =  -666.657340624     A.U. after    2 cycles

 The electronic state is 1-A.
 Alpha  occ. eigenvalues --  -26.19399 -26.19398 -26.19382 -26.19210 -11.62306
 Alpha  occ. eigenvalues --  -11.24399 -11.24348 -11.24345 -11.24223 -11.24220
 Alpha  occ. eigenvalues --  -11.24172  -1.82522  -1.72928  -1.72894  -1.72832
 Alpha  occ. eigenvalues --   -1.14657  -1.06866  -1.01275  -1.01267  -0.94221
 Alpha  occ. eigenvalues --   -0.94188  -0.94146  -0.82795  -0.82792  -0.81988
 Alpha  occ. eigenvalues --   -0.81966  -0.76729  -0.76674  -0.76596  -0.74507
 Alpha  occ. eigenvalues --   -0.74434  -0.74424  -0.71686  -0.64508  -0.62876
 Alpha  occ. eigenvalues --   -0.59405  -0.59401  -0.50936  -0.49874  -0.49871
 Alpha  occ. eigenvalues --   -0.34249  -0.34220
 Alpha virt. eigenvalues --    0.03586   0.04193   0.04238   0.05758   0.05782
 Alpha virt. eigenvalues --    0.07632   0.08320   0.10053   0.10176   0.10734
 Alpha virt. eigenvalues --    0.10737   0.11775   0.13852   0.14271   0.14317

 Mulliken charges:
               1
     1  C    0.236194
     2  C    0.602710
     3  C    0.720214
     4  H   -0.462627
     5  C    0.489720
     6  H   -0.498957
     7  C    0.216895
     8  H   -0.469133
     9  C    0.658937
    10  H   -0.534228
    11  H   -0.463429
    12  H   -0.505307
    13  C    0.941102
    14  F   -0.248219
    15  F   -0.193717
    16  F   -0.245554
    17  F   -0.244601
 Sum of Mulliken charges =  -0.00000

 Dipole moment (field-independent basis, Debye):
    X=             -0.1161    Y=             -0.0000    Z=             -0.0501  Tot=              0.1264

 Test job not archived.
 1\1\GINC-SE453\SP\RHF\Aug-CC-pVDZ\C7H6F4\OHZDE\09-Apr-2025\0\\#t hf au
 g-cc-pvdz iop(5/13=1,5/36=2,99/5=2) pseudo=read geom=check guess=(read
 ,tcheck) scf=(maxcycle=1)\\title\\0,1\C,0,2.23711,-1.16721,0.60128\C,0
 ,1.76369,-1.23198,-0.70039\C,0,2.45477,0.06481,1.19926\H,0,2.43536,-2.
 07756,1.15043\C,0,1.50806,-0.06471,-1.40406\H,0,1.59086,-2.19256,-1.16
 61\C,0,2.19852,1.232,0.4959\H,0,2.82271,0.11532,2.21496\C,0,1.72522,1.
 16729,-0.80584\H,0,1.1359,-0.11527,-2.41824\H,0,2.36646,2.19282,0.9629
 5\H,0,1.5221,2.07735,-1.35355\C,0,-1.97671,-0.00003,0.10289\F,0,-3.212

 Normal termination of Gaussian 16 at Wed Apr  9 03:01:52 2025.
