 Gaussian 16, Revision C.01,

 ----------------------------------------------------------------------
 #t hf aug-cc-pvdz symm=none int=(grid=ultrafine) guess=(read,tcheck) s
 table=(opt,rrhf)
 ----------------------------------------------------------------------
 -----
 title
 -----
 Symbolic Z-matrix:
 Charge =  0 Multiplicity = 1

 SCF Done:  E(RHF) =  -823.414683347     A.U. after   11 cycles
 Normal termination of Gaussian 16 at Wed Apr  9 03:01:50 2025.
 Gaussian 16:  ES64L-G16RevC.01  3-Jul-2019

 ----------------------------------------------------------------------
 #t hf aug-cc-pvdz iop(5/13=1,5/36=2,99/5=2) pseudo=read geom=check gue
 ss=(read,tcheck) scf=(maxcycle=1)
 ----------------------------------------------------------------------
 -----
 title
 -----
 Structure from the checkpoint file:  "F-set_cf3oh_cf3oh_125_dimer_mol1.chk"
 Charge =  0 Multiplicity = 1

                         Standard orientation:
 ---------------------------------------------------------------------
 Center     Atomic      Atomic             Coordinates (Angstroms)
 Number     Number       Type             X           Y           Z
 ---------------------------------------------------------------------
      1          6           0        2.616054    0.036180    0.002991
      2          8           0        2.052580    1.192367   -0.344304
      3          9           0        2.348306   -0.947915   -0.886021
      4          9           0        3.925439    0.187944    0.065334
      5          9           0        2.184452   -0.415408    1.190464
      6          1           0        1.101446    1.056229   -0.451059
      7          8           0       -1.507342    0.013703   -0.797920
      8          6           0       -2.601631    0.010565   -0.000030
      9          1           0       -1.344230   -0.866676   -1.147045
     10          9           0       -2.492287   -0.879022    0.986041
     11          9           0       -3.706352   -0.286433   -0.683177
     12          9           0       -2.726854    1.216546    0.518263
 ---------------------------------------------------------------------

 SCF Done:  E(RHF) =  -823.716586485     A.U. after    2 cycles

 The electronic state is 1-A.
 Alpha  occ. eigenvalues --  -26.19331 -26.19120 -26.18976 -26.18129 -26.17605
 Alpha  occ. eigenvalues --  -26.17593 -20.66565 -20.65248 -11.60136 -11.58825
 Alpha  occ. eigenvalues --   -1.80249  -1.78562  -1.72691  -1.72154  -1.71199
 Alpha  occ. eigenvalues --   -1.70276  -1.43974  -1.43451  -1.04850  -1.03273
 Alpha  occ. eigenvalues --   -0.93571  -0.92330  -0.92079  -0.90645  -0.90511
 Alpha  occ. eigenvalues --   -0.88823  -0.80957  -0.80342  -0.79571  -0.78932
 Alpha  occ. eigenvalues --   -0.76346  -0.75529  -0.75063  -0.74637  -0.74318
 Alpha  occ. eigenvalues --   -0.73925  -0.73539  -0.72914  -0.67030  -0.65843
 Alpha  occ. eigenvalues --   -0.61664  -0.60324
 Alpha virt. eigenvalues --    0.02919   0.05421   0.08039   0.08324   0.09401
 Alpha virt. eigenvalues --    0.09935   0.09998   0.11942   0.13162   0.14137
 Alpha virt. eigenvalues --    0.16876   0.17977   0.19055   0.20659   0.22884

 Mulliken charges:
               1
     1  C    1.067884
     2  O   -0.428350
     3  F   -0.302782
     4  F   -0.217946
     5  F   -0.277268
     6  H    0.161067
     7  O   -0.488025
     8  C    1.037830
     9  H    0.184092
    10  F   -0.253555
    11  F   -0.259640
    12  F   -0.223307
 Sum of Mulliken charges =  -0.00000

 Dipole moment (field-independent basis, Debye):
    X=             -1.3607    Y=             -0.8690    Z=             -1.4871  Tot=              2.1950

 Test job not archived.
 1\1\GINC-SE419\SP\RHF\Aug-CC-pVDZ\C2H2F6O2\OHZDE\09-Apr-2025\0\\#t hf
 aug-cc-pvdz iop(5/13=1,5/36=2,99/5=2) pseudo=read geom=check guess=(re
 ad,tcheck) scf=(maxcycle=1)\\title\\0,1\C,0,2.13896,0.0375,0.00421\O,0
 ,1.55972,1.18917,-0.33198\F,0,1.89162,-0.93932,-0.89863\F,0,3.44546,0.
 20858,0.07631\F,0,1.70749,-0.43559,1.18333\H,0,0.61144,1.03978,-0.4461
 4\O,0,-1.97887125,-0.03828083,-0.82167375\C,0,-3.07760125,-0.06829083,
 -0.03047375\H,0,-1.80015125,-0.91158083,-1.18079375\F,0,-2.96026125,-0
 .96844083,0.94503625\F,0,-4.17361125,-0.37361083,-0.72390375\F,0,-3.22

 Normal termination of Gaussian 16 at Wed Apr  9 03:01:55 2025.
