 Gaussian 16, Revision C.01,

 ----------------------------------------------------------------------
 #t hf aug-cc-pvdz symm=none int=(grid=ultrafine) guess=(read,tcheck) s
 table=(opt,rrhf)
 ----------------------------------------------------------------------
 -----
 title
 -----
 Symbolic Z-matrix:
 Charge =  0 Multiplicity = 1

 SCF Done:  E(RHF) =  -1048.89235677     A.U. after   13 cycles
 Normal termination of Gaussian 16 at Wed Apr  9 03:02:40 2025.
 Gaussian 16:  ES64L-G16RevC.01  3-Jul-2019

 ----------------------------------------------------------------------
 #t hf aug-cc-pvdz iop(5/13=1,5/36=2,99/5=2) pseudo=read geom=check gue
 ss=(read,tcheck) scf=(maxcycle=1)
 ----------------------------------------------------------------------
 -----
 title
 -----
 Structure from the checkpoint file:  "F-set_cf3co2h_cf3co2h_200_dimer_mol1.chk"
 Charge =  0 Multiplicity = 1

                         Standard orientation:
 ---------------------------------------------------------------------
 Center     Atomic      Atomic             Coordinates (Angstroms)
 Number     Number       Type             X           Y           Z
 ---------------------------------------------------------------------
      1          6           0       -0.122034    4.386789   -0.000009
      2          8           0        1.112616    3.990373    0.000121
      3          8           0       -1.112616    3.696352    0.000041
      4          6           0       -0.224310    5.934814   -0.000049
      5          1           0        1.159127    2.998762    0.000091
      6          9           0        0.372966    6.429558    1.081531
      7          9           0        0.374970    6.429723   -1.080449
      8          9           0       -1.488080    6.317551   -0.001199
      9          6           0        0.122034   -4.386789   -0.000009
     10          8           0       -1.112616   -3.990373    0.000121
     11          8           0        1.112616   -3.696352    0.000041
     12          6           0        0.224310   -5.934814   -0.000049
     13          1           0       -1.159127   -2.998762    0.000091
     14          9           0        1.488080   -6.317551   -0.001199
     15          9           0       -0.372966   -6.429558    1.081531
     16          9           0       -0.374970   -6.429723   -1.080449
 ---------------------------------------------------------------------

 SCF Done:  E(RHF) =  -1049.26122761     A.U. after    2 cycles

 The electronic state is 1-A.
 Alpha  occ. eigenvalues --  -26.19129 -26.19129 -26.19119 -26.19119 -26.18771
 Alpha  occ. eigenvalues --  -26.18771 -20.68137 -20.68137 -20.61135 -20.61135
 Alpha  occ. eigenvalues --  -11.55703 -11.55703 -11.45292 -11.45292  -1.79475
 Alpha  occ. eigenvalues --   -1.79475  -1.72086  -1.72086  -1.71992  -1.71992
 Alpha  occ. eigenvalues --   -1.48740  -1.48740  -1.37880  -1.37880  -1.08446
 Alpha  occ. eigenvalues --   -1.08446  -0.96613  -0.96613  -0.91191  -0.91191
 Alpha  occ. eigenvalues --   -0.91164  -0.91164  -0.86636  -0.86636  -0.79955
 Alpha  occ. eigenvalues --   -0.79955  -0.79643  -0.79643  -0.76381  -0.76381
 Alpha  occ. eigenvalues --   -0.75553  -0.75553  -0.75240  -0.75240  -0.74021
 Alpha  occ. eigenvalues --   -0.74021  -0.72933  -0.72932  -0.69629  -0.69629
 Alpha  occ. eigenvalues --   -0.63465  -0.63465  -0.54351  -0.54351  -0.52463
 Alpha  occ. eigenvalues --   -0.52462
 Alpha virt. eigenvalues --    0.01752   0.03565   0.07108   0.07731   0.08418
 Alpha virt. eigenvalues --    0.08572   0.08738   0.08841   0.09944   0.10469
 Alpha virt. eigenvalues --    0.10603   0.10936   0.11780   0.12112   0.12453

 Mulliken charges:
               1
     1  C    0.318047
     2  O   -0.413639
     3  O   -0.394408
     4  C    1.037257
     5  H    0.232105
     6  F   -0.269515
     7  F   -0.269534
     8  F   -0.240315
     9  C    0.318047
    10  O   -0.413639
    11  O   -0.394408
    12  C    1.037257
    13  H    0.232105
    14  F   -0.240315
    15  F   -0.269515
    16  F   -0.269534
 Sum of Mulliken charges =  -0.00000

 Dipole moment (field-independent basis, Debye):
    X=             -0.0000    Y=             -0.0000    Z=             -0.0005  Tot=              0.0005

 Test job not archived.
 1\1\GINC-SE228\SP\RHF\Aug-CC-pVDZ\C4H2F6O4\OHZDE\09-Apr-2025\0\\#t hf
 aug-cc-pvdz iop(5/13=1,5/36=2,99/5=2) pseudo=read geom=check guess=(re
 ad,tcheck) scf=(maxcycle=1)\\title\\0,1\C,0,-0.00078,1.87956,-0.00001\
 O,0,1.20457,1.4014,0.00012\O,0,-1.03535,1.25697,0.00004\C,0,0.00078,3.
 43096,-0.00005\H,0,1.18461,0.4089,0.00009\F,0,0.62983,3.88462,1.08153\
 F,0,0.63184,3.88465,-1.08045\F,0,-1.23454,3.89742,-0.0012\C,0,-0.34446
 ,-6.89068,-0.00001\O,0,-1.54981,-6.41252,0.00012\O,0,0.69011,-6.26809,
 0.00004\C,0,-0.34602,-8.44208,-0.00005\H,0,-1.52985,-5.42002,0.00009\F

 Normal termination of Gaussian 16 at Wed Apr  9 03:02:45 2025.
