 Gaussian 16, Revision C.01,

 ----------------------------------------------------------------------
 #t hf aug-cc-pvdz symm=none int=(grid=ultrafine) guess=(read,tcheck) s
 table=(opt,rrhf)
 ----------------------------------------------------------------------
 -----
 title
 -----
 Symbolic Z-matrix:
 Charge =  0 Multiplicity = 1

 SCF Done:  E(RHF) =  -179.257271214     A.U. after   11 cycles
 Normal termination of Gaussian 16 at Wed Apr  9 03:02:01 2025.
 Gaussian 16:  ES64L-G16RevC.01  3-Jul-2019

 ----------------------------------------------------------------------
 #t hf aug-cc-pvdz iop(5/13=1,5/36=2,99/5=2) pseudo=read geom=check gue
 ss=(read,tcheck) scf=(maxcycle=1)
 ----------------------------------------------------------------------
 -----
 title
 -----
 Structure from the checkpoint file:  "F-set_ch4_ch3f_110_dimer_mol1.chk"
 Charge =  0 Multiplicity = 1

                         Standard orientation:
 ---------------------------------------------------------------------
 Center     Atomic      Atomic             Coordinates (Angstroms)
 Number     Number       Type             X           Y           Z
 ---------------------------------------------------------------------
      1          6           0        1.024565   -2.218829    0.000000
      2          1           0        1.225161   -3.287622    0.000000
      3          1           0        0.450450   -1.955865    0.885270
      4          1           0        0.450450   -1.955865   -0.885270
      5          1           0        1.967142   -1.675286    0.000000
      6          6           0        0.000000    1.504912    0.000000
      7          9           0       -1.244431    0.909807    0.000000
      8          1           0        0.542592    1.191330    0.891170
      9          1           0        0.542592    1.191330   -0.891170
     10          1           0       -0.125901    2.587208    0.000000
 ---------------------------------------------------------------------

 SCF Done:  E(RHF) =  -179.326016159     A.U. after    2 cycles

 The electronic state is 1-A'.
 Alpha  occ. eigenvalues --  -26.10359 -11.31867 -11.21763  -1.63755  -0.97066
 Alpha  occ. eigenvalues --   -0.93998  -0.74228  -0.74206  -0.71712  -0.55271
 Alpha  occ. eigenvalues --   -0.55071  -0.54827  -0.54550  -0.54537
 Alpha virt. eigenvalues --    0.03331   0.04399   0.05850   0.06012   0.06927
 Alpha virt. eigenvalues --    0.08050   0.08732   0.10780   0.13775   0.14989
 Alpha virt. eigenvalues --    0.16022   0.16237   0.17361   0.18705   0.21660

 Mulliken charges:
               1
     1  C    0.640221
     2  H   -0.196841
     3  H   -0.147928
     4  H   -0.147928
     5  H   -0.152660
     6  C    0.850156
     7  F   -0.422409
     8  H   -0.145533
     9  H   -0.145533
    10  H   -0.131546
 Sum of Mulliken charges =   0.00000

 Dipole moment (field-independent basis, Debye):
    X=              1.9620    Y=              0.9379    Z=              0.0000  Tot=              2.1746

 Test job not archived.
 1\1\GINC-SE097\SP\RHF\Aug-CC-pVDZ\C2H7F1\OHZDE\09-Apr-2025\0\\#t hf au
 g-cc-pvdz iop(5/13=1,5/36=2,99/5=2) pseudo=read geom=check guess=(read
 ,tcheck) scf=(maxcycle=1)\\title\\0,1\C,0,-1.01183,-1.97786,0.\H,0,-1.
 23943,-3.04123,0.\H,0,-0.43124,-1.72952,-0.88527\H,0,-0.43124,-1.72952
 ,0.88527\H,0,-1.94034,-1.41062,0.\C,0,0.1067118,1.718739,0.\F,0,1.3356
 718,1.092309,0.\H,0,-0.4436482,1.418999,-0.89117\H,0,-0.4436482,1.4189
 99,0.89117\H,0,0.2599818,2.797499,0.\\Version=ES64L-G16RevC.01\State=1
 -A'\HF=-179.3260162\RMSD=2.887e-03\Dipole=-0.7623053,0.3884358,0.\Quad

 Normal termination of Gaussian 16 at Wed Apr  9 03:02:03 2025.
