 Gaussian 16, Revision C.01,

 ----------------------------------------------------------------------
 #t hf aug-cc-pvdz symm=none int=(grid=ultrafine) guess=(read,tcheck) s
 table=(opt,rrhf)
 ----------------------------------------------------------------------
 -----
 title
 -----
 Symbolic Z-matrix:
 Charge =  0 Multiplicity = 1

 SCF Done:  E(RHF) =  -1048.89430441     A.U. after   13 cycles
 Normal termination of Gaussian 16 at Wed Apr  9 03:02:49 2025.
 Gaussian 16:  ES64L-G16RevC.01  3-Jul-2019

 ----------------------------------------------------------------------
 #t hf aug-cc-pvdz iop(5/13=1,5/36=2,99/5=2) pseudo=read geom=check gue
 ss=(read,tcheck) scf=(maxcycle=1)
 ----------------------------------------------------------------------
 -----
 title
 -----
 Structure from the checkpoint file:  "F-set_cf3co2h_cf3co2h_150_dimer_mol1.chk"
 Charge =  0 Multiplicity = 1

                         Standard orientation:
 ---------------------------------------------------------------------
 Center     Atomic      Atomic             Coordinates (Angstroms)
 Number     Number       Type             X           Y           Z
 ---------------------------------------------------------------------
      1          6           0        0.016348    3.133465   -0.000009
      2          8           0        1.231961    2.682035    0.000121
      3          8           0       -1.004224    2.488183    0.000041
      4          6           0       -0.016348    4.684521   -0.000049
      5          1           0        1.233921    1.689337    0.000091
      6          9           0        0.602532    5.151960    1.081531
      7          9           0        0.604541    5.152034   -1.080449
      8          9           0       -1.261666    5.123592   -0.001199
      9          6           0       -0.016348   -3.133465   -0.000009
     10          8           0       -1.231961   -2.682035    0.000121
     11          8           0        1.004224   -2.488183    0.000041
     12          6           0        0.016348   -4.684521   -0.000049
     13          1           0       -1.233921   -1.689337    0.000091
     14          9           0        1.261666   -5.123592   -0.001199
     15          9           0       -0.602532   -5.151960    1.081531
     16          9           0       -0.604541   -5.152034   -1.080449
 ---------------------------------------------------------------------

 SCF Done:  E(RHF) =  -1049.26313116     A.U. after    2 cycles

 The electronic state is 1-A.
 Alpha  occ. eigenvalues --  -26.19296 -26.19296 -26.19286 -26.19286 -26.18968
 Alpha  occ. eigenvalues --  -26.18968 -20.68331 -20.68331 -20.61503 -20.61502
 Alpha  occ. eigenvalues --  -11.55913 -11.55913 -11.45632 -11.45632  -1.79651
 Alpha  occ. eigenvalues --   -1.79651  -1.72248  -1.72248  -1.72179  -1.72178
 Alpha  occ. eigenvalues --   -1.48988  -1.48988  -1.38218  -1.38216  -1.08652
 Alpha  occ. eigenvalues --   -1.08646  -0.96811  -0.96802  -0.91362  -0.91361
 Alpha  occ. eigenvalues --   -0.91346  -0.91345  -0.86824  -0.86815  -0.80122
 Alpha  occ. eigenvalues --   -0.80121  -0.79818  -0.79818  -0.76698  -0.76681
 Alpha  occ. eigenvalues --   -0.75721  -0.75721  -0.75434  -0.75433  -0.74194
 Alpha  occ. eigenvalues --   -0.74194  -0.73214  -0.73210  -0.69859  -0.69857
 Alpha  occ. eigenvalues --   -0.63742  -0.63710  -0.54709  -0.54706  -0.52869
 Alpha  occ. eigenvalues --   -0.52796
 Alpha virt. eigenvalues --    0.02555   0.04612   0.07277   0.07501   0.07568
 Alpha virt. eigenvalues --    0.08561   0.09047   0.09102   0.09521   0.10066
 Alpha virt. eigenvalues --    0.10578   0.11248   0.11977   0.12979   0.13470

 Mulliken charges:
               1
     1  C    0.239833
     2  O   -0.396005
     3  O   -0.386470
     4  C    1.103087
     5  H    0.232256
     6  F   -0.273880
     7  F   -0.273899
     8  F   -0.244922
     9  C    0.239833
    10  O   -0.396005
    11  O   -0.386470
    12  C    1.103087
    13  H    0.232256
    14  F   -0.244922
    15  F   -0.273880
    16  F   -0.273899
 Sum of Mulliken charges =  -0.00000

 Dipole moment (field-independent basis, Debye):
    X=             -0.0000    Y=              0.0000    Z=             -0.0005  Tot=              0.0005

 Test job not archived.
 1\1\GINC-SE042\SP\RHF\Aug-CC-pVDZ\C4H2F6O4\OHZDE\09-Apr-2025\0\\#t hf
 aug-cc-pvdz iop(5/13=1,5/36=2,99/5=2) pseudo=read geom=check guess=(re
 ad,tcheck) scf=(maxcycle=1)\\title\\0,1\C,0,-0.00078,1.87956,-0.00001\
 O,0,1.20457,1.4014,0.00012\O,0,-1.03535,1.25697,0.00004\C,0,0.00078,3.
 43096,-0.00005\H,0,1.18461,0.4089,0.00009\F,0,0.62983,3.88462,1.08153\
 F,0,0.63184,3.88465,-1.08045\F,0,-1.23454,3.89742,-0.0012\C,0,-0.17184
 ,-4.38512,-0.00001\O,0,-1.37719,-3.90696,0.00012\O,0,0.86273,-3.76253,
 0.00004\C,0,-0.1734,-5.93652,-0.00005\H,0,-1.35723,-2.91446,0.00009\F,

 Normal termination of Gaussian 16 at Wed Apr  9 03:02:54 2025.
