 Gaussian 16, Revision C.01,

 ----------------------------------------------------------------------
 #t hf aug-cc-pvdz symm=none int=(grid=ultrafine) guess=(read,tcheck) s
 table=(opt,rrhf)
 ----------------------------------------------------------------------
 -----
 title
 -----
 Symbolic Z-matrix:
 Charge =  0 Multiplicity = 1

 SCF Done:  E(RHF) =  -1054.59247366     A.U. after   13 cycles

 1\1\GINC-SE247\Stability\RHF\Aug-CC-pVDZ\C12H6F6\OHZDE\09-Apr-2025\0\\
 #t hf aug-cc-pvdz symm=none int=(grid=ultrafine) guess=(read,tcheck) s
 table=(opt,rrhf)\\title\\0,1\C,0,-1.05492,1.38134,-0.46157\C,0,-0.2198
 5,0.74322,-1.36181\C,0,-1.8503,0.63831,0.39257\F,0,-1.07636,2.70339,-0
 .40254\C,0,-0.17808,-0.63935,-1.40641\F,0,0.545,1.45496,-2.17284\C,0,-
 1.80849,-0.74408,0.34809\F,0,-2.63364,1.24984,1.26796\C,0,-0.97186,-1.
 38232,-0.55041\F,0,0.62544,-1.25007,-2.26137\F,0,-2.5528,-1.4566,1.180
 18\F,0,-0.91673,-2.70456,-0.57861\C,0,2.09866083,-0.57449812,2.3952947

 Normal termination of Gaussian 16 at Wed Apr  9 03:06:41 2025.
 Gaussian 16:  ES64L-G16RevC.01  3-Jul-2019

 ----------------------------------------------------------------------
 #t hf aug-cc-pvdz iop(5/13=1,5/36=2,99/5=2) pseudo=read geom=check gue
 ss=(read,tcheck) scf=(maxcycle=1)
 ----------------------------------------------------------------------
 -----
 title
 -----
 Structure from the checkpoint file:  "F-set_c6h6_c6f6_125_dimer_mol1.chk"
 Charge =  0 Multiplicity = 1

                         Standard orientation:
 ---------------------------------------------------------------------
 Center     Atomic      Atomic             Coordinates (Angstroms)
 Number     Number       Type             X           Y           Z
 ---------------------------------------------------------------------
      1          6           0       -1.406889   -1.381472    0.266401
      2          6           0       -0.804858   -0.742653    1.336186
      3          6           0       -1.981452   -0.639107   -0.749989
      4          9           0       -1.413612   -2.703555    0.204657
      5          6           0       -0.775019    0.639951    1.388607
      6          9           0       -0.249943   -1.453759    2.303521
      7          6           0       -1.951546    0.743318   -0.697676
      8          9           0       -2.538978   -1.251305   -1.783563
      9          6           0       -1.347592    1.382256    0.370781
     10          9           0       -0.193106    1.251339    2.407019
     11          9           0       -2.481578    1.455202   -1.680703
     12          9           0       -1.300921    2.704529    0.410398
     13          6           0        2.325237    0.574383   -1.777594
     14          1           0        1.849587    1.023533   -2.639189
     15          6           0        2.875306    1.379957   -0.790706
     16          6           0        2.384682   -0.805742   -1.659906
     17          1           0        2.826766    2.456898   -0.882090
     18          6           0        3.483314    0.804385    0.314580
     19          6           0        2.993407   -1.381434   -0.554438
     20          1           0        1.955135   -1.433613   -2.428747
     21          1           0        3.907088    1.431526    1.086654
     22          6           0        3.541783   -0.576641    0.432867
     23          1           0        3.035503   -2.457795   -0.460414
     24          1           0        4.010927   -1.025811    1.297149
 ---------------------------------------------------------------------

 SCF Done:  E(RHF) =  -1054.94764883     A.U. after    2 cycles

 The electronic state is 1-A.
 Alpha  occ. eigenvalues --  -26.18401 -26.18390 -26.18349 -26.18336 -26.18254
 Alpha  occ. eigenvalues --  -26.18246 -11.39318 -11.39260 -11.39254 -11.39143
 Alpha  occ. eigenvalues --  -11.39132 -11.39073 -11.25019 -11.24955 -11.24943
 Alpha  occ. eigenvalues --  -11.24842 -11.24824 -11.24766  -1.73774  -1.73243
 Alpha  occ. eigenvalues --   -1.73223  -1.72275  -1.72267  -1.71810  -1.23192
 Alpha  occ. eigenvalues --   -1.15224  -1.10049  -1.10041  -1.01848  -1.01827
 Alpha  occ. eigenvalues --   -0.97318  -0.97313  -0.89637  -0.88824  -0.88544
 Alpha  occ. eigenvalues --   -0.83356  -0.83350  -0.83017  -0.83003  -0.82550
 Alpha  occ. eigenvalues --   -0.82052  -0.82043  -0.80690  -0.80667  -0.78747
 Alpha  occ. eigenvalues --   -0.78738  -0.78072  -0.76771  -0.76766  -0.76080
 Alpha  occ. eigenvalues --   -0.72252  -0.67211  -0.67194  -0.65061  -0.63453
 Alpha  occ. eigenvalues --   -0.63208  -0.59975  -0.59949  -0.55926  -0.51528
 Alpha  occ. eigenvalues --   -0.50438  -0.50431  -0.39595  -0.39558  -0.34817
 Alpha  occ. eigenvalues --   -0.34791
 Alpha virt. eigenvalues --    0.03424   0.04163   0.04165   0.05632   0.05765
 Alpha virt. eigenvalues --    0.05774   0.07598   0.07718   0.07888   0.09251
 Alpha virt. eigenvalues --    0.09274   0.09459   0.09494   0.10830   0.10949

 Mulliken charges:
               1
     1  C    0.192138
     2  C    0.323104
     3  C    0.217844
     4  F   -0.250845
     5  C    0.345377
     6  F   -0.259778
     7  C    0.208198
     8  F   -0.240544
     9  C    0.201851
    10  F   -0.257610
    11  F   -0.242477
    12  F   -0.248828
    13  C    0.711626
    14  H   -0.562901
    15  C    0.471693
    16  C    0.650008
    17  H   -0.538031
    18  C    0.482595
    19  C    0.447728
    20  H   -0.565138
    21  H   -0.515456
    22  C    0.457556
    23  H   -0.525689
    24  H   -0.502421
 Sum of Mulliken charges =  -0.00000

 Dipole moment (field-independent basis, Debye):
    X=              0.3364    Y=             -0.0015    Z=              0.0859  Tot=              0.3472

 Test job not archived.
 1\1\GINC-SE247\SP\RHF\Aug-CC-pVDZ\C12H6F6\OHZDE\09-Apr-2025\0\\#t hf a
 ug-cc-pvdz iop(5/13=1,5/36=2,99/5=2) pseudo=read geom=check guess=(rea
 d,tcheck) scf=(maxcycle=1)\\title\\0,1\C,0,-1.05492,1.38134,-0.46157\C
 ,0,-0.21985,0.74322,-1.36181\C,0,-1.8503,0.63831,0.39257\F,0,-1.07636,
 2.70339,-0.40254\C,0,-0.17808,-0.63935,-1.40641\F,0,0.545,1.45496,-2.1
 7284\C,0,-1.80849,-0.74408,0.34809\F,0,-2.63364,1.24984,1.26796\C,0,-0
 .97186,-1.38232,-0.55041\F,0,0.62544,-1.25007,-2.26137\F,0,-2.5528,-1.
 4566,1.18018\F,0,-0.91673,-2.70456,-0.57861\C,0,2.09866083,-0.57449812

 Normal termination of Gaussian 16 at Wed Apr  9 03:07:11 2025.
