 Gaussian 16, Revision C.01,

 ----------------------------------------------------------------------
 #t hf aug-cc-pvdz symm=none int=(grid=ultrafine) guess=(read,tcheck) s
 table=(opt,rrhf)
 ----------------------------------------------------------------------
 -----
 title
 -----
 Symbolic Z-matrix:
 Charge =  0 Multiplicity = 1

 SCF Done:  E(RHF) =  -179.254315611     A.U. after   11 cycles
 Normal termination of Gaussian 16 at Wed Apr  9 03:02:02 2025.
 Gaussian 16:  ES64L-G16RevC.01  3-Jul-2019

 ----------------------------------------------------------------------
 #t hf aug-cc-pvdz iop(5/13=1,5/36=2,99/5=2) pseudo=read geom=check gue
 ss=(read,tcheck) scf=(maxcycle=1)
 ----------------------------------------------------------------------
 -----
 title
 -----
 Structure from the checkpoint file:  "F-set_ch4_ch3f_090_dimer_mol1.chk"
 Charge =  0 Multiplicity = 1

                         Standard orientation:
 ---------------------------------------------------------------------
 Center     Atomic      Atomic             Coordinates (Angstroms)
 Number     Number       Type             X           Y           Z
 ---------------------------------------------------------------------
      1          6           0        0.995852   -1.734380    0.000000
      2          1           0        1.255337   -2.790422    0.000000
      3          1           0        0.408054   -1.503618    0.885270
      4          1           0        0.408054   -1.503618   -0.885270
      5          1           0        1.906878   -1.139466    0.000000
      6          6           0        0.000000    1.266882    0.000000
      7          9           0       -1.209560    0.603767    0.000000
      8          1           0        0.559128    0.983834    0.891170
      9          1           0        0.559128    0.983834   -0.891170
     10          1           0       -0.185652    2.340543    0.000000
 ---------------------------------------------------------------------

 SCF Done:  E(RHF) =  -179.322560142     A.U. after    2 cycles

 The electronic state is 1-A'.
 Alpha  occ. eigenvalues --  -26.10326 -11.31688 -11.21655  -1.63740  -0.97114
 Alpha  occ. eigenvalues --   -0.93971  -0.74268  -0.74198  -0.71673  -0.56004
 Alpha  occ. eigenvalues --   -0.55514  -0.54753  -0.54038  -0.53725
 Alpha virt. eigenvalues --    0.03356   0.04439   0.05803   0.06023   0.07063
 Alpha virt. eigenvalues --    0.08267   0.09087   0.11168   0.13426   0.15174
 Alpha virt. eigenvalues --    0.16505   0.16730   0.17187   0.19349   0.21917

 Mulliken charges:
               1
     1  C    0.638707
     2  H   -0.245682
     3  H   -0.125371
     4  H   -0.125371
     5  H   -0.146660
     6  C    0.866864
     7  F   -0.423686
     8  H   -0.132110
     9  H   -0.132110
    10  H   -0.174582
 Sum of Mulliken charges =  -0.00000

 Dipole moment (field-independent basis, Debye):
    X=              1.8691    Y=              1.0267    Z=              0.0000  Tot=              2.1326

 Test job not archived.
 1\1\GINC-SE015\SP\RHF\Aug-CC-pVDZ\C2H7F1\OHZDE\09-Apr-2025\0\\#t hf au
 g-cc-pvdz iop(5/13=1,5/36=2,99/5=2) pseudo=read geom=check guess=(read
 ,tcheck) scf=(maxcycle=1)\\title\\0,1\C,0,-1.01183,-1.97786,0.\H,0,-1.
 23943,-3.04123,0.\H,0,-0.43124,-1.72952,-0.88527\H,0,-0.43124,-1.72952
 ,0.88527\H,0,-1.94034,-1.41062,0.\C,0,-0.1067118,1.052001,0.\F,0,1.122
 2482,0.425571,0.\H,0,-0.6570718,0.752261,-0.89117\H,0,-0.6570718,0.752
 261,0.89117\H,0,0.0465582,2.130761,0.\\Version=ES64L-G16RevC.01\State=
 1-A'\HF=-179.3225601\RMSD=3.061e-03\Dipole=-0.7471882,0.3816469,0.\Qua

 Normal termination of Gaussian 16 at Wed Apr  9 03:02:03 2025.
