 Gaussian 16, Revision C.01,

 ----------------------------------------------------------------------
 #t hf aug-cc-pvdz symm=none int=(grid=ultrafine) guess=(read,tcheck) s
 table=(opt,rrhf)
 ----------------------------------------------------------------------
 -----
 title
 -----
 Symbolic Z-matrix:
 Charge =  0 Multiplicity = 1

 SCF Done:  E(RHF) =  -823.416981555     A.U. after   11 cycles
 Normal termination of Gaussian 16 at Wed Apr  9 03:01:50 2025.
 Gaussian 16:  ES64L-G16RevC.01  3-Jul-2019

 ----------------------------------------------------------------------
 #t hf aug-cc-pvdz iop(5/13=1,5/36=2,99/5=2) pseudo=read geom=check gue
 ss=(read,tcheck) scf=(maxcycle=1)
 ----------------------------------------------------------------------
 -----
 title
 -----
 Structure from the checkpoint file:  "F-set_cf3oh_cf3oh_110_dimer_mol1.chk"
 Charge =  0 Multiplicity = 1

                         Standard orientation:
 ---------------------------------------------------------------------
 Center     Atomic      Atomic             Coordinates (Angstroms)
 Number     Number       Type             X           Y           Z
 ---------------------------------------------------------------------
      1          6           0        2.329756    0.036916    0.003659
      2          8           0        1.757603    1.190639   -0.337587
      3          9           0        2.073203   -0.943312   -0.892894
      4          9           0        3.637601    0.199325    0.071284
      5          9           0        1.898216   -0.426411    1.186625
      6          1           0        0.808004    1.047190   -0.448353
      7          8           0       -1.218978    0.027777   -0.794627
      8          6           0       -2.315740    0.009929   -0.000334
      9          1           0       -1.047291   -0.848784   -1.149204
     10          9           0       -2.201997   -0.885418    0.980010
     11          9           0       -3.415716   -0.291732   -0.689068
     12          9           0       -2.452842    1.211238    0.525745
 ---------------------------------------------------------------------

 SCF Done:  E(RHF) =  -823.718137138     A.U. after    2 cycles

 The electronic state is 1-A.
 Alpha  occ. eigenvalues --  -26.19751 -26.19450 -26.19356 -26.17988 -26.17638
 Alpha  occ. eigenvalues --  -26.17478 -20.67328 -20.64738 -11.60618 -11.58657
 Alpha  occ. eigenvalues --   -1.80631  -1.78472  -1.73080  -1.72496  -1.71097
 Alpha  occ. eigenvalues --   -1.70246  -1.44741  -1.43042  -1.05292  -1.03140
 Alpha  occ. eigenvalues --   -0.94020  -0.92713  -0.91973  -0.90995  -0.90567
 Alpha  occ. eigenvalues --   -0.88637  -0.81362  -0.80702  -0.79508  -0.78867
 Alpha  occ. eigenvalues --   -0.76765  -0.75890  -0.75206  -0.74936  -0.74665
 Alpha  occ. eigenvalues --   -0.73860  -0.73410  -0.72861  -0.67954  -0.65429
 Alpha  occ. eigenvalues --   -0.62401  -0.59919
 Alpha virt. eigenvalues --    0.03095   0.05677   0.08053   0.08313   0.09703
 Alpha virt. eigenvalues --    0.10137   0.10187   0.11904   0.13719   0.14915
 Alpha virt. eigenvalues --    0.17652   0.18267   0.19602   0.20713   0.23446

 Mulliken charges:
               1
     1  C    1.064842
     2  O   -0.420174
     3  F   -0.309980
     4  F   -0.214908
     5  F   -0.278991
     6  H    0.173523
     7  O   -0.527522
     8  C    1.039832
     9  H    0.203159
    10  F   -0.250312
    11  F   -0.254565
    12  F   -0.224903
 Sum of Mulliken charges =  -0.00000

 Dipole moment (field-independent basis, Debye):
    X=             -1.5011    Y=             -0.9106    Z=             -1.4898  Tot=              2.3026

 Test job not archived.
 1\1\GINC-SE365\SP\RHF\Aug-CC-pVDZ\C2H2F6O2\OHZDE\09-Apr-2025\0\\#t hf
 aug-cc-pvdz iop(5/13=1,5/36=2,99/5=2) pseudo=read geom=check guess=(re
 ad,tcheck) scf=(maxcycle=1)\\title\\0,1\C,0,2.13896,0.0375,0.00421\O,0
 ,1.55972,1.18917,-0.33198\F,0,1.89162,-0.93932,-0.89863\F,0,3.44546,0.
 20858,0.07631\F,0,1.70749,-0.43559,1.18333\H,0,0.61144,1.03978,-0.4461
 4\O,0,-1.4074785,0.00834567,-0.8037375\C,0,-2.5062085,-0.02166433,-0.0
 125375\H,0,-1.2287585,-0.86495433,-1.1628575\F,0,-2.3888685,-0.9218143
 3,0.9629725\F,0,-3.6022185,-0.32698433,-0.7059675\F,0,-2.6530585,1.175

 Normal termination of Gaussian 16 at Wed Apr  9 03:01:55 2025.
