 Gaussian 16, Revision C.01,

 ----------------------------------------------------------------------
 #t hf aug-cc-pvdz symm=none int=(grid=ultrafine) guess=(read,tcheck) s
 table=(opt,rrhf)
 ----------------------------------------------------------------------
 -----
 title
 -----
 Symbolic Z-matrix:
 Charge =  0 Multiplicity = 1

 SCF Done:  E(RHF) =  -1048.90024265     A.U. after   13 cycles
 Normal termination of Gaussian 16 at Wed Apr  9 03:02:46 2025.
 Gaussian 16:  ES64L-G16RevC.01  3-Jul-2019

 ----------------------------------------------------------------------
 #t hf aug-cc-pvdz iop(5/13=1,5/36=2,99/5=2) pseudo=read geom=check gue
 ss=(read,tcheck) scf=(maxcycle=1)
 ----------------------------------------------------------------------
 -----
 title
 -----
 Structure from the checkpoint file:  "F-set_cf3co2h_cf3co2h_125_dimer_mol1.chk"
 Charge =  0 Multiplicity = 1

                         Standard orientation:
 ---------------------------------------------------------------------
 Center     Atomic      Atomic             Coordinates (Angstroms)
 Number     Number       Type             X           Y           Z
 ---------------------------------------------------------------------
      1          6           0        0.009420    2.506291   -0.000009
      2          8           0        1.220953    2.044021    0.000121
      3          8           0       -1.016874    1.870151    0.000041
      4          6           0       -0.009420    4.057577   -0.000049
      5          1           0        1.214046    1.051345    0.000091
      6          9           0        0.613610    4.519469    1.081531
      7          9           0        0.615620    4.519526   -1.080449
      8          9           0       -1.250767    4.507753   -0.001199
      9          6           0       -0.009420   -2.506291   -0.000009
     10          8           0       -1.220953   -2.044021    0.000121
     11          8           0        1.016874   -1.870151    0.000041
     12          6           0        0.009420   -4.057577   -0.000049
     13          1           0       -1.214046   -1.051345    0.000091
     14          9           0        1.250767   -4.507753   -0.001199
     15          9           0       -0.613610   -4.519469    1.081531
     16          9           0       -0.615620   -4.519526   -1.080449
 ---------------------------------------------------------------------

 SCF Done:  E(RHF) =  -1049.26864331     A.U. after    2 cycles

 The electronic state is 1-A.
 Alpha  occ. eigenvalues --  -26.19472 -26.19472 -26.19463 -26.19463 -26.19182
 Alpha  occ. eigenvalues --  -26.19182 -20.68388 -20.68388 -20.62030 -20.62030
 Alpha  occ. eigenvalues --  -11.56147 -11.56147 -11.46079 -11.46079  -1.79839
 Alpha  occ. eigenvalues --   -1.79838  -1.72417  -1.72417  -1.72379  -1.72377
 Alpha  occ. eigenvalues --   -1.49216  -1.49195  -1.38666  -1.38628  -1.08892
 Alpha  occ. eigenvalues --   -1.08848  -0.97036  -0.96929  -0.91548  -0.91542
 Alpha  occ. eigenvalues --   -0.91541  -0.91534  -0.86947  -0.86932  -0.80295
 Alpha  occ. eigenvalues --   -0.80290  -0.80014  -0.80003  -0.77251  -0.76953
 Alpha  occ. eigenvalues --   -0.75896  -0.75895  -0.75641  -0.75635  -0.74375
 Alpha  occ. eigenvalues --   -0.74375  -0.73616  -0.73493  -0.70074  -0.70023
 Alpha  occ. eigenvalues --   -0.64121  -0.63886  -0.55198  -0.55140  -0.53612
 Alpha  occ. eigenvalues --   -0.53136
 Alpha virt. eigenvalues --    0.03409   0.05279   0.07122   0.07309   0.07512
 Alpha virt. eigenvalues --    0.08463   0.08948   0.09351   0.10172   0.10724
 Alpha virt. eigenvalues --    0.10950   0.11263   0.12022   0.13980   0.14797

 Mulliken charges:
               1
     1  C    0.191309
     2  O   -0.382865
     3  O   -0.381699
     4  C    1.146471
     5  H    0.224228
     6  F   -0.275681
     7  F   -0.275699
     8  F   -0.246063
     9  C    0.191309
    10  O   -0.382865
    11  O   -0.381699
    12  C    1.146471
    13  H    0.224228
    14  F   -0.246063
    15  F   -0.275681
    16  F   -0.275699
 Sum of Mulliken charges =   0.00000

 Dipole moment (field-independent basis, Debye):
    X=              0.0000    Y=             -0.0000    Z=             -0.0005  Tot=              0.0005

 Test job not archived.
 1\1\GINC-SE159\SP\RHF\Aug-CC-pVDZ\C4H2F6O4\OHZDE\09-Apr-2025\0\\#t hf
 aug-cc-pvdz iop(5/13=1,5/36=2,99/5=2) pseudo=read geom=check guess=(re
 ad,tcheck) scf=(maxcycle=1)\\title\\0,1\C,0,-0.00078,1.87956,-0.00001\
 O,0,1.20457,1.4014,0.00012\O,0,-1.03535,1.25697,0.00004\C,0,0.00078,3.
 43096,-0.00005\H,0,1.18461,0.4089,0.00009\F,0,0.62983,3.88462,1.08153\
 F,0,0.63184,3.88465,-1.08045\F,0,-1.23454,3.89742,-0.0012\C,0,-0.08553
 ,-3.13234,-0.00001\O,0,-1.29088,-2.65418,0.00012\O,0,0.94904,-2.50975,
 0.00004\C,0,-0.08709,-4.68374,-0.00005\H,0,-1.27092,-1.66168,0.00009\F

 Normal termination of Gaussian 16 at Wed Apr  9 03:02:52 2025.
