 Gaussian 16, Revision C.01,

 ----------------------------------------------------------------------
 #t hf aug-cc-pvdz symm=none int=(grid=ultrafine) guess=(read,tcheck) s
 table=(opt,rrhf)
 ----------------------------------------------------------------------
 -----
 title
 -----
 Symbolic Z-matrix:
 Charge =  0 Multiplicity = 1

 SCF Done:  E(RHF) =  -1048.85379454     A.U. after   13 cycles
 Normal termination of Gaussian 16 at Wed Apr  9 03:02:44 2025.
 Gaussian 16:  ES64L-G16RevC.01  3-Jul-2019

 ----------------------------------------------------------------------
 #t hf aug-cc-pvdz iop(5/13=1,5/36=2,99/5=2) pseudo=read geom=check gue
 ss=(read,tcheck) scf=(maxcycle=1)
 ----------------------------------------------------------------------
 -----
 title
 -----
 Structure from the checkpoint file:  "F-set_cf3co2h_cf3co2h_090_dimer_mol1.chk"
 Charge =  0 Multiplicity = 1

                         Standard orientation:
 ---------------------------------------------------------------------
 Center     Atomic      Atomic             Coordinates (Angstroms)
 Number     Number       Type             X           Y           Z
 ---------------------------------------------------------------------
      1          6           0        0.003856    1.629099   -0.000009
      2          8           0        1.202670    1.134781    0.000121
      3          8           0       -1.038989    1.020472    0.000041
      4          6           0        0.026269    3.180338   -0.000049
      5          1           0        1.169371    0.142639    0.000091
      6          9           0        0.661360    3.625502    1.081531
      7          9           0        0.663370    3.625505   -1.080449
      8          9           0       -1.202670    3.663361   -0.001199
      9          6           0       -0.003856   -1.629099   -0.000009
     10          8           0       -1.202670   -1.134781    0.000121
     11          8           0        1.038989   -1.020472    0.000041
     12          6           0       -0.026269   -3.180338   -0.000049
     13          1           0       -1.169371   -0.142639    0.000091
     14          9           0        1.202670   -3.663361   -0.001199
     15          9           0       -0.661360   -3.625502    1.081531
     16          9           0       -0.663370   -3.625505   -1.080449
 ---------------------------------------------------------------------

 SCF Done:  E(RHF) =  -1049.22311356     A.U. after    2 cycles

 The electronic state is 1-A.
 Alpha  occ. eigenvalues --  -26.19748 -26.19748 -26.19740 -26.19740 -26.19657
 Alpha  occ. eigenvalues --  -26.19657 -20.63953 -20.63953 -20.63395 -20.63395
 Alpha  occ. eigenvalues --  -11.56538 -11.56537 -11.47896 -11.47893  -1.80178
 Alpha  occ. eigenvalues --   -1.80166  -1.72799  -1.72794  -1.72641  -1.72635
 Alpha  occ. eigenvalues --   -1.52547  -1.48022  -1.43153  -1.38008  -1.11091
 Alpha  occ. eigenvalues --   -1.08740  -1.00634  -0.95961  -0.94425  -0.91844
 Alpha  occ. eigenvalues --   -0.91830  -0.91778  -0.90505  -0.89298  -0.82252
 Alpha  occ. eigenvalues --   -0.80649  -0.80546  -0.80485  -0.80123  -0.77244
 Alpha  occ. eigenvalues --   -0.76215  -0.76160  -0.76153  -0.76065  -0.74696
 Alpha  occ. eigenvalues --   -0.74691  -0.73641  -0.72609  -0.71747  -0.68675
 Alpha  occ. eigenvalues --   -0.65236  -0.63473  -0.58252  -0.55924  -0.54562
 Alpha  occ. eigenvalues --   -0.52588
 Alpha virt. eigenvalues --    0.03968   0.05633   0.05878   0.06832   0.07338
 Alpha virt. eigenvalues --    0.08068   0.08230   0.09534   0.10999   0.11394
 Alpha virt. eigenvalues --    0.11842   0.11890   0.12328   0.16426   0.16653

 Mulliken charges:
               1
     1  C    0.343693
     2  O   -0.439514
     3  O   -0.451366
     4  C    1.148528
     5  H    0.206347
     6  F   -0.278874
     7  F   -0.278893
     8  F   -0.249920
     9  C    0.343693
    10  O   -0.439514
    11  O   -0.451366
    12  C    1.148528
    13  H    0.206347
    14  F   -0.249920
    15  F   -0.278874
    16  F   -0.278893
 Sum of Mulliken charges =  -0.00000

 Dipole moment (field-independent basis, Debye):
    X=              0.0000    Y=             -0.0000    Z=             -0.0005  Tot=              0.0005

 Test job not archived.
 1\1\GINC-SE106\SP\RHF\Aug-CC-pVDZ\C4H2F6O4\OHZDE\09-Apr-2025\0\\#t hf
 aug-cc-pvdz iop(5/13=1,5/36=2,99/5=2) pseudo=read geom=check guess=(re
 ad,tcheck) scf=(maxcycle=1)\\title\\0,1\C,0,-0.00078,1.87956,-0.00001\
 O,0,1.20457,1.4014,0.00012\O,0,-1.03535,1.25697,0.00004\C,0,0.00078,3.
 43096,-0.00005\H,0,1.18461,0.4089,0.00009\F,0,0.62983,3.88462,1.08153\
 F,0,0.63184,3.88465,-1.08045\F,0,-1.23454,3.89742,-0.0012\C,0,0.035304
 ,-1.378448,-0.00001\O,0,-1.170046,-0.900288,0.00012\O,0,1.069874,-0.75
 5858,0.00004\C,0,0.033744,-2.929848,-0.00005\H,0,-1.150086,0.092212,0.

 Normal termination of Gaussian 16 at Wed Apr  9 03:02:50 2025.
