 Gaussian 16, Revision C.01,

 ----------------------------------------------------------------------
 #t hf aug-cc-pvdz symm=none int=(grid=ultrafine) guess=(read,tcheck) s
 table=(opt,rrhf)
 ----------------------------------------------------------------------
 -----
 title
 -----
 Symbolic Z-matrix:
 Charge =  0 Multiplicity = 1

 SCF Done:  E(RHF) =  -823.417213751     A.U. after   11 cycles
 Normal termination of Gaussian 16 at Wed Apr  9 03:01:51 2025.
 Gaussian 16:  ES64L-G16RevC.01  3-Jul-2019

 ----------------------------------------------------------------------
 #t hf aug-cc-pvdz iop(5/13=1,5/36=2,99/5=2) pseudo=read geom=check gue
 ss=(read,tcheck) scf=(maxcycle=1)
 ----------------------------------------------------------------------
 -----
 title
 -----
 Structure from the checkpoint file:  "F-set_cf3oh_cf3oh_100_dimer_mol1.chk"
 Charge =  0 Multiplicity = 1

                         Standard orientation:
 ---------------------------------------------------------------------
 Center     Atomic      Atomic             Coordinates (Angstroms)
 Number     Number       Type             X           Y           Z
 ---------------------------------------------------------------------
      1          6           0        2.138961    0.037501    0.004211
      2          8           0        1.559720    1.189171   -0.331979
      3          9           0        1.891621   -0.939319   -0.898629
      4          9           0        3.445461    0.208581    0.076311
      5          9           0        1.707491   -0.435589    1.183331
      6          1           0        0.611440    1.039780   -0.446139
      7          8           0       -1.026549    0.039430   -0.791779
      8          6           0       -2.125279    0.009420   -0.000579
      9          1           0       -0.847829   -0.833870   -1.150899
     10          9           0       -2.007939   -0.890730    0.974931
     11          9           0       -3.221289   -0.295901   -0.694009
     12          9           0       -2.272130    1.206710    0.531991
 ---------------------------------------------------------------------

 SCF Done:  E(RHF) =  -823.717629152     A.U. after    2 cycles

 The electronic state is 1-A.
 Alpha  occ. eigenvalues --  -26.20157 -26.19758 -26.19712 -26.17786 -26.17670
 Alpha  occ. eigenvalues --  -26.17328 -20.68022 -20.63957 -11.61070 -11.58421
 Alpha  occ. eigenvalues --   -1.80994  -1.78352  -1.73450  -1.72815  -1.70964
 Alpha  occ. eigenvalues --   -1.70203  -1.45568  -1.42476  -1.05735  -1.02974
 Alpha  occ. eigenvalues --   -0.94465  -0.93087  -0.92007  -0.91329  -0.90461
 Alpha  occ. eigenvalues --   -0.88420  -0.81782  -0.81044  -0.79442  -0.78796
 Alpha  occ. eigenvalues --   -0.77190  -0.76241  -0.75679  -0.75025  -0.74972
 Alpha  occ. eigenvalues --   -0.73775  -0.73360  -0.72786  -0.68712  -0.64993
 Alpha  occ. eigenvalues --   -0.62856  -0.59341
 Alpha virt. eigenvalues --    0.03180   0.05821   0.08033   0.08305   0.09878
 Alpha virt. eigenvalues --    0.10242   0.10351   0.11816   0.14047   0.15508
 Alpha virt. eigenvalues --    0.18098   0.18243   0.20492   0.20940   0.23739

 Mulliken charges:
               1
     1  C    1.064289
     2  O   -0.416495
     3  F   -0.318427
     4  F   -0.213709
     5  F   -0.280780
     6  H    0.191053
     7  O   -0.558276
     8  C    1.041418
     9  H    0.218500
    10  F   -0.249637
    11  F   -0.250548
    12  F   -0.227388
 Sum of Mulliken charges =  -0.00000

 Dipole moment (field-independent basis, Debye):
    X=             -1.6642    Y=             -0.9701    Z=             -1.5037  Tot=              2.4437

 Test job not archived.
 1\1\GINC-SE340\SP\RHF\Aug-CC-pVDZ\C2H2F6O2\OHZDE\09-Apr-2025\0\\#t hf
 aug-cc-pvdz iop(5/13=1,5/36=2,99/5=2) pseudo=read geom=check guess=(re
 ad,tcheck) scf=(maxcycle=1)\\title\\0,1\C,0,2.13896,0.0375,0.00421\O,0
 ,1.55972,1.18917,-0.33198\F,0,1.89162,-0.93932,-0.89863\F,0,3.44546,0.
 20858,0.07631\F,0,1.70749,-0.43559,1.18333\H,0,0.61144,1.03978,-0.4461
 4\O,0,-1.02655,0.03943,-0.79178\C,0,-2.12528,0.00942,-0.00058\H,0,-0.8
 4783,-0.83387,-1.1509\F,0,-2.00794,-0.89073,0.97493\F,0,-3.22129,-0.29
 59,-0.69401\F,0,-2.27213,1.20671,0.53199\\Version=ES64L-G16RevC.01\Sta

 Normal termination of Gaussian 16 at Wed Apr  9 03:01:56 2025.
