 Gaussian 16, Revision C.01,

 ----------------------------------------------------------------------
 #t hf aug-cc-pvdz symm=none int=(grid=ultrafine) guess=(read,tcheck) s
 table=(opt,rrhf)
 ----------------------------------------------------------------------
 -----
 title
 -----
 Symbolic Z-matrix:
 Charge =  0 Multiplicity = 1

 SCF Done:  E(RHF) =  -1054.57819709     A.U. after   14 cycles

 1\1\GINC-SE016\Stability\RHF\Aug-CC-pVDZ\C12H6F6\OHZDE\09-Apr-2025\0\\
 #t hf aug-cc-pvdz symm=none int=(grid=ultrafine) guess=(read,tcheck) s
 table=(opt,rrhf)\\title\\0,1\C,0,-1.05492,1.38134,-0.46157\C,0,-0.2198
 5,0.74322,-1.36181\C,0,-1.8503,0.63831,0.39257\F,0,-1.07636,2.70339,-0
 .40254\C,0,-0.17808,-0.63935,-1.40641\F,0,0.545,1.45496,-2.17284\C,0,-
 1.80849,-0.74408,0.34809\F,0,-2.63364,1.24984,1.26796\C,0,-0.97186,-1.
 38232,-0.55041\F,0,0.62544,-1.25007,-2.26137\F,0,-2.5528,-1.4566,1.180
 18\F,0,-0.91673,-2.70456,-0.57861\C,0,0.99144167,-0.57504675,1.8458440

 Normal termination of Gaussian 16 at Wed Apr  9 03:08:40 2025.
 Gaussian 16:  ES64L-G16RevC.01  3-Jul-2019

 ----------------------------------------------------------------------
 #t hf aug-cc-pvdz iop(5/13=1,5/36=2,99/5=2) pseudo=read geom=check gue
 ss=(read,tcheck) scf=(maxcycle=1)
 ----------------------------------------------------------------------
 -----
 title
 -----
 Structure from the checkpoint file:  "F-set_c6h6_c6f6_090_dimer_mol1.chk"
 Charge =  0 Multiplicity = 1

                         Standard orientation:
 ---------------------------------------------------------------------
 Center     Atomic      Atomic             Coordinates (Angstroms)
 Number     Number       Type             X           Y           Z
 ---------------------------------------------------------------------
      1          6           0       -0.870802   -1.381261    0.567546
      2          6           0        0.105346   -0.743597    1.312859
      3          6           0       -1.799593   -0.637798   -0.138774
      4          9           0       -0.902355   -2.703290    0.512721
      5          6           0        0.154497    0.638950    1.350020
      6          9           0        0.996731   -1.455750    1.981894
      7          6           0       -1.750422    0.744569   -0.101738
      8          9           0       -2.720531   -1.248892   -0.868388
      9          6           0       -0.773033    1.382354    0.641595
     10          9           0        1.091848    1.249235    2.056070
     11          9           0       -2.625147    1.457503   -0.795018
     12          9           0       -0.713522    2.704572    0.660311
     13          6           0        0.754075    0.575239   -2.053731
     14          1           0       -0.022916    1.025314   -2.657088
     15          6           0        1.649864    1.379749   -1.363949
     16          6           0        0.854148   -0.805010   -1.969889
     17          1           0        1.569975    2.456787   -1.428108
     18          6           0        2.644621    0.802991   -0.589080
     19          6           0        1.849636   -1.381888   -1.195136
     20          1           0        0.155348   -1.432053   -2.506867
     21          1           0        3.339395    1.429304   -0.046852
     22          6           0        2.744033   -0.578157   -0.504303
     23          1           0        1.924649   -2.458346   -1.126006
     24          1           0        3.516109   -1.028252    0.104094
 ---------------------------------------------------------------------

 SCF Done:  E(RHF) =  -1054.92998307     A.U. after    2 cycles

 The electronic state is 1-A.
 Alpha  occ. eigenvalues --  -26.18129 -26.18126 -26.18088 -26.18080 -26.18013
 Alpha  occ. eigenvalues --  -26.17993 -11.38768 -11.38694 -11.38653 -11.38581
 Alpha  occ. eigenvalues --  -11.38542 -11.38464 -11.25469 -11.25364 -11.25247
 Alpha  occ. eigenvalues --  -11.25208 -11.25118 -11.25026  -1.73488  -1.72974
 Alpha  occ. eigenvalues --   -1.72923  -1.72010  -1.71969  -1.71534  -1.22702
 Alpha  occ. eigenvalues --   -1.15751  -1.09614  -1.09586  -1.02372  -1.02349
 Alpha  occ. eigenvalues --   -0.96946  -0.96941  -0.89279  -0.88493  -0.88272
 Alpha  occ. eigenvalues --   -0.83881  -0.83858  -0.82731  -0.82700  -0.82345
 Alpha  occ. eigenvalues --   -0.81700  -0.81682  -0.80455  -0.80418  -0.78507
 Alpha  occ. eigenvalues --   -0.78459  -0.77833  -0.76504  -0.76464  -0.75817
 Alpha  occ. eigenvalues --   -0.72687  -0.66809  -0.66784  -0.65495  -0.63866
 Alpha  occ. eigenvalues --   -0.62781  -0.60401  -0.60355  -0.56829  -0.50853
 Alpha  occ. eigenvalues --   -0.50839  -0.50747  -0.40290  -0.39597  -0.34794
 Alpha  occ. eigenvalues --   -0.34245
 Alpha virt. eigenvalues --    0.03548   0.04266   0.04276   0.05828   0.05843
 Alpha virt. eigenvalues --    0.05970   0.07650   0.07866   0.07959   0.08759
 Alpha virt. eigenvalues --    0.08885   0.09828   0.09866   0.10479   0.11401

 Mulliken charges:
               1
     1  C    0.192048
     2  C    0.286914
     3  C    0.249013
     4  F   -0.277428
     5  C    0.374761
     6  F   -0.287646
     7  C    0.288920
     8  F   -0.255765
     9  C    0.209821
    10  F   -0.282993
    11  F   -0.254436
    12  F   -0.276522
    13  C    0.661069
    14  H   -0.607090
    15  C    0.622806
    16  C    0.606008
    17  H   -0.568237
    18  C    0.567141
    19  C    0.476512
    20  H   -0.620227
    21  H   -0.559021
    22  C    0.529120
    23  H   -0.547135
    24  H   -0.527632
 Sum of Mulliken charges =  -0.00000

 Dipole moment (field-independent basis, Debye):
    X=              0.5700    Y=              0.0022    Z=             -0.1482  Tot=              0.5889

 Test job not archived.
 1\1\GINC-SE016\SP\RHF\Aug-CC-pVDZ\C12H6F6\OHZDE\09-Apr-2025\0\\#t hf a
 ug-cc-pvdz iop(5/13=1,5/36=2,99/5=2) pseudo=read geom=check guess=(rea
 d,tcheck) scf=(maxcycle=1)\\title\\0,1\C,0,-1.05492,1.38134,-0.46157\C
 ,0,-0.21985,0.74322,-1.36181\C,0,-1.8503,0.63831,0.39257\F,0,-1.07636,
 2.70339,-0.40254\C,0,-0.17808,-0.63935,-1.40641\F,0,0.545,1.45496,-2.1
 7284\C,0,-1.80849,-0.74408,0.34809\F,0,-2.63364,1.24984,1.26796\C,0,-0
 .97186,-1.38232,-0.55041\F,0,0.62544,-1.25007,-2.26137\F,0,-2.5528,-1.
 4566,1.18018\F,0,-0.91673,-2.70456,-0.57861\C,0,0.99144167,-0.57504675

 Normal termination of Gaussian 16 at Wed Apr  9 03:09:14 2025.
