 Gaussian 16, Revision C.01,

 ----------------------------------------------------------------------
 #t hf aug-cc-pvdz symm=none int=(grid=ultrafine) guess=(read,tcheck) s
 table=(opt,rrhf)
 ----------------------------------------------------------------------
 -----
 title
 -----
 Symbolic Z-matrix:
 Charge =  0 Multiplicity = 1

 SCF Done:  E(RHF) =  -1054.59150028     A.U. after   14 cycles

 1\1\GINC-SE131\Stability\RHF\Aug-CC-pVDZ\C12H6F6\OHZDE\09-Apr-2025\0\\
 #t hf aug-cc-pvdz symm=none int=(grid=ultrafine) guess=(read,tcheck) s
 table=(opt,rrhf)\\title\\0,1\C,0,-1.05492,1.38134,-0.46157\C,0,-0.2198
 5,0.74322,-1.36181\C,0,-1.8503,0.63831,0.39257\F,0,-1.07636,2.70339,-0
 .40254\C,0,-0.17808,-0.63935,-1.40641\F,0,0.545,1.45496,-2.17284\C,0,-
 1.80849,-0.74408,0.34809\F,0,-2.63364,1.24984,1.26796\C,0,-0.97186,-1.
 38232,-0.55041\F,0,0.62544,-1.25007,-2.26137\F,0,-2.5528,-1.4566,1.180
 18\F,0,-0.91673,-2.70456,-0.57861\C,0,1.46596417,-0.57481163,2.0813229

 Normal termination of Gaussian 16 at Wed Apr  9 03:09:04 2025.
 Gaussian 16:  ES64L-G16RevC.01  3-Jul-2019

 ----------------------------------------------------------------------
 #t hf aug-cc-pvdz iop(5/13=1,5/36=2,99/5=2) pseudo=read geom=check gue
 ss=(read,tcheck) scf=(maxcycle=1)
 ----------------------------------------------------------------------
 -----
 title
 -----
 Structure from the checkpoint file:  "F-set_c6h6_c6f6_105_dimer_mol1.chk"
 Charge =  0 Multiplicity = 1

                         Standard orientation:
 ---------------------------------------------------------------------
 Center     Atomic      Atomic             Coordinates (Angstroms)
 Number     Number       Type             X           Y           Z
 ---------------------------------------------------------------------
      1          6           0       -1.135355   -1.381371    0.411231
      2          6           0       -0.362811   -0.743071    1.365547
      3          6           0       -1.871527   -0.638512   -0.494578
      4          9           0       -1.152654   -2.703430    0.351044
      5          6           0       -0.324263    0.639508    1.412698
      6          9           0        0.345798   -1.454648    2.226286
      7          6           0       -1.832931    0.743886   -0.447544
      8          9           0       -2.594133   -1.250215   -1.420623
      9          6           0       -1.058714    1.382307    0.505141
     10          9           0        0.419852    1.250400    2.319717
     11          9           0       -2.519630    1.456243   -1.327913
     12          9           0       -1.005727    2.704555    0.536835
     13          6           0        1.550742    0.574754   -1.956499
     14          1           0        0.937888    1.024320   -2.726320
     15          6           0        2.258244    1.379850   -1.075173
     16          6           0        1.628657   -0.805427   -1.850857
     17          1           0        2.195398    2.456835   -1.156803
     18          6           0        3.042293    0.803745   -0.087254
     19          6           0        2.413444   -1.381652   -0.862879
     20          1           0        1.076476   -1.432926   -2.537290
     21          1           0        3.589323    1.430514    0.603331
     22          6           0        3.119345   -0.577336    0.019141
     23          1           0        2.470379   -2.458057   -0.777568
     24          1           0        3.726234   -1.026922    0.792699
 ---------------------------------------------------------------------

 SCF Done:  E(RHF) =  -1054.94532932     A.U. after    2 cycles

 The electronic state is 1-A.
 Alpha  occ. eigenvalues --  -26.18230 -26.18219 -26.18187 -26.18176 -26.18060
 Alpha  occ. eigenvalues --  -26.18049 -11.39026 -11.38976 -11.38974 -11.38855
 Alpha  occ. eigenvalues --  -11.38849 -11.38796 -11.25265 -11.25185 -11.25156
 Alpha  occ. eigenvalues --  -11.25077 -11.25040 -11.24973  -1.73592  -1.73064
 Alpha  occ. eigenvalues --   -1.73029  -1.72097  -1.72079  -1.71624  -1.22899
 Alpha  occ. eigenvalues --   -1.15495  -1.09787  -1.09777  -1.02107  -1.02085
 Alpha  occ. eigenvalues --   -0.97095  -0.97093  -0.89419  -0.88622  -0.88369
 Alpha  occ. eigenvalues --   -0.83603  -0.83596  -0.82834  -0.82817  -0.82373
 Alpha  occ. eigenvalues --   -0.81840  -0.81831  -0.80521  -0.80486  -0.78579
 Alpha  occ. eigenvalues --   -0.78562  -0.77898  -0.76594  -0.76579  -0.75902
 Alpha  occ. eigenvalues --   -0.72484  -0.66978  -0.66958  -0.65287  -0.63683
 Alpha  occ. eigenvalues --   -0.62967  -0.60201  -0.60170  -0.55972  -0.51551
 Alpha  occ. eigenvalues --   -0.50657  -0.50648  -0.39566  -0.39357  -0.35027
 Alpha  occ. eigenvalues --   -0.34875
 Alpha virt. eigenvalues --    0.03504   0.04230   0.04236   0.05786   0.05810
 Alpha virt. eigenvalues --    0.05842   0.07630   0.07807   0.07952   0.09189
 Alpha virt. eigenvalues --    0.09275   0.09610   0.09636   0.10914   0.11096

 Mulliken charges:
               1
     1  C    0.191200
     2  C    0.301600
     3  C    0.238810
     4  F   -0.268740
     5  C    0.360054
     6  F   -0.283764
     7  C    0.266584
     8  F   -0.250809
     9  C    0.201376
    10  F   -0.284383
    11  F   -0.247193
    12  F   -0.265303
    13  C    0.758294
    14  H   -0.611530
    15  C    0.543350
    16  C    0.684321
    17  H   -0.559387
    18  C    0.510979
    19  C    0.450069
    20  H   -0.610470
    21  H   -0.538111
    22  C    0.483215
    23  H   -0.544568
    24  H   -0.525594
 Sum of Mulliken charges =  -0.00000

 Dipole moment (field-independent basis, Debye):
    X=              0.4997    Y=             -0.0002    Z=             -0.0010  Tot=              0.4997

 Test job not archived.
 1\1\GINC-SE131\SP\RHF\Aug-CC-pVDZ\C12H6F6\OHZDE\09-Apr-2025\0\\#t hf a
 ug-cc-pvdz iop(5/13=1,5/36=2,99/5=2) pseudo=read geom=check guess=(rea
 d,tcheck) scf=(maxcycle=1)\\title\\0,1\C,0,-1.05492,1.38134,-0.46157\C
 ,0,-0.21985,0.74322,-1.36181\C,0,-1.8503,0.63831,0.39257\F,0,-1.07636,
 2.70339,-0.40254\C,0,-0.17808,-0.63935,-1.40641\F,0,0.545,1.45496,-2.1
 7284\C,0,-1.80849,-0.74408,0.34809\F,0,-2.63364,1.24984,1.26796\C,0,-0
 .97186,-1.38232,-0.55041\F,0,0.62544,-1.25007,-2.26137\F,0,-2.5528,-1.
 4566,1.18018\F,0,-0.91673,-2.70456,-0.57861\C,0,1.46596417,-0.57481163

 Normal termination of Gaussian 16 at Wed Apr  9 03:09:36 2025.
