 Gaussian 16, Revision C.01,

 ----------------------------------------------------------------------
 #t hf aug-cc-pvdz symm=none int=(grid=ultrafine) guess=(read,tcheck) s
 table=(opt,rrhf)
 ----------------------------------------------------------------------
 -----
 title
 -----
 Symbolic Z-matrix:
 Charge =  0 Multiplicity = 1

 SCF Done:  E(RHF) =  -278.115335031     A.U. after   10 cycles
 Normal termination of Gaussian 16 at Wed Apr  9 03:01:32 2025.
 Gaussian 16:  ES64L-G16RevC.01  3-Jul-2019

 ----------------------------------------------------------------------
 #t hf aug-cc-pvdz iop(5/13=1,5/36=2,99/5=2) pseudo=read geom=check gue
 ss=(read,tcheck) scf=(maxcycle=1)
 ----------------------------------------------------------------------
 -----
 title
 -----
 Structure from the checkpoint file:  "F-set_ch3f_ch3f_200_dimer_mol1.chk"
 Charge =  0 Multiplicity = 1

                         Standard orientation:
 ---------------------------------------------------------------------
 Center     Atomic      Atomic             Coordinates (Angstroms)
 Number     Number       Type             X           Y           Z
 ---------------------------------------------------------------------
      1          6           0       -3.334572    1.956065    0.000000
      2          1           0       -2.303532    2.306293    0.000000
      3          1           0       -3.850092    2.306294    0.892907
      4          1           0       -3.850092    2.306294   -0.892907
      5          9           0       -3.334572    0.573065    0.000000
      6          6           0        3.334572   -1.956065    0.000000
      7          1           0        2.303532   -2.306293    0.000000
      8          9           0        3.334572   -0.573065    0.000000
      9          1           0        3.850092   -2.306294   -0.892907
     10          1           0        3.850092   -2.306294    0.892907
 ---------------------------------------------------------------------

 SCF Done:  E(RHF) =  -278.218787170     A.U. after    2 cycles

 The electronic state is 1-AG.
 Alpha  occ. eigenvalues --  -26.10187 -26.10187 -11.31808 -11.31808  -1.63492
 Alpha  occ. eigenvalues --   -1.63492  -0.96956  -0.96956  -0.74014  -0.74014
 Alpha  occ. eigenvalues --   -0.74011  -0.74010  -0.71464  -0.71463  -0.55018
 Alpha  occ. eigenvalues --   -0.55018  -0.55000  -0.54999
 Alpha virt. eigenvalues --    0.03388   0.03898   0.05829   0.06014   0.06084
 Alpha virt. eigenvalues --    0.06430   0.08705   0.10634   0.14091   0.14569
 Alpha virt. eigenvalues --    0.14875   0.15270   0.17213   0.17449   0.24760

 Mulliken charges:
               1
     1  C    0.773124
     2  H   -0.117579
     3  H   -0.117869
     4  H   -0.117869
     5  F   -0.419807
     6  C    0.773124
     7  H   -0.117579
     8  F   -0.419807
     9  H   -0.117869
    10  H   -0.117869
 Sum of Mulliken charges =  -0.00000

 Dipole moment (field-independent basis, Debye):
    X=             -0.0000    Y=              0.0000    Z=              0.0000  Tot=              0.0000

 Test job not archived.
 1\1\GINC-SE460\SP\RHF\Aug-CC-pVDZ\C2H6F2\OHZDE\09-Apr-2025\0\\#t hf au
 g-cc-pvdz iop(5/13=1,5/36=2,99/5=2) pseudo=read geom=check guess=(read
 ,tcheck) scf=(maxcycle=1)\\title\\0,1\C,0,-1.667286,1.011264,0.\H,0,-0
 .636246,1.361492,0.\H,0,-2.182806,1.361493,0.892907\H,0,-2.182806,1.36
 1493,-0.892907\F,0,-1.667286,-0.371736,0.\C,0,5.001858,-2.9008664,0.\H
 ,0,3.970818,-3.2510944,0.\F,0,5.001858,-1.5178664,0.\H,0,5.517378,-3.2
 510954,-0.892907\H,0,5.517378,-3.2510954,0.892907\\Version=ES64L-G16Re
 vC.01\State=1-AG\HF=-278.2187872\RMSD=3.226e-03\Dipole=0.,0.,0.\Quadru

 Normal termination of Gaussian 16 at Wed Apr  9 03:01:34 2025.
