 Gaussian 16, Revision C.01,

 ----------------------------------------------------------------------
 #t hf aug-cc-pvdz symm=none int=(grid=ultrafine) guess=(read,tcheck) s
 table=(opt,rrhf)
 ----------------------------------------------------------------------
 -----
 title
 -----
 Symbolic Z-matrix:
 Charge =  0 Multiplicity = 1

 SCF Done:  E(RHF) =  -524.449012997     A.U. after   13 cycles
 Normal termination of Gaussian 16 at Wed Apr  9 03:01:05 2025.
 Gaussian 16:  ES64L-G16RevC.01  3-Jul-2019

 ----------------------------------------------------------------------
 #t hf aug-cc-pvdz iop(5/13=1,5/36=2,99/5=2) pseudo=read geom=check gue
 ss=(read,tcheck) scf=(maxcycle=1)
 ----------------------------------------------------------------------
 -----
 title
 -----
 Structure from the checkpoint file:  "F-set_cf3co2h_cf3co2h_090_dimer_mol2.chk"
 Charge =  0 Multiplicity = 1

                         Standard orientation:
 ---------------------------------------------------------------------
 Center     Atomic      Atomic             Coordinates (Angstroms)
 Number     Number       Type             X           Y           Z
 ---------------------------------------------------------------------
      1          6           0       -0.940661    0.159470   -0.000010
      2          8           0       -1.522232   -1.034079   -0.000020
      3          8           0       -1.492330    1.212811   -0.000010
      4          1           0       -2.476532   -0.903338    0.000080
      5          6           0        0.602029   -0.001141   -0.000010
      6          9           0        0.996798   -0.672462    1.081430
      7          9           0        0.996698   -0.674082   -1.080470
      8          9           0        1.187040    1.182488   -0.000930
 ---------------------------------------------------------------------

 SCF Done:  E(RHF) =  -524.633412769     A.U. after    2 cycles

 The electronic state is 1-A.
 Alpha  occ. eigenvalues --  -26.19020 -26.19010 -26.18757 -20.67044 -20.61664
 Alpha  occ. eigenvalues --  -11.55690 -11.45182  -1.79348  -1.71934  -1.71891
 Alpha  occ. eigenvalues --   -1.48148  -1.38609  -1.08413  -0.96361  -0.91076
 Alpha  occ. eigenvalues --   -0.91030  -0.85747  -0.79790  -0.79573  -0.76418
 Alpha  occ. eigenvalues --   -0.75397  -0.75135  -0.73929  -0.72846  -0.68872
 Alpha  occ. eigenvalues --   -0.64215  -0.54896  -0.52646
 Alpha virt. eigenvalues --    0.02865   0.07612   0.08649   0.08972   0.10509
 Alpha virt. eigenvalues --    0.11132   0.11817   0.12354   0.13283   0.18580
 Alpha virt. eigenvalues --    0.19531   0.20170   0.21404   0.25178   0.26816

 Mulliken charges:
               1
     1  C    0.330103
     2  O   -0.419110
     3  O   -0.357419
     4  H    0.192501
     5  C    1.035349
     6  F   -0.269501
     7  F   -0.269498
     8  F   -0.242426
 Sum of Mulliken charges =  -0.00000

 Dipole moment (field-independent basis, Debye):
    X=             -1.9245    Y=             -1.5019    Z=              0.0001  Tot=              2.4412

 Test job not archived.
 1\1\GINC-SE120\SP\RHF\Aug-CC-pVDZ\C2H1F3O2\OHZDE\09-Apr-2025\0\\#t hf
 aug-cc-pvdz iop(5/13=1,5/36=2,99/5=2) pseudo=read geom=check guess=(re
 ad,tcheck) scf=(maxcycle=1)\\title\\0,1\C,0,-0.94066,0.15947,-0.00001\
 O,0,-1.52223,-1.03408,-0.00002\O,0,-1.49233,1.21281,-0.00001\H,0,-2.47
 653,-0.90334,0.00008\C,0,0.60203,-0.00114,-0.00001\F,0,0.9968,-0.67246
 ,1.08143\F,0,0.9967,-0.67408,-1.08047\F,0,1.18704,1.18249,-0.00093\\Ve
 rsion=ES64L-G16RevC.01\State=1-A\HF=-524.6334128\RMSD=6.243e-03\Dipole
 =-0.7571625,-0.590904,0.0000205\Quadrupole=3.5437653,-3.5926006,0.0488

 Normal termination of Gaussian 16 at Wed Apr  9 03:01:09 2025.
