 Gaussian 16, Revision C.01,

 ----------------------------------------------------------------------
 #t hf aug-cc-pvdz symm=none int=(grid=ultrafine) guess=(read,tcheck) s
 table=(opt,rrhf)
 ----------------------------------------------------------------------
 -----
 title
 -----
 Symbolic Z-matrix:
 Charge =  0 Multiplicity = 1

 SCF Done:  E(RHF) =  -666.423506340     A.U. after   12 cycles
 Normal termination of Gaussian 16 at Wed Apr  9 03:01:21 2025.
 Gaussian 16:  ES64L-G16RevC.01  3-Jul-2019

 ----------------------------------------------------------------------
 #t hf aug-cc-pvdz iop(5/13=1,5/36=2,99/5=2) pseudo=read geom=check gue
 ss=(read,tcheck) scf=(maxcycle=1)
 ----------------------------------------------------------------------
 -----
 title
 -----
 Structure from the checkpoint file:  "F-set_c6h6_cf4_125_dimer_mol1.chk"
 Charge =  0 Multiplicity = 1

                         Standard orientation:
 ---------------------------------------------------------------------
 Center     Atomic      Atomic             Coordinates (Angstroms)
 Number     Number       Type             X           Y           Z
 ---------------------------------------------------------------------
      1          6           0       -2.720001   -1.167231   -0.630796
      2          6           0       -2.272967   -1.231974    0.680171
      3          6           0       -2.925546    0.064777   -1.233073
      4          1           0       -2.907114   -2.077592   -1.183821
      5          6           0       -2.031608   -0.064689    1.388839
      6          1           0       -2.109573   -2.192544    1.149295
      7          6           0       -2.683561    1.231981   -0.524703
      8          1           0       -3.272897    0.115266   -2.255998
      9          6           0       -2.236648    1.167299    0.786332
     10          1           0       -1.680007   -0.115228    2.410329
     11          1           0       -2.842039    2.192792   -0.995068
     12          1           0       -2.044637    2.077370    1.338015
     13          6           0        2.473885   -0.000025   -0.078465
     14          9           0        3.719037   -0.002456   -0.520977
     15          9           0        1.647101   -0.000509   -1.101082
     16          9           0        2.275921    1.078298    0.654166
     17          9           0        2.272934   -1.075432    0.657607
 ---------------------------------------------------------------------

 SCF Done:  E(RHF) =  -666.659066276     A.U. after    2 cycles

 The electronic state is 1-A.
 Alpha  occ. eigenvalues --  -26.19739 -26.19730 -26.19693 -26.19646 -11.62650
 Alpha  occ. eigenvalues --  -11.24422 -11.24370 -11.24370 -11.24247 -11.24246
 Alpha  occ. eigenvalues --  -11.24197  -1.82873  -1.73309  -1.73257  -1.73127
 Alpha  occ. eigenvalues --   -1.14655  -1.07205  -1.01276  -1.01275  -0.94549
 Alpha  occ. eigenvalues --   -0.94548  -0.94481  -0.82800  -0.82799  -0.82328
 Alpha  occ. eigenvalues --   -0.82315  -0.77078  -0.77009  -0.76904  -0.74826
 Alpha  occ. eigenvalues --   -0.74790  -0.74770  -0.71710  -0.64521  -0.62900
 Alpha  occ. eigenvalues --   -0.59423  -0.59419  -0.50935  -0.49893  -0.49892
 Alpha  occ. eigenvalues --   -0.34213  -0.34205
 Alpha virt. eigenvalues --    0.03569   0.04179   0.04214   0.05776   0.05787
 Alpha virt. eigenvalues --    0.07645   0.08351   0.09697   0.09740   0.10696
 Alpha virt. eigenvalues --    0.10731   0.11549   0.13796   0.14521   0.14622

 Mulliken charges:
               1
     1  C    0.433739
     2  C    0.457234
     3  C    0.481015
     4  H   -0.457094
     5  C    0.560985
     6  H   -0.476011
     7  C    0.429411
     8  H   -0.454301
     9  C    0.473091
    10  H   -0.502376
    11  H   -0.458087
    12  H   -0.482079
    13  C    0.939266
    14  F   -0.244747
    15  F   -0.219640
    16  F   -0.240395
    17  F   -0.240012
 Sum of Mulliken charges =  -0.00000

 Dipole moment (field-independent basis, Debye):
    X=             -0.1149    Y=             -0.0000    Z=             -0.0388  Tot=              0.1213

 Test job not archived.
 1\1\GINC-SE366\SP\RHF\Aug-CC-pVDZ\C7H6F4\OHZDE\09-Apr-2025\0\\#t hf au
 g-cc-pvdz iop(5/13=1,5/36=2,99/5=2) pseudo=read geom=check guess=(read
 ,tcheck) scf=(maxcycle=1)\\title\\0,1\C,0,2.23711,-1.16721,0.60128\C,0
 ,1.76369,-1.23198,-0.70039\C,0,2.45477,0.06481,1.19926\H,0,2.43536,-2.
 07756,1.15043\C,0,1.50806,-0.06471,-1.40406\H,0,1.59086,-2.19256,-1.16
 61\C,0,2.19852,1.232,0.4959\H,0,2.82271,0.11532,2.21496\C,0,1.72522,1.
 16729,-0.80584\H,0,1.1359,-0.11527,-2.41824\H,0,2.36646,2.19282,0.9629
 5\H,0,1.5221,2.07735,-1.35355\C,0,-2.96687933,-0.00004375,0.153941\F,0

 Normal termination of Gaussian 16 at Wed Apr  9 03:01:28 2025.
