 Gaussian 16, Revision C.01,

 ----------------------------------------------------------------------
 #t hf aug-cc-pvdz symm=none int=(grid=ultrafine) guess=(read,tcheck) s
 table=(opt,rrhf)
 ----------------------------------------------------------------------
 -----
 title
 -----
 Symbolic Z-matrix:
 Charge =  0 Multiplicity = 1

 SCF Done:  E(RHF) =  -1048.91060891     A.U. after   13 cycles
 Normal termination of Gaussian 16 at Wed Apr  9 03:02:49 2025.
 Gaussian 16:  ES64L-G16RevC.01  3-Jul-2019

 ----------------------------------------------------------------------
 #t hf aug-cc-pvdz iop(5/13=1,5/36=2,99/5=2) pseudo=read geom=check gue
 ss=(read,tcheck) scf=(maxcycle=1)
 ----------------------------------------------------------------------
 -----
 title
 -----
 Structure from the checkpoint file:  "F-set_cf3co2h_cf3co2h_110_dimer_mol1.chk"
 Charge =  0 Multiplicity = 1

                         Standard orientation:
 ---------------------------------------------------------------------
 Center     Atomic      Atomic             Coordinates (Angstroms)
 Number     Number       Type             X           Y           Z
 ---------------------------------------------------------------------
      1          6           0        0.003828    2.130176   -0.000009
      2          8           0        1.211997    1.659185    0.000121
      3          8           0       -1.027025    1.501452    0.000041
      4          6           0       -0.003828    3.681558   -0.000049
      5          1           0        1.197933    0.666584    0.000091
      6          9           0        0.622516    4.138947    1.081531
      7          9           0        0.624526    4.138989   -1.080449
      8          9           0       -1.241897    4.140672   -0.001199
      9          6           0       -0.003828   -2.130176   -0.000009
     10          8           0       -1.211997   -1.659185    0.000121
     11          8           0        1.027025   -1.501452    0.000041
     12          6           0        0.003828   -3.681558   -0.000049
     13          1           0       -1.197933   -0.666584    0.000091
     14          9           0        1.241897   -4.140672   -0.001199
     15          9           0       -0.622516   -4.138947    1.081531
     16          9           0       -0.624526   -4.138989   -1.080449
 ---------------------------------------------------------------------

 SCF Done:  E(RHF) =  -1049.27827755     A.U. after    2 cycles

 The electronic state is 1-A.
 Alpha  occ. eigenvalues --  -26.19628 -26.19628 -26.19619 -26.19618 -26.19382
 Alpha  occ. eigenvalues --  -26.19382 -20.68031 -20.68031 -20.62695 -20.62695
 Alpha  occ. eigenvalues --  -11.56354 -11.56354 -11.46602 -11.46601  -1.80009
 Alpha  occ. eigenvalues --   -1.80004  -1.72563  -1.72562  -1.72561  -1.72560
 Alpha  occ. eigenvalues --   -1.49426  -1.49177  -1.39284  -1.38981  -1.09181
 Alpha  occ. eigenvalues --   -1.08975  -0.97361  -0.96866  -0.91760  -0.91701
 Alpha  occ. eigenvalues --   -0.91698  -0.91690  -0.86981  -0.86924  -0.80443
 Alpha  occ. eigenvalues --   -0.80430  -0.80220  -0.80182  -0.78525  -0.76905
 Alpha  occ. eigenvalues --   -0.76048  -0.76048  -0.75838  -0.75812  -0.74537
 Alpha  occ. eigenvalues --   -0.74536  -0.74222  -0.73573  -0.70257  -0.69956
 Alpha  occ. eigenvalues --   -0.64636  -0.63827  -0.55842  -0.55508  -0.54726
 Alpha  occ. eigenvalues --   -0.53436
 Alpha virt. eigenvalues --    0.03819   0.05577   0.06525   0.07357   0.07523
 Alpha virt. eigenvalues --    0.08338   0.08757   0.09440   0.10710   0.11121
 Alpha virt. eigenvalues --    0.11367   0.11664   0.12086   0.15282   0.15522

 Mulliken charges:
               1
     1  C    0.187731
     2  O   -0.349785
     3  O   -0.407384
     4  C    1.149575
     5  H    0.216630
     6  F   -0.276560
     7  F   -0.276578
     8  F   -0.243630
     9  C    0.187731
    10  O   -0.349785
    11  O   -0.407384
    12  C    1.149575
    13  H    0.216630
    14  F   -0.243630
    15  F   -0.276560
    16  F   -0.276578
 Sum of Mulliken charges =   0.00000

 Dipole moment (field-independent basis, Debye):
    X=             -0.0000    Y=             -0.0000    Z=             -0.0005  Tot=              0.0005

 Test job not archived.
 1\1\GINC-SE094\SP\RHF\Aug-CC-pVDZ\C4H2F6O4\OHZDE\09-Apr-2025\0\\#t hf
 aug-cc-pvdz iop(5/13=1,5/36=2,99/5=2) pseudo=read geom=check guess=(re
 ad,tcheck) scf=(maxcycle=1)\\title\\0,1\C,0,-0.00078,1.87956,-0.00001\
 O,0,1.20457,1.4014,0.00012\O,0,-1.03535,1.25697,0.00004\C,0,0.00078,3.
 43096,-0.00005\H,0,1.18461,0.4089,0.00009\F,0,0.62983,3.88462,1.08153\
 F,0,0.63184,3.88465,-1.08045\F,0,-1.23454,3.89742,-0.0012\C,0,-0.03374
 4,-2.380672,-0.00001\O,0,-1.239094,-1.902512,0.00012\O,0,1.000826,-1.7
 58082,0.00004\C,0,-0.035304,-3.932072,-0.00005\H,0,-1.219134,-0.910012

 Normal termination of Gaussian 16 at Wed Apr  9 03:02:55 2025.
