 Gaussian 16, Revision C.01,

 ----------------------------------------------------------------------
 #t hf aug-cc-pvdz symm=none int=(grid=ultrafine) guess=(read,tcheck) s
 table=(opt,rrhf)
 ----------------------------------------------------------------------
 -----
 title
 -----
 Symbolic Z-matrix:
 Charge =  0 Multiplicity = 1

 SCF Done:  E(RHF) =  -254.950661812     A.U. after   12 cycles
 Normal termination of Gaussian 16 at Wed Apr  9 03:00:21 2025.
 Gaussian 16:  ES64L-G16RevC.01  3-Jul-2019

 ----------------------------------------------------------------------
 #t hf aug-cc-pvdz iop(5/13=1,5/36=2,99/5=2) pseudo=read geom=check gue
 ss=(read,tcheck) scf=(maxcycle=1)
 ----------------------------------------------------------------------
 -----
 title
 -----
 Structure from the checkpoint file:  "F-set_c2h4_c2h3f_095_dimer_mol1.chk"
 Charge =  0 Multiplicity = 1

                         Standard orientation:
 ---------------------------------------------------------------------
 Center     Atomic      Atomic             Coordinates (Angstroms)
 Number     Number       Type             X           Y           Z
 ---------------------------------------------------------------------
      1          6           0       -0.688130   -1.970450    0.660810
      2          6           0       -0.688130   -1.970450   -0.660810
      3          1           0       -0.035641   -1.315474    1.223580
      4          1           0       -1.335551   -2.625616    1.229250
      5          1           0       -0.035641   -1.315474   -1.223580
      6          1           0       -1.335551   -2.625616   -1.229250
      7          6           0       -0.688130    1.633616    0.000000
      8          6           0        0.623571    1.711865    0.000000
      9          1           0       -1.199634    0.681837    0.000000
     10          1           0       -1.266064    2.544539    0.000000
     11          1           0        1.205339    2.623530    0.000000
     12          9           0        1.405295    0.622755    0.000000
 ---------------------------------------------------------------------

 SCF Done:  E(RHF) =  -255.040984616     A.U. after    2 cycles

 The electronic state is 1-A'.
 Alpha  occ. eigenvalues --  -26.13580 -11.33805 -11.24243 -11.23640 -11.23463
 Alpha  occ. eigenvalues --   -1.67793  -1.05717  -1.02866  -0.86815  -0.78868
 Alpha  occ. eigenvalues --   -0.78131  -0.75085  -0.70877  -0.64528  -0.60803
 Alpha  occ. eigenvalues --   -0.58990  -0.56474  -0.50379  -0.39336  -0.37933
 Alpha virt. eigenvalues --    0.03576   0.04326   0.05219   0.05270   0.06782
 Alpha virt. eigenvalues --    0.07618   0.08066   0.09596   0.11701   0.11894
 Alpha virt. eigenvalues --    0.13456   0.14052   0.14814   0.15650   0.15842

 Mulliken charges:
               1
     1  C    0.550489
     2  C    0.550489
     3  H   -0.271156
     4  H   -0.277216
     5  H   -0.271156
     6  H   -0.277216
     7  C    0.508407
     8  C    0.619828
     9  H   -0.275725
    10  H   -0.267352
    11  H   -0.257942
    12  F   -0.331450
 Sum of Mulliken charges =  -0.00000

 Dipole moment (field-independent basis, Debye):
    X=             -1.0272    Y=              1.4596    Z=             -0.0000  Tot=              1.7848

 Test job not archived.
 1\1\GINC-SE128\SP\RHF\Aug-CC-pVDZ\C4H7F1\OHZDE\09-Apr-2025\0\\#t hf au
 g-cc-pvdz iop(5/13=1,5/36=2,99/5=2) pseudo=read geom=check guess=(read
 ,tcheck) scf=(maxcycle=1)\\title\\0,1\C,0,-0.68996,-2.09115,0.66081\C,
 0,-0.68996,-2.09115,-0.66081\H,0,-0.04386,-1.42987,1.22358\H,0,-1.3309
 9,-2.75257,1.22925\H,0,-0.04386,-1.42987,-1.22358\H,0,-1.33099,-2.7525
 7,-1.22925\C,0,-0.72494883,1.51274608,0.\C,0,0.58593117,1.60372608,0.\
 H,0,-1.22718883,0.55604608,0.\H,0,-1.31169883,2.41801608,0.\H,0,1.1588
 2117,2.52099608,0.\F,0,1.37819117,0.52225608,0.\\Version=ES64L-G16RevC

 Normal termination of Gaussian 16 at Wed Apr  9 03:00:24 2025.
