 Gaussian 16, Revision C.01,

 ----------------------------------------------------------------------
 #t hf aug-cc-pvdz symm=none int=(grid=ultrafine) guess=(read,tcheck) s
 table=(opt,rrhf)
 ----------------------------------------------------------------------
 -----
 title
 -----
 Symbolic Z-matrix:
 Charge =  0 Multiplicity = 1

 SCF Done:  E(RHF) =  -823.409145341     A.U. after   11 cycles
 Normal termination of Gaussian 16 at Wed Apr  9 03:01:54 2025.
 Gaussian 16:  ES64L-G16RevC.01  3-Jul-2019

 ----------------------------------------------------------------------
 #t hf aug-cc-pvdz iop(5/13=1,5/36=2,99/5=2) pseudo=read geom=check gue
 ss=(read,tcheck) scf=(maxcycle=1)
 ----------------------------------------------------------------------
 -----
 title
 -----
 Structure from the checkpoint file:  "F-set_cf3oh_cf3oh_090_dimer_mol1.chk"
 Charge =  0 Multiplicity = 1

                         Standard orientation:
 ---------------------------------------------------------------------
 Center     Atomic      Atomic             Coordinates (Angstroms)
 Number     Number       Type             X           Y           Z
 ---------------------------------------------------------------------
      1          6           0        1.948241    0.038184    0.004868
      2          8           0        1.360515    1.187257   -0.325429
      3          9           0        1.712016   -0.934489   -0.905396
      4          9           0        3.253025    0.219635    0.082476
      5          9           0        1.516877   -0.446501    1.179309
      6          1           0        0.413893    1.030761   -0.443756
      7          8           0       -0.833939    0.053364   -0.788189
      8          6           0       -1.934963    0.008823   -0.000873
      9          1           0       -0.646764   -0.815953   -1.152627
     10          9           0       -1.813310   -0.896942    0.968894
     11          9           0       -3.026112   -0.300877   -0.700003
     12          9           0       -2.093541    1.201195    0.539315
 ---------------------------------------------------------------------

 SCF Done:  E(RHF) =  -823.708925248     A.U. after    2 cycles

 The electronic state is 1-A.
 Alpha  occ. eigenvalues --  -26.20708 -26.20165 -26.20149 -26.17753 -26.17448
 Alpha  occ. eigenvalues --  -26.17120 -20.68767 -20.62426 -11.61641 -11.58022
 Alpha  occ. eigenvalues --   -1.81474  -1.78194  -1.73946  -1.73219  -1.70798
 Alpha  occ. eigenvalues --   -1.70154  -1.46910  -1.41489  -1.06375  -1.02755
 Alpha  occ. eigenvalues --   -0.95131  -0.93618  -0.92628  -0.91326  -0.90312
 Alpha  occ. eigenvalues --   -0.88224  -0.82424  -0.81497  -0.79460  -0.78811
 Alpha  occ. eigenvalues --   -0.77789  -0.76739  -0.76303  -0.75584  -0.75392
 Alpha  occ. eigenvalues --   -0.73667  -0.73477  -0.72680  -0.68964  -0.65267
 Alpha  occ. eigenvalues --   -0.62041  -0.58293
 Alpha virt. eigenvalues --    0.03221   0.05930   0.07976   0.08289   0.10050
 Alpha virt. eigenvalues --    0.10350   0.10498   0.11711   0.14267   0.16079
 Alpha virt. eigenvalues --    0.17971   0.18706   0.21084   0.21573   0.24029

 Mulliken charges:
               1
     1  C    1.065622
     2  O   -0.428290
     3  F   -0.327053
     4  F   -0.213155
     5  F   -0.285210
     6  H    0.237254
     7  O   -0.612667
     8  C    1.043165
     9  H    0.243898
    10  F   -0.246045
    11  F   -0.246605
    12  F   -0.230915
 Sum of Mulliken charges =  -0.00000

 Dipole moment (field-independent basis, Debye):
    X=             -1.9010    Y=             -1.0807    Z=             -1.5417  Tot=              2.6755

 Test job not archived.
 1\1\GINC-SE149\SP\RHF\Aug-CC-pVDZ\C2H2F6O2\OHZDE\09-Apr-2025\0\\#t hf
 aug-cc-pvdz iop(5/13=1,5/36=2,99/5=2) pseudo=read geom=check guess=(re
 ad,tcheck) scf=(maxcycle=1)\\title\\0,1\C,0,2.13896,0.0375,0.00421\O,0
 ,1.55972,1.18917,-0.33198\F,0,1.89162,-0.93932,-0.89863\F,0,3.44546,0.
 20858,0.07631\F,0,1.70749,-0.43559,1.18333\H,0,0.61144,1.03978,-0.4461
 4\O,0,-0.6456215,0.07051433,-0.7798225\C,0,-1.7443515,0.04050433,0.011
 3775\H,0,-0.4669015,-0.80278567,-1.1389425\F,0,-1.6270115,-0.85964567,
 0.9868875\F,0,-2.8403615,-0.26481567,-0.6820525\F,0,-1.8912015,1.23779

 Normal termination of Gaussian 16 at Wed Apr  9 03:02:01 2025.
