 Gaussian 16, Revision C.01,

 ----------------------------------------------------------------------
 #t hf aug-cc-pvdz symm=none int=(grid=ultrafine) guess=(read,tcheck) s
 table=(opt,rrhf)
 ----------------------------------------------------------------------
 -----
 title
 -----
 Symbolic Z-matrix:
 Charge =  0 Multiplicity = 1

 SCF Done:  E(RHF) =  -1054.58550779     A.U. after   14 cycles

 1\1\GINC-SE208\Stability\RHF\Aug-CC-pVDZ\C12H6F6\OHZDE\09-Apr-2025\0\\
 #t hf aug-cc-pvdz symm=none int=(grid=ultrafine) guess=(read,tcheck) s
 table=(opt,rrhf)\\title\\0,1\C,0,-1.05492,1.38134,-0.46157\C,0,-0.2198
 5,0.74322,-1.36181\C,0,-1.8503,0.63831,0.39257\F,0,-1.07636,2.70339,-0
 .40254\C,0,-0.17808,-0.63935,-1.40641\F,0,0.545,1.45496,-2.17284\C,0,-
 1.80849,-0.74408,0.34809\F,0,-2.63364,1.24984,1.26796\C,0,-0.97186,-1.
 38232,-0.55041\F,0,0.62544,-1.25007,-2.26137\F,0,-2.5528,-1.4566,1.180
 18\F,0,-0.91673,-2.70456,-0.57861\C,0,1.14961583,-0.57496837,1.9243370

 Normal termination of Gaussian 16 at Wed Apr  9 03:09:06 2025.
 Gaussian 16:  ES64L-G16RevC.01  3-Jul-2019

 ----------------------------------------------------------------------
 #t hf aug-cc-pvdz iop(5/13=1,5/36=2,99/5=2) pseudo=read geom=check gue
 ss=(read,tcheck) scf=(maxcycle=1)
 ----------------------------------------------------------------------
 -----
 title
 -----
 Structure from the checkpoint file:  "F-set_c6h6_c6f6_095_dimer_mol1.chk"
 Charge =  0 Multiplicity = 1

                         Standard orientation:
 ---------------------------------------------------------------------
 Center     Atomic      Atomic             Coordinates (Angstroms)
 Number     Number       Type             X           Y           Z
 ---------------------------------------------------------------------
      1          6           0       -0.966687   -1.381302    0.515274
      2          6           0       -0.062305   -0.743392    1.346017
      3          6           0       -1.827650   -0.638073   -0.272527
      4          9           0       -0.992940   -2.703342    0.457992
      5          6           0       -0.016932    0.639167    1.387299
      6          9           0        0.764787   -1.455323    2.093288
      7          6           0       -1.782247    0.744307   -0.231368
      8          9           0       -2.678480   -1.249402   -1.082628
      9          6           0       -0.876448    1.382337    0.597516
     10          9           0        0.852382    1.249686    2.175423
     11          9           0       -2.590546    1.457018   -1.001272
     12          9           0       -0.819076    2.704567    0.621376
     13          6           0        1.040498    0.575048   -2.038855
     14          1           0        0.321407    1.024927   -2.710302
     15          6           0        1.869869    1.379785   -1.270730
     16          6           0        1.132751   -0.805174   -1.946090
     17          1           0        1.795974    2.456803   -1.342021
     18          6           0        2.790280    0.803279   -0.408699
     19          6           0        2.053900   -1.381800   -1.084108
     20          1           0        0.485662   -1.432393   -2.544188
     21          1           0        3.432882    1.429768    0.194263
     22          6           0        2.881790   -0.577843   -0.315062
     23          1           0        2.122488   -2.458237   -1.008309
     24          1           0        3.595529   -1.027741    0.360957
 ---------------------------------------------------------------------

 SCF Done:  E(RHF) =  -1054.93809713     A.U. after    2 cycles

 The electronic state is 1-A.
 Alpha  occ. eigenvalues --  -26.18138 -26.18129 -26.18129 -26.18123 -26.18007
 Alpha  occ. eigenvalues --  -26.17992 -11.38843 -11.38786 -11.38778 -11.38668
 Alpha  occ. eigenvalues --  -11.38658 -11.38599 -11.25396 -11.25300 -11.25230
 Alpha  occ. eigenvalues --  -11.25180 -11.25114 -11.25034  -1.73511  -1.72991
 Alpha  occ. eigenvalues --   -1.72946  -1.72026  -1.71995  -1.71551  -1.22750
 Alpha  occ. eigenvalues --   -1.15660  -1.09657  -1.09640  -1.02273  -1.02251
 Alpha  occ. eigenvalues --   -0.96986  -0.96983  -0.89315  -0.88526  -0.88293
 Alpha  occ. eigenvalues --   -0.83769  -0.83757  -0.82755  -0.82730  -0.82328
 Alpha  occ. eigenvalues --   -0.81738  -0.81725  -0.80462  -0.80424  -0.78519
 Alpha  occ. eigenvalues --   -0.78487  -0.77839  -0.76522  -0.76493  -0.75833
 Alpha  occ. eigenvalues --   -0.72617  -0.66857  -0.66835  -0.65422  -0.63806
 Alpha  occ. eigenvalues --   -0.62837  -0.60330  -0.60292  -0.56404  -0.51174
 Alpha  occ. eigenvalues --   -0.50777  -0.50764  -0.39914  -0.39429  -0.34966
 Alpha  occ. eigenvalues --   -0.34587
 Alpha virt. eigenvalues --    0.03533   0.04255   0.04265   0.05823   0.05833
 Alpha virt. eigenvalues --    0.05924   0.07644   0.07842   0.07954   0.08955
 Alpha virt. eigenvalues --    0.09065   0.09751   0.09786   0.10641   0.11291

 Mulliken charges:
               1
     1  C    0.189780
     2  C    0.285445
     3  C    0.248047
     4  F   -0.274172
     5  C    0.360903
     6  F   -0.290078
     7  C    0.296100
     8  F   -0.253691
     9  C    0.204282
    10  F   -0.288166
    11  F   -0.250462
    12  F   -0.272990
    13  C    0.702417
    14  H   -0.614409
    15  C    0.600012
    16  C    0.648257
    17  H   -0.566052
    18  C    0.550577
    19  C    0.464945
    20  H   -0.621214
    21  H   -0.552349
    22  C    0.507609
    23  H   -0.546854
    24  H   -0.527936
 Sum of Mulliken charges =  -0.00000

 Dipole moment (field-independent basis, Debye):
    X=              0.5590    Y=              0.0011    Z=             -0.0925  Tot=              0.5666

 Test job not archived.
 1\1\GINC-SE208\SP\RHF\Aug-CC-pVDZ\C12H6F6\OHZDE\09-Apr-2025\0\\#t hf a
 ug-cc-pvdz iop(5/13=1,5/36=2,99/5=2) pseudo=read geom=check guess=(rea
 d,tcheck) scf=(maxcycle=1)\\title\\0,1\C,0,-1.05492,1.38134,-0.46157\C
 ,0,-0.21985,0.74322,-1.36181\C,0,-1.8503,0.63831,0.39257\F,0,-1.07636,
 2.70339,-0.40254\C,0,-0.17808,-0.63935,-1.40641\F,0,0.545,1.45496,-2.1
 7284\C,0,-1.80849,-0.74408,0.34809\F,0,-2.63364,1.24984,1.26796\C,0,-0
 .97186,-1.38232,-0.55041\F,0,0.62544,-1.25007,-2.26137\F,0,-2.5528,-1.
 4566,1.18018\F,0,-0.91673,-2.70456,-0.57861\C,0,1.14961583,-0.57496837

 Normal termination of Gaussian 16 at Wed Apr  9 03:09:39 2025.
