 Gaussian 16, Revision C.01,

 ----------------------------------------------------------------------
 #t hf aug-cc-pvdz symm=none int=(grid=ultrafine) guess=(read,tcheck) s
 table=(opt,rrhf)
 ----------------------------------------------------------------------
 -----
 title
 -----
 Symbolic Z-matrix:
 Charge =  0 Multiplicity = 1

 SCF Done:  E(RHF) =  -823.412665370     A.U. after   11 cycles
 Normal termination of Gaussian 16 at Wed Apr  9 03:01:50 2025.
 Gaussian 16:  ES64L-G16RevC.01  3-Jul-2019

 ----------------------------------------------------------------------
 #t hf aug-cc-pvdz iop(5/13=1,5/36=2,99/5=2) pseudo=read geom=check gue
 ss=(read,tcheck) scf=(maxcycle=1)
 ----------------------------------------------------------------------
 -----
 title
 -----
 Structure from the checkpoint file:  "F-set_cf3oh_cf3oh_150_dimer_mol1.chk"
 Charge =  0 Multiplicity = 1

                         Standard orientation:
 ---------------------------------------------------------------------
 Center     Atomic      Atomic             Coordinates (Angstroms)
 Number     Number       Type             X           Y           Z
 ---------------------------------------------------------------------
      1          6           0        3.093415    0.035231    0.002160
      2          8           0        2.540807    1.194378   -0.352648
      3          9           0        2.811785   -0.953365   -0.877519
      4          9           0        4.404565    0.173640    0.058169
      5          9           0        2.661767   -0.401828    1.195041
      6          1           0        1.587875    1.067430   -0.454581
      7          8           0       -1.987388   -0.003731   -0.801757
      8          6           0       -3.078488    0.011382    0.000352
      9          1           0       -1.834958   -0.888673   -1.144108
     10          9           0       -2.974643   -0.871046    0.993426
     11          9           0       -4.188972   -0.279600   -0.676004
     12          9           0       -3.188927    1.222908    0.508984
 ---------------------------------------------------------------------

 SCF Done:  E(RHF) =  -823.715024262     A.U. after    2 cycles

 The electronic state is 1-A.
 Alpha  occ. eigenvalues --  -26.18906 -26.18776 -26.18600 -26.18194 -26.17669
 Alpha  occ. eigenvalues --  -26.17532 -20.65840 -20.65508 -11.59661 -11.58903
 Alpha  occ. eigenvalues --   -1.79864  -1.78596  -1.72299  -1.71806  -1.71244
 Alpha  occ. eigenvalues --   -1.70265  -1.43677  -1.43280  -1.04421  -1.03337
 Alpha  occ. eigenvalues --   -0.93135  -0.92147  -0.91949  -0.90668  -0.90028
 Alpha  occ. eigenvalues --   -0.88924  -0.80566  -0.79979  -0.79591  -0.78953
 Alpha  occ. eigenvalues --   -0.75940  -0.75168  -0.75111  -0.74144  -0.73961
 Alpha  occ. eigenvalues --   -0.73947  -0.73619  -0.72920  -0.66223  -0.66059
 Alpha  occ. eigenvalues --   -0.60936  -0.60545
 Alpha virt. eigenvalues --    0.02591   0.04931   0.07944   0.08380   0.08996
 Alpha virt. eigenvalues --    0.09622   0.09736   0.11736   0.12790   0.13313
 Alpha virt. eigenvalues --    0.15855   0.17549   0.19337   0.20952   0.22053

 Mulliken charges:
               1
     1  C    1.063835
     2  O   -0.433885
     3  F   -0.298913
     4  F   -0.220175
     5  F   -0.277622
     6  H    0.166617
     7  O   -0.463915
     8  C    1.034190
     9  H    0.169864
    10  F   -0.260478
    11  F   -0.260909
    12  F   -0.218609
 Sum of Mulliken charges =  -0.00000

 Dipole moment (field-independent basis, Debye):
    X=             -1.2607    Y=             -0.8473    Z=             -1.4924  Tot=              2.1294

 Test job not archived.
 1\1\GINC-SE367\SP\RHF\Aug-CC-pVDZ\C2H2F6O2\OHZDE\09-Apr-2025\0\\#t hf
 aug-cc-pvdz iop(5/13=1,5/36=2,99/5=2) pseudo=read geom=check guess=(re
 ad,tcheck) scf=(maxcycle=1)\\title\\0,1\C,0,2.13896,0.0375,0.00421\O,0
 ,1.55972,1.18917,-0.33198\F,0,1.89162,-0.93932,-0.89863\F,0,3.44546,0.
 20858,0.07631\F,0,1.70749,-0.43559,1.18333\H,0,0.61144,1.03978,-0.4461
 4\O,0,-2.9311925,-0.11599167,-0.8515675\C,0,-4.0299225,-0.14600167,-0.
 0603675\H,0,-2.7524725,-0.98929167,-1.2106875\F,0,-3.9125825,-1.046151
 67,0.9151425\F,0,-5.1259325,-0.45132167,-0.7537975\F,0,-4.1767725,1.05

 Normal termination of Gaussian 16 at Wed Apr  9 03:01:55 2025.
