 Gaussian 16, Revision C.01,

 ----------------------------------------------------------------------
 #t hf aug-cc-pvdz symm=none int=(grid=ultrafine) guess=(read,tcheck) s
 table=(opt,rrhf)
 ----------------------------------------------------------------------
 -----
 title
 -----
 Symbolic Z-matrix:
 Charge =  0 Multiplicity = 1

 SCF Done:  E(RHF) =  -475.894321267     A.U. after   10 cycles
 Normal termination of Gaussian 16 at Wed Apr  9 03:01:34 2025.
 Gaussian 16:  ES64L-G16RevC.01  3-Jul-2019

 ----------------------------------------------------------------------
 #t hf aug-cc-pvdz iop(5/13=1,5/36=2,99/5=2) pseudo=read geom=check gue
 ss=(read,tcheck) scf=(maxcycle=1)
 ----------------------------------------------------------------------
 -----
 title
 -----
 Structure from the checkpoint file:  "F-set_ch4_cf4_100_dimer_mol1.chk"
 Charge =  0 Multiplicity = 1

                         Standard orientation:
 ---------------------------------------------------------------------
 Center     Atomic      Atomic             Coordinates (Angstroms)
 Number     Number       Type             X           Y           Z
 ---------------------------------------------------------------------
      1          6           0        0.000000   -3.099382    0.000000
      2          1           0        0.000000   -4.186812    0.000000
      3          1           0        1.025560   -2.737412    0.000000
      4          1           0       -0.512780   -2.737412    0.888160
      5          1           0       -0.512780   -2.737412   -0.888160
      6          6           0        0.000000    0.737208    0.000000
      7          9           0        0.000000    2.056088    0.000000
      8          9           0       -1.243220    0.298788    0.000000
      9          9           0        0.621610    0.298788    1.076660
     10          9           0        0.621610    0.298788   -1.076660
 ---------------------------------------------------------------------

 SCF Done:  E(RHF) =  -476.076434754     A.U. after    2 cycles

 The electronic state is 1-A'.
 Alpha  occ. eigenvalues --  -26.20186 -26.20186 -26.20177 -26.20155 -11.63121
 Alpha  occ. eigenvalues --  -11.21876  -1.83353  -1.73717  -1.73717  -1.73690
 Alpha  occ. eigenvalues --   -1.07678  -0.95035  -0.95008  -0.95008  -0.94119
 Alpha  occ. eigenvalues --   -0.82806  -0.82806  -0.77480  -0.77480  -0.77468
 Alpha  occ. eigenvalues --   -0.75279  -0.75274  -0.75274  -0.54887  -0.54878
 Alpha  occ. eigenvalues --   -0.54878
 Alpha virt. eigenvalues --    0.03947   0.06296   0.06459   0.06459   0.08804
 Alpha virt. eigenvalues --    0.10134   0.10134   0.14547   0.14729   0.14729
 Alpha virt. eigenvalues --    0.17559   0.20194   0.23208   0.23208   0.24771

 Mulliken charges:
               1
     1  C    0.644244
     2  H   -0.202827
     3  H   -0.147489
     4  H   -0.147491
     5  H   -0.147491
     6  C    0.942781
     7  F   -0.230000
     8  F   -0.237243
     9  F   -0.237243
    10  F   -0.237243
 Sum of Mulliken charges =   0.00000

 Dipole moment (field-independent basis, Debye):
    X=             -0.0000    Y=             -0.0315    Z=              0.0000  Tot=              0.0315

 Test job not archived.
 1\1\GINC-SE461\SP\RHF\Aug-CC-pVDZ\C2H4F4\OHZDE\09-Apr-2025\0\\#t hf au
 g-cc-pvdz iop(5/13=1,5/36=2,99/5=2) pseudo=read geom=check guess=(read
 ,tcheck) scf=(maxcycle=1)\\title\\0,1\C,0,0.,0.,-3.09938\H,0,0.,0.,-4.
 18681\H,0,0.,-1.02556,-2.73741\H,0,-0.88816,0.51278,-2.73741\H,0,0.888
 16,0.51278,-2.73741\C,0,0.,0.,0.73721\F,0,0.,0.,2.05609\F,0,0.,1.24322
 ,0.29879\F,0,-1.07666,-0.62161,0.29879\F,0,1.07666,-0.62161,0.29879\\V
 ersion=ES64L-G16RevC.01\State=1-A'\HF=-476.0764348\RMSD=5.119e-03\Dipo
 le=0.,0.0000002,-0.0123832\Quadrupole=-0.012204,-0.0122018,0.0244058,0

 Normal termination of Gaussian 16 at Wed Apr  9 03:01:37 2025.
