 Gaussian 16, Revision C.01,

 ----------------------------------------------------------------------
 #t hf aug-cc-pvdz symm=none int=(grid=ultrafine) guess=(read,tcheck) s
 table=(opt,rrhf)
 ----------------------------------------------------------------------
 -----
 title
 -----
 Symbolic Z-matrix:
 Charge =  0 Multiplicity = 1

 SCF Done:  E(RHF) =  -179.255916090     A.U. after   11 cycles
 Normal termination of Gaussian 16 at Wed Apr  9 03:02:02 2025.
 Gaussian 16:  ES64L-G16RevC.01  3-Jul-2019

 ----------------------------------------------------------------------
 #t hf aug-cc-pvdz iop(5/13=1,5/36=2,99/5=2) pseudo=read geom=check gue
 ss=(read,tcheck) scf=(maxcycle=1)
 ----------------------------------------------------------------------
 -----
 title
 -----
 Structure from the checkpoint file:  "F-set_ch4_ch3f_095_dimer_mol1.chk"
 Charge =  0 Multiplicity = 1

                         Standard orientation:
 ---------------------------------------------------------------------
 Center     Atomic      Atomic             Coordinates (Angstroms)
 Number     Number       Type             X           Y           Z
 ---------------------------------------------------------------------
      1          6           0        1.004309   -1.856466    0.000000
      2          1           0        1.247167   -2.916456    0.000000
      3          1           0        0.420211   -1.616495    0.885270
      4          1           0        0.420211   -1.616495   -0.885270
      5          1           0        1.924572   -1.275942    0.000000
      6          6           0        0.000000    1.325976    0.000000
      7          9           0       -1.219831    0.681951    0.000000
      8          1           0        0.554610    1.034176    0.891170
      9          1           0        0.554610    1.034176   -0.891170
     10          1           0       -0.168756    2.402422    0.000000
 ---------------------------------------------------------------------

 SCF Done:  E(RHF) =  -179.324271280     A.U. after    2 cycles

 The electronic state is 1-A'.
 Alpha  occ. eigenvalues --  -26.10338 -11.31757 -11.21704  -1.63739  -0.97071
 Alpha  occ. eigenvalues --   -0.93992  -0.74242  -0.74193  -0.71683  -0.55735
 Alpha  occ. eigenvalues --   -0.55328  -0.54789  -0.54240  -0.54042
 Alpha virt. eigenvalues --    0.03352   0.04429   0.05829   0.06024   0.07028
 Alpha virt. eigenvalues --    0.08207   0.08994   0.11073   0.13519   0.15120
 Alpha virt. eigenvalues --    0.16381   0.16671   0.17222   0.19208   0.21859

 Mulliken charges:
               1
     1  C    0.649759
     2  H   -0.232209
     3  H   -0.135445
     4  H   -0.135445
     5  H   -0.152855
     6  C    0.869439
     7  F   -0.424168
     8  H   -0.138220
     9  H   -0.138220
    10  H   -0.162636
 Sum of Mulliken charges =  -0.00000

 Dipole moment (field-independent basis, Debye):
    X=              1.8963    Y=              1.0019    Z=              0.0000  Tot=              2.1447

 Test job not archived.
 1\1\GINC-SE029\SP\RHF\Aug-CC-pVDZ\C2H7F1\OHZDE\09-Apr-2025\0\\#t hf au
 g-cc-pvdz iop(5/13=1,5/36=2,99/5=2) pseudo=read geom=check guess=(read
 ,tcheck) scf=(maxcycle=1)\\title\\0,1\C,0,-1.01183,-1.97786,0.\H,0,-1.
 23943,-3.04123,0.\H,0,-0.43124,-1.72952,-0.88527\H,0,-0.43124,-1.72952
 ,0.88527\H,0,-1.94034,-1.41062,0.\C,0,-0.0533559,1.2186855,0.\F,0,1.17
 56041,0.5922555,0.\H,0,-0.6037159,0.9189455,-0.89117\H,0,-0.6037159,0.
 9189455,0.89117\H,0,0.0999141,2.2974455,0.\\Version=ES64L-G16RevC.01\S
 tate=1-A'\HF=-179.3242713\RMSD=3.016e-03\Dipole=-0.7516302,0.3834186,0

 Normal termination of Gaussian 16 at Wed Apr  9 03:02:04 2025.
