 Gaussian 16, Revision C.01,

 ----------------------------------------------------------------------
 #t hf aug-cc-pvdz symm=none int=(grid=ultrafine) guess=(read,tcheck) s
 table=(opt,rrhf)
 ----------------------------------------------------------------------
 -----
 title
 -----
 Symbolic Z-matrix:
 Charge =  0 Multiplicity = 1

 SCF Done:  E(RHF) =  -1048.90354218     A.U. after   13 cycles
 Normal termination of Gaussian 16 at Wed Apr  9 03:02:47 2025.
 Gaussian 16:  ES64L-G16RevC.01  3-Jul-2019

 ----------------------------------------------------------------------
 #t hf aug-cc-pvdz iop(5/13=1,5/36=2,99/5=2) pseudo=read geom=check gue
 ss=(read,tcheck) scf=(maxcycle=1)
 ----------------------------------------------------------------------
 -----
 title
 -----
 Structure from the checkpoint file:  "F-set_cf3co2h_cf3co2h_095_dimer_mol1.chk"
 Charge =  0 Multiplicity = 1

                         Standard orientation:
 ---------------------------------------------------------------------
 Center     Atomic      Atomic             Coordinates (Angstroms)
 Number     Number       Type             X           Y           Z
 ---------------------------------------------------------------------
      1          6           0       -0.003426    1.754304   -0.000009
      2          8           0        1.200285    1.272035    0.000121
      3          8           0       -1.040114    1.135247    0.000041
      4          6           0        0.003426    3.305690   -0.000049
      5          1           0        1.176940    0.279609    0.000091
      6          9           0        0.634020    3.757201    1.081531
      7          9           0        0.636030    3.757224   -1.080449
      8          9           0       -1.230295    3.776361   -0.001199
      9          6           0        0.003426   -1.754304   -0.000009
     10          8           0       -1.200285   -1.272035    0.000121
     11          8           0        1.040114   -1.135247    0.000041
     12          6           0       -0.003426   -3.305690   -0.000049
     13          1           0       -1.176940   -0.279609    0.000091
     14          9           0        1.230295   -3.776361   -0.001199
     15          9           0       -0.634020   -3.757201    1.081531
     16          9           0       -0.636030   -3.757224   -1.080449
 ---------------------------------------------------------------------

 SCF Done:  E(RHF) =  -1049.27168825     A.U. after    2 cycles

 The electronic state is 1-A.
 Alpha  occ. eigenvalues --  -26.19755 -26.19755 -26.19746 -26.19746 -26.19606
 Alpha  occ. eigenvalues --  -26.19606 -20.65534 -20.65534 -20.63670 -20.63670
 Alpha  occ. eigenvalues --  -11.56530 -11.56530 -11.47503 -11.47502  -1.80165
 Alpha  occ. eigenvalues --   -1.80156  -1.72760  -1.72756  -1.72662  -1.72658
 Alpha  occ. eigenvalues --   -1.50629  -1.48338  -1.41317  -1.38771  -1.10057
 Alpha  occ. eigenvalues --   -1.08888  -0.98874  -0.96223  -0.92415  -0.91840
 Alpha  occ. eigenvalues --   -0.91830  -0.91791  -0.88203  -0.87895  -0.82311
 Alpha  occ. eigenvalues --   -0.80551  -0.80546  -0.80515  -0.80178  -0.76411
 Alpha  occ. eigenvalues --   -0.76240  -0.76190  -0.76166  -0.76038  -0.74685
 Alpha  occ. eigenvalues --   -0.74681  -0.74654  -0.72976  -0.70873  -0.69108
 Alpha  occ. eigenvalues --   -0.65359  -0.63357  -0.57370  -0.56165  -0.55305
 Alpha  occ. eigenvalues --   -0.53429
 Alpha virt. eigenvalues --    0.03987   0.05700   0.05900   0.07196   0.07400
 Alpha virt. eigenvalues --    0.08225   0.08254   0.09502   0.10978   0.11252
 Alpha virt. eigenvalues --    0.11756   0.11916   0.12247   0.16218   0.16379

 Mulliken charges:
               1
     1  C    0.281524
     2  O   -0.411473
     3  O   -0.558922
     4  C    1.159186
     5  H    0.333813
     6  F   -0.278344
     7  F   -0.278363
     8  F   -0.247421
     9  C    0.281524
    10  O   -0.411473
    11  O   -0.558922
    12  C    1.159186
    13  H    0.333813
    14  F   -0.247421
    15  F   -0.278344
    16  F   -0.278363
 Sum of Mulliken charges =  -0.00000

 Dipole moment (field-independent basis, Debye):
    X=             -0.0000    Y=             -0.0000    Z=             -0.0005  Tot=              0.0005

 Test job not archived.
 1\1\GINC-SE195\SP\RHF\Aug-CC-pVDZ\C4H2F6O4\OHZDE\09-Apr-2025\0\\#t hf
 aug-cc-pvdz iop(5/13=1,5/36=2,99/5=2) pseudo=read geom=check guess=(re
 ad,tcheck) scf=(maxcycle=1)\\title\\0,1\C,0,-0.00078,1.87956,-0.00001\
 O,0,1.20457,1.4014,0.00012\O,0,-1.03535,1.25697,0.00004\C,0,0.00078,3.
 43096,-0.00005\H,0,1.18461,0.4089,0.00009\F,0,0.62983,3.88462,1.08153\
 F,0,0.63184,3.88465,-1.08045\F,0,-1.23454,3.89742,-0.0012\C,0,0.018042
 ,-1.629004,-0.00001\O,0,-1.187308,-1.150844,0.00012\O,0,1.052612,-1.00
 6414,0.00004\C,0,0.016482,-3.180404,-0.00005\H,0,-1.167348,-0.158344,0

 Normal termination of Gaussian 16 at Wed Apr  9 03:02:53 2025.
