 Gaussian 16, Revision C.01,

 ----------------------------------------------------------------------
 #t hf aug-cc-pvdz symm=none int=(grid=ultrafine) guess=(read,tcheck) s
 table=(opt,rrhf)
 ----------------------------------------------------------------------
 -----
 title
 -----
 Symbolic Z-matrix:
 Charge =  0 Multiplicity = 1

 SCF Done:  E(RHF) =  -176.865306934     A.U. after   11 cycles
 Normal termination of Gaussian 16 at Wed Apr  9 02:59:57 2025.
 Gaussian 16:  ES64L-G16RevC.01  3-Jul-2019

 ----------------------------------------------------------------------
 #t hf aug-cc-pvdz iop(5/13=1,5/36=2,99/5=2) pseudo=read geom=check gue
 ss=(read,tcheck) scf=(maxcycle=1)
 ----------------------------------------------------------------------
 -----
 title
 -----
 Structure from the checkpoint file:  "F-set_c2h2_hf_095_dimer_mol1.chk"
 Charge =  0 Multiplicity = 1

                         Standard orientation:
 ---------------------------------------------------------------------
 Center     Atomic      Atomic             Coordinates (Angstroms)
 Number     Number       Type             X           Y           Z
 ---------------------------------------------------------------------
      1          6           0        0.601052   -1.181969    0.000000
      2          6           0       -0.594048   -1.183571    0.000000
      3          1           0        1.664963   -1.187275    0.000000
      4          1           0       -1.657986   -1.191164    0.000000
      5          9           0       -0.005445    1.749768    0.000000
      6          1           0        0.000000    0.823769    0.000000
 ---------------------------------------------------------------------

 SCF Done:  E(RHF) =  -176.928617004     A.U. after    2 cycles

 The electronic state is 1-A'.
 Alpha  occ. eigenvalues --  -26.08936 -11.28639 -11.28224  -1.62459  -1.06624
 Alpha  occ. eigenvalues --   -0.79995  -0.79534  -0.71298  -0.68253  -0.68234
 Alpha  occ. eigenvalues --   -0.45593  -0.44852
 Alpha virt. eigenvalues --    0.03299   0.03602   0.08028   0.09561   0.09629
 Alpha virt. eigenvalues --    0.10953   0.11485   0.13150   0.15027   0.16773
 Alpha virt. eigenvalues --    0.19817   0.21104   0.24749   0.25950   0.27608

 Mulliken charges:
               1
     1  C    0.265508
     2  C    0.266936
     3  H   -0.266667
     4  H   -0.266431
     5  F   -0.164869
     6  H    0.165524
 Sum of Mulliken charges =  -0.00000

 Dipole moment (field-independent basis, Debye):
    X=              0.0125    Y=             -2.8619    Z=              0.0000  Tot=              2.8619

 Test job not archived.
 1\1\GINC-SE143\SP\RHF\Aug-CC-pVDZ\C2H3F1\OHZDE\09-Apr-2025\0\\#t hf au
 g-cc-pvdz iop(5/13=1,5/36=2,99/5=2) pseudo=read geom=check guess=(read
 ,tcheck) scf=(maxcycle=1)\\title\\0,1\C,0,0.60093,-1.23632,0.\C,0,-0.5
 9417,-1.23767,0.\H,0,1.66484,-1.24185,0.\H,0,-1.65811,-1.24504,0.\F,0,
 -0.00495012,1.6955445,0.\H,0,0.00029988,0.7695445,0.\\Version=ES64L-G1
 6RevC.01\State=1-A'\HF=-176.928617\RMSD=7.966e-03\Dipole=0.0046929,-1.
 1259607,0.\Quadrupole=4.8535911,-4.0051401,-0.848451,0.0183911,0.,0.\P
 G=CS [SG(C2H3F1)]\\@

 Normal termination of Gaussian 16 at Wed Apr  9 02:59:59 2025.
