 Gaussian 16, Revision C.01,

 ----------------------------------------------------------------------
 #t hf aug-cc-pvdz symm=none int=(grid=ultrafine) guess=(read,tcheck) s
 table=(opt,rrhf)
 ----------------------------------------------------------------------
 -----
 title
 -----
 Symbolic Z-matrix:
 Charge =  0 Multiplicity = 1

 SCF Done:  E(RHF) =  -666.421232347     A.U. after   14 cycles
 Normal termination of Gaussian 16 at Wed Apr  9 03:01:42 2025.
 Gaussian 16:  ES64L-G16RevC.01  3-Jul-2019

 ----------------------------------------------------------------------
 #t hf aug-cc-pvdz iop(5/13=1,5/36=2,99/5=2) pseudo=read geom=check gue
 ss=(read,tcheck) scf=(maxcycle=1)
 ----------------------------------------------------------------------
 -----
 title
 -----
 Structure from the checkpoint file:  "F-set_c6h6_cf4_095_dimer_mol1.chk"
 Charge =  0 Multiplicity = 1

                         Standard orientation:
 ---------------------------------------------------------------------
 Center     Atomic      Atomic             Coordinates (Angstroms)
 Number     Number       Type             X           Y           Z
 ---------------------------------------------------------------------
      1          6           0       -2.141973   -1.167205   -0.592542
      2          6           0       -1.660141   -1.231981    0.706037
      3          6           0       -2.363494    0.064817   -1.189097
      4          1           0       -2.343773   -2.077553   -1.140401
      5          6           0       -1.399961   -0.064714    1.408043
      6          1           0       -1.484304   -2.192563    1.170616
      7          6           0       -2.102697    1.232004   -0.487405
      8          1           0       -2.737998    0.115332   -2.202395
      9          6           0       -1.620985    1.167289    0.811245
     10          1           0       -1.021248   -0.115278    2.419794
     11          1           0       -2.273653    2.192826   -0.953356
     12          1           0       -1.414323    2.077346    1.357633
     13          6           0        1.877022   -0.000033   -0.109930
     14          9           0        3.109931   -0.002464   -0.585487
     15          9           0        1.023263   -0.000487   -1.110137
     16          9           0        1.698674    1.078275    0.627743
     17          9           0        1.695761   -1.075455    0.631214
 ---------------------------------------------------------------------

 SCF Done:  E(RHF) =  -666.655684354     A.U. after    2 cycles

 The electronic state is 1-A.
 Alpha  occ. eigenvalues --  -26.19338 -26.19320 -26.19307 -26.19093 -11.62231
 Alpha  occ. eigenvalues --  -11.24363 -11.24313 -11.24308 -11.24187 -11.24181
 Alpha  occ. eigenvalues --  -11.24135  -1.82448  -1.72861  -1.72820  -1.72756
 Alpha  occ. eigenvalues --   -1.14636  -1.06796  -1.01258  -1.01245  -0.94155
 Alpha  occ. eigenvalues --   -0.94119  -0.94074  -0.82782  -0.82774  -0.81915
 Alpha  occ. eigenvalues --   -0.81888  -0.76655  -0.76604  -0.76552  -0.74449
 Alpha  occ. eigenvalues --   -0.74362  -0.74353  -0.71652  -0.64484  -0.62842
 Alpha  occ. eigenvalues --   -0.59376  -0.59372  -0.50895  -0.49845  -0.49841
 Alpha  occ. eigenvalues --   -0.34237  -0.34204
 Alpha virt. eigenvalues --    0.03591   0.04197   0.04243   0.05754   0.05780
 Alpha virt. eigenvalues --    0.07630   0.08243   0.10109   0.10254   0.10738
 Alpha virt. eigenvalues --    0.10772   0.11489   0.13797   0.14234   0.14444

 Mulliken charges:
               1
     1  C    0.207525
     2  C    0.622903
     3  C    0.745899
     4  H   -0.462748
     5  C    0.459579
     6  H   -0.495878
     7  C    0.187685
     8  H   -0.471625
     9  C    0.684856
    10  H   -0.536532
    11  H   -0.463763
    12  H   -0.502188
    13  C    0.946172
    14  F   -0.246705
    15  F   -0.183231
    16  F   -0.246410
    17  F   -0.245539
 Sum of Mulliken charges =   0.00000

 Dipole moment (field-independent basis, Debye):
    X=             -0.0885    Y=             -0.0000    Z=             -0.0528  Tot=              0.1030

 Test job not archived.
 1\1\GINC-SE403\SP\RHF\Aug-CC-pVDZ\C7H6F4\OHZDE\09-Apr-2025\0\\#t hf au
 g-cc-pvdz iop(5/13=1,5/36=2,99/5=2) pseudo=read geom=check guess=(read
 ,tcheck) scf=(maxcycle=1)\\title\\0,1\C,0,2.23711,-1.16721,0.60128\C,0
 ,1.76369,-1.23198,-0.70039\C,0,2.45477,0.06481,1.19926\H,0,2.43536,-2.
 07756,1.15043\C,0,1.50806,-0.06471,-1.40406\H,0,1.59086,-2.19256,-1.16
 61\C,0,2.19852,1.232,0.4959\H,0,2.82271,0.11532,2.21496\C,0,1.72522,1.
 16729,-0.80584\H,0,1.1359,-0.11527,-2.41824\H,0,2.36646,2.19282,0.9629
 5\H,0,1.5221,2.07735,-1.35355\C,0,-1.77867613,-0.00002725,0.0926798\F,

 Normal termination of Gaussian 16 at Wed Apr  9 03:01:51 2025.
