 Gaussian 16, Revision C.01,

 ----------------------------------------------------------------------
 #t hf aug-cc-pvdz symm=none int=(grid=ultrafine) guess=(read,tcheck) s
 table=(opt,rrhf)
 ----------------------------------------------------------------------
 -----
 title
 -----
 Symbolic Z-matrix:
 Charge =  0 Multiplicity = 1

 SCF Done:  E(RHF) =  -411.706196709     A.U. after   11 cycles
 Normal termination of Gaussian 16 at Wed Apr  9 03:01:30 2025.
 Gaussian 16:  ES64L-G16RevC.01  3-Jul-2019

 ----------------------------------------------------------------------
 #t hf aug-cc-pvdz iop(5/13=1,5/36=2,99/5=2) pseudo=read geom=check gue
 ss=(read,tcheck) scf=(maxcycle=1)
 ----------------------------------------------------------------------
 -----
 title
 -----
 Structure from the checkpoint file:  "F-set_cf3oh_cf3oh_090_dimer_mol2.chk"
 Charge =  0 Multiplicity = 1

                         Standard orientation:
 ---------------------------------------------------------------------
 Center     Atomic      Atomic             Coordinates (Angstroms)
 Number     Number       Type             X           Y           Z
 ---------------------------------------------------------------------
      1          6           0        0.005389    0.022228   -0.000278
      2          8           0        1.280373    0.441066   -0.000458
      3          1           0        1.867283   -0.317436    0.001152
      4          9           0       -0.283011   -0.723506    1.075792
      5          9           0       -0.783866    1.079857   -0.002338
      6          9           0       -0.282301   -0.727956   -1.072988
 ---------------------------------------------------------------------

 SCF Done:  E(RHF) =  -411.857432610     A.U. after    2 cycles

 The electronic state is 1-A.
 Alpha  occ. eigenvalues --  -26.18040 -26.17701 -26.17679 -20.65151 -11.58801
 Alpha  occ. eigenvalues --   -1.78732  -1.71258  -1.70577  -1.43131  -1.03428
 Alpha  occ. eigenvalues --   -0.92195  -0.90824  -0.89015  -0.79622  -0.78999
 Alpha  occ. eigenvalues --   -0.75038  -0.74065  -0.73466  -0.72980  -0.65691
 Alpha  occ. eigenvalues --   -0.60268
 Alpha virt. eigenvalues --    0.03073   0.09135   0.09226   0.09243   0.13079
 Alpha virt. eigenvalues --    0.17639   0.19425   0.21261   0.23169   0.23959
 Alpha virt. eigenvalues --    0.30307   0.30715   0.31031   0.33193   0.33538

 Mulliken charges:
               1
     1  C    1.032145
     2  O   -0.428046
     3  H    0.161775
     4  F   -0.274401
     5  F   -0.217598
     6  F   -0.273875
 Sum of Mulliken charges =  -0.00000

 Dipole moment (field-independent basis, Debye):
    X=              1.9854    Y=             -1.0387    Z=             -0.0002  Tot=              2.2407

 Test job not archived.
 1\1\GINC-SE127\SP\RHF\Aug-CC-pVDZ\C1H1F3O1\OHZDE\09-Apr-2025\0\\#t hf
 aug-cc-pvdz iop(5/13=1,5/36=2,99/5=2) pseudo=read geom=check guess=(re
 ad,tcheck) scf=(maxcycle=1)\\title\\0,1\C,0,-0.00539,-0.02223,-0.00028
 \O,0,-1.28038,-0.44105,-0.00046\H,0,-1.86728,0.31746,0.00115\F,0,0.283
 02,0.7235,1.07579\F,0,0.78385,-1.07987,-0.00234\F,0,0.28231,0.72795,-1
 .07299\\Version=ES64L-G16RevC.01\State=1-A\HF=-411.8574326\RMSD=6.436e
 -03\Dipole=-0.7811092,0.4086741,-0.0000773\Quadrupole=2.5245596,-1.157
 784,-1.3667756,-1.8746859,-0.0052852,0.0000961\PG=C01 [X(C1H1F3O1)]\\@

 Normal termination of Gaussian 16 at Wed Apr  9 03:01:32 2025.
