 Gaussian 16, Revision C.01,

 ----------------------------------------------------------------------
 #t hf aug-cc-pvdz symm=none int=(grid=ultrafine) guess=(read,tcheck) s
 table=(opt,rrhf)
 ----------------------------------------------------------------------
 -----
 title
 -----
 Symbolic Z-matrix:
 Charge =  0 Multiplicity = 1

 SCF Done:  E(RHF) =  -254.952556598     A.U. after   12 cycles
 Normal termination of Gaussian 16 at Wed Apr  9 03:00:36 2025.
 Gaussian 16:  ES64L-G16RevC.01  3-Jul-2019

 ----------------------------------------------------------------------
 #t hf aug-cc-pvdz iop(5/13=1,5/36=2,99/5=2) pseudo=read geom=check gue
 ss=(read,tcheck) scf=(maxcycle=1)
 ----------------------------------------------------------------------
 -----
 title
 -----
 Structure from the checkpoint file:  "F-set_c2h4_c2h3f_105_dimer_mol1.chk"
 Charge =  0 Multiplicity = 1

                         Standard orientation:
 ---------------------------------------------------------------------
 Center     Atomic      Atomic             Coordinates (Angstroms)
 Number     Number       Type             X           Y           Z
 ---------------------------------------------------------------------
      1          6           0       -0.691562   -2.211417    0.660810
      2          6           0       -0.691562   -2.211417   -0.660810
      3          1           0       -0.051294   -1.544489    1.223580
      4          1           0       -1.326759   -2.878440    1.229250
      5          1           0       -0.051294   -1.544489   -1.223580
      6          1           0       -1.326759   -2.878440   -1.229250
      7          6           0       -0.691562    1.773001    0.000000
      8          6           0        0.618468    1.875489    0.000000
      9          1           0       -1.185382    0.811927    0.000000
     10          1           0       -1.286239    2.673083    0.000000
     11          1           0        1.183281    2.797754    0.000000
     12          9           0        1.420195    0.801018    0.000000
 ---------------------------------------------------------------------

 SCF Done:  E(RHF) =  -255.043067618     A.U. after    2 cycles

 The electronic state is 1-A'.
 Alpha  occ. eigenvalues --  -26.13568 -11.33895 -11.24423 -11.23741 -11.23564
 Alpha  occ. eigenvalues --   -1.67749  -1.05774  -1.02891  -0.86819  -0.78895
 Alpha  occ. eigenvalues --   -0.78092  -0.75040  -0.70901  -0.64550  -0.60859
 Alpha  occ. eigenvalues --   -0.59044  -0.56625  -0.50435  -0.39407  -0.38004
 Alpha virt. eigenvalues --    0.03598   0.04311   0.05196   0.05278   0.06692
 Alpha virt. eigenvalues --    0.07631   0.08094   0.09594   0.11606   0.11639
 Alpha virt. eigenvalues --    0.13329   0.13750   0.14600   0.15635   0.15772

 Mulliken charges:
               1
     1  C    0.547626
     2  C    0.547626
     3  H   -0.270990
     4  H   -0.276621
     5  H   -0.270990
     6  H   -0.276621
     7  C    0.425410
     8  C    0.667740
     9  H   -0.258641
    10  H   -0.259940
    11  H   -0.251143
    12  F   -0.323455
 Sum of Mulliken charges =   0.00000

 Dipole moment (field-independent basis, Debye):
    X=             -1.0575    Y=              1.4562    Z=              0.0000  Tot=              1.7997

 Test job not archived.
 1\1\GINC-SE102\SP\RHF\Aug-CC-pVDZ\C4H7F1\OHZDE\09-Apr-2025\0\\#t hf au
 g-cc-pvdz iop(5/13=1,5/36=2,99/5=2) pseudo=read geom=check guess=(read
 ,tcheck) scf=(maxcycle=1)\\title\\0,1\C,0,-0.68996,-2.09115,0.66081\C,
 0,-0.68996,-2.09115,-0.66081\H,0,-0.04386,-1.42987,1.22358\H,0,-1.3309
 9,-2.75257,1.22925\H,0,-0.04386,-1.42987,-1.22358\H,0,-1.33099,-2.7525
 7,-1.22925\C,0,-0.65497117,1.89311392,0.\C,0,0.65590883,1.98409392,0.\
 H,0,-1.15721117,0.93641392,0.\H,0,-1.24172117,2.79838392,0.\H,0,1.2287
 9883,2.90136392,0.\F,0,1.44816883,0.90262392,0.\\Version=ES64L-G16RevC

 Normal termination of Gaussian 16 at Wed Apr  9 03:00:39 2025.
