 Gaussian 16, Revision C.01,

 ----------------------------------------------------------------------
 #t hf aug-cc-pvdz symm=none int=(grid=ultrafine) guess=(read,tcheck) s
 table=(opt,rrhf)
 ----------------------------------------------------------------------
 -----
 title
 -----
 Symbolic Z-matrix:
 Charge =  0 Multiplicity = 1

 SCF Done:  E(RHF) =  -1048.91457895     A.U. after   13 cycles
 Normal termination of Gaussian 16 at Wed Apr  9 03:02:47 2025.
 Gaussian 16:  ES64L-G16RevC.01  3-Jul-2019

 ----------------------------------------------------------------------
 #t hf aug-cc-pvdz iop(5/13=1,5/36=2,99/5=2) pseudo=read geom=check gue
 ss=(read,tcheck) scf=(maxcycle=1)
 ----------------------------------------------------------------------
 -----
 title
 -----
 Structure from the checkpoint file:  "F-set_cf3co2h_cf3co2h_105_dimer_mol1.chk"
 Charge =  0 Multiplicity = 1

                         Standard orientation:
 ---------------------------------------------------------------------
 Center     Atomic      Atomic             Coordinates (Angstroms)
 Number     Number       Type             X           Y           Z
 ---------------------------------------------------------------------
      1          6           0        0.001628    2.004853   -0.000009
      2          8           0        1.208456    1.530436    0.000121
      3          8           0       -1.031005    1.379054    0.000041
      4          6           0       -0.001628    3.556250   -0.000049
      5          1           0        1.191577    0.537879    0.000091
      6          9           0        0.626011    4.011861    1.081531
      7          9           0        0.628021    4.011897   -1.080449
      8          9           0       -1.238390    4.018873   -0.001199
      9          6           0       -0.001628   -2.004853   -0.000009
     10          8           0       -1.208456   -1.530436    0.000121
     11          8           0        1.031005   -1.379054    0.000041
     12          6           0        0.001628   -3.556250   -0.000049
     13          1           0       -1.191577   -0.537879    0.000091
     14          9           0        1.238390   -4.018873   -0.001199
     15          9           0       -0.626011   -4.011861    1.081531
     16          9           0       -0.628021   -4.011897   -1.080449
 ---------------------------------------------------------------------

 SCF Done:  E(RHF) =  -1049.28202588     A.U. after    2 cycles

 The electronic state is 1-A.
 Alpha  occ. eigenvalues --  -26.19682 -26.19682 -26.19672 -26.19672 -26.19460
 Alpha  occ. eigenvalues --  -26.19460 -20.67625 -20.67624 -20.63012 -20.63012
 Alpha  occ. eigenvalues --  -11.56425 -11.56425 -11.46852 -11.46852  -1.80069
 Alpha  occ. eigenvalues --   -1.80064  -1.72632  -1.72632  -1.72609  -1.72607
 Alpha  occ. eigenvalues --   -1.49573  -1.49042  -1.39671  -1.39061  -1.09349
 Alpha  occ. eigenvalues --   -1.08989  -0.97599  -0.96749  -0.91866  -0.91757
 Alpha  occ. eigenvalues --   -0.91753  -0.91738  -0.87037  -0.86912  -0.80491
 Alpha  occ. eigenvalues --   -0.80474  -0.80315  -0.80305  -0.79436  -0.76738
 Alpha  occ. eigenvalues --   -0.76102  -0.76099  -0.75913  -0.75881  -0.74594
 Alpha  occ. eigenvalues --   -0.74593  -0.74541  -0.73490  -0.70347  -0.69807
 Alpha  occ. eigenvalues --   -0.64895  -0.63707  -0.56199  -0.55591  -0.55267
 Alpha  occ. eigenvalues --   -0.53538
 Alpha virt. eigenvalues --    0.03907   0.05645   0.06277   0.07368   0.07495
 Alpha virt. eigenvalues --    0.08292   0.08631   0.09458   0.10902   0.11062
 Alpha virt. eigenvalues --    0.11506   0.11834   0.12126   0.15705   0.15770

 Mulliken charges:
               1
     1  C    0.187340
     2  O   -0.344085
     3  O   -0.432290
     4  C    1.154743
     5  H    0.232955
     6  F   -0.277049
     7  F   -0.277066
     8  F   -0.244548
     9  C    0.187340
    10  O   -0.344085
    11  O   -0.432290
    12  C    1.154743
    13  H    0.232955
    14  F   -0.244548
    15  F   -0.277049
    16  F   -0.277066
 Sum of Mulliken charges =  -0.00000

 Dipole moment (field-independent basis, Debye):
    X=             -0.0000    Y=              0.0000    Z=             -0.0005  Tot=              0.0005

 Test job not archived.
 1\1\GINC-SE044\SP\RHF\Aug-CC-pVDZ\C4H2F6O4\OHZDE\09-Apr-2025\0\\#t hf
 aug-cc-pvdz iop(5/13=1,5/36=2,99/5=2) pseudo=read geom=check guess=(re
 ad,tcheck) scf=(maxcycle=1)\\title\\0,1\C,0,-0.00078,1.87956,-0.00001\
 O,0,1.20457,1.4014,0.00012\O,0,-1.03535,1.25697,0.00004\C,0,0.00078,3.
 43096,-0.00005\H,0,1.18461,0.4089,0.00009\F,0,0.62983,3.88462,1.08153\
 F,0,0.63184,3.88465,-1.08045\F,0,-1.23454,3.89742,-0.0012\C,0,-0.01648
 2,-2.130116,-0.00001\O,0,-1.221832,-1.651956,0.00012\O,0,1.018088,-1.5
 07526,0.00004\C,0,-0.018042,-3.681516,-0.00005\H,0,-1.201872,-0.659456

 Normal termination of Gaussian 16 at Wed Apr  9 03:02:53 2025.
