 Gaussian 16, Revision C.01,

 ----------------------------------------------------------------------
 #t hf aug-cc-pvdz symm=none int=(grid=ultrafine) guess=(read,tcheck) s
 table=(opt,rrhf)
 ----------------------------------------------------------------------
 -----
 title
 -----
 Symbolic Z-matrix:
 Charge =  0 Multiplicity = 1

 SCF Done:  E(RHF) =  -278.117265301     A.U. after   10 cycles
 Normal termination of Gaussian 16 at Wed Apr  9 03:01:33 2025.
 Gaussian 16:  ES64L-G16RevC.01  3-Jul-2019

 ----------------------------------------------------------------------
 #t hf aug-cc-pvdz iop(5/13=1,5/36=2,99/5=2) pseudo=read geom=check gue
 ss=(read,tcheck) scf=(maxcycle=1)
 ----------------------------------------------------------------------
 -----
 title
 -----
 Structure from the checkpoint file:  "F-set_ch3f_ch3f_100_dimer_mol1.chk"
 Charge =  0 Multiplicity = 1

                         Standard orientation:
 ---------------------------------------------------------------------
 Center     Atomic      Atomic             Coordinates (Angstroms)
 Number     Number       Type             X           Y           Z
 ---------------------------------------------------------------------
      1          6           0       -1.667286    1.011264    0.000000
      2          1           0       -0.636246    1.361492    0.000000
      3          1           0       -2.182806    1.361493    0.892907
      4          1           0       -2.182806    1.361493   -0.892907
      5          9           0       -1.667286   -0.371736    0.000000
      6          6           0        1.667286   -1.011264    0.000000
      7          1           0        0.636246   -1.361492    0.000000
      8          9           0        1.667286    0.371736    0.000000
      9          1           0        2.182806   -1.361493   -0.892907
     10          1           0        2.182806   -1.361493    0.892907
 ---------------------------------------------------------------------

 SCF Done:  E(RHF) =  -278.219977268     A.U. after    2 cycles

 The electronic state is 1-AG.
 Alpha  occ. eigenvalues --  -26.10261 -26.10261 -11.31234 -11.31234  -1.63640
 Alpha  occ. eigenvalues --   -1.63582  -0.96799  -0.96518  -0.75031  -0.74111
 Alpha  occ. eigenvalues --   -0.73945  -0.73230  -0.71606  -0.71110  -0.55221
 Alpha  occ. eigenvalues --   -0.54765  -0.54673  -0.53767
 Alpha virt. eigenvalues --    0.03678   0.04488   0.05525   0.06467   0.06776
 Alpha virt. eigenvalues --    0.07999   0.10093   0.13431   0.14214   0.14428
 Alpha virt. eigenvalues --    0.15563   0.17304   0.18612   0.18942   0.25768

 Mulliken charges:
               1
     1  C    0.833278
     2  H   -0.141320
     3  H   -0.125324
     4  H   -0.125324
     5  F   -0.441310
     6  C    0.833278
     7  H   -0.141320
     8  F   -0.441310
     9  H   -0.125324
    10  H   -0.125324
 Sum of Mulliken charges =   0.00000

 Dipole moment (field-independent basis, Debye):
    X=              0.0000    Y=              0.0000    Z=             -0.0000  Tot=              0.0000

 Test job not archived.
 1\1\GINC-SE072\SP\RHF\Aug-CC-pVDZ\C2H6F2\OHZDE\09-Apr-2025\0\\#t hf au
 g-cc-pvdz iop(5/13=1,5/36=2,99/5=2) pseudo=read geom=check guess=(read
 ,tcheck) scf=(maxcycle=1)\\title\\0,1\C,0,-1.667286,1.011264,0.\H,0,-0
 .636246,1.361492,0.\H,0,-2.182806,1.361493,0.892907\H,0,-2.182806,1.36
 1493,-0.892907\F,0,-1.667286,-0.371736,0.\C,0,1.667286,-1.011264,0.\H,
 0,0.636246,-1.361492,0.\F,0,1.667286,0.371736,0.\H,0,2.182806,-1.36149
 3,-0.892907\H,0,2.182806,-1.361493,0.892907\\Version=ES64L-G16RevC.01\
 State=1-AG\HF=-278.2199773\RMSD=3.406e-03\Dipole=0.,0.,0.\Quadrupole=-

 Normal termination of Gaussian 16 at Wed Apr  9 03:01:35 2025.
