 Gaussian 16, Revision C.01,

 ----------------------------------------------------------------------
 #t hf aug-cc-pvdz symm=none int=(grid=ultrafine) guess=(read,tcheck) s
 table=(opt,rrhf)
 ----------------------------------------------------------------------
 -----
 title
 -----
 Symbolic Z-matrix:
 Charge =  0 Multiplicity = 1

 SCF Done:  E(RHF) =  -823.861294811     A.U. after   11 cycles
 Normal termination of Gaussian 16 at Wed Apr  9 03:01:02 2025.
 Gaussian 16:  ES64L-G16RevC.01  3-Jul-2019

 ----------------------------------------------------------------------
 #t hf aug-cc-pvdz iop(5/13=1,5/36=2,99/5=2) pseudo=read geom=check gue
 ss=(read,tcheck) scf=(maxcycle=1)
 ----------------------------------------------------------------------
 -----
 title
 -----
 Structure from the checkpoint file:  "F-set_c6f6_c6f6_090_dimer_mol2.chk"
 Charge =  0 Multiplicity = 1

                         Standard orientation:
 ---------------------------------------------------------------------
 Center     Atomic      Atomic             Coordinates (Angstroms)
 Number     Number       Type             X           Y           Z
 ---------------------------------------------------------------------
      1          6           0        1.384930    0.000502    0.000000
      2          6           0        0.692460    0.000452    1.199440
      3          6           0        0.692460    0.000452   -1.199440
      4          6           0       -0.692470    0.000311    1.199450
      5          6           0       -1.384910    0.000151   -0.000000
      6          6           0       -0.692470    0.000311   -1.199450
      7          9           0        1.353790   -0.000178    2.344730
      8          9           0       -1.353790   -0.000129    2.344700
      9          9           0       -2.707380   -0.000359   -0.000000
     10          9           0       -1.353790   -0.000129   -2.344700
     11          9           0        1.353790   -0.000178   -2.344730
     12          9           0        2.707380   -0.000478    0.000000
 ---------------------------------------------------------------------

 SCF Done:  E(RHF) =  -824.147566150     A.U. after    2 cycles

 The electronic state is 1-A'.
 Alpha  occ. eigenvalues --  -26.18879 -26.18871 -26.18871 -26.18866 -26.18866
 Alpha  occ. eigenvalues --  -26.18866 -11.39949 -11.39900 -11.39900 -11.39776
 Alpha  occ. eigenvalues --  -11.39776 -11.39720  -1.74359  -1.73829  -1.73828
 Alpha  occ. eigenvalues --   -1.72861  -1.72860  -1.72403  -1.23758  -1.10630
 Alpha  occ. eigenvalues --   -1.10628  -0.97900  -0.97900  -0.90222  -0.89393
 Alpha  occ. eigenvalues --   -0.89129  -0.83589  -0.83589  -0.83125  -0.82634
 Alpha  occ. eigenvalues --   -0.82633  -0.81252  -0.81251  -0.79304  -0.79304
 Alpha  occ. eigenvalues --   -0.78639  -0.77322  -0.77322  -0.76643  -0.67754
 Alpha  occ. eigenvalues --   -0.67752  -0.63732  -0.56455  -0.40168  -0.40165
 Alpha virt. eigenvalues --    0.04841   0.06829   0.06829   0.08680   0.08681
 Alpha virt. eigenvalues --    0.09013   0.09013   0.09391   0.10861   0.12404
 Alpha virt. eigenvalues --    0.12404   0.13052   0.14568   0.15156   0.15156

 Mulliken charges:
               1
     1  C    0.216801
     2  C    0.217690
     3  C    0.217690
     4  C    0.217062
     5  C    0.217380
     6  C    0.217062
     7  F   -0.217355
     8  F   -0.217177
     9  F   -0.217387
    10  F   -0.217177
    11  F   -0.217355
    12  F   -0.217236
 Sum of Mulliken charges =  -0.00000

 Dipole moment (field-independent basis, Debye):
    X=             -0.0001    Y=              0.0023    Z=             -0.0000  Tot=              0.0023

 Test job not archived.
 1\1\GINC-SE162\SP\RHF\Aug-CC-pVDZ\C6F6\OHZDE\09-Apr-2025\0\\#t hf aug-
 cc-pvdz iop(5/13=1,5/36=2,99/5=2) pseudo=read geom=check guess=(read,t
 check) scf=(maxcycle=1)\\title\\0,1\C,0,-1.38493,-0.0005,0.\C,0,-0.692
 46,-0.00045,1.19944\C,0,-0.69246,-0.00045,-1.19944\C,0,0.69247,-0.0003
 1,1.19945\C,0,1.38491,-0.00015,0.\C,0,0.69247,-0.00031,-1.19945\F,0,-1
 .35379,0.00018,2.34473\F,0,1.35379,0.00013,2.3447\F,0,2.70738,0.00036,
 0.\F,0,1.35379,0.00013,-2.3447\F,0,-1.35379,0.00018,-2.34473\F,0,-2.70
 738,0.00048,0.\\Version=ES64L-G16RevC.01\State=1-A'\HF=-824.1475661\RM

 Normal termination of Gaussian 16 at Wed Apr  9 03:01:10 2025.
