 Gaussian 16, Revision C.01,

 ----------------------------------------------------------------------
 #t hf aug-cc-pvdz symm=none int=(grid=ultrafine) guess=(read,tcheck) s
 table=(opt,rrhf)
 ----------------------------------------------------------------------
 -----
 title
 -----
 Symbolic Z-matrix:
 Charge =  0 Multiplicity = 1

 SCF Done:  E(RHF) =  -823.415106724     A.U. after   11 cycles
 Normal termination of Gaussian 16 at Wed Apr  9 03:01:56 2025.
 Gaussian 16:  ES64L-G16RevC.01  3-Jul-2019

 ----------------------------------------------------------------------
 #t hf aug-cc-pvdz iop(5/13=1,5/36=2,99/5=2) pseudo=read geom=check gue
 ss=(read,tcheck) scf=(maxcycle=1)
 ----------------------------------------------------------------------
 -----
 title
 -----
 Structure from the checkpoint file:  "F-set_cf3oh_cf3oh_095_dimer_mol1.chk"
 Charge =  0 Multiplicity = 1

                         Standard orientation:
 ---------------------------------------------------------------------
 Center     Atomic      Atomic             Coordinates (Angstroms)
 Number     Number       Type             X           Y           Z
 ---------------------------------------------------------------------
      1          6           0        2.043590    0.037829    0.004522
      2          8           0        1.460306    1.188259   -0.328909
      3          9           0        1.801535   -0.937080   -0.901809
      4          9           0        3.349287    0.213857    0.079216
      5          9           0        1.612167   -0.440726    1.181452
      6          1           0        0.512805    1.035475   -0.445032
      7          8           0       -0.930269    0.046023   -0.790096
      8          6           0       -2.030101    0.009134   -0.000720
      9          1           0       -0.747524   -0.825412   -1.151712
     10          9           0       -1.910706   -0.893650    0.972103
     11          9           0       -3.123809   -0.298317   -0.696837
     12          9           0       -2.182532    1.204128    0.535427
 ---------------------------------------------------------------------

 SCF Done:  E(RHF) =  -823.715168727     A.U. after    2 cycles

 The electronic state is 1-A.
 Alpha  occ. eigenvalues --  -26.20414 -26.19946 -26.19926 -26.17700 -26.17635
 Alpha  occ. eigenvalues --  -26.17229 -20.68405 -20.63313 -11.61343 -11.58243
 Alpha  occ. eigenvalues --   -1.81219  -1.78273  -1.73681  -1.73007  -1.70879
 Alpha  occ. eigenvalues --   -1.70177  -1.46151  -1.42045  -1.06025  -1.02867
 Alpha  occ. eigenvalues --   -0.94761  -0.93328  -0.92234  -0.91363  -0.90389
 Alpha  occ. eigenvalues --   -0.88301  -0.82068  -0.81256  -0.79423  -0.78774
 Alpha  occ. eigenvalues --   -0.77470  -0.76468  -0.75978  -0.75224  -0.75149
 Alpha  occ. eigenvalues --   -0.73720  -0.73405  -0.72736  -0.68961  -0.64961
 Alpha  occ. eigenvalues --   -0.62724  -0.58890
 Alpha virt. eigenvalues --    0.03206   0.05881   0.08010   0.08298   0.09965
 Alpha virt. eigenvalues --    0.10295   0.10428   0.11763   0.14171   0.15799
 Alpha virt. eigenvalues --    0.18060   0.18466   0.20821   0.21225   0.23884

 Mulliken charges:
               1
     1  C    1.065505
     2  O   -0.419276
     3  F   -0.322951
     4  F   -0.213378
     5  F   -0.282418
     6  H    0.209786
     7  O   -0.582269
     8  C    1.042017
     9  H    0.229060
    10  F   -0.248511
    11  F   -0.248391
    12  F   -0.229174
 Sum of Mulliken charges =  -0.00000

 Dipole moment (field-independent basis, Debye):
    X=             -1.7741    Y=             -1.0173    Z=             -1.5185  Tot=              2.5472

 Test job not archived.
 1\1\GINC-SE129\SP\RHF\Aug-CC-pVDZ\C2H2F6O2\OHZDE\09-Apr-2025\0\\#t hf
 aug-cc-pvdz iop(5/13=1,5/36=2,99/5=2) pseudo=read geom=check guess=(re
 ad,tcheck) scf=(maxcycle=1)\\title\\0,1\C,0,2.13896,0.0375,0.00421\O,0
 ,1.55972,1.18917,-0.33198\F,0,1.89162,-0.93932,-0.89863\F,0,3.44546,0.
 20858,0.07631\F,0,1.70749,-0.43559,1.18333\H,0,0.61144,1.03978,-0.4461
 4\O,0,-0.83608575,0.05497217,-0.78580125\C,0,-1.93481575,0.02496217,0.
 00539875\H,0,-0.65736575,-0.81832783,-1.14492125\F,0,-1.81747575,-0.87
 518783,0.98090875\F,0,-3.03082575,-0.28035783,-0.68803125\F,0,-2.08166

 Normal termination of Gaussian 16 at Wed Apr  9 03:02:02 2025.
