 Gaussian 16, Revision C.01,

 ----------------------------------------------------------------------
 #t hf aug-cc-pvdz symm=none int=(grid=ultrafine) guess=(read,tcheck) s
 table=(opt,rrhf)
 ----------------------------------------------------------------------
 -----
 title
 -----
 Symbolic Z-matrix:
 Charge =  0 Multiplicity = 1

 SCF Done:  E(RHF) =  -666.423202914     A.U. after   14 cycles
 Normal termination of Gaussian 16 at Wed Apr  9 03:01:42 2025.
 Gaussian 16:  ES64L-G16RevC.01  3-Jul-2019

 ----------------------------------------------------------------------
 #t hf aug-cc-pvdz iop(5/13=1,5/36=2,99/5=2) pseudo=read geom=check gue
 ss=(read,tcheck) scf=(maxcycle=1)
 ----------------------------------------------------------------------
 -----
 title
 -----
 Structure from the checkpoint file:  "F-set_c6h6_cf4_105_dimer_mol1.chk"
 Charge =  0 Multiplicity = 1

                         Standard orientation:
 ---------------------------------------------------------------------
 Center     Atomic      Atomic             Coordinates (Angstroms)
 Number     Number       Type             X           Y           Z
 ---------------------------------------------------------------------
      1          6           0       -2.332863   -1.167216   -0.608802
      2          6           0       -1.866495   -1.231977    0.695412
      3          6           0       -2.547285    0.064800   -1.207958
      4          1           0       -2.528137   -2.077570   -1.159011
      5          6           0       -1.614679   -0.064703    1.400448
      6          1           0       -1.696187   -2.192554    1.162056
      7          6           0       -2.294847    1.231995   -0.503229
      8          1           0       -2.909723    0.115304   -2.225635
      9          6           0       -1.828600    1.167293    0.801054
     10          1           0       -1.248013   -0.115256    2.416628
     11          1           0       -2.460258    2.192812   -0.971187
     12          1           0       -1.628448    2.077357    1.349850
     13          6           0        2.076282   -0.000030   -0.096758
     14          9           0        3.314755   -0.002461   -0.557631
     15          9           0        1.234468   -0.000497   -1.107039
     16          9           0        1.889177    1.078285    0.638734
     17          9           0        1.886232   -1.075445    0.642191
 ---------------------------------------------------------------------

 SCF Done:  E(RHF) =  -666.658199783     A.U. after    2 cycles

 The electronic state is 1-A.
 Alpha  occ. eigenvalues --  -26.19477 -26.19469 -26.19445 -26.19322 -11.62383
 Alpha  occ. eigenvalues --  -11.24418 -11.24367 -11.24365 -11.24243 -11.24241
 Alpha  occ. eigenvalues --  -11.24192  -1.82600  -1.73000  -1.72981  -1.72902
 Alpha  occ. eigenvalues --   -1.14667  -1.06940  -1.01285  -1.01280  -0.94293
 Alpha  occ. eigenvalues --   -0.94264  -0.94221  -0.82805  -0.82803  -0.82062
 Alpha  occ. eigenvalues --   -0.82044  -0.76806  -0.76748  -0.76655  -0.74571
 Alpha  occ. eigenvalues --   -0.74519  -0.74496  -0.71706  -0.64522  -0.62896
 Alpha  occ. eigenvalues --   -0.59421  -0.59418  -0.50952  -0.49891  -0.49888
 Alpha  occ. eigenvalues --   -0.34249  -0.34226
 Alpha virt. eigenvalues --    0.03584   0.04189   0.04234   0.05763   0.05783
 Alpha virt. eigenvalues --    0.07634   0.08359   0.09991   0.10093   0.10711
 Alpha virt. eigenvalues --    0.10737   0.12036   0.13798   0.14283   0.14379

 Mulliken charges:
               1
     1  C    0.281941
     2  C    0.571005
     3  C    0.671713
     4  H   -0.462564
     5  C    0.520743
     6  H   -0.499782
     7  C    0.264545
     8  H   -0.466586
     9  C    0.619010
    10  H   -0.530639
    11  H   -0.463152
    12  H   -0.506442
    13  C    0.940017
    14  F   -0.249048
    15  F   -0.202850
    16  F   -0.244413
    17  F   -0.243499
 Sum of Mulliken charges =  -0.00000

 Dipole moment (field-independent basis, Debye):
    X=             -0.1284    Y=             -0.0000    Z=             -0.0479  Tot=              0.1370

 Test job not archived.
 1\1\GINC-SE339\SP\RHF\Aug-CC-pVDZ\C7H6F4\OHZDE\09-Apr-2025\0\\#t hf au
 g-cc-pvdz iop(5/13=1,5/36=2,99/5=2) pseudo=read geom=check guess=(read
 ,tcheck) scf=(maxcycle=1)\\title\\0,1\C,0,2.23711,-1.16721,0.60128\C,0
 ,1.76369,-1.23198,-0.70039\C,0,2.45477,0.06481,1.19926\H,0,2.43536,-2.
 07756,1.15043\C,0,1.50806,-0.06471,-1.40406\H,0,1.59086,-2.19256,-1.16
 61\C,0,2.19852,1.232,0.4959\H,0,2.82271,0.11532,2.21496\C,0,1.72522,1.
 16729,-0.80584\H,0,1.1359,-0.11527,-2.41824\H,0,2.36646,2.19282,0.9629
 5\H,0,1.5221,2.07735,-1.35355\C,0,-2.17474387,-0.00003275,0.1131002\F,

 Normal termination of Gaussian 16 at Wed Apr  9 03:01:51 2025.
