 Gaussian 16, Revision C.01,

 ----------------------------------------------------------------------
 #t hf aug-cc-pvdz symm=none int=(grid=ultrafine) guess=(read,tcheck) s
 table=(opt,rrhf)
 ----------------------------------------------------------------------
 -----
 title
 -----
 Symbolic Z-matrix:
 Charge =  0 Multiplicity = 1

 SCF Done:  E(RHF) =  -179.256729933     A.U. after   11 cycles
 Normal termination of Gaussian 16 at Wed Apr  9 03:02:02 2025.
 Gaussian 16:  ES64L-G16RevC.01  3-Jul-2019

 ----------------------------------------------------------------------
 #t hf aug-cc-pvdz iop(5/13=1,5/36=2,99/5=2) pseudo=read geom=check gue
 ss=(read,tcheck) scf=(maxcycle=1)
 ----------------------------------------------------------------------
 -----
 title
 -----
 Structure from the checkpoint file:  "F-set_ch4_ch3f_100_dimer_mol1.chk"
 Charge =  0 Multiplicity = 1

                         Standard orientation:
 ---------------------------------------------------------------------
 Center     Atomic      Atomic             Coordinates (Angstroms)
 Number     Number       Type             X           Y           Z
 ---------------------------------------------------------------------
      1          6           0        1.011827   -1.977862    0.000000
      2          1           0        1.239425   -3.041232    0.000000
      3          1           0        0.431237   -1.729521    0.885270
      4          1           0        0.431237   -1.729521   -0.885270
      5          1           0        1.940337   -1.410623    0.000000
      6          6           0       -0.000000    1.385369    0.000000
      7          9           0       -1.228961    0.758941    0.000000
      8          1           0        0.550360    1.085629    0.891170
      9          1           0        0.550360    1.085629   -0.891170
     10          1           0       -0.153269    2.464129    0.000000
 ---------------------------------------------------------------------

 SCF Done:  E(RHF) =  -179.325215750     A.U. after    2 cycles

 The electronic state is 1-A'.
 Alpha  occ. eigenvalues --  -26.10346 -11.31806 -11.21734  -1.63743  -0.97058
 Alpha  occ. eigenvalues --   -0.93999  -0.74230  -0.74194  -0.71694  -0.55532
 Alpha  occ. eigenvalues --   -0.55202  -0.54810  -0.54380  -0.54271
 Alpha virt. eigenvalues --    0.03346   0.04419   0.05846   0.06020   0.06992
 Alpha virt. eigenvalues --    0.08151   0.08905   0.10976   0.13607   0.15071
 Alpha virt. eigenvalues --    0.16259   0.16566   0.17268   0.19040   0.21797

 Mulliken charges:
               1
     1  C    0.652916
     2  H   -0.219160
     3  H   -0.142356
     4  H   -0.142356
     5  H   -0.155328
     6  C    0.866815
     7  F   -0.423943
     8  H   -0.142758
     9  H   -0.142758
    10  H   -0.151070
 Sum of Mulliken charges =   0.00000

 Dipole moment (field-independent basis, Debye):
    X=              1.9205    Y=              0.9790    Z=              0.0000  Tot=              2.1557

 Test job not archived.
 1\1\GINC-SE058\SP\RHF\Aug-CC-pVDZ\C2H7F1\OHZDE\09-Apr-2025\0\\#t hf au
 g-cc-pvdz iop(5/13=1,5/36=2,99/5=2) pseudo=read geom=check guess=(read
 ,tcheck) scf=(maxcycle=1)\\title\\0,1\C,0,-1.01183,-1.97786,0.\H,0,-1.
 23943,-3.04123,0.\H,0,-0.43124,-1.72952,-0.88527\H,0,-0.43124,-1.72952
 ,0.88527\H,0,-1.94034,-1.41062,0.\C,0,0.,1.38537,0.\F,0,1.22896,0.7589
 4,0.\H,0,-0.55036,1.08563,-0.89117\H,0,-0.55036,1.08563,0.89117\H,0,0.
 15327,2.46413,0.\\Version=ES64L-G16RevC.01\State=1-A'\HF=-179.3252158\
 RMSD=2.972e-03\Dipole=-0.7555877,0.3851724,0.\Quadrupole=-2.0477805,1.

 Normal termination of Gaussian 16 at Wed Apr  9 03:02:04 2025.
