 Gaussian 16, Revision C.01,

 ----------------------------------------------------------------------
 #t hf aug-cc-pvdz symm=none int=(grid=ultrafine) guess=(read,tcheck) s
 table=(opt,rrhf)
 ----------------------------------------------------------------------
 -----
 title
 -----
 Symbolic Z-matrix:
 Charge =  0 Multiplicity = 1

 SCF Done:  E(RHF) =  -369.787280982     A.U. after   12 cycles
 Normal termination of Gaussian 16 at Wed Apr  9 03:01:40 2025.
 Gaussian 16:  ES64L-G16RevC.01  3-Jul-2019

 ----------------------------------------------------------------------
 #t hf aug-cc-pvdz iop(5/13=1,5/36=2,99/5=2) pseudo=read geom=check gue
 ss=(read,tcheck) scf=(maxcycle=1)
 ----------------------------------------------------------------------
 -----
 title
 -----
 Structure from the checkpoint file:  "F-set_c6h6_ch3f_125_dimer_mol1.chk"
 Charge =  0 Multiplicity = 1

                         Standard orientation:
 ---------------------------------------------------------------------
 Center     Atomic      Atomic             Coordinates (Angstroms)
 Number     Number       Type             X           Y           Z
 ---------------------------------------------------------------------
      1          6           0        1.549947   -0.670207   -1.202377
      2          6           0        1.374286    0.705465   -1.199037
      3          6           0        1.634850   -1.361242   -0.002749
      4          1           0        1.620046   -1.204173   -2.140042
      5          6           0        1.283507    1.390192    0.003821
      6          1           0        1.308537    1.244367   -2.134358
      7          6           0        1.544253   -0.676672    1.200168
      8          1           0        1.771126   -2.433945   -0.005303
      9          6           0        1.368612    0.699000    1.203389
     10          1           0        1.148287    2.463257    0.006395
     11          1           0        1.609902   -1.215646    2.135290
     12          1           0        1.298503    1.232915    2.141274
     13          6           0       -2.849578    0.267619    0.001294
     14          1           0       -2.782648    0.878295    0.900867
     15          1           0       -2.042923   -0.463700   -0.009801
     16          1           0       -2.786757    0.900895   -0.882813
     17          9           0       -4.064370   -0.391911   -0.004285
 ---------------------------------------------------------------------

 SCF Done:  E(RHF) =  -369.908867503     A.U. after    2 cycles

 The electronic state is 1-A.
 Alpha  occ. eigenvalues --  -26.09648 -11.31029 -11.25060 -11.25001 -11.24997
 Alpha  occ. eigenvalues --  -11.24885 -11.24874 -11.24821  -1.62965  -1.15271
 Alpha  occ. eigenvalues --   -1.01892  -1.01888  -0.96235  -0.83412  -0.83407
 Alpha  occ. eigenvalues --   -0.73435  -0.73415  -0.72314  -0.70916  -0.65127
 Alpha  occ. eigenvalues --   -0.63508  -0.60027  -0.60024  -0.54275  -0.54230
 Alpha  occ. eigenvalues --   -0.51536  -0.50501  -0.50495  -0.34854  -0.34847
 Alpha virt. eigenvalues --    0.03039   0.03839   0.03869   0.05401   0.05489
 Alpha virt. eigenvalues --    0.05509   0.07261   0.07419   0.07837   0.09989
 Alpha virt. eigenvalues --    0.10126   0.11684   0.13016   0.13941   0.14123

 Mulliken charges:
               1
     1  C    0.449417
     2  C    0.443295
     3  C    0.458005
     4  H   -0.459612
     5  C    0.605968
     6  H   -0.481925
     7  C    0.447002
     8  H   -0.456341
     9  C    0.447902
    10  H   -0.484805
    11  H   -0.459704
    12  H   -0.483095
    13  C    0.805951
    14  H   -0.135585
    15  H   -0.145756
    16  H   -0.135570
    17  F   -0.415147
 Sum of Mulliken charges =  -0.00000

 Dipole moment (field-independent basis, Debye):
    X=              2.2454    Y=              1.0086    Z=              0.0086  Tot=              2.4616

 Test job not archived.
 1\1\GINC-SE036\SP\RHF\Aug-CC-pVDZ\C7H9F1\OHZDE\09-Apr-2025\0\\#t hf au
 g-cc-pvdz iop(5/13=1,5/36=2,99/5=2) pseudo=read geom=check guess=(read
 ,tcheck) scf=(maxcycle=1)\\title\\0,1\C,0,1.28077,-0.67224,-1.2016\C,0
 ,1.12048,0.70531,-1.19956\C,0,1.35784,-1.36306,-0.00132\H,0,1.34499,-1
 .20783,-2.13876\C,0,1.03724,1.39213,0.00265\H,0,1.06084,1.24404,-2.135
 39\C,0,1.27478,-0.6764,1.20095\H,0,1.48213,-2.43722,-0.00286\C,0,1.114
 51,0.70115,1.20287\H,0,0.91401,2.46664,0.00421\H,0,1.33432,-1.2152,2.1
 3658\H,0,1.05028,1.23669,2.14025\C,0,-3.10812112,0.31577329,0.00074042

 Normal termination of Gaussian 16 at Wed Apr  9 03:01:47 2025.
