 Gaussian 16, Revision C.01,

 ----------------------------------------------------------------------
 #t hf aug-cc-pvdz symm=none int=(grid=ultrafine) guess=(read,tcheck) s
 table=(opt,rrhf)
 ----------------------------------------------------------------------
 -----
 title
 -----
 Symbolic Z-matrix:
 Charge =  0 Multiplicity = 1

 SCF Done:  E(RHF) =  -1054.59242694     A.U. after   14 cycles

 1\1\GINC-SE040\Stability\RHF\Aug-CC-pVDZ\C12H6F6\OHZDE\09-Apr-2025\0\\
 #t hf aug-cc-pvdz symm=none int=(grid=ultrafine) guess=(read,tcheck) s
 table=(opt,rrhf)\\title\\0,1\C,0,-1.05492,1.38134,-0.46157\C,0,-0.2198
 5,0.74322,-1.36181\C,0,-1.8503,0.63831,0.39257\F,0,-1.07636,2.70339,-0
 .40254\C,0,-0.17808,-0.63935,-1.40641\F,0,0.545,1.45496,-2.17284\C,0,-
 1.80849,-0.74408,0.34809\F,0,-2.63364,1.24984,1.26796\C,0,-0.97186,-1.
 38232,-0.55041\F,0,0.62544,-1.25007,-2.26137\F,0,-2.5528,-1.4566,1.180
 18\F,0,-0.91673,-2.70456,-0.57861\C,0,1.62413833,-0.57473325,2.1598159

 Normal termination of Gaussian 16 at Wed Apr  9 03:09:23 2025.
 Gaussian 16:  ES64L-G16RevC.01  3-Jul-2019

 ----------------------------------------------------------------------
 #t hf aug-cc-pvdz iop(5/13=1,5/36=2,99/5=2) pseudo=read geom=check gue
 ss=(read,tcheck) scf=(maxcycle=1)
 ----------------------------------------------------------------------
 -----
 title
 -----
 Structure from the checkpoint file:  "F-set_c6h6_c6f6_110_dimer_mol1.chk"
 Charge =  0 Multiplicity = 1

                         Standard orientation:
 ---------------------------------------------------------------------
 Center     Atomic      Atomic             Coordinates (Angstroms)
 Number     Number       Type             X           Y           Z
 ---------------------------------------------------------------------
      1          6           0       -1.209294   -1.381400    0.366483
      2          6           0       -0.490840   -0.742944    1.362058
      3          6           0       -1.894221   -0.638690   -0.578786
      4          9           0       -1.223134   -2.703466    0.305567
      5          6           0       -0.455065    0.639643    1.411128
      6          9           0        0.169061   -1.454378    2.260796
      7          6           0       -1.858392    0.743716   -0.529830
      8          9           0       -2.564382   -1.250542   -1.543369
      9          6           0       -1.138177    1.382293    0.464208
     10          9           0        0.237625    1.250684    2.357906
     11          9           0       -2.495329    1.455930   -1.446955
     12          9           0       -1.087125    2.704549    0.498651
     13          6           0        1.770271    0.574639   -1.907574
     14          1           0        1.200963    1.024080   -2.710204
     15          6           0        2.427813    1.379879   -0.988498
     16          6           0        1.842318   -0.805525   -1.797636
     17          1           0        2.369505    2.456851   -1.073595
     18          6           0        3.155984    0.803935    0.041390
     19          6           0        2.571222   -1.381589   -0.767648
     20          1           0        1.329051   -1.433136   -2.513534
     21          1           0        3.663878    1.430817    0.761149
     22          6           0        3.227127   -0.577129    0.152033
     23          1           0        2.623424   -2.457981   -0.679203
     24          1           0        3.790273   -1.026589    0.958064
 ---------------------------------------------------------------------

 SCF Done:  E(RHF) =  -1054.94671485     A.U. after    2 cycles

 The electronic state is 1-A.
 Alpha  occ. eigenvalues --  -26.18275 -26.18264 -26.18226 -26.18213 -26.18104
 Alpha  occ. eigenvalues --  -26.18095 -11.39112 -11.39057 -11.39056 -11.38939
 Alpha  occ. eigenvalues --  -11.38931 -11.38875 -11.25200 -11.25126 -11.25104
 Alpha  occ. eigenvalues --  -11.25017 -11.24987 -11.24924  -1.73638  -1.73109
 Alpha  occ. eigenvalues --   -1.73077  -1.72140  -1.72127  -1.71670  -1.22977
 Alpha  occ. eigenvalues --   -1.15419  -1.09856  -1.09847  -1.02033  -1.02012
 Alpha  occ. eigenvalues --   -0.97153  -0.97151  -0.89475  -0.88674  -0.88413
 Alpha  occ. eigenvalues --   -0.83532  -0.83526  -0.82880  -0.82864  -0.82414
 Alpha  occ. eigenvalues --   -0.81894  -0.81887  -0.80561  -0.80529  -0.78619
 Alpha  occ. eigenvalues --   -0.78606  -0.77939  -0.76638  -0.76627  -0.75946
 Alpha  occ. eigenvalues --   -0.72420  -0.67040  -0.67021  -0.65223  -0.63622
 Alpha  occ. eigenvalues --   -0.63031  -0.60139  -0.60110  -0.55901  -0.51601
 Alpha  occ. eigenvalues --   -0.50597  -0.50590  -0.39522  -0.39389  -0.34988
 Alpha  occ. eigenvalues --   -0.34897
 Alpha virt. eigenvalues --    0.03488   0.04215   0.04220   0.05744   0.05800
 Alpha virt. eigenvalues --    0.05819   0.07622   0.07790   0.07948   0.09248
 Alpha virt. eigenvalues --    0.09322   0.09553   0.09572   0.10973   0.11031

 Mulliken charges:
               1
     1  C    0.193524
     2  C    0.313243
     3  C    0.229895
     4  F   -0.265178
     5  C    0.362568
     6  F   -0.277025
     7  C    0.243983
     8  F   -0.248635
     9  C    0.202391
    10  F   -0.277391
    11  F   -0.246324
    12  F   -0.261177
    13  C    0.760706
    14  H   -0.602538
    15  C    0.519438
    16  C    0.685547
    17  H   -0.555259
    18  C    0.494814
    19  C    0.448362
    20  H   -0.600779
    21  H   -0.531443
    22  C    0.474916
    23  H   -0.542066
    24  H   -0.521570
 Sum of Mulliken charges =  -0.00000

 Dipole moment (field-independent basis, Debye):
    X=              0.4592    Y=             -0.0006    Z=              0.0318  Tot=              0.4603

 Test job not archived.
 1\1\GINC-SE040\SP\RHF\Aug-CC-pVDZ\C12H6F6\OHZDE\09-Apr-2025\0\\#t hf a
 ug-cc-pvdz iop(5/13=1,5/36=2,99/5=2) pseudo=read geom=check guess=(rea
 d,tcheck) scf=(maxcycle=1)\\title\\0,1\C,0,-1.05492,1.38134,-0.46157\C
 ,0,-0.21985,0.74322,-1.36181\C,0,-1.8503,0.63831,0.39257\F,0,-1.07636,
 2.70339,-0.40254\C,0,-0.17808,-0.63935,-1.40641\F,0,0.545,1.45496,-2.1
 7284\C,0,-1.80849,-0.74408,0.34809\F,0,-2.63364,1.24984,1.26796\C,0,-0
 .97186,-1.38232,-0.55041\F,0,0.62544,-1.25007,-2.26137\F,0,-2.5528,-1.
 4566,1.18018\F,0,-0.91673,-2.70456,-0.57861\C,0,1.62413833,-0.57473325

 Normal termination of Gaussian 16 at Wed Apr  9 03:09:54 2025.
