 Gaussian 16, Revision C.01,

 ----------------------------------------------------------------------
 #t hf aug-cc-pvdz symm=none int=(grid=ultrafine) guess=(read,tcheck) s
 table=(opt,rrhf)
 ----------------------------------------------------------------------
 -----
 title
 -----
 Symbolic Z-matrix:
 Charge =  0 Multiplicity = 1

 SCF Done:  E(RHF) =  -254.951944740     A.U. after   12 cycles
 Normal termination of Gaussian 16 at Wed Apr  9 03:00:34 2025.
 Gaussian 16:  ES64L-G16RevC.01  3-Jul-2019

 ----------------------------------------------------------------------
 #t hf aug-cc-pvdz iop(5/13=1,5/36=2,99/5=2) pseudo=read geom=check gue
 ss=(read,tcheck) scf=(maxcycle=1)
 ----------------------------------------------------------------------
 -----
 title
 -----
 Structure from the checkpoint file:  "F-set_c2h4_c2h3f_100_dimer_mol1.chk"
 Charge =  0 Multiplicity = 1

                         Standard orientation:
 ---------------------------------------------------------------------
 Center     Atomic      Atomic             Coordinates (Angstroms)
 Number     Number       Type             X           Y           Z
 ---------------------------------------------------------------------
      1          6           0       -0.689962   -2.091148    0.660810
      2          6           0       -0.689962   -2.091148   -0.660810
      3          1           0       -0.043861   -1.429868    1.223580
      4          1           0       -1.330991   -2.752568    1.229250
      5          1           0       -0.043861   -1.429868   -1.223580
      6          1           0       -1.330991   -2.752568   -1.229250
      7          6           0       -0.689962    1.702932    0.000000
      8          6           0        0.620919    1.793912    0.000000
      9          1           0       -1.192202    0.746232    0.000000
     10          1           0       -1.276711    2.608202    0.000000
     11          1           0        1.193809    2.711182    0.000000
     12          9           0        1.413179    0.712442    0.000000
 ---------------------------------------------------------------------

 SCF Done:  E(RHF) =  -255.042352562     A.U. after    2 cycles

 The electronic state is 1-A'.
 Alpha  occ. eigenvalues --  -26.13576 -11.33856 -11.24347 -11.23699 -11.23521
 Alpha  occ. eigenvalues --   -1.67768  -1.05747  -1.02877  -0.86817  -0.78879
 Alpha  occ. eigenvalues --   -0.78107  -0.75061  -0.70887  -0.64537  -0.60834
 Alpha  occ. eigenvalues --   -0.59020  -0.56560  -0.50408  -0.39376  -0.37979
 Alpha virt. eigenvalues --    0.03587   0.04319   0.05208   0.05276   0.06740
 Alpha virt. eigenvalues --    0.07630   0.08085   0.09595   0.11653   0.11759
 Alpha virt. eigenvalues --    0.13392   0.13907   0.14712   0.15644   0.15802

 Mulliken charges:
               1
     1  C    0.549215
     2  C    0.549215
     3  H   -0.272716
     4  H   -0.276418
     5  H   -0.272716
     6  H   -0.276418
     7  C    0.463084
     8  C    0.643886
     9  H   -0.263973
    10  H   -0.263320
    11  H   -0.253817
    12  F   -0.326022
 Sum of Mulliken charges =  -0.00000

 Dipole moment (field-independent basis, Debye):
    X=             -1.0425    Y=              1.4583    Z=              0.0000  Tot=              1.7926

 Test job not archived.
 1\1\GINC-SE023\SP\RHF\Aug-CC-pVDZ\C4H7F1\OHZDE\09-Apr-2025\0\\#t hf au
 g-cc-pvdz iop(5/13=1,5/36=2,99/5=2) pseudo=read geom=check guess=(read
 ,tcheck) scf=(maxcycle=1)\\title\\0,1\C,0,-0.68996,-2.09115,0.66081\C,
 0,-0.68996,-2.09115,-0.66081\H,0,-0.04386,-1.42987,1.22358\H,0,-1.3309
 9,-2.75257,1.22925\H,0,-0.04386,-1.42987,-1.22358\H,0,-1.33099,-2.7525
 7,-1.22925\C,0,-0.68996,1.70293,0.\C,0,0.62092,1.79391,0.\H,0,-1.1922,
 0.74623,0.\H,0,-1.27671,2.6082,0.\H,0,1.19381,2.71118,0.\F,0,1.41318,0
 .71244,0.\\Version=ES64L-G16RevC.01\State=1-A'\HF=-255.0423526\RMSD=4.

 Normal termination of Gaussian 16 at Wed Apr  9 03:00:37 2025.
