 Gaussian 16, Revision C.01,

 ----------------------------------------------------------------------
 #t hf aug-cc-pvdz symm=none int=(grid=ultrafine) guess=(read,tcheck) s
 table=(opt,rrhf)
 ----------------------------------------------------------------------
 -----
 title
 -----
 Symbolic Z-matrix:
 Charge =  0 Multiplicity = 1

 SCF Done:  E(RHF) =  -1048.91524780     A.U. after   13 cycles
 Normal termination of Gaussian 16 at Wed Apr  9 03:02:32 2025.
 Gaussian 16:  ES64L-G16RevC.01  3-Jul-2019

 ----------------------------------------------------------------------
 #t hf aug-cc-pvdz iop(5/13=1,5/36=2,99/5=2) pseudo=read geom=check gue
 ss=(read,tcheck) scf=(maxcycle=1)
 ----------------------------------------------------------------------
 -----
 title
 -----
 Structure from the checkpoint file:  "F-set_cf3co2h_cf3co2h_100_dimer_mol1.chk"
 Charge =  0 Multiplicity = 1

                         Standard orientation:
 ---------------------------------------------------------------------
 Center     Atomic      Atomic             Coordinates (Angstroms)
 Number     Number       Type             X           Y           Z
 ---------------------------------------------------------------------
      1          6           0       -0.000780    1.879560   -0.000009
      2          8           0        1.204570    1.401400    0.000121
      3          8           0       -1.035350    1.256970    0.000041
      4          6           0        0.000780    3.430960   -0.000049
      5          1           0        1.184610    0.408900    0.000091
      6          9           0        0.629830    3.884620    1.081531
      7          9           0        0.631840    3.884650   -1.080449
      8          9           0       -1.234540    3.897420   -0.001199
      9          6           0        0.000780   -1.879560   -0.000009
     10          8           0       -1.204570   -1.401400    0.000121
     11          8           0        1.035350   -1.256970    0.000041
     12          6           0       -0.000780   -3.430960   -0.000049
     13          1           0       -1.184610   -0.408900    0.000091
     14          9           0        1.234540   -3.897420   -0.001199
     15          9           0       -0.629830   -3.884620    1.081531
     16          9           0       -0.631840   -3.884650   -1.080449
 ---------------------------------------------------------------------

 SCF Done:  E(RHF) =  -1049.28279483     A.U. after    2 cycles

 The electronic state is 1-A.
 Alpha  occ. eigenvalues --  -26.19728 -26.19728 -26.19719 -26.19719 -26.19537
 Alpha  occ. eigenvalues --  -26.19537 -20.66870 -20.66870 -20.63360 -20.63360
 Alpha  occ. eigenvalues --  -11.56488 -11.56488 -11.47151 -11.47150  -1.80125
 Alpha  occ. eigenvalues --   -1.80118  -1.72701  -1.72699  -1.72647  -1.72644
 Alpha  occ. eigenvalues --   -1.49879  -1.48770  -1.40276  -1.39040  -1.09603
 Alpha  occ. eigenvalues --   -1.08966  -0.98025  -0.96541  -0.92028  -0.91807
 Alpha  occ. eigenvalues --   -0.91800  -0.91775  -0.87247  -0.87076  -0.81088
 Alpha  occ. eigenvalues --   -0.80531  -0.80506  -0.80426  -0.80098  -0.76479
 Alpha  occ. eigenvalues --   -0.76152  -0.76141  -0.76000  -0.75984  -0.74834
 Alpha  occ. eigenvalues --   -0.74647  -0.74645  -0.73294  -0.70507  -0.69531
 Alpha  occ. eigenvalues --   -0.65170  -0.63527  -0.56690  -0.55813  -0.55571
 Alpha  occ. eigenvalues --   -0.53593
 Alpha virt. eigenvalues --    0.03964   0.05692   0.06051   0.07336   0.07453
 Alpha virt. eigenvalues --    0.08251   0.08459   0.09478   0.11009   0.11086
 Alpha virt. eigenvalues --    0.11633   0.11914   0.12179   0.15990   0.16079

 Mulliken charges:
               1
     1  C    0.212129
     2  O   -0.360959
     3  O   -0.497681
     4  C    1.160322
     5  H    0.287163
     6  F   -0.277677
     7  F   -0.277694
     8  F   -0.245604
     9  C    0.212129
    10  O   -0.360959
    11  O   -0.497681
    12  C    1.160322
    13  H    0.287163
    14  F   -0.245604
    15  F   -0.277677
    16  F   -0.277694
 Sum of Mulliken charges =  -0.00000

 Dipole moment (field-independent basis, Debye):
    X=             -0.0000    Y=              0.0000    Z=             -0.0005  Tot=              0.0005

 Test job not archived.
 1\1\GINC-SE228\SP\RHF\Aug-CC-pVDZ\C4H2F6O4\OHZDE\09-Apr-2025\0\\#t hf
 aug-cc-pvdz iop(5/13=1,5/36=2,99/5=2) pseudo=read geom=check guess=(re
 ad,tcheck) scf=(maxcycle=1)\\title\\0,1\C,0,-0.00078,1.87956,-0.00001\
 O,0,1.20457,1.4014,0.00012\O,0,-1.03535,1.25697,0.00004\C,0,0.00078,3.
 43096,-0.00005\H,0,1.18461,0.4089,0.00009\F,0,0.62983,3.88462,1.08153\
 F,0,0.63184,3.88465,-1.08045\F,0,-1.23454,3.89742,-0.0012\C,0,0.00078,
 -1.87956,-0.00001\O,0,-1.20457,-1.4014,0.00012\O,0,1.03535,-1.25697,0.
 00004\C,0,-0.00078,-3.43096,-0.00005\H,0,-1.18461,-0.4089,0.00009\F,0,

 Normal termination of Gaussian 16 at Wed Apr  9 03:02:38 2025.
