 Gaussian 16, Revision C.01,

 ----------------------------------------------------------------------
 #t hf aug-cc-pvdz symm=none int=(grid=ultrafine) guess=(read,tcheck) s
 table=(opt,rrhf)
 ----------------------------------------------------------------------
 -----
 title
 -----
 Symbolic Z-matrix:
 Charge =  0 Multiplicity = 1

 SCF Done:  E(RHF) =  -1054.58947039     A.U. after   14 cycles

 1\1\GINC-SE227\Stability\RHF\Aug-CC-pVDZ\C12H6F6\OHZDE\09-Apr-2025\0\\
 #t hf aug-cc-pvdz symm=none int=(grid=ultrafine) guess=(read,tcheck) s
 table=(opt,rrhf)\\title\\0,1\C,0,-1.05492,1.38134,-0.46157\C,0,-0.2198
 5,0.74322,-1.36181\C,0,-1.8503,0.63831,0.39257\F,0,-1.07636,2.70339,-0
 .40254\C,0,-0.17808,-0.63935,-1.40641\F,0,0.545,1.45496,-2.17284\C,0,-
 1.80849,-0.74408,0.34809\F,0,-2.63364,1.24984,1.26796\C,0,-0.97186,-1.
 38232,-0.55041\F,0,0.62544,-1.25007,-2.26137\F,0,-2.5528,-1.4566,1.180
 18\F,0,-0.91673,-2.70456,-0.57861\C,0,1.30779,-0.57489,2.00283\H,0,0.6

 Normal termination of Gaussian 16 at Wed Apr  9 03:09:02 2025.
 Gaussian 16:  ES64L-G16RevC.01  3-Jul-2019

 ----------------------------------------------------------------------
 #t hf aug-cc-pvdz iop(5/13=1,5/36=2,99/5=2) pseudo=read geom=check gue
 ss=(read,tcheck) scf=(maxcycle=1)
 ----------------------------------------------------------------------
 -----
 title
 -----
 Structure from the checkpoint file:  "F-set_c6h6_c6f6_100_dimer_mol1.chk"
 Charge =  0 Multiplicity = 1

                         Standard orientation:
 ---------------------------------------------------------------------
 Center     Atomic      Atomic             Coordinates (Angstroms)
 Number     Number       Type             X           Y           Z
 ---------------------------------------------------------------------
      1          6           0       -1.054921   -1.381339    0.461569
      2          6           0       -0.219850   -0.743219    1.361809
      3          6           0       -1.850300   -0.638308   -0.392571
      4          9           0       -1.076362   -2.703389    0.402539
      5          6           0       -0.178079    0.639351    1.406409
      6          9           0        0.544999   -1.454960    2.172839
      7          6           0       -1.808489    0.744082   -0.348091
      8          9           0       -2.633641   -1.249838   -1.267961
      9          6           0       -0.971859    1.382321    0.550409
     10          9           0        0.625441    1.250070    2.261369
     11          9           0       -2.552799    1.456602   -1.180181
     12          9           0       -0.916728    2.704561    0.578609
     13          6           0        1.307791    0.574889   -2.002831
     14          1           0        0.644571    1.024600   -2.729621
     15          6           0        2.073071    1.379819   -1.171021
     16          6           0        1.392500   -0.805311   -1.902821
     17          1           0        2.004982    2.456819   -1.248121
     18          6           0        2.921761    0.803528   -0.238161
     19          6           0        2.241929   -1.381721   -0.969951
     20          1           0        0.795319   -1.432680   -2.550611
     21          1           0        3.514081    1.430168    0.414119
     22          6           0        3.005660   -0.577572   -0.137341
     23          1           0        2.304369   -2.458141   -0.888781
     24          1           0        3.663180   -1.027302    0.593579
 ---------------------------------------------------------------------

 SCF Done:  E(RHF) =  -1054.94273700     A.U. after    2 cycles

 The electronic state is 1-A.
 Alpha  occ. eigenvalues --  -26.18183 -26.18172 -26.18154 -26.18146 -26.18026
 Alpha  occ. eigenvalues --  -26.18013 -11.38934 -11.38886 -11.38883 -11.38763
 Alpha  occ. eigenvalues --  -11.38759 -11.38706 -11.25329 -11.25242 -11.25200
 Alpha  occ. eigenvalues --  -11.25133 -11.25085 -11.25012  -1.73549  -1.73024
 Alpha  occ. eigenvalues --   -1.72983  -1.72057  -1.72034  -1.71583  -1.22820
 Alpha  occ. eigenvalues --   -1.15575  -1.09718  -1.09706  -1.02186  -1.02165
 Alpha  occ. eigenvalues --   -0.97037  -0.97037  -0.89364  -0.88571  -0.88328
 Alpha  occ. eigenvalues --   -0.83680  -0.83673  -0.82791  -0.82771  -0.82342
 Alpha  occ. eigenvalues --   -0.81786  -0.81776  -0.80486  -0.80449  -0.78544
 Alpha  occ. eigenvalues --   -0.78522  -0.77863  -0.76554  -0.76533  -0.75863
 Alpha  occ. eigenvalues --   -0.72550  -0.66916  -0.66895  -0.65353  -0.63745
 Alpha  occ. eigenvalues --   -0.62901  -0.60265  -0.60231  -0.56128  -0.51420
 Alpha  occ. eigenvalues --   -0.50717  -0.50707  -0.39685  -0.39360  -0.35030
 Alpha  occ. eigenvalues --   -0.34784
 Alpha virt. eigenvalues --    0.03519   0.04243   0.04251   0.05812   0.05821
 Alpha virt. eigenvalues --    0.05879   0.07637   0.07823   0.07953   0.09095
 Alpha virt. eigenvalues --    0.09192   0.09677   0.09708   0.10794   0.11187

 Mulliken charges:
               1
     1  C    0.189243
     2  C    0.290788
     3  C    0.245353
     4  F   -0.271557
     5  C    0.357554
     6  F   -0.288663
     7  C    0.286831
     8  F   -0.252319
     9  C    0.201613
    10  F   -0.288588
    11  F   -0.248304
    12  F   -0.269246
    13  C    0.738245
    14  H   -0.615810
    15  C    0.571602
    16  C    0.673486
    17  H   -0.562976
    18  C    0.530628
    19  C    0.455275
    20  H   -0.617617
    21  H   -0.545236
    22  C    0.493345
    23  H   -0.546032
    24  H   -0.527615
 Sum of Mulliken charges =  -0.00000

 Dipole moment (field-independent basis, Debye):
    X=              0.5344    Y=              0.0003    Z=             -0.0427  Tot=              0.5361

 Test job not archived.
 1\1\GINC-SE227\SP\RHF\Aug-CC-pVDZ\C12H6F6\OHZDE\09-Apr-2025\0\\#t hf a
 ug-cc-pvdz iop(5/13=1,5/36=2,99/5=2) pseudo=read geom=check guess=(rea
 d,tcheck) scf=(maxcycle=1)\\title\\0,1\C,0,-1.05492,1.38134,-0.46157\C
 ,0,-0.21985,0.74322,-1.36181\C,0,-1.8503,0.63831,0.39257\F,0,-1.07636,
 2.70339,-0.40254\C,0,-0.17808,-0.63935,-1.40641\F,0,0.545,1.45496,-2.1
 7284\C,0,-1.80849,-0.74408,0.34809\F,0,-2.63364,1.24984,1.26796\C,0,-0
 .97186,-1.38232,-0.55041\F,0,0.62544,-1.25007,-2.26137\F,0,-2.5528,-1.
 4566,1.18018\F,0,-0.91673,-2.70456,-0.57861\C,0,1.30779,-0.57489,2.002

 Normal termination of Gaussian 16 at Wed Apr  9 03:09:34 2025.
