 Gaussian 16, Revision C.01,

 ----------------------------------------------------------------------
 #t hf aug-cc-pvdz symm=none int=(grid=ultrafine) guess=(read,tcheck) s
 table=(opt,rrhf)
 ----------------------------------------------------------------------
 -----
 title
 -----
 Symbolic Z-matrix:
 Charge =  0 Multiplicity = 1

 SCF Done:  E(RHF) =  -369.784175875     A.U. after   13 cycles
 Normal termination of Gaussian 16 at Wed Apr  9 03:01:12 2025.
 Gaussian 16:  ES64L-G16RevC.01  3-Jul-2019

 ----------------------------------------------------------------------
 #t hf aug-cc-pvdz iop(5/13=1,5/36=2,99/5=2) pseudo=read geom=check gue
 ss=(read,tcheck) scf=(maxcycle=1)
 ----------------------------------------------------------------------
 -----
 title
 -----
 Structure from the checkpoint file:  "F-set_c6h6_ch3f_095_dimer_mol1.chk"
 Charge =  0 Multiplicity = 1

                         Standard orientation:
 ---------------------------------------------------------------------
 Center     Atomic      Atomic             Coordinates (Angstroms)
 Number     Number       Type             X           Y           Z
 ---------------------------------------------------------------------
      1          6           0        1.226428   -0.673160   -1.201307
      2          6           0        1.070340    0.704873   -1.199783
      3          6           0        1.301346   -1.363767   -0.000768
      4          1           0        1.289049   -1.209290   -2.138266
      5          6           0        0.989150    1.392389    0.002169
      6          1           0        1.012378    1.243436   -2.135815
      7          6           0        1.220336   -0.676412    1.201244
      8          1           0        1.422359   -2.438302   -0.001906
      9          6           0        1.064268    0.701621    1.202648
     10          1           0        0.869198    2.467270    0.003327
     11          1           0        1.278197   -1.215044    2.137076
     12          1           0        1.001636    1.237702    2.139827
     13          6           0       -2.112845    0.260083    0.000599
     14          1           0       -2.037357    0.870919    0.899385
     15          1           0       -1.316667   -0.482642   -0.009426
     16          1           0       -2.040916    0.891249   -0.884322
     17          9           0       -3.336890   -0.382118   -0.004299
 ---------------------------------------------------------------------

 SCF Done:  E(RHF) =  -369.904931925     A.U. after    2 cycles

 The electronic state is 1-A.
 Alpha  occ. eigenvalues --  -26.08968 -11.30078 -11.25327 -11.25263 -11.25258
 Alpha  occ. eigenvalues --  -11.25154 -11.25127 -11.25079  -1.62314  -1.15602
 Alpha  occ. eigenvalues --   -1.02186  -1.02169  -0.95524  -0.83668  -0.83667
 Alpha  occ. eigenvalues --   -0.72821  -0.72773  -0.72532  -0.70364  -0.65365
 Alpha  occ. eigenvalues --   -0.63756  -0.60272  -0.60269  -0.54363  -0.53610
 Alpha  occ. eigenvalues --   -0.50877  -0.50738  -0.50732  -0.35223  -0.35154
 Alpha virt. eigenvalues --    0.03106   0.03861   0.03888   0.05485   0.05490
 Alpha virt. eigenvalues --    0.05744   0.07402   0.07591   0.08209   0.09673
 Alpha virt. eigenvalues --    0.09853   0.11472   0.13492   0.13815   0.13897

 Mulliken charges:
               1
     1  C    0.509511
     2  C    0.387265
     3  C    0.406910
     4  H   -0.452899
     5  C    0.575098
     6  H   -0.480329
     7  C    0.506244
     8  H   -0.457616
     9  C    0.390745
    10  H   -0.492476
    11  H   -0.452942
    12  H   -0.481334
    13  C    0.897582
    14  H   -0.114880
    15  H   -0.221412
    16  H   -0.114827
    17  F   -0.404638
 Sum of Mulliken charges =  -0.00000

 Dipole moment (field-independent basis, Debye):
    X=              2.4063    Y=              0.9546    Z=              0.0077  Tot=              2.5887

 Test job not archived.
 1\1\GINC-SE070\SP\RHF\Aug-CC-pVDZ\C7H9F1\OHZDE\09-Apr-2025\0\\#t hf au
 g-cc-pvdz iop(5/13=1,5/36=2,99/5=2) pseudo=read geom=check guess=(read
 ,tcheck) scf=(maxcycle=1)\\title\\0,1\C,0,1.28077,-0.67224,-1.2016\C,0
 ,1.12048,0.70531,-1.19956\C,0,1.35784,-1.36306,-0.00132\H,0,1.34499,-1
 .20783,-2.13876\C,0,1.03724,1.39213,0.00265\H,0,1.06084,1.24404,-2.135
 39\C,0,1.27478,-0.6764,1.20095\H,0,1.48213,-2.43722,-0.00286\C,0,1.114
 51,0.70115,1.20287\H,0,0.91401,2.46664,0.00421\H,0,1.33432,-1.2152,2.1
 3658\H,0,1.05028,1.23669,2.14025\C,0,-2.06128777,0.25036934,0.00077592

 Normal termination of Gaussian 16 at Wed Apr  9 03:01:19 2025.
