 Gaussian 16, Revision C.01,

 ----------------------------------------------------------------------
 #t hf aug-cc-pvdz symm=none int=(grid=ultrafine) guess=(read,tcheck) s
 table=(opt,rrhf)
 ----------------------------------------------------------------------
 -----
 title
 -----
 Symbolic Z-matrix:
 Charge =  0 Multiplicity = 1

 SCF Done:  E(RHF) =  -668.446504902     A.U. after   15 cycles

 1\1\GINC-SE131\Stability\RHF\Aug-CC-pVDZ\C7H10S1\OHZDE\09-Apr-2025\0\\
 #t hf aug-cc-pvdz symm=none int=(grid=ultrafine) guess=(read,tcheck) s
 table=(opt,rrhf)\\title\\0,1\C,0,-0.60872686,0.62597307,0.13364188\C,0
 ,0.76431894,0.6091095,0.01115003\C,0,1.28607737,1.93362395,-0.14048691
 \C,0,0.31597288,2.90565568,-0.13033053\S,0,-1.25309607,2.22273811,0.06
 560042\H,0,-1.27528286,-0.22326179,0.25664615\H,0,2.34652617,2.1554663
 4,-0.25996784\H,0,0.4359456,3.98010155,-0.23264096\C,0,1.60972622,-0.6
 3734995,0.05554091\H,0,2.29954138,-0.64406034,-0.80646677\H,0,0.963142

 Normal termination of Gaussian 16 at Wed Apr  9 03:03:03 2025.
 Gaussian 16:  ES64L-G16RevC.01  3-Jul-2019

 ----------------------------------------------------------------------
 #t hf aug-cc-pvdz iop(5/13=1,5/36=2,99/5=2) pseudo=read geom=check gue
 ss=(read,tcheck) scf=(maxcycle=1)
 ----------------------------------------------------------------------
 -----
 title
 -----
 Structure from the checkpoint file:  "FH51_28_mol3.chk"
 Charge =  0 Multiplicity = 1

                         Standard orientation:
 ---------------------------------------------------------------------
 Center     Atomic      Atomic             Coordinates (Angstroms)
 Number     Number       Type             X           Y           Z
 ---------------------------------------------------------------------
      1          6           0        0.936112   -1.073072    0.118456
      2          6           0        0.038348   -0.051237    0.342991
      3          6           0        0.672108    1.227582    0.231036
      4          6           0        2.009828    1.148090   -0.069360
      5         16           0        2.521294   -0.489510   -0.222360
      6          1           0        0.744771   -2.142430    0.140591
      7          1           0        0.152146    2.174539    0.375790
      8          1           0        2.720943    1.957915   -0.202758
      9          6           0       -1.424661   -0.251277    0.642883
     10          1           0       -1.701288    0.340447    1.532988
     11          1           0       -1.602074   -1.305627    0.908811
     12          6           0       -2.354425    0.139601   -0.521718
     13          1           0       -2.175585    1.193311   -0.790697
     14          1           0       -2.079706   -0.451058   -1.410595
     15          6           0       -3.833912   -0.067558   -0.191758
     16          1           0       -4.137313    0.533145    0.679472
     17          1           0       -4.476989    0.220594   -1.035372
     18          1           0       -4.045999   -1.121436    0.044334
 ---------------------------------------------------------------------

 SCF Done:  E(RHF) =  -668.550856905     A.U. after    2 cycles

 The electronic state is 1-A.
 Alpha  occ. eigenvalues --  -93.55925 -11.27200 -11.26414 -11.25088 -11.24570
 Alpha  occ. eigenvalues --  -11.24259 -11.23605 -11.22903  -8.85758  -6.19870
 Alpha  occ. eigenvalues --   -6.19754  -6.19396  -1.15873  -1.06266  -0.98931
 Alpha  occ. eigenvalues --   -0.97326  -0.90465  -0.81018  -0.76737  -0.73203
 Alpha  occ. eigenvalues --   -0.67492  -0.63307  -0.58636  -0.57151  -0.56480
 Alpha  occ. eigenvalues --   -0.54200  -0.52050  -0.51341  -0.49608  -0.48206
 Alpha  occ. eigenvalues --   -0.47395  -0.46051  -0.33781  -0.32266
 Alpha virt. eigenvalues --    0.03456   0.03986   0.04333   0.04825   0.05524
 Alpha virt. eigenvalues --    0.06502   0.06838   0.07311   0.07758   0.09138
 Alpha virt. eigenvalues --    0.10462   0.10964   0.11375   0.12151   0.12893

 Mulliken charges:
               1
     1  C    0.110416
     2  C    0.342811
     3  C    0.474764
     4  C   -0.109630
     5  S    0.734964
     6  H   -0.482040
     7  H   -0.512561
     8  H   -0.337482
     9  C    0.035616
    10  H   -0.080208
    11  H   -0.172304
    12  C    0.071182
    13  H   -0.137189
    14  H   -0.117301
    15  C    0.333406
    16  H   -0.047465
    17  H   -0.051770
    18  H   -0.055210
 Sum of Mulliken charges =  -0.00000

 Dipole moment (field-independent basis, Debye):
    X=             -1.1314    Y=              0.3852    Z=              0.1239  Tot=              1.2015

 Test job not archived.
 1\1\GINC-SE131\SP\RHF\Aug-CC-pVDZ\C7H10S1\OHZDE\09-Apr-2025\0\\#t hf a
 ug-cc-pvdz iop(5/13=1,5/36=2,99/5=2) pseudo=read geom=check guess=(rea
 d,tcheck) scf=(maxcycle=1)\\title\\0,1\C,0,-0.60872686,0.62597307,0.13
 364188\C,0,0.76431894,0.6091095,0.01115003\C,0,1.28607737,1.93362395,-
 0.14048691\C,0,0.31597288,2.90565568,-0.13033053\S,0,-1.25309607,2.222
 73811,0.06560042\H,0,-1.27528286,-0.22326179,0.25664615\H,0,2.34652617
 ,2.15546634,-0.25996784\H,0,0.4359456,3.98010155,-0.23264096\C,0,1.609
 72622,-0.63734995,0.05554091\H,0,2.29954138,-0.64406034,-0.80646677\H,

 Normal termination of Gaussian 16 at Wed Apr  9 03:03:11 2025.
