 Gaussian 16, Revision C.01,

 ----------------------------------------------------------------------
 #t hf aug-cc-pvdz symm=none int=(grid=ultrafine) guess=(read,tcheck) s
 table=(opt,rrhf)
 ----------------------------------------------------------------------
 -----
 title
 -----
 Symbolic Z-matrix:
 Charge =  0 Multiplicity = 1

 SCF Done:  E(RHF) =  -629.660977238     A.U. after   14 cycles
 Normal termination of Gaussian 16 at Wed Apr  9 03:02:31 2025.
 Gaussian 16:  ES64L-G16RevC.01  3-Jul-2019

 ----------------------------------------------------------------------
 #t hf aug-cc-pvdz iop(5/13=1,5/36=2,99/5=2) pseudo=read geom=check gue
 ss=(read,tcheck) scf=(maxcycle=1)
 ----------------------------------------------------------------------
 -----
 title
 -----
 Structure from the checkpoint file:  "FH51_10_mol3.chk"
 Charge =  0 Multiplicity = 1

                         Standard orientation:
 ---------------------------------------------------------------------
 Center     Atomic      Atomic             Coordinates (Angstroms)
 Number     Number       Type             X           Y           Z
 ---------------------------------------------------------------------
      1          6           0        1.373240   -0.796266    0.221679
      2          1           0        1.190556   -0.930870    1.298639
      3          1           0        1.286817   -1.770491   -0.284852
      4          6           0        2.714868   -0.123234   -0.044481
      5          1           0        2.743130    0.873060    0.416651
      6          1           0        3.532792   -0.721319    0.380992
      7          1           0        2.901582   -0.009928   -1.121760
      8          6           0       -1.369654   -0.805936    0.210472
      9          1           0       -1.183860   -0.958062    1.284519
     10          1           0       -1.286924   -1.771622   -0.312252
     11          6           0       -2.710146   -0.124962   -0.040602
     12          1           0       -2.900218    0.005526   -1.115477
     13          1           0       -3.528522   -0.726618    0.378927
     14          1           0       -2.732777    0.864290    0.435616
     15         16           0        0.000420    0.256964   -0.417829
     16          8           0       -0.009892    1.517125    0.405233
 ---------------------------------------------------------------------

 SCF Done:  E(RHF) =  -629.775712258     A.U. after    2 cycles

 The electronic state is 1-A.
 Alpha  occ. eigenvalues --  -93.64668 -20.51180 -11.27851 -11.27829 -11.24393
 Alpha  occ. eigenvalues --  -11.24356  -8.93105  -6.27377  -6.27212  -6.26898
 Alpha  occ. eigenvalues --   -1.29035  -1.07173  -1.03883  -0.92784  -0.84773
 Alpha  occ. eigenvalues --   -0.79065  -0.65753  -0.64590  -0.62805  -0.59224
 Alpha  occ. eigenvalues --   -0.58100  -0.54737  -0.53260  -0.53117  -0.51777
 Alpha  occ. eigenvalues --   -0.51036  -0.50607  -0.41740  -0.36861
 Alpha virt. eigenvalues --    0.03050   0.03890   0.04623   0.04948   0.06117
 Alpha virt. eigenvalues --    0.06580   0.06700   0.07740   0.08804   0.09539
 Alpha virt. eigenvalues --    0.10691   0.11881   0.13415   0.13438   0.14582

 Mulliken charges:
               1
     1  C   -0.152431
     2  H   -0.097147
     3  H   -0.109085
     4  C    0.400838
     5  H   -0.010294
     6  H   -0.020164
     7  H   -0.049501
     8  C   -0.151044
     9  H   -0.093947
    10  H   -0.113002
    11  C    0.400189
    12  H   -0.050397
    13  H   -0.021002
    14  H   -0.008880
    15  S    1.182478
    16  O   -1.106612
 Sum of Mulliken charges =  -0.00000

 Dipole moment (field-independent basis, Debye):
    X=              0.0287    Y=             -4.5563    Z=             -0.5814  Tot=              4.5933

 Test job not archived.
 1\1\GINC-SE129\SP\RHF\Aug-CC-pVDZ\C4H10O1S1\OHZDE\09-Apr-2025\0\\#t hf
  aug-cc-pvdz iop(5/13=1,5/36=2,99/5=2) pseudo=read geom=check guess=(r
 ead,tcheck) scf=(maxcycle=1)\\title\\0,1\C,0,0.87780338,0.42478559,0.0
 3193616\H,0,1.08605893,1.03733057,-0.85843079\H,0,1.16859595,0.9861781
 5,0.93384343\C,0,1.55908788,-0.93664584,-0.04637343\H,0,1.19733591,-1.
 49773979,-0.91835533\H,0,2.64673878,-0.81388699,-0.14475442\H,0,1.3649
 1039,-1.53623726,0.85419022\C,0,-1.36135175,2.00896883,0.04737956\H,0,
 -0.84386836,2.42062089,-0.8323886\H,0,-0.94105295,2.4604961,0.95957761

 Normal termination of Gaussian 16 at Wed Apr  9 03:02:36 2025.
