 Gaussian 16, Revision C.01,

 ----------------------------------------------------------------------
 #t hf aug-cc-pvdz symm=none int=(grid=ultrafine) guess=(read,tcheck) s
 table=(opt,rrhf)
 ----------------------------------------------------------------------
 -----
 title
 -----
 Symbolic Z-matrix:
 Charge =  0 Multiplicity = 1

 SCF Done:  E(RHF) =  -779.391596826     A.U. after   13 cycles
 Normal termination of Gaussian 16 at Wed Apr  9 03:03:27 2025.
 Gaussian 16:  ES64L-G16RevC.01  3-Jul-2019

 ----------------------------------------------------------------------
 #t hf aug-cc-pvdz iop(5/13=1,5/36=2,99/5=2) pseudo=read geom=check gue
 ss=(read,tcheck) scf=(maxcycle=1)
 ----------------------------------------------------------------------
 -----
 title
 -----
 Structure from the checkpoint file:  "FH51_4_mol3.chk"
 Charge =  0 Multiplicity = 1

                         Standard orientation:
 ---------------------------------------------------------------------
 Center     Atomic      Atomic             Coordinates (Angstroms)
 Number     Number       Type             X           Y           Z
 ---------------------------------------------------------------------
      1          6           0        3.866330   -0.375305    0.043963
      2          1           0        3.854507   -1.137872   -0.748927
      3          1           0        3.860525   -0.899892    1.010857
      4          1           0        4.816088    0.171686   -0.033913
      5          6           0        2.670412    0.571552   -0.080184
      6          1           0        2.727873    1.345115    0.703691
      7          1           0        2.720154    1.106239   -1.043302
      8          6           0        1.324079   -0.158589    0.028202
      9          1           0        1.256055   -0.672983    0.998973
     10          1           0        1.263843   -0.933665   -0.752442
     11          6           0        0.145214    0.800589   -0.117746
     12          1           0        0.106429    1.280105   -1.106170
     13          1           0        0.163232    1.594195    0.645121
     14          8           0       -2.478206    1.046207   -0.144273
     15          8           0       -1.518404   -0.999229   -1.156329
     16          1           0       -1.457705   -1.897915   -0.774961
     17         16           0       -1.471504    0.043537    0.106977
     18          8           0       -1.478782   -0.757115    1.318605
 ---------------------------------------------------------------------

 SCF Done:  E(RHF) =  -779.591932918     A.U. after    2 cycles

 The electronic state is 1-A.
 Alpha  occ. eigenvalues --  -93.82821 -20.64666 -20.57879 -20.57340 -11.30119
 Alpha  occ. eigenvalues --  -11.26605 -11.25713 -11.24369  -9.08945  -6.43582
 Alpha  occ. eigenvalues --   -6.43522  -6.43254  -1.46763  -1.35278  -1.32423
 Alpha  occ. eigenvalues --   -1.10707  -1.03221  -0.93094  -0.85758  -0.82266
 Alpha  occ. eigenvalues --   -0.75826  -0.71537  -0.70313  -0.68129  -0.65340
 Alpha  occ. eigenvalues --   -0.61782  -0.61587  -0.58722  -0.56812  -0.54579
 Alpha  occ. eigenvalues --   -0.54161  -0.53331  -0.52003  -0.50778  -0.50477
 Alpha  occ. eigenvalues --   -0.49342  -0.47317
 Alpha virt. eigenvalues --    0.02810   0.03661   0.04189   0.04461   0.05839
 Alpha virt. eigenvalues --    0.06392   0.07116   0.07620   0.08911   0.09509
 Alpha virt. eigenvalues --    0.10198   0.11529   0.12750   0.13120   0.14267

 Mulliken charges:
               1
     1  C    0.472413
     2  H   -0.063641
     3  H   -0.060178
     4  H   -0.042345
     5  C    0.203292
     6  H   -0.128352
     7  H   -0.122980
     8  C    0.114364
     9  H   -0.103781
    10  H   -0.126175
    11  C   -0.356927
    12  H   -0.063346
    13  H    0.015230
    14  O   -0.979145
    15  O   -0.791640
    16  H    0.209855
    17  S    2.859072
    18  O   -1.035716
 Sum of Mulliken charges =  -0.00000

 Dipole moment (field-independent basis, Debye):
    X=              4.8798    Y=             -0.8779    Z=             -1.2465  Tot=              5.1125

 Test job not archived.
 1\1\GINC-SE097\SP\RHF\Aug-CC-pVDZ\C4H10O3S1\OHZDE\09-Apr-2025\0\\#t hf
  aug-cc-pvdz iop(5/13=1,5/36=2,99/5=2) pseudo=read geom=check guess=(r
 ead,tcheck) scf=(maxcycle=1)\\title\\0,1\C,0,-5.73872102,-0.06181559,0
 .00503313\H,0,-5.41512052,-1.11326141,-0.00319632\H,0,-5.38568145,0.40
 274179,-0.92752136\H,0,-6.83732357,-0.05114033,-0.01119703\C,0,-5.1960
 2778,0.67525451,1.23156534\H,0,-5.56520423,1.71442258,1.23224176\H,0,-
 5.59160946,0.20838859,2.14890481\C,0,-3.66159286,0.68413755,1.28540318
 \H,0,-3.25979935,1.17306727,0.38477264\H,0,-3.28898574,-0.35265267,1.2

 Normal termination of Gaussian 16 at Wed Apr  9 03:03:35 2025.
