 Gaussian 16, Revision C.01,

 ----------------------------------------------------------------------
 #t hf aug-cc-pvdz symm=none int=(grid=ultrafine) guess=(read,tcheck) s
 table=(opt,rrhf)
 ----------------------------------------------------------------------
 -----
 title
 -----
 Symbolic Z-matrix:
 Charge =  0 Multiplicity = 1

 SCF Done:  E(RHF) =  -704.530590458     A.U. after   14 cycles
 Normal termination of Gaussian 16 at Wed Apr  9 03:02:59 2025.
 Gaussian 16:  ES64L-G16RevC.01  3-Jul-2019

 ----------------------------------------------------------------------
 #t hf aug-cc-pvdz iop(5/13=1,5/36=2,99/5=2) pseudo=read geom=check gue
 ss=(read,tcheck) scf=(maxcycle=1)
 ----------------------------------------------------------------------
 -----
 title
 -----
 Structure from the checkpoint file:  "FH51_4_mol1.chk"
 Charge =  0 Multiplicity = 1

                         Standard orientation:
 ---------------------------------------------------------------------
 Center     Atomic      Atomic             Coordinates (Angstroms)
 Number     Number       Type             X           Y           Z
 ---------------------------------------------------------------------
      1          6           0        3.709637    0.273230   -0.178168
      2          1           0        3.692264    1.328169    0.133807
      3          1           0        3.771896    0.252797   -1.276593
      4          1           0        4.631539   -0.176219    0.216595
      5          6           0        2.469381   -0.472115    0.320345
      6          1           0        2.530446   -1.532968    0.024381
      7          1           0        2.449936   -0.463452    1.422797
      8          6           0        1.160155    0.128625   -0.211244
      9          1           0        1.176805    0.114486   -1.314611
     10          1           0        1.088400    1.185643    0.087744
     11          6           0       -0.069636   -0.621295    0.292990
     12          1           0       -0.208495   -0.545550    1.382268
     13          1           0       -0.045461   -1.687284    0.018659
     14         16           0       -1.648593   -0.037768   -0.427694
     15          8           0       -2.710214   -0.887105    0.158898
     16          8           0       -1.554131    1.419673    0.437534
     17          1           0       -2.212301    2.017450    0.033075
 ---------------------------------------------------------------------

 SCF Done:  E(RHF) =  -704.674477819     A.U. after    2 cycles

 The electronic state is 1-A.
 Alpha  occ. eigenvalues --  -93.70953 -20.62076 -20.54228 -11.27964 -11.25460
 Alpha  occ. eigenvalues --  -11.24820 -11.23737  -8.98639  -6.32928  -6.32713
 Alpha  occ. eigenvalues --   -6.32370  -1.37507  -1.29890  -1.09190  -1.01878
 Alpha  occ. eigenvalues --   -0.92131  -0.83781  -0.81058  -0.72802  -0.66164
 Alpha  occ. eigenvalues --   -0.64908  -0.63572  -0.60409  -0.59570  -0.59000
 Alpha  occ. eigenvalues --   -0.54641  -0.53423  -0.52403  -0.50598  -0.49410
 Alpha  occ. eigenvalues --   -0.48407  -0.46543  -0.39651
 Alpha virt. eigenvalues --    0.03200   0.03835   0.04455   0.04603   0.05712
 Alpha virt. eigenvalues --    0.06666   0.07065   0.07381   0.09009   0.09757
 Alpha virt. eigenvalues --    0.10217   0.10446   0.11953   0.12502   0.13799

 Mulliken charges:
               1
     1  C    0.410008
     2  H   -0.067076
     3  H   -0.057819
     4  H   -0.043986
     5  C    0.185859
     6  H   -0.136248
     7  H   -0.114516
     8  C    0.122626
     9  H   -0.115759
    10  H   -0.087832
    11  C   -0.116645
    12  H   -0.058411
    13  H   -0.049526
    14  S    1.668166
    15  O   -0.989936
    16  O   -0.747001
    17  H    0.198097
 Sum of Mulliken charges =  -0.00000

 Dipole moment (field-independent basis, Debye):
    X=              3.3523    Y=              1.6533    Z=             -1.3808  Tot=              3.9848

 Test job not archived.
 1\1\GINC-SE058\SP\RHF\Aug-CC-pVDZ\C4H10O2S1\OHZDE\09-Apr-2025\0\\#t hf
  aug-cc-pvdz iop(5/13=1,5/36=2,99/5=2) pseudo=read geom=check guess=(r
 ead,tcheck) scf=(maxcycle=1)\\title\\0,1\C,0,-5.79093711,-0.03263023,-
 0.00381635\H,0,-5.44448242,-1.07405809,-0.08077654\H,0,-5.47977405,0.4
 8945911,-0.92111218\H,0,-6.8896491,-0.04715549,0.01534334\C,0,-5.22157
 261,0.64969102,1.24219765\H,0,-5.61280391,1.67860775,1.31292339\H,0,-5
 .57513839,0.12593789,2.14581721\C,0,-3.68665748,0.68856024,1.25067745\
 H,0,-3.33269255,1.21804586,0.34942778\H,0,-3.28901443,-0.33607789,1.18

 Normal termination of Gaussian 16 at Wed Apr  9 03:03:06 2025.
