 Gaussian 16, Revision C.01,

 ----------------------------------------------------------------------
 #t hf aug-cc-pvdz symm=none int=(grid=ultrafine) guess=(read,tcheck) s
 table=(opt,rrhf)
 ----------------------------------------------------------------------
 -----
 title
 -----
 Symbolic Z-matrix:
 Charge =  0 Multiplicity = 1

 SCF Done:  E(RHF) =  -515.808506819     A.U. after   12 cycles
 Normal termination of Gaussian 16 at Wed Apr  9 03:02:04 2025.
 Gaussian 16:  ES64L-G16RevC.01  3-Jul-2019

 ----------------------------------------------------------------------
 #t hf aug-cc-pvdz iop(5/13=1,5/36=2,99/5=2) pseudo=read geom=check gue
 ss=(read,tcheck) scf=(maxcycle=1)
 ----------------------------------------------------------------------
 -----
 title
 -----
 Structure from the checkpoint file:  "FH51_38_mol3.chk"
 Charge =  0 Multiplicity = 1

                         Standard orientation:
 ---------------------------------------------------------------------
 Center     Atomic      Atomic             Coordinates (Angstroms)
 Number     Number       Type             X           Y           Z
 ---------------------------------------------------------------------
      1          6           0        2.417695    0.078530    0.000010
      2          1           0        2.595804    0.701662    0.889047
      3          1           0        2.595797    0.703848   -0.887554
      4          1           0        3.169410   -0.723076   -0.000828
      5          6           0        0.999223   -0.498935   -0.000709
      6          1           0        0.857123   -1.142352   -0.883865
      7          1           0        0.857232   -1.144328    0.880971
      8          6           0       -0.068214    0.595584    0.000695
      9          1           0        0.032939    1.229847   -0.891255
     10          1           0        0.033348    1.228544    0.893677
     11         16           0       -1.736596   -0.179735    0.000409
     12          1           0       -2.448351    0.970548   -0.006719
 ---------------------------------------------------------------------

 SCF Done:  E(RHF) =  -515.867006343     A.U. after    2 cycles

 The electronic state is 1-A.
 Alpha  occ. eigenvalues --  -93.53037 -11.27236 -11.24455 -11.23519  -8.82758
 Alpha  occ. eigenvalues --   -6.16935  -6.16697  -6.16350  -1.07475  -0.98130
 Alpha  occ. eigenvalues --   -0.87221  -0.80020  -0.64889  -0.59176  -0.58819
 Alpha  occ. eigenvalues --   -0.55995  -0.50587  -0.48650  -0.48226  -0.44518
 Alpha  occ. eigenvalues --   -0.35208
 Alpha virt. eigenvalues --    0.03527   0.04332   0.05074   0.05155   0.06859
 Alpha virt. eigenvalues --    0.07351   0.07859   0.08199   0.10749   0.11577
 Alpha virt. eigenvalues --    0.12851   0.14693   0.15652   0.16498   0.16585

 Mulliken charges:
               1
     1  C    0.295621
     2  H   -0.052527
     3  H   -0.052358
     4  H   -0.060967
     5  C    0.072054
     6  H   -0.083025
     7  H   -0.083240
     8  C   -0.116910
     9  H   -0.134684
    10  H   -0.133802
    11  S    0.299558
    12  H    0.050280
 Sum of Mulliken charges =  -0.00000

 Dipole moment (field-independent basis, Debye):
    X=              1.3186    Y=              1.1947    Z=             -0.0044  Tot=              1.7793

 Test job not archived.
 1\1\GINC-SE040\SP\RHF\Aug-CC-pVDZ\C3H8S1\OHZDE\09-Apr-2025\0\\#t hf au
 g-cc-pvdz iop(5/13=1,5/36=2,99/5=2) pseudo=read geom=check guess=(read
 ,tcheck) scf=(maxcycle=1)\\title\\0,1\C,0,-5.02272319,-1.01258348,0.00
 055031\H,0,-4.68287386,-2.05837716,-0.03440472\H,0,-4.68158996,-0.5192
 976,-0.92184329\H,0,-6.12156661,-1.01893913,-0.01175941\C,0,-4.4917038
 9,-0.29534915,1.24518677\H,0,-4.87082051,0.73891291,1.27191014\H,0,-4.
 87202128,-0.79007801,2.15329223\C,0,-2.96364099,-0.27178569,1.28837156
 \H,0,-2.56398205,0.25062694,0.40777323\H,0,-2.5648839,-1.29611844,1.29

 Normal termination of Gaussian 16 at Wed Apr  9 03:02:07 2025.
