 Gaussian 16, Revision C.01,

 ----------------------------------------------------------------------
 #t hf aug-cc-pvdz symm=none int=(grid=ultrafine) guess=(read,tcheck) s
 table=(opt,rrhf)
 ----------------------------------------------------------------------
 -----
 title
 -----
 Symbolic Z-matrix:
 Charge =  0 Multiplicity = 1

 SCF Done:  E(RHF) =  -547.205009657     A.U. after   12 cycles
 Normal termination of Gaussian 16 at Wed Apr  9 03:02:13 2025.
 Gaussian 16:  ES64L-G16RevC.01  3-Jul-2019

 ----------------------------------------------------------------------
 #t hf aug-cc-pvdz iop(5/13=1,5/36=2,99/5=2) pseudo=read geom=check gue
 ss=(read,tcheck) scf=(maxcycle=1)
 ----------------------------------------------------------------------
 -----
 title
 -----
 Structure from the checkpoint file:  "G2RC_18_mol1.chk"
 Charge =  0 Multiplicity = 1

                         Standard orientation:
 ---------------------------------------------------------------------
 Center     Atomic      Atomic             Coordinates (Angstroms)
 Number     Number       Type             X           Y           Z
 ---------------------------------------------------------------------
      1         16           0        0.000000    0.000000    0.373226
      2          8           0       -0.000000    1.248914   -0.373226
      3          8           0       -0.000000   -1.248914   -0.373226
 ---------------------------------------------------------------------

 SCF Done:  E(RHF) =  -547.311947148     A.U. after    2 cycles

 The electronic state is 1-A1.
 Alpha  occ. eigenvalues --  -93.79023 -20.64240 -20.64238  -9.06371  -6.40694
 Alpha  occ. eigenvalues --   -6.40250  -6.40111  -1.46228  -1.36051  -0.87602
 Alpha  occ. eigenvalues --   -0.71441  -0.70638  -0.67262  -0.56460  -0.53757
 Alpha  occ. eigenvalues --   -0.51102
 Alpha virt. eigenvalues --   -0.01363   0.08044   0.08302   0.08429   0.09513
 Alpha virt. eigenvalues --    0.19916   0.20498   0.22019   0.22745   0.25066
 Alpha virt. eigenvalues --    0.25435   0.25885   0.29457   0.37719   0.38844

 Mulliken charges:
               1
     1  S    1.410719
     2  O   -0.705360
     3  O   -0.705360
 Sum of Mulliken charges =  -0.00000

 Dipole moment (field-independent basis, Debye):
    X=              0.0000    Y=              0.0000    Z=              2.4192  Tot=              2.4192

 Test job not archived.
 1\1\GINC-SE129\SP\RHF\Aug-CC-pVDZ\O2S1\OHZDE\09-Apr-2025\0\\#t hf aug-
 cc-pvdz iop(5/13=1,5/36=2,99/5=2) pseudo=read geom=check guess=(read,t
 check) scf=(maxcycle=1)\\title\\0,1\S,0,0.,0.,0.49763437\O,0,-1.248914
 13,0.,-0.24881718\O,0,1.24891413,0.,-0.24881718\\Version=ES64L-G16RevC
 .01\State=1-A1\HF=-547.3119471\RMSD=5.080e-03\Dipole=0.,0.,0.9517714\Q
 uadrupole=-3.2673118,2.4656215,0.8016904,0.,0.,0.\PG=C02V [C2(S1),SGV(
 O2)]\\@

 Normal termination of Gaussian 16 at Wed Apr  9 03:02:14 2025.
