 Gaussian 16, Revision C.01,

 ----------------------------------------------------------------------
 #t hf aug-cc-pvdz symm=none int=(grid=ultrafine) guess=(read,tcheck) s
 table=(opt,rrhf)
 ----------------------------------------------------------------------
 -----
 title
 -----
 Symbolic Z-matrix:
 Charge =  0 Multiplicity = 1

 SCF Done:  E(RHF) =  -475.577383601     A.U. after   12 cycles
 Normal termination of Gaussian 16 at Wed Apr  9 03:02:31 2025.
 Gaussian 16:  ES64L-G16RevC.01  3-Jul-2019

 ----------------------------------------------------------------------
 #t hf aug-cc-pvdz iop(5/13=1,5/36=2,99/5=2) pseudo=read geom=check gue
 ss=(read,tcheck) scf=(maxcycle=1)
 ----------------------------------------------------------------------
 -----
 title
 -----
 Structure from the checkpoint file:  "G2RC_1_mol2.chk"
 Charge =  0 Multiplicity = 1

                         Standard orientation:
 ---------------------------------------------------------------------
 Center     Atomic      Atomic             Coordinates (Angstroms)
 Number     Number       Type             X           Y           Z
 ---------------------------------------------------------------------
      1         16           0       -0.000000   -0.000000    0.875007
      2          6           0       -0.000000    0.738651   -0.807188
      3          6           0       -0.000000   -0.738651   -0.807188
      4          1           0       -0.912678    1.250597   -1.078463
      5          1           0        0.912678    1.250597   -1.078463
      6          1           0        0.912678   -1.250597   -1.078463
      7          1           0       -0.912678   -1.250597   -1.078463
 ---------------------------------------------------------------------

 SCF Done:  E(RHF) =  -475.622761456     A.U. after    2 cycles

 The electronic state is 1-A1.
 Alpha  occ. eigenvalues --  -93.52535 -11.28834 -11.28749  -8.82262  -6.16382
 Alpha  occ. eigenvalues --   -6.16108  -6.15758  -1.12890  -0.84688  -0.82537
 Alpha  occ. eigenvalues --   -0.67649  -0.61363  -0.54863  -0.44316  -0.42230
 Alpha  occ. eigenvalues --   -0.34444
 Alpha virt. eigenvalues --    0.03660   0.04690   0.04905   0.07044   0.07104
 Alpha virt. eigenvalues --    0.11445   0.11850   0.12912   0.13425   0.14633
 Alpha virt. eigenvalues --    0.14978   0.17079   0.17503   0.19711   0.19737

 Mulliken charges:
               1
     1  S    0.109506
     2  C    0.431190
     3  C    0.431190
     4  H   -0.242972
     5  H   -0.242972
     6  H   -0.242972
     7  H   -0.242972
 Sum of Mulliken charges =  -0.00000

 Dipole moment (field-independent basis, Debye):
    X=             -0.0000    Y=             -0.0000    Z=             -2.2516  Tot=              2.2516

 Test job not archived.
 1\1\GINC-SE083\SP\RHF\Aug-CC-pVDZ\C2H4S1\OHZDE\09-Apr-2025\0\\#t hf au
 g-cc-pvdz iop(5/13=1,5/36=2,99/5=2) pseudo=read geom=check guess=(read
 ,tcheck) scf=(maxcycle=1)\\title\\0,1\S,0,0.,0.,1.59689538\C,0,0.,-0.7
 3865087,-0.08529881\C,0,0.,0.73865087,-0.08529881\H,0,0.91267842,-1.25
 059718,-0.35657444\H,0,-0.91267842,-1.25059718,-0.35657444\H,0,-0.9126
 7842,1.25059718,-0.35657444\H,0,0.91267842,1.25059718,-0.35657444\\Ver
 sion=ES64L-G16RevC.01\State=1-A1\HF=-475.6227615\RMSD=9.693e-03\Dipole
 =0.,0.,-0.8858431\Quadrupole=-0.5188067,1.0091842,-0.4903775,0.,0.,0.\

 Normal termination of Gaussian 16 at Wed Apr  9 03:02:34 2025.
