 Gaussian 16, Revision C.01,

 ----------------------------------------------------------------------
 #t hf aug-cc-pvdz symm=none int=(grid=ultrafine) guess=(read,tcheck) s
 table=(opt,rrhf)
 ----------------------------------------------------------------------
 -----
 title
 -----
 Symbolic Z-matrix:
 Charge =  0 Multiplicity = 1

 SCF Done:  E(RHF) =  -551.581387464     A.U. after   13 cycles
 Normal termination of Gaussian 16 at Wed Apr  9 03:02:33 2025.
 Gaussian 16:  ES64L-G16RevC.01  3-Jul-2019

 ----------------------------------------------------------------------
 #t hf aug-cc-pvdz iop(5/13=1,5/36=2,99/5=2) pseudo=read geom=check gue
 ss=(read,tcheck) scf=(maxcycle=1)
 ----------------------------------------------------------------------
 -----
 title
 -----
 Structure from the checkpoint file:  "G2RC_1_mol1.chk"
 Charge =  0 Multiplicity = 1

                         Standard orientation:
 ---------------------------------------------------------------------
 Center     Atomic      Atomic             Coordinates (Angstroms)
 Number     Number       Type             X           Y           Z
 ---------------------------------------------------------------------
      1          6           0        0.260593   -0.789122    1.367157
      2         16           0        0.260593    0.432025    0.000000
      3          8           0       -1.103933    1.072881    0.000000
      4          6           0        0.260593   -0.789122   -1.367157
      5          1           0        0.202761   -0.216938    2.289958
      6          1           0        1.181202   -1.370511    1.342974
      7          1           0       -0.616539   -1.425543    1.265106
      8          1           0        1.181202   -1.370511   -1.342974
      9          1           0       -0.616539   -1.425543   -1.265106
     10          1           0        0.202761   -0.216938   -2.289958
 ---------------------------------------------------------------------

 SCF Done:  E(RHF) =  -551.673547467     A.U. after    2 cycles

 The electronic state is 1-A'.
 Alpha  occ. eigenvalues --  -93.65814 -20.51578 -11.27621 -11.27606  -8.94170
 Alpha  occ. eigenvalues --   -6.28428  -6.28255  -6.27954  -1.29349  -1.04918
 Alpha  occ. eigenvalues --   -0.97262  -0.81466  -0.64440  -0.63085  -0.62456
 Alpha  occ. eigenvalues --   -0.59207  -0.56953  -0.55014  -0.52378  -0.43059
 Alpha  occ. eigenvalues --   -0.37750
 Alpha virt. eigenvalues --    0.02965   0.04392   0.05167   0.05772   0.07069
 Alpha virt. eigenvalues --    0.07477   0.08548   0.11624   0.13009   0.13509
 Alpha virt. eigenvalues --    0.14559   0.15289   0.16270   0.16631   0.17190

 Mulliken charges:
               1
     1  C    0.118621
     2  S    1.035236
     3  O   -1.043112
     4  C    0.118621
     5  H   -0.034136
     6  H   -0.039183
     7  H   -0.041363
     8  H   -0.039183
     9  H   -0.041363
    10  H   -0.034136
 Sum of Mulliken charges =  -0.00000

 Dipole moment (field-independent basis, Debye):
    X=              3.1167    Y=             -3.7400    Z=             -0.0000  Tot=              4.8685

 Test job not archived.
 1\1\GINC-SE054\SP\RHF\Aug-CC-pVDZ\C2H6O1S1\OHZDE\09-Apr-2025\0\\#t hf
 aug-cc-pvdz iop(5/13=1,5/36=2,99/5=2) pseudo=read geom=check guess=(re
 ad,tcheck) scf=(maxcycle=1)\\title\\0,1\C,0,-0.22605287,0.02049785,-1.
 36715672\S,0,0.80173249,0.67993458,0.\O,0,2.07797632,-0.12245588,0.\C,
 0,-0.22605287,0.02049785,1.36715672\H,0,0.28675928,0.28081005,-2.28995
 764\H,0,-1.21252429,0.48137459,-1.34297371\H,0,-0.28803653,-1.06142184
 ,-1.26510605\H,0,-1.21252429,0.48137459,1.34297371\H,0,-0.28803653,-1.
 06142184,1.26510605\H,0,0.28675928,0.28081005,2.28995764\\Version=ES64

 Normal termination of Gaussian 16 at Wed Apr  9 03:02:35 2025.
