 Gaussian 16, Revision C.01,

 ----------------------------------------------------------------------
 #t hf aug-cc-pvdz symm=none int=(grid=ultrafine) guess=(read,tcheck) s
 table=(opt,rrhf)
 ----------------------------------------------------------------------
 -----
 title
 -----
 Symbolic Z-matrix:
 Charge =  0 Multiplicity = 1

 SCF Done:  E(RHF) =  -273.486812827     A.U. after   13 cycles
 Normal termination of Gaussian 16 at Wed Apr  9 03:02:28 2025.
 Gaussian 16:  ES64L-G16RevC.01  3-Jul-2019

 ----------------------------------------------------------------------
 #t hf aug-cc-pvdz iop(5/13=1,5/36=2,99/5=2) pseudo=read geom=check gue
 ss=(read,tcheck) scf=(maxcycle=1)
 ----------------------------------------------------------------------
 -----
 title
 -----
 Structure from the checkpoint file:  "G2RC_20_mol1.chk"
 Charge =  0 Multiplicity = 1

                         Standard orientation:
 ---------------------------------------------------------------------
 Center     Atomic      Atomic             Coordinates (Angstroms)
 Number     Number       Type             X           Y           Z
 ---------------------------------------------------------------------
      1          8           0        0.000000    0.000000    0.600809
      2          9           0       -0.000000    1.109339   -0.267026
      3          9           0       -0.000000   -1.109339   -0.267026
 ---------------------------------------------------------------------

 SCF Done:  E(RHF) =  -273.586167719     A.U. after    2 cycles

 The electronic state is 1-A1.
 Alpha  occ. eigenvalues --  -26.23115 -26.23105 -20.84197  -1.77221  -1.70138
 Alpha  occ. eigenvalues --   -1.30953  -0.87045  -0.85840  -0.85727  -0.79136
 Alpha  occ. eigenvalues --   -0.74842  -0.70652  -0.62719
 Alpha virt. eigenvalues --    0.05693   0.09390   0.15365   0.17838   0.18813
 Alpha virt. eigenvalues --    0.19137   0.25737   0.27398   0.27993   0.28081
 Alpha virt. eigenvalues --    0.31980   0.34696   0.48903   0.52545   0.97277

 Mulliken charges:
               1
     1  O    0.382829
     2  F   -0.191415
     3  F   -0.191415
 Sum of Mulliken charges =   0.00000

 Dipole moment (field-independent basis, Debye):
    X=              0.0000    Y=              0.0000    Z=              0.6706  Tot=              0.6706

 Test job not archived.
 1\1\GINC-SE129\SP\RHF\Aug-CC-pVDZ\F2O1\OHZDE\09-Apr-2025\0\\#t hf aug-
 cc-pvdz iop(5/13=1,5/36=2,99/5=2) pseudo=read geom=check guess=(read,t
 check) scf=(maxcycle=1)\\title\\0,1\O,0,0.,0.,0.57855641\F,0,-1.109339
 28,0.,-0.28927821\F,0,1.10933928,0.,-0.28927821\\Version=ES64L-G16RevC
 .01\State=1-A1\HF=-273.5861677\RMSD=7.130e-03\Dipole=0.,0.,0.2638166\Q
 uadrupole=-0.2849883,-0.1329735,0.4179618,0.,0.,0.\PG=C02V [C2(O1),SGV
 (F2)]\\@

 Normal termination of Gaussian 16 at Wed Apr  9 03:02:29 2025.
