 Gaussian 16, Revision C.01,

 ----------------------------------------------------------------------
 #t hf aug-cc-pvdz symm=none int=(grid=ultrafine) guess=(read,tcheck) s
 table=(opt,rrhf)
 ----------------------------------------------------------------------
 -----
 title
 -----
 Symbolic Z-matrix:
 Charge =  0 Multiplicity = 1

 SCF Done:  E(RHF) =  -321.767627228     A.U. after   15 cycles
 Normal termination of Gaussian 16 at Wed Apr  9 03:08:51 2025.
 Gaussian 16:  ES64L-G16RevC.01  3-Jul-2019

 ----------------------------------------------------------------------
 #t hf aug-cc-pvdz iop(5/13=1,5/36=2,99/5=2) pseudo=read geom=check gue
 ss=(read,tcheck) scf=(maxcycle=1)
 ----------------------------------------------------------------------
 -----
 title
 -----
 Structure from the checkpoint file:  "Grambow2020_b97d3_006705_forward_mol1.chk"
 Charge =  0 Multiplicity = 1

                         Standard orientation:
 ---------------------------------------------------------------------
 Center     Atomic      Atomic             Coordinates (Angstroms)
 Number     Number       Type             X           Y           Z
 ---------------------------------------------------------------------
      1          6           0       -2.321686   -0.470069    0.018512
      2          7           0       -0.945733    1.159454   -0.015085
      3          6           0        0.004432    0.266393   -0.015083
      4          8           0       -0.326510   -0.968899   -0.025961
      5          8           0        1.310125    0.640282    0.005346
      6          6           0        2.260830   -0.441355    0.009452
      7          1           0       -2.942173    0.245534   -0.512722
      8          1           0       -2.443980   -0.461071    1.097302
      9          1           0       -2.344200   -1.461531   -0.430447
     10          1           0       -0.708319    2.153040    0.007143
     11          1           0        2.126356   -1.076666    0.894009
     12          1           0        3.244361    0.039327    0.031952
     13          1           0        2.157711   -1.055683   -0.894015
 ---------------------------------------------------------------------

 SCF Done:  E(RHF) =  -321.872042249     A.U. after    2 cycles

 The electronic state is 1-A.
 Alpha  occ. eigenvalues --  -20.60055 -20.53776 -15.58129 -11.38601 -11.36226
 Alpha  occ. eigenvalues --  -11.28791  -1.39304  -1.29193  -1.11919  -0.96854
 Alpha  occ. eigenvalues --   -0.93712  -0.76687  -0.71977  -0.67983  -0.67017
 Alpha  occ. eigenvalues --   -0.63084  -0.61798  -0.58654  -0.54988  -0.52272
 Alpha  occ. eigenvalues --   -0.47800  -0.47446  -0.40221  -0.36917
 Alpha virt. eigenvalues --    0.02714   0.04217   0.04925   0.05341   0.06262
 Alpha virt. eigenvalues --    0.06996   0.07273   0.08501   0.11006   0.13017
 Alpha virt. eigenvalues --    0.13656   0.14503   0.15290   0.16221   0.16589

 Mulliken charges:
               1
     1  C    0.666854
     2  N   -0.378957
     3  C    0.749792
     4  O   -0.610179
     5  O   -0.605074
     6  C    0.693367
     7  H   -0.042749
     8  H   -0.004210
     9  H   -0.049446
    10  H   -0.068905
    11  H   -0.058414
    12  H   -0.228437
    13  H   -0.063643
 Sum of Mulliken charges =  -0.00000

 Dipole moment (field-independent basis, Debye):
    X=             -1.7080    Y=             -0.3122    Z=              0.1911  Tot=              1.7468

 Test job not archived.
 1\1\GINC-SE435\SP\RHF\Aug-CC-pVDZ\C3H7N1O2\OHZDE\09-Apr-2025\0\\#t hf
 aug-cc-pvdz iop(5/13=1,5/36=2,99/5=2) pseudo=read geom=check guess=(re
 ad,tcheck) scf=(maxcycle=1)\\title\\0,1\C,0,-2.18121301,-0.65981698,-0
 .15435925\N,0,-1.03699703,1.13770385,-0.05736771\C,0,0.02420643,0.3843
 1535,-0.13875272\O,0,-0.13822632,-0.87910782,-0.25262377\O,0,1.2681226
 2,0.92812906,-0.09420401\C,0,2.35522055,-0.01171413,-0.18752473\H,0,-2
 .90110625,0.00720349,-0.61926592\H,0,-2.28503206,-0.7574278,0.92198603
 \H,0,-2.07828432,-1.60430197,-0.68579315\H,0,-0.93462383,2.14890525,0.

 Normal termination of Gaussian 16 at Wed Apr  9 03:08:55 2025.
