 Gaussian 16, Revision C.01,

 ----------------------------------------------------------------------
 #t hf aug-cc-pvdz symm=none int=(grid=ultrafine) guess=(read,tcheck) s
 table=(opt,rrhf)
 ----------------------------------------------------------------------
 -----
 title
 -----
 Symbolic Z-matrix:
 Charge =  0 Multiplicity = 1

 SCF Done:  E(RHF) =  -302.876447652     A.U. after   15 cycles
 Normal termination of Gaussian 16 at Wed Apr  9 16:57:23 2025.
 Gaussian 16:  ES64L-G16RevC.01  3-Jul-2019

 ----------------------------------------------------------------------
 #t hf aug-cc-pvdz iop(5/13=1,5/36=2,99/5=2) pseudo=read geom=check gue
 ss=(read,tcheck) scf=(maxcycle=1)
 ----------------------------------------------------------------------
 -----
 title
 -----
 Structure from the checkpoint file:  "Grambow2020_wb97xd3_009084_reverse_mol2.chk"
 Charge =  0 Multiplicity = 1

                         Standard orientation:
 ---------------------------------------------------------------------
 Center     Atomic      Atomic             Coordinates (Angstroms)
 Number     Number       Type             X           Y           Z
 ---------------------------------------------------------------------
      1          6           0       -2.315107   -0.468090    0.470558
      2          7           0       -0.653349    1.241969   -0.125756
      3          6           0       -1.150173   -0.102360   -0.441574
      4          6           0        0.065676   -0.949038   -0.341677
      5          6           0        1.069813   -0.135170   -0.022610
      6          6           0        2.517108   -0.370473    0.212847
      7          7           0        0.568165    1.207241    0.096931
      8          1           0       -3.113262    0.267054    0.372736
      9          1           0       -1.989436   -0.490348    1.511370
     10          1           0       -2.708708   -1.450342    0.208300
     11          1           0       -1.505010   -0.044387   -1.478990
     12          1           0        0.106536   -2.015459   -0.504153
     13          1           0        3.116541    0.192613   -0.505226
     14          1           0        2.765065   -1.427137    0.123303
     15          1           0        2.800658   -0.025681    1.209169
 ---------------------------------------------------------------------

 SCF Done:  E(RHF) =  -302.965379683     A.U. after    2 cycles

 The electronic state is 1-A.
 Alpha  occ. eigenvalues --  -15.68152 -15.67883 -11.27813 -11.27751 -11.24806
 Alpha  occ. eigenvalues --  -11.24402 -11.24303  -1.34122  -1.08211  -1.06929
 Alpha  occ. eigenvalues --   -0.95791  -0.91002  -0.80122  -0.74959  -0.67793
 Alpha  occ. eigenvalues --   -0.64201  -0.60334  -0.58462  -0.57467  -0.55587
 Alpha  occ. eigenvalues --   -0.54669  -0.52311  -0.49571  -0.47627  -0.38720
 Alpha  occ. eigenvalues --   -0.35980
 Alpha virt. eigenvalues --    0.02930   0.03516   0.04210   0.04960   0.06420
 Alpha virt. eigenvalues --    0.06734   0.07201   0.08111   0.09283   0.10972
 Alpha virt. eigenvalues --    0.11727   0.12457   0.13275   0.13806   0.14442

 Mulliken charges:
               1
     1  C    0.468572
     2  N   -0.457555
     3  C    0.061367
     4  C    0.591900
     5  C   -0.318643
     6  C    0.668420
     7  N   -0.701253
     8  H   -0.015726
     9  H    0.022972
    10  H    0.002522
    11  H   -0.040073
    12  H   -0.338854
    13  H    0.051148
    14  H   -0.035903
    15  H    0.041106
 Sum of Mulliken charges =  -0.00000

 Dipole moment (field-independent basis, Debye):
    X=             -0.0609    Y=             -3.3450    Z=             -0.4461  Tot=              3.3752

 Test job not archived.
 1\1\GINC-SE162\SP\RHF\Aug-CC-pVDZ\C5H8N2\OHZDE\09-Apr-2025\0\\#t hf au
 g-cc-pvdz iop(5/13=1,5/36=2,99/5=2) pseudo=read geom=check guess=(read
 ,tcheck) scf=(maxcycle=1)\\title\\0,1\C,0,2.28010733,0.14675879,0.4325
 972\N,0,0.75010529,-0.42305631,-1.40471991\C,0,1.02210591,0.54099147,-
 0.33214299\C,0,-0.2469521,0.56281024,0.43866664\C,0,-1.07602574,-0.281
 72718,-0.17114399\C,0,-2.4755963,-0.69243543,0.1081268\N,0,-0.40770731
 ,-0.86165352,-1.3047415\H,0,3.12840398,0.08302262,-0.24812842\H,0,2.14
 483416,-0.82444468,0.91041501\H,0,2.50312049,0.88522828,1.20295331\H,0

 Normal termination of Gaussian 16 at Wed Apr  9 16:57:28 2025.
