 Gaussian 16, Revision C.01,

 ----------------------------------------------------------------------
 #t hf aug-cc-pvdz symm=none int=(grid=ultrafine) guess=(read,tcheck) s
 table=(opt,rrhf)
 ----------------------------------------------------------------------
 -----
 title
 -----
 Symbolic Z-matrix:
 Charge =  0 Multiplicity = 1

 SCF Done:  E(RHF) =  -322.742012943     A.U. after   14 cycles
 Normal termination of Gaussian 16 at Wed Apr  9 17:07:22 2025.
 Gaussian 16:  ES64L-G16RevC.01  3-Jul-2019

 ----------------------------------------------------------------------
 #t hf aug-cc-pvdz iop(5/13=1,5/36=2,99/5=2) pseudo=read geom=check gue
 ss=(read,tcheck) scf=(maxcycle=1)
 ----------------------------------------------------------------------
 -----
 title
 -----
 Structure from the checkpoint file:  "Grambow2020_wb97xd3_009153_forward_mol2.chk"
 Charge =  0 Multiplicity = 1

                         Standard orientation:
 ---------------------------------------------------------------------
 Center     Atomic      Atomic             Coordinates (Angstroms)
 Number     Number       Type             X           Y           Z
 ---------------------------------------------------------------------
      1          6           0        1.686914   -1.147547    0.000338
      2          7           0        0.362769   -0.573937   -0.000802
      3          6           0       -0.831079   -1.262386   -0.000597
      4          6           0       -1.848068   -0.354717    0.000243
      5          6           0       -1.268290    0.946764    0.000518
      6          6           0        0.087365    0.754191    0.000147
      7          8           0        1.141607    1.605541   -0.000031
      8          1           0        2.239576   -0.854776    0.894010
      9          1           0        2.249717   -0.828571   -0.877681
     10          1           0        1.592797   -2.231612   -0.015223
     11          1           0       -0.841308   -2.340142    0.001982
     12          1           0       -2.900609   -0.588276   -0.000883
     13          1           0       -1.782184    1.894815    0.000632
     14          1           0        0.808718    2.503958   -0.000880
 ---------------------------------------------------------------------

 SCF Done:  E(RHF) =  -322.843111605     A.U. after    2 cycles

 The electronic state is 1-A.
 Alpha  occ. eigenvalues --  -20.61291 -15.66385 -11.32475 -11.27849 -11.24947
 Alpha  occ. eigenvalues --  -11.21657 -11.20886  -1.38430  -1.26404  -1.07026
 Alpha  occ. eigenvalues --   -0.96604  -0.92967  -0.81746  -0.76756  -0.72314
 Alpha  occ. eigenvalues --   -0.66155  -0.65441  -0.62934  -0.58955  -0.57860
 Alpha  occ. eigenvalues --   -0.57310  -0.53393  -0.52481  -0.50801  -0.33795
 Alpha  occ. eigenvalues --   -0.28347
 Alpha virt. eigenvalues --    0.03263   0.03708   0.04386   0.05927   0.06098
 Alpha virt. eigenvalues --    0.06351   0.07918   0.11058   0.11486   0.13564
 Alpha virt. eigenvalues --    0.13716   0.14058   0.14362   0.14792   0.15173

 Mulliken charges:
               1
     1  C    0.828398
     2  N   -0.362455
     3  C    0.584344
     4  C    0.125242
     5  C    0.796176
     6  C    0.008941
     7  O   -0.477798
     8  H   -0.078177
     9  H   -0.081850
    10  H   -0.258972
    11  H   -0.476684
    12  H   -0.331100
    13  H   -0.409464
    14  H    0.133399
 Sum of Mulliken charges =  -0.00000

 Dipole moment (field-independent basis, Debye):
    X=              1.0471    Y=              0.1641    Z=             -0.0007  Tot=              1.0599

 Test job not archived.
 1\1\GINC-SE454\SP\RHF\Aug-CC-pVDZ\C5H7N1O1\OHZDE\09-Apr-2025\0\\#t hf
 aug-cc-pvdz iop(5/13=1,5/36=2,99/5=2) pseudo=read geom=check guess=(re
 ad,tcheck) scf=(maxcycle=1)\\title\\0,1\C,0,-1.81606294,0.10871111,0.5
 5875958\N,0,-0.46555561,-0.15368317,0.12325043\C,0,0.07506798,-1.38402
 141,-0.18208721\C,0,1.37397801,-1.20027203,-0.55249206\C,0,1.65412367,
 0.19457272,-0.4755521\C,0,0.49343362,0.78841868,-0.05718519\O,0,0.1526
 3842,2.07554561,0.19457787\H,0,-2.33681812,0.7553899,-0.14864438\H,0,-
 1.82265308,0.58736732,1.53868601\H,0,-2.34694288,-0.83895072,0.6251003

 Normal termination of Gaussian 16 at Wed Apr  9 17:07:27 2025.
