 Gaussian 16, Revision C.01,

 ----------------------------------------------------------------------
 #t hf aug-cc-pvdz symm=none int=(grid=ultrafine) guess=(read,tcheck) s
 table=(opt,rrhf)
 ----------------------------------------------------------------------
 -----
 title
 -----
 Symbolic Z-matrix:
 Charge =  0 Multiplicity = 1

 SCF Done:  E(RHF) =  -343.689871226     A.U. after   13 cycles
 Normal termination of Gaussian 16 at Wed Apr  9 16:25:01 2025.
 Gaussian 16:  ES64L-G16RevC.01  3-Jul-2019

 ----------------------------------------------------------------------
 #t hf aug-cc-pvdz iop(5/13=1,5/36=2,99/5=2) pseudo=read geom=check gue
 ss=(read,tcheck) scf=(maxcycle=1)
 ----------------------------------------------------------------------
 -----
 title
 -----
 Structure from the checkpoint file:  "Grambow2020_wb97xd3_008200_reverse_mol2.chk"
 Charge =  0 Multiplicity = 1

                         Standard orientation:
 ---------------------------------------------------------------------
 Center     Atomic      Atomic             Coordinates (Angstroms)
 Number     Number       Type             X           Y           Z
 ---------------------------------------------------------------------
      1          8           0        1.172655   -1.581750   -0.346285
      2          6           0        1.732896   -0.599731    0.498150
      3          6           0        1.735968    0.790543   -0.117701
      4          6           0        0.368772    1.396791   -0.303173
      5          8           0       -2.545138   -0.595066   -0.348527
      6          6           0       -0.749497    0.846626    0.075346
      7          6           0       -1.849828    0.264848    0.462323
      8          1           0        0.241841   -1.379224   -0.471818
      9          1           0        2.761121   -0.914889    0.682948
     10          1           0        1.216388   -0.573922    1.466839
     11          1           0        2.233296    0.749088   -1.091999
     12          1           0        2.336301    1.461846    0.506657
     13          1           0        0.330067    2.363525   -0.801675
     14          1           0       -3.309433   -0.924639    0.124987
     15          1           0       -2.259581    0.438287    1.452892
 ---------------------------------------------------------------------

 SCF Done:  E(RHF) =  -343.799683445     A.U. after    2 cycles

 The electronic state is 1-A.
 Alpha  occ. eigenvalues --  -20.60986 -20.55936 -11.31862 -11.28114 -11.26482
 Alpha  occ. eigenvalues --  -11.24781 -11.24361  -1.36896  -1.31457  -1.08997
 Alpha  occ. eigenvalues --   -1.01705  -0.93840  -0.84608  -0.75554  -0.73706
 Alpha  occ. eigenvalues --   -0.70305  -0.66037  -0.63490  -0.61007  -0.59854
 Alpha  occ. eigenvalues --   -0.57438  -0.55414  -0.54831  -0.48983  -0.44839
 Alpha  occ. eigenvalues --   -0.38055  -0.35652
 Alpha virt. eigenvalues --    0.02822   0.03772   0.04655   0.05025   0.06304
 Alpha virt. eigenvalues --    0.06534   0.07284   0.08839   0.09968   0.11196
 Alpha virt. eigenvalues --    0.12161   0.12608   0.13259   0.14283   0.15100

 Mulliken charges:
               1
     1  O   -0.526012
     2  C    0.883567
     3  C   -0.002023
     4  C    0.650075
     5  O   -0.598881
     6  C   -1.015097
     7  C    1.112364
     8  H    0.166901
     9  H   -0.173641
    10  H   -0.065843
    11  H   -0.004973
    12  H    0.014457
    13  H   -0.349884
    14  H    0.194007
    15  H   -0.285016
 Sum of Mulliken charges =   0.00000

 Dipole moment (field-independent basis, Debye):
    X=             -1.3420    Y=              1.7589    Z=              2.1878  Tot=              3.1114

 Test job not archived.
 1\1\GINC-SE168\SP\RHF\Aug-CC-pVDZ\C5H8O2\OHZDE\09-Apr-2025\0\\#t hf au
 g-cc-pvdz iop(5/13=1,5/36=2,99/5=2) pseudo=read geom=check guess=(read
 ,tcheck) scf=(maxcycle=1)\\title\\0,1\O,0,1.59673081,0.55337155,1.3080
 2781\C,0,1.20382545,1.21027743,0.12253118\C,0,1.03354676,0.26719601,-1
 .05803931\C,0,-0.12097591,-0.69312996,-0.93150556\O,0,-1.57401699,-1.4
 3354218,2.19913131\C,0,-0.97173474,-0.71204058,0.05456537\C,0,-1.80198
 854,-0.70600696,1.05934729\H,0,0.88697139,-0.0349419,1.57880201\H,0,1.
 99615999,1.92698334,-0.09941567\H,0,0.27771666,1.77955145,0.27762306\H

 Normal termination of Gaussian 16 at Wed Apr  9 16:25:06 2025.
