 Gaussian 16, Revision C.01,

 ----------------------------------------------------------------------
 #t hf aug-cc-pvdz symm=none int=(grid=ultrafine) guess=(read,tcheck) s
 table=(opt,rrhf)
 ----------------------------------------------------------------------
 -----
 title
 -----
 Symbolic Z-matrix:
 Charge =  0 Multiplicity = 1

 SCF Done:  E(RHF) =  -323.686019479     A.U. after   18 cycles
 Normal termination of Gaussian 16 at Wed Apr  9 15:15:11 2025.
 Gaussian 16:  ES64L-G16RevC.01  3-Jul-2019

 ----------------------------------------------------------------------
 #t hf aug-cc-pvdz iop(5/13=1,5/36=2,99/5=2) pseudo=read geom=check gue
 ss=(read,tcheck) scf=(maxcycle=1)
 ----------------------------------------------------------------------
 -----
 title
 -----
 Structure from the checkpoint file:  "Grambow2020_wb97xd3_006824_forward_mol1.chk"
 Charge =  0 Multiplicity = 1

                         Standard orientation:
 ---------------------------------------------------------------------
 Center     Atomic      Atomic             Coordinates (Angstroms)
 Number     Number       Type             X           Y           Z
 ---------------------------------------------------------------------
      1          6           0       -1.869985   -1.334966    0.255914
      2          6           0       -1.043235   -0.246635   -0.398041
      3          6           0       -1.296154    1.218048    0.029911
      4          6           0        0.220010    1.478681    0.086365
      5          6           0        0.399431   -0.087183    0.050828
      6          7           0        1.491988   -0.614014   -0.553869
      7          8           0        2.425803   -0.453195    0.300531
      8          1           0       -2.920065   -1.256453   -0.035192
      9          1           0       -1.812187   -1.261932    1.344426
     10          1           0       -1.512385   -2.325053   -0.033599
     11          1           0       -1.079930   -0.343568   -1.488111
     12          1           0       -1.865626    1.844231   -0.655102
     13          1           0       -1.751389    1.268369    1.020027
     14          1           0        0.608489    2.020960    0.944603
     15          1           0        0.605987    1.923060   -0.831952
     16          1           0        1.416362   -0.113628    1.057872
 ---------------------------------------------------------------------

 SCF Done:  E(RHF) =  -323.781643813     A.U. after    2 cycles

 The electronic state is 1-A.
 Alpha  occ. eigenvalues --  -20.63735 -15.77157 -11.26615 -11.25739 -11.24960
 Alpha  occ. eigenvalues --  -11.24359 -11.22959  -1.45702  -1.15629  -1.04211
 Alpha  occ. eigenvalues --   -0.99090  -0.87144  -0.84711  -0.78646  -0.69841
 Alpha  occ. eigenvalues --   -0.68222  -0.64499  -0.62426  -0.58547  -0.57864
 Alpha  occ. eigenvalues --   -0.53086  -0.51479  -0.49578  -0.48383  -0.45266
 Alpha  occ. eigenvalues --   -0.44903  -0.35869
 Alpha virt. eigenvalues --    0.03147   0.03759   0.04233   0.04784   0.05628
 Alpha virt. eigenvalues --    0.06666   0.06798   0.06868   0.07147   0.08338
 Alpha virt. eigenvalues --    0.11823   0.12544   0.13088   0.13788   0.14191

 Mulliken charges:
               1
     1  C    0.571842
     2  C   -0.332190
     3  C    0.525972
     4  C    0.601462
     5  C   -0.412110
     6  N   -0.136966
     7  O   -0.571448
     8  H   -0.021518
     9  H    0.006373
    10  H   -0.050389
    11  H   -0.132385
    12  H   -0.164425
    13  H   -0.177335
    14  H   -0.196886
    15  H   -0.080757
    16  H    0.570762
 Sum of Mulliken charges =  -0.00000

 Dipole moment (field-independent basis, Debye):
    X=             -2.6691    Y=              1.3882    Z=              0.0961  Tot=              3.0101

 Test job not archived.
 1\1\GINC-SE114\SP\RHF\Aug-CC-pVDZ\C5H9N1O1\OHZDE\09-Apr-2025\0\\#t hf
 aug-cc-pvdz iop(5/13=1,5/36=2,99/5=2) pseudo=read geom=check guess=(re
 ad,tcheck) scf=(maxcycle=1)\\title\\0,1\C,0,-1.54478401,-1.27010328,-0
 .05889637\C,0,-0.49319946,-0.2963691,-0.55047288\C,0,-0.65370834,1.197
 45633,-0.18287231\C,0,0.84520056,1.29025155,0.15555282\C,0,0.84965979,
 -0.28624613,0.16003241\N,0,1.96869976,-0.94543321,-0.22741112\O,0,2.73
 975044,-0.86765537,0.78614963\H,0,-2.50680357,-1.08326591,-0.54179015\
 H,0,-1.68219261,-1.17692409,1.02090433\H,0,-1.25407532,-2.30052175,-0.

 Normal termination of Gaussian 16 at Wed Apr  9 15:15:16 2025.
