 Gaussian 16, Revision C.01,

 ----------------------------------------------------------------------
 #t hf aug-cc-pvdz symm=none int=(grid=ultrafine) guess=(read,tcheck) s
 table=(opt,rrhf)
 ----------------------------------------------------------------------
 -----
 title
 -----
 Symbolic Z-matrix:
 Charge =  0 Multiplicity = 1

 SCF Done:  E(RHF) =  -340.438189073     A.U. after   16 cycles
 Normal termination of Gaussian 16 at Wed Apr  9 14:21:05 2025.
 Gaussian 16:  ES64L-G16RevC.01  3-Jul-2019

 ----------------------------------------------------------------------
 #t hf aug-cc-pvdz iop(5/13=1,5/36=2,99/5=2) pseudo=read geom=check gue
 ss=(read,tcheck) scf=(maxcycle=1)
 ----------------------------------------------------------------------
 -----
 title
 -----
 Structure from the checkpoint file:  "Grambow2020_wb97xd3_006042_reverse_mol1.chk"
 Charge =  0 Multiplicity = 1

                         Standard orientation:
 ---------------------------------------------------------------------
 Center     Atomic      Atomic             Coordinates (Angstroms)
 Number     Number       Type             X           Y           Z
 ---------------------------------------------------------------------
      1          8           0       -2.020907   -0.473582   -0.033282
      2          6           0       -0.993377    0.114802    0.005483
      3          8           0        0.249620   -0.837171   -0.353110
      4          6           0        1.391588   -0.626989    0.461613
      5          6           0        1.562596    0.586894   -0.307541
      6          8           0       -0.531600    1.238270    0.197502
      7          1           0        1.169429   -0.490846    1.518761
      8          1           0        2.117839   -1.420276    0.292434
      9          1           0        1.541437    1.586732    0.090622
     10          1           0        1.829562    0.456013   -1.348025
 ---------------------------------------------------------------------

 SCF Done:  E(RHF) =  -340.546864134     A.U. after    2 cycles

 The electronic state is 1-A.
 Alpha  occ. eigenvalues --  -20.61532 -20.55340 -20.54300 -11.42173 -11.41466
 Alpha  occ. eigenvalues --  -11.35002  -1.41785  -1.34025  -1.30932  -1.06759
 Alpha  occ. eigenvalues --   -0.91285  -0.78871  -0.75176  -0.71551  -0.67287
 Alpha  occ. eigenvalues --   -0.65850  -0.64279  -0.61012  -0.57904  -0.52386
 Alpha  occ. eigenvalues --   -0.47066  -0.45718  -0.44806
 Alpha virt. eigenvalues --   -0.00065   0.02664   0.03555   0.04257   0.05911
 Alpha virt. eigenvalues --    0.08861   0.10270   0.10906   0.11602   0.12349
 Alpha virt. eigenvalues --    0.12980   0.14325   0.15036   0.15552   0.17025

 Mulliken charges:
               1
     1  O   -0.369230
     2  C    0.563426
     3  O   -0.775090
     4  C    0.874807
     5  C    0.788412
     6  O   -0.496846
     7  H   -0.158539
     8  H   -0.118700
     9  H   -0.139760
    10  H   -0.168480
 Sum of Mulliken charges =  -0.00000

 Dipole moment (field-independent basis, Debye):
    X=              8.4698    Y=              0.6613    Z=              0.1737  Tot=              8.4973

 Test job not archived.
 1\1\GINC-SE026\SP\RHF\Aug-CC-pVDZ\C3H4O3\OHZDE\09-Apr-2025\0\\#t hf au
 g-cc-pvdz iop(5/13=1,5/36=2,99/5=2) pseudo=read geom=check guess=(read
 ,tcheck) scf=(maxcycle=1)\\title\\0,1\O,0,2.66992434,0.37448096,-0.107
 92051\C,0,1.62007383,-0.13084229,0.10650502\O,0,0.43577325,0.59636401,
 -0.69878054\C,0,-0.75612013,0.76197439,0.0522219\C,0,-0.93119945,-0.66
 0766,-0.14655475\O,0,1.10591336,-1.06367992,0.72111286\H,0,-0.59730472
 ,1.08073499,1.08111483\H,0,-1.44121572,1.41887955,-0.48115013\H,0,-0.9
 7001215,-1.4003857,0.63454246\H,0,-1.1358336,-0.97676099,-1.16108913\\

 Normal termination of Gaussian 16 at Wed Apr  9 14:21:08 2025.
