 Gaussian 16, Revision C.01,

 ----------------------------------------------------------------------
 #t hf aug-cc-pvdz symm=none int=(grid=ultrafine) guess=(read,tcheck) s
 table=(opt,rrhf)
 ----------------------------------------------------------------------
 -----
 title
 -----
 Symbolic Z-matrix:
 Charge =  0 Multiplicity = 1

 SCF Done:  E(RHF) =  -305.740971598     A.U. after   15 cycles
 Normal termination of Gaussian 16 at Wed Apr  9 03:04:23 2025.
 Gaussian 16:  ES64L-G16RevC.01  3-Jul-2019

 ----------------------------------------------------------------------
 #t hf aug-cc-pvdz iop(5/13=1,5/36=2,99/5=2) pseudo=read geom=check gue
 ss=(read,tcheck) scf=(maxcycle=1)
 ----------------------------------------------------------------------
 -----
 title
 -----
 Structure from the checkpoint file:  "Grambow2020_b97d3_006517_reverse_mol1.chk"
 Charge =  0 Multiplicity = 1

                         Standard orientation:
 ---------------------------------------------------------------------
 Center     Atomic      Atomic             Coordinates (Angstroms)
 Number     Number       Type             X           Y           Z
 ---------------------------------------------------------------------
      1          8           0        1.468211   -0.763222   -0.652556
      2          6           0        1.525973    0.239545    0.204721
      3          6           0        0.252783    0.883832    0.555566
      4          6           0       -0.820417    0.997476   -0.494955
      5          6           0       -1.635069   -0.266239   -0.179273
      6          8           0       -0.729498   -1.075367    0.606980
      7          1           0        0.103692   -1.239719   -0.005196
      8          1           0        2.187545    0.115481    1.095339
      9          1           0        1.916232    1.257872   -0.217843
     10          1           0        0.160809    1.441481    1.493457
     11          1           0       -1.396093    1.929494   -0.427551
     12          1           0       -0.337763    0.915997   -1.480240
     13          1           0       -1.989916   -0.801186   -1.073229
     14          1           0       -2.493828   -0.038399    0.463517
 ---------------------------------------------------------------------

 SCF Done:  E(RHF) =  -305.833377305     A.U. after    2 cycles

 The electronic state is 1-A.
 Alpha  occ. eigenvalues --  -20.56930 -20.47079 -11.38835 -11.31452 -11.30560
 Alpha  occ. eigenvalues --  -11.28150  -1.31982  -1.24107  -1.09964  -0.98918
 Alpha  occ. eigenvalues --   -0.87924  -0.79383  -0.71823  -0.69561  -0.66281
 Alpha  occ. eigenvalues --   -0.62869  -0.59065  -0.57254  -0.55641  -0.54647
 Alpha  occ. eigenvalues --   -0.50345  -0.46601  -0.39528  -0.37768
 Alpha virt. eigenvalues --    0.02008   0.02922   0.03943   0.04399   0.05298
 Alpha virt. eigenvalues --    0.06214   0.06600   0.07523   0.08916   0.11417
 Alpha virt. eigenvalues --    0.11917   0.13077   0.13388   0.13713   0.14138

 Mulliken charges:
               1
     1  O   -0.878967
     2  C    0.587916
     3  C    0.155799
     4  C    0.173408
     5  C    0.805888
     6  O   -0.721863
     7  H    0.437280
     8  H   -0.129280
     9  H    0.228028
    10  H   -0.268435
    11  H   -0.042074
    12  H   -0.018966
    13  H   -0.132848
    14  H   -0.195885
 Sum of Mulliken charges =   0.00000

 Dipole moment (field-independent basis, Debye):
    X=             -2.9972    Y=              5.6697    Z=              1.5596  Tot=              6.6000

 Test job not archived.
 1\1\GINC-SE029\SP\RHF\Aug-CC-pVDZ\C4H8O2\OHZDE\09-Apr-2025\0\\#t hf au
 g-cc-pvdz iop(5/13=1,5/36=2,99/5=2) pseudo=read geom=check guess=(read
 ,tcheck) scf=(maxcycle=1)\\title\\0,1\O,0,-1.84634768,0.60722498,-0.47
 03585\C,0,-1.56083491,-0.58288082,0.0255583\C,0,-0.14430649,-0.8636089
 9,0.2973086\C,0,0.90248343,-0.27929178,-0.61432306\C,0,1.24339536,1.00
 249311,0.16097932\O,0,0.11923131,1.1766812,1.05476739\H,0,-0.72158835,
 1.25620618,0.436161\H,0,-2.22393788,-0.97425393,0.83388495\H,0,-1.5852
 5087,-1.47587194,-0.72930883\H,0,0.13207473,-1.63611193,1.02251531\H,0

 Normal termination of Gaussian 16 at Wed Apr  9 03:04:27 2025.
