 Gaussian 16, Revision C.01,

 ----------------------------------------------------------------------
 #t hf aug-cc-pvdz symm=none int=(grid=ultrafine) guess=(read,tcheck) s
 table=(opt,rrhf)
 ----------------------------------------------------------------------
 -----
 title
 -----
 Symbolic Z-matrix:
 Charge =  0 Multiplicity = 1

 SCF Done:  E(RHF) =  -374.610274336     A.U. after   14 cycles
 Normal termination of Gaussian 16 at Wed Apr  9 15:45:41 2025.
 Gaussian 16:  ES64L-G16RevC.01  3-Jul-2019

 ----------------------------------------------------------------------
 #t hf aug-cc-pvdz iop(5/13=1,5/36=2,99/5=2) pseudo=read geom=check gue
 ss=(read,tcheck) scf=(maxcycle=1)
 ----------------------------------------------------------------------
 -----
 title
 -----
 Structure from the checkpoint file:  "Grambow2020_wb97xd3_007334_forward_mol2.chk"
 Charge =  0 Multiplicity = 1

                         Standard orientation:
 ---------------------------------------------------------------------
 Center     Atomic      Atomic             Coordinates (Angstroms)
 Number     Number       Type             X           Y           Z
 ---------------------------------------------------------------------
      1          7           0        2.351776   -0.516536   -0.088542
      2          6           0        1.057319   -0.019637    0.004541
      3          6           0        0.542944    1.211706    0.019473
      4          8           0       -0.840957    1.131187    0.009665
      5          6           0       -1.200657   -0.181384    0.003392
      6          8           0       -2.326878   -0.585689   -0.017559
      7          7           0       -0.023937   -0.892784    0.025121
      8          1           0        2.620725   -1.082412    0.704293
      9          1           0        3.033483    0.208891   -0.244464
     10          1           0        0.984378    2.191100    0.030173
     11          1           0        0.011592   -1.880449   -0.147337
 ---------------------------------------------------------------------

 SCF Done:  E(RHF) =  -374.728207559     A.U. after    2 cycles

 The electronic state is 1-A.
 Alpha  occ. eigenvalues --  -20.63648 -20.54576 -15.68452 -15.66674 -11.42454
 Alpha  occ. eigenvalues --  -11.34398 -11.29897  -1.45588  -1.34364  -1.26486
 Alpha  occ. eigenvalues --   -1.18303  -1.01625  -0.88082  -0.85255  -0.75846
 Alpha  occ. eigenvalues --   -0.71002  -0.69604  -0.68861  -0.64759  -0.64044
 Alpha  occ. eigenvalues --   -0.60550  -0.53993  -0.53398  -0.47936  -0.45196
 Alpha  occ. eigenvalues --   -0.32559
 Alpha virt. eigenvalues --    0.01950   0.03238   0.04557   0.05240   0.09633
 Alpha virt. eigenvalues --    0.09813   0.11335   0.11612   0.12175   0.13318
 Alpha virt. eigenvalues --    0.13408   0.14164   0.15217   0.15506   0.17819

 Mulliken charges:
               1
     1  N   -0.280519
     2  C    0.497325
     3  C    0.994390
     4  O   -0.577140
     5  C    0.538532
     6  O   -0.421006
     7  N   -0.386285
     8  H    0.014022
     9  H    0.028081
    10  H   -0.300895
    11  H   -0.106504
 Sum of Mulliken charges =  -0.00000

 Dipole moment (field-independent basis, Debye):
    X=              6.4803    Y=             -0.5321    Z=              0.7387  Tot=              6.5440

 Test job not archived.
 1\1\GINC-SE100\SP\RHF\Aug-CC-pVDZ\C3H4N2O2\OHZDE\09-Apr-2025\0\\#t hf
 aug-cc-pvdz iop(5/13=1,5/36=2,99/5=2) pseudo=read geom=check guess=(re
 ad,tcheck) scf=(maxcycle=1)\\title\\0,1\N,0,-1.78002228,-0.5146967,0.0
 5853624\C,0,-0.49301911,0.00835493,0.02343013\C,0,0.00307066,1.2412768
 2,0.14511994\O,0,1.38800742,1.18047022,0.148962\C,0,1.76710337,-0.1194
 0755,0.01159529\O,0,2.89917831,-0.50700463,-0.00964855\N,0,0.60105894,
 -0.84127867,-0.09075641\H,0,-2.04016036,-0.99380253,-0.79230037\H,0,-2
 .47247692,0.17909947,0.29184769\H,0,-0.45281442,2.20932401,0.24126616\

 Normal termination of Gaussian 16 at Wed Apr  9 15:45:45 2025.
