 Gaussian 16, Revision C.01,

 ----------------------------------------------------------------------
 #t hf aug-cc-pvdz symm=none int=(grid=ultrafine) guess=(read,tcheck) s
 table=(opt,rrhf)
 ----------------------------------------------------------------------
 -----
 title
 -----
 Symbolic Z-matrix:
 Charge =  0 Multiplicity = 1

 SCF Done:  E(RHF) =  -307.616615675     A.U. after   16 cycles

 1\1\GINC-SE114\Stability\RHF\Aug-CC-pVDZ\C6H10O1\OHZDE\09-Apr-2025\0\\
 #t hf aug-cc-pvdz symm=none int=(grid=ultrafine) guess=(read,tcheck) s
 table=(opt,rrhf)\\title\\0,1\C,0,1.82338869,-0.53320019,-0.03607102\C,
 0,0.76879384,0.14926273,0.59342019\C,0,0.0015063,1.07424365,-0.3560702
 2\C,0,-1.40880905,0.83546412,0.14689438\O,0,-2.16522802,-0.00103178,-0
 .74583261\C,0,-1.49806323,-1.17105648,-0.23557393\C,0,-0.74693432,-0.3
 5770334,0.81442691\H,0,2.77490933,-0.68822621,0.45268055\H,0,2.2019834
 7,1.18442085,-0.80555832\H,0,1.65897433,-1.05444496,-0.97184145\H,0,1.

 Normal termination of Gaussian 16 at Wed Apr  9 16:31:20 2025.
 Gaussian 16:  ES64L-G16RevC.01  3-Jul-2019

 ----------------------------------------------------------------------
 #t hf aug-cc-pvdz iop(5/13=1,5/36=2,99/5=2) pseudo=read geom=check gue
 ss=(read,tcheck) scf=(maxcycle=1)
 ----------------------------------------------------------------------
 -----
 title
 -----
 Structure from the checkpoint file:  "Grambow2020_wb97xd3_008499_forward_mol1.chk"
 Charge =  0 Multiplicity = 1

                         Standard orientation:
 ---------------------------------------------------------------------
 Center     Atomic      Atomic             Coordinates (Angstroms)
 Number     Number       Type             X           Y           Z
 ---------------------------------------------------------------------
      1          6           0        2.144655   -0.654801   -0.300628
      2          6           0        1.199299   -0.004958    0.510661
      3          6           0        0.421874    1.086660   -0.230847
      4          6           0       -0.953759    0.864452    0.366845
      5          8           0       -1.841651    0.206238   -0.553621
      6          6           0       -1.218808   -1.060743   -0.268564
      7          6           0       -0.324389   -0.446913    0.804500
      8          1           0        3.120915   -0.932278    0.071160
      9          1           0        2.578105    1.127469   -0.867465
     10          1           0        1.863970   -1.030502   -1.277592
     11          1           0        1.597487    0.319170    1.471378
     12          1           0        2.051356    1.748157   -0.756490
     13          1           0        0.393767    0.908176   -1.308362
     14          1           0       -1.434029    1.606915    0.997287
     15          1           0       -0.715760   -1.496114   -1.135684
     16          1           0       -1.948918   -1.770760    0.125496
     17          1           0       -0.386920   -0.832315    1.817439
 ---------------------------------------------------------------------

 SCF Done:  E(RHF) =  -307.712524917     A.U. after    2 cycles

 The electronic state is 1-A.
 Alpha  occ. eigenvalues --  -20.57467 -11.30586 -11.30369 -11.28608 -11.27002
 Alpha  occ. eigenvalues --  -11.26180 -11.25500  -1.36455  -1.14391  -0.99860
 Alpha  occ. eigenvalues --   -0.97318  -0.86128  -0.82946  -0.74002  -0.69888
 Alpha  occ. eigenvalues --   -0.67776  -0.66169  -0.63567  -0.59210  -0.57547
 Alpha  occ. eigenvalues --   -0.54620  -0.52217  -0.48991  -0.46656  -0.45554
 Alpha  occ. eigenvalues --   -0.43318  -0.27159
 Alpha virt. eigenvalues --    0.02320   0.03956   0.04301   0.04605   0.05436
 Alpha virt. eigenvalues --    0.06251   0.06338   0.06688   0.07823   0.08916
 Alpha virt. eigenvalues --    0.09702   0.10877   0.12128   0.13016   0.13477

 Mulliken charges:
               1
     1  C    0.695820
     2  C   -0.020268
     3  C    0.104652
     4  C    0.927443
     5  O   -0.831290
     6  C    1.045782
     7  C    0.067036
     8  H   -0.353263
     9  H   -0.091697
    10  H   -0.265329
    11  H   -0.292744
    12  H    0.394205
    13  H   -0.412973
    14  H   -0.288347
    15  H   -0.195092
    16  H   -0.202477
    17  H   -0.281458
 Sum of Mulliken charges =   0.00000

 Dipole moment (field-independent basis, Debye):
    X=              0.2240    Y=             -2.0779    Z=              1.8362  Tot=              2.7819

 Test job not archived.
 1\1\GINC-SE114\SP\RHF\Aug-CC-pVDZ\C6H10O1\OHZDE\09-Apr-2025\0\\#t hf a
 ug-cc-pvdz iop(5/13=1,5/36=2,99/5=2) pseudo=read geom=check guess=(rea
 d,tcheck) scf=(maxcycle=1)\\title\\0,1\C,0,1.82338869,-0.53320019,-0.0
 3607102\C,0,0.76879384,0.14926273,0.59342019\C,0,0.0015063,1.07424365,
 -0.35607022\C,0,-1.40880905,0.83546412,0.14689438\O,0,-2.16522802,-0.0
 0103178,-0.74583261\C,0,-1.49806323,-1.17105648,-0.23557393\C,0,-0.746
 93432,-0.35770334,0.81442691\H,0,2.77490933,-0.68822621,0.45268055\H,0
 ,2.20198347,1.18442085,-0.80555832\H,0,1.65897433,-1.05444496,-0.97184

 Normal termination of Gaussian 16 at Wed Apr  9 16:31:26 2025.
