 Gaussian 16, Revision C.01,

 ----------------------------------------------------------------------
 #t hf aug-cc-pvdz symm=none int=(grid=ultrafine) guess=(read,tcheck) s
 table=(opt,rrhf)
 ----------------------------------------------------------------------
 -----
 title
 -----
 Symbolic Z-matrix:
 Charge =  0 Multiplicity = 1

 SCF Done:  E(RHF) =  -268.753797462     A.U. after   16 cycles
 Normal termination of Gaussian 16 at Wed Apr  9 03:16:00 2025.
 Gaussian 16:  ES64L-G16RevC.01  3-Jul-2019

 ----------------------------------------------------------------------
 #t hf aug-cc-pvdz iop(5/13=1,5/36=2,99/5=2) pseudo=read geom=check gue
 ss=(read,tcheck) scf=(maxcycle=1)
 ----------------------------------------------------------------------
 -----
 title
 -----
 Structure from the checkpoint file:  "Grambow2020_b97d3_007070_reverse_mol2.chk"
 Charge =  0 Multiplicity = 1

                         Standard orientation:
 ---------------------------------------------------------------------
 Center     Atomic      Atomic             Coordinates (Angstroms)
 Number     Number       Type             X           Y           Z
 ---------------------------------------------------------------------
      1          6           0        2.134179   -0.402176   -0.134684
      2          6           0        0.644816   -0.246016   -0.082177
      3          6           0       -0.294342   -1.151659    0.294410
      4          6           0       -1.633441   -0.525410    0.189531
      5          8           0       -1.317831    0.842169   -0.295665
      6          6           0       -0.015443    1.040166   -0.464503
      7          1           0        2.502117   -0.208990   -1.153002
      8          1           0        2.456483   -1.404731    0.173503
      9          1           0        2.614460    0.341456    0.517898
     10          1           0       -0.134934   -2.174936    0.629080
     11          1           0       -2.167103   -0.416910    1.143793
     12          1           0       -2.304578   -0.986167   -0.548369
     13          1           0        1.435097    3.060950    1.701100
     14          1           0        1.126497    2.762547    1.085857
 ---------------------------------------------------------------------

 SCF Done:  E(RHF) =  -268.838480198     A.U. after    2 cycles

 The electronic state is 1-A.
 Alpha  occ. eigenvalues --  -20.62910 -11.32056 -11.29720 -11.27856 -11.25717
 Alpha  occ. eigenvalues --  -11.24345  -1.39204  -1.09811  -1.01632  -0.93610
 Alpha  occ. eigenvalues --   -0.80933  -0.75993  -0.68465  -0.67836  -0.61915
 Alpha  occ. eigenvalues --   -0.57999  -0.57274  -0.56795  -0.53702  -0.52792
 Alpha  occ. eigenvalues --   -0.52719  -0.38246  -0.35805
 Alpha virt. eigenvalues --    0.02756   0.03979   0.04783   0.04919   0.06205
 Alpha virt. eigenvalues --    0.06889   0.07229   0.07983   0.09546   0.09907
 Alpha virt. eigenvalues --    0.11528   0.12430   0.13417   0.13715   0.14214

 Mulliken charges:
               1
     1  C    0.522402
     2  C   -0.394950
     3  C   -0.075741
     4  C    0.872318
     5  O   -0.524921
     6  C   -0.081368
     7  H    0.051255
     8  H   -0.088596
     9  H    0.041981
    10  H   -0.277023
    11  H   -0.037044
    12  H   -0.040285
    13  H   -0.060712
    14  H    0.092683
 Sum of Mulliken charges =   0.00000

 Dipole moment (field-independent basis, Debye):
    X=             -0.3370    Y=             -4.2682    Z=              1.3264  Tot=              4.4823

 Test job not archived.
 1\1\GINC-SE461\SP\RHF\Aug-CC-pVDZ\C5H8O1\OHZDE\09-Apr-2025\0\\#t hf au
 g-cc-pvdz iop(5/13=1,5/36=2,99/5=2) pseudo=read geom=check guess=(read
 ,tcheck) scf=(maxcycle=1)\\title\\0,1\C,0,-1.71114323,0.27341243,-0.68
 298455\C,0,-0.24870309,0.11820833,-0.39571244\C,0,0.7172108,1.07169999
 ,-0.35223554\C,0,2.00965266,0.42975592,-0.01478369\O,0,1.63828212,-1.0
 0166816,0.12088252\C,0,0.34564171,-1.22003445,-0.09200373\H,0,-1.99783
 625,-0.34488826,-1.54622508\H,0,-1.98434639,1.31605179,-0.88850604\H,0
 ,-2.30338721,-0.08718826,0.17067565\H,0,0.60489161,2.140435,-0.5245709

 Normal termination of Gaussian 16 at Wed Apr  9 03:16:04 2025.
