 Gaussian 16, Revision C.01,

 ----------------------------------------------------------------------
 #t hf aug-cc-pvdz symm=none int=(grid=ultrafine) guess=(read,tcheck) s
 table=(opt,rrhf)
 ----------------------------------------------------------------------
 -----
 title
 -----
 Symbolic Z-matrix:
 Charge =  0 Multiplicity = 1

 SCF Done:  E(RHF) =  -318.785356148     A.U. after   15 cycles
 Normal termination of Gaussian 16 at Wed Apr  9 15:27:56 2025.
 Gaussian 16:  ES64L-G16RevC.01  3-Jul-2019

 ----------------------------------------------------------------------
 #t hf aug-cc-pvdz iop(5/13=1,5/36=2,99/5=2) pseudo=read geom=check gue
 ss=(read,tcheck) scf=(maxcycle=1)
 ----------------------------------------------------------------------
 -----
 title
 -----
 Structure from the checkpoint file:  "Grambow2020_wb97xd3_006917_reverse_mol2.chk"
 Charge =  0 Multiplicity = 1

                         Standard orientation:
 ---------------------------------------------------------------------
 Center     Atomic      Atomic             Coordinates (Angstroms)
 Number     Number       Type             X           Y           Z
 ---------------------------------------------------------------------
      1          7           0        2.499950   -0.696324   -0.084894
      2          6           0        1.348403    0.078012    0.007592
      3          6           0        0.106203   -0.687405    0.004038
      4          6           0       -1.071908   -0.049482   -0.058914
      5          7           0       -2.459622   -0.551662    0.058919
      6          6           0       -2.018413    0.900013   -0.178345
      7          7           0        1.327223    1.356271    0.046871
      8          1           0        3.354651   -0.248013    0.197474
      9          1           0        2.427596   -1.653185    0.214565
     10          1           0        0.124416   -1.768937    0.003728
     11          1           0       -2.707805   -0.914337    0.972367
     12          1           0       -2.898366   -1.029740   -0.714702
     13          1           0       -2.325460    1.665373    0.516319
     14          1           0        2.266407    1.744028    0.017753
 ---------------------------------------------------------------------

 SCF Done:  E(RHF) =  -318.880621714     A.U. after    2 cycles

 The electronic state is 1-A.
 Alpha  occ. eigenvalues --  -15.72464 -15.62764 -15.56104 -11.31567 -11.31338
 Alpha  occ. eigenvalues --  -11.24566 -11.21988  -1.29336  -1.21537  -1.09108
 Alpha  occ. eigenvalues --   -1.02209  -0.95819  -0.81216  -0.76230  -0.72217
 Alpha  occ. eigenvalues --   -0.69455  -0.68044  -0.62996  -0.58024  -0.53315
 Alpha  occ. eigenvalues --   -0.53062  -0.50856  -0.42919  -0.39701  -0.35173
 Alpha  occ. eigenvalues --   -0.27598
 Alpha virt. eigenvalues --    0.02014   0.03312   0.04149   0.04697   0.06021
 Alpha virt. eigenvalues --    0.06534   0.09099   0.10665   0.11968   0.12119
 Alpha virt. eigenvalues --    0.12542   0.13131   0.13788   0.14553   0.15275

 Mulliken charges:
               1
     1  N   -0.240558
     2  C    0.451679
     3  C    1.283385
     4  C   -0.178390
     5  N   -0.147861
     6  C    0.165978
     7  N   -0.385172
     8  H   -0.021578
     9  H   -0.024395
    10  H   -0.624697
    11  H    0.025353
    12  H    0.065395
    13  H   -0.301639
    14  H   -0.067499
 Sum of Mulliken charges =  -0.00000

 Dipole moment (field-independent basis, Debye):
    X=             -1.5749    Y=             -4.6839    Z=              2.1891  Tot=              5.4048

 Test job not archived.
 1\1\GINC-SE129\SP\RHF\Aug-CC-pVDZ\C4H7N3\OHZDE\09-Apr-2025\0\\#t hf au
 g-cc-pvdz iop(5/13=1,5/36=2,99/5=2) pseudo=read geom=check guess=(read
 ,tcheck) scf=(maxcycle=1)\\title\\0,1\N,0,-2.49672238,-0.59553849,0.10
 113725\C,0,-1.3542627,0.19077615,-0.00231943\C,0,-0.10173773,-0.550180
 96,0.10304703\C,0,1.0632211,0.11152617,0.165246\N,0,2.46191953,-0.3728
 6065,0.13641978\C,0,1.98985434,1.08382983,0.25273061\N,0,-1.35087024,1
 .46325023,-0.13168565\H,0,-3.34635332,-0.18360272,-0.24479028\H,0,-2.3
 9821925,-1.56970187,-0.12645068\H,0,-0.10360828,-1.62914721,0.17967535

 Normal termination of Gaussian 16 at Wed Apr  9 15:28:00 2025.
