 Gaussian 16, Revision C.01,

 ----------------------------------------------------------------------
 #t hf aug-cc-pvdz symm=none int=(grid=ultrafine) guess=(read,tcheck) s
 table=(opt,rrhf)
 ----------------------------------------------------------------------
 -----
 title
 -----
 Symbolic Z-matrix:
 Charge =  0 Multiplicity = 1

 SCF Done:  E(RHF) =  -358.413702251     A.U. after   17 cycles
 Normal termination of Gaussian 16 at Wed Apr  9 03:39:15 2025.
 Gaussian 16:  ES64L-G16RevC.01  3-Jul-2019

 ----------------------------------------------------------------------
 #t hf aug-cc-pvdz iop(5/13=1,5/36=2,99/5=2) pseudo=read geom=check gue
 ss=(read,tcheck) scf=(maxcycle=1)
 ----------------------------------------------------------------------
 -----
 title
 -----
 Structure from the checkpoint file:  "Grambow2020_wb97xd3_007450_forward_mol1.chk"
 Charge =  0 Multiplicity = 1

                         Standard orientation:
 ---------------------------------------------------------------------
 Center     Atomic      Atomic             Coordinates (Angstroms)
 Number     Number       Type             X           Y           Z
 ---------------------------------------------------------------------
      1          8           0       -2.477757   -0.436766   -0.109380
      2          6           0       -1.623527    0.659365    0.067894
      3          6           0       -0.168704    0.311725    0.007661
      4          7           0        0.202168   -0.930929    0.040672
      5          8           0        1.546589   -0.992972   -0.010700
      6          6           0        1.995197    0.329786   -0.039446
      7          6           0        0.929489    1.265888   -0.123285
      8          1           0       -2.058412   -1.220238    0.255898
      9          1           0       -1.838519    1.387594   -0.717080
     10          1           0       -1.806111    1.166138    1.026242
     11          1           0        3.013861    0.431604   -0.391751
     12          1           0        1.928616    0.788723    1.025684
 ---------------------------------------------------------------------

 SCF Done:  E(RHF) =  -358.520937674     A.U. after    2 cycles

 The electronic state is 1-A.
 Alpha  occ. eigenvalues --  -20.67294 -20.58204 -15.73775 -11.34592 -11.31105
 Alpha  occ. eigenvalues --  -11.30725 -11.29030  -1.48163  -1.34201  -1.17370
 Alpha  occ. eigenvalues --   -1.10955  -0.97233  -0.85005  -0.81926  -0.75524
 Alpha  occ. eigenvalues --   -0.72535  -0.68186  -0.64568  -0.63618  -0.59947
 Alpha  occ. eigenvalues --   -0.54260  -0.52073  -0.50621  -0.48475  -0.42557
 Alpha  occ. eigenvalues --   -0.40895
 Alpha virt. eigenvalues --    0.02857   0.03840   0.04548   0.04815   0.05844
 Alpha virt. eigenvalues --    0.06954   0.08506   0.09110   0.11054   0.12614
 Alpha virt. eigenvalues --    0.13330   0.13425   0.13913   0.14900   0.15288

 Mulliken charges:
               1
     1  O   -0.526212
     2  C    0.957745
     3  C    0.002054
     4  N   -0.217789
     5  O   -0.624916
     6  C    0.880075
     7  C   -0.814768
     8  H    0.161564
     9  H   -0.037170
    10  H    0.050879
    11  H   -0.149905
    12  H    0.318442
 Sum of Mulliken charges =  -0.00000

 Dipole moment (field-independent basis, Debye):
    X=              2.2468    Y=              0.6101    Z=              1.1648  Tot=              2.6033

 Test job not archived.
 1\1\GINC-SE041\SP\RHF\Aug-CC-pVDZ\C4H5N1O2\OHZDE\09-Apr-2025\0\\#t hf
 aug-cc-pvdz iop(5/13=1,5/36=2,99/5=2) pseudo=read geom=check guess=(re
 ad,tcheck) scf=(maxcycle=1)\\title\\0,1\O,0,-2.40395366,0.75966206,-0.
 34871232\C,0,-1.61799186,-0.26781993,0.18904481\C,0,-0.14513281,-0.014
 00942,0.10385928\N,0,0.30347944,0.95589095,-0.6315752\O,0,1.64834022,0
 .97823245,-0.56225733\C,0,2.0125422,-0.09430197,0.25553848\C,0,0.88911
 125,-0.7564577,0.81989859\H,0,-1.93140024,1.16121111,-1.08257682\H,0,-
 1.88872203,-0.38742678,1.24029288\H,0,-1.81929848,-1.23177486,-0.29968

 Normal termination of Gaussian 16 at Wed Apr  9 03:39:20 2025.
