 Gaussian 16, Revision C.01,

 ----------------------------------------------------------------------
 #t hf aug-cc-pvdz symm=none int=(grid=ultrafine) guess=(read,tcheck) s
 table=(opt,rrhf)
 ----------------------------------------------------------------------
 -----
 title
 -----
 Symbolic Z-matrix:
 Charge =  0 Multiplicity = 1

 SCF Done:  E(RHF) =  -286.071339159     A.U. after   13 cycles
 Normal termination of Gaussian 16 at Wed Apr  9 14:22:22 2025.
 Gaussian 16:  ES64L-G16RevC.01  3-Jul-2019

 ----------------------------------------------------------------------
 #t hf aug-cc-pvdz iop(5/13=1,5/36=2,99/5=2) pseudo=read geom=check gue
 ss=(read,tcheck) scf=(maxcycle=1)
 ----------------------------------------------------------------------
 -----
 title
 -----
 Structure from the checkpoint file:  "Grambow2020_wb97xd3_006067_reverse_mol2.chk"
 Charge =  0 Multiplicity = 1

                         Standard orientation:
 ---------------------------------------------------------------------
 Center     Atomic      Atomic             Coordinates (Angstroms)
 Number     Number       Type             X           Y           Z
 ---------------------------------------------------------------------
      1          6           0        2.695719   -0.054344    0.011117
      2          6           0        1.268305    0.203727   -0.450106
      3          6           0        0.235207   -0.359195    0.528165
      4          6           0       -1.177568   -0.104078    0.088581
      5          8           0       -1.473385    1.210613    0.093790
      6          7           0       -2.058179   -0.933908   -0.274457
      7          1           0        3.418137    0.348140   -0.700500
      8          1           0        2.892063   -1.124342    0.115221
      9          1           0        2.886915    0.413076    0.980035
     10          1           0        1.100045    1.276484   -0.566474
     11          1           0        1.108094   -0.244983   -1.434902
     12          1           0        0.376613   -1.435307    0.648179
     13          1           0        0.375756    0.101164    1.510652
     14          1           0       -1.708719   -1.884012   -0.232931
     15          1           0       -2.384547    1.285572   -0.214944
 ---------------------------------------------------------------------

 SCF Done:  E(RHF) =  -286.162109715     A.U. after    2 cycles

 The electronic state is 1-A.
 Alpha  occ. eigenvalues --  -20.60732 -15.59990 -11.35201 -11.25167 -11.24175
 Alpha  occ. eigenvalues --  -11.23191  -1.38866  -1.16573  -1.07122  -0.96553
 Alpha  occ. eigenvalues --   -0.84130  -0.80835  -0.72575  -0.66146  -0.63627
 Alpha  occ. eigenvalues --   -0.62192  -0.59070  -0.56778  -0.55373  -0.52094
 Alpha  occ. eigenvalues --   -0.49837  -0.48658  -0.42448  -0.40631
 Alpha virt. eigenvalues --    0.03338   0.04371   0.04599   0.04699   0.06470
 Alpha virt. eigenvalues --    0.06967   0.07273   0.07410   0.09336   0.11511
 Alpha virt. eigenvalues --    0.12665   0.13069   0.14221   0.15036   0.15623

 Mulliken charges:
               1
     1  C    0.416433
     2  C    0.089232
     3  C    0.311500
     4  C    0.552225
     5  O   -0.546166
     6  N   -0.401515
     7  H   -0.060907
     8  H   -0.062667
     9  H   -0.052286
    10  H   -0.095423
    11  H   -0.146904
    12  H   -0.159926
    13  H   -0.018097
    14  H    0.018183
    15  H    0.156317
 Sum of Mulliken charges =  -0.00000

 Dipole moment (field-independent basis, Debye):
    X=              1.7772    Y=             -0.4340    Z=              0.3171  Tot=              1.8567

 Test job not archived.
 1\1\GINC-SE057\SP\RHF\Aug-CC-pVDZ\C4H9N1O1\OHZDE\09-Apr-2025\0\\#t hf
 aug-cc-pvdz iop(5/13=1,5/36=2,99/5=2) pseudo=read geom=check guess=(re
 ad,tcheck) scf=(maxcycle=1)\\title\\0,1\C,0,2.13965108,-0.0679746,-0.4
 8252837\C,0,0.66183372,0.27051758,-0.61787215\C,0,-0.16247087,-0.26506
 432,0.55467204\C,0,-1.62147652,0.06923863,0.43721314\O,0,-1.8391693,1.
 39626513,0.52413682\N,0,-2.60252025,-0.70759423,0.26408508\H,0,2.71055
 301,0.31604934,-1.32921387\H,0,2.29706051,-1.14848937,-0.43786108\H,0,
 2.56111882,0.36581737,0.42743214\H,0,0.52927996,1.35271779,-0.68059579

 Normal termination of Gaussian 16 at Wed Apr  9 14:22:27 2025.
