 Gaussian 16, Revision C.01,

 ----------------------------------------------------------------------
 #t hf aug-cc-pvdz symm=none int=(grid=ultrafine) guess=(read,tcheck) s
 table=(opt,rrhf)
 ----------------------------------------------------------------------
 -----
 title
 -----
 Symbolic Z-matrix:
 Charge =  0 Multiplicity = 1

 SCF Done:  E(RHF) =  -359.719712623     A.U. after   15 cycles
 Normal termination of Gaussian 16 at Wed Apr  9 03:52:39 2025.
 Gaussian 16:  ES64L-G16RevC.01  3-Jul-2019

 ----------------------------------------------------------------------
 #t hf aug-cc-pvdz iop(5/13=1,5/36=2,99/5=2) pseudo=read geom=check gue
 ss=(read,tcheck) scf=(maxcycle=1)
 ----------------------------------------------------------------------
 -----
 title
 -----
 Structure from the checkpoint file:  "Grambow2020_wb97xd3_008366_forward_mol2.chk"
 Charge =  0 Multiplicity = 1

                         Standard orientation:
 ---------------------------------------------------------------------
 Center     Atomic      Atomic             Coordinates (Angstroms)
 Number     Number       Type             X           Y           Z
 ---------------------------------------------------------------------
      1          8           0        1.262819   -1.450875   -0.253738
      2          6           0        1.165949   -0.172133    0.312089
      3          6           0        0.998628    1.047173   -0.613044
      4          7           0       -0.107742    1.510332    0.250639
      5          6           0       -0.243372    0.176540    0.833236
      6          6           0       -1.323747   -0.685970    0.222038
      7          8           0       -2.107281   -0.279340   -0.592302
      8          1           0        2.162368   -1.602592   -0.547548
      9          1           0        1.927904   -0.014697    1.080057
     10          1           0        0.681444    0.728118   -1.611027
     11          1           0        1.834700    1.744302   -0.692788
     12          1           0       -0.937376    1.797711   -0.254925
     13          1           0       -0.374382    0.149966    1.921642
     14          1           0       -1.369516   -1.727070    0.592506
 ---------------------------------------------------------------------

 SCF Done:  E(RHF) =  -359.829211309     A.U. after    2 cycles

 The electronic state is 1-A.
 Alpha  occ. eigenvalues --  -20.59628 -20.57788 -15.61504 -11.34479 -11.31311
 Alpha  occ. eigenvalues --  -11.28205 -11.26819  -1.37079  -1.35383  -1.22312
 Alpha  occ. eigenvalues --   -0.98214  -0.95838  -0.84231  -0.77255  -0.74178
 Alpha  occ. eigenvalues --   -0.70770  -0.69244  -0.64763  -0.62458  -0.58753
 Alpha  occ. eigenvalues --   -0.56850  -0.54779  -0.53627  -0.48927  -0.45247
 Alpha  occ. eigenvalues --   -0.44201  -0.38465
 Alpha virt. eigenvalues --    0.02712   0.03885   0.04568   0.04937   0.06431
 Alpha virt. eigenvalues --    0.07091   0.07347   0.10070   0.10727   0.11152
 Alpha virt. eigenvalues --    0.12895   0.13352   0.13884   0.14307   0.14929

 Mulliken charges:
               1
     1  O   -0.568802
     2  C    0.511389
     3  C    0.812195
     4  N   -0.657304
     5  C    0.334686
     6  C    0.749042
     7  O   -0.508550
     8  H    0.140087
     9  H   -0.148690
    10  H   -0.198913
    11  H   -0.199232
    12  H    0.062282
    13  H   -0.190123
    14  H   -0.138065
 Sum of Mulliken charges =  -0.00000

 Dipole moment (field-independent basis, Debye):
    X=              3.4233    Y=             -0.7050    Z=              1.1162  Tot=              3.6690

 Test job not archived.
 1\1\GINC-SE364\SP\RHF\Aug-CC-pVDZ\C4H7N1O2\OHZDE\09-Apr-2025\0\\#t hf
 aug-cc-pvdz iop(5/13=1,5/36=2,99/5=2) pseudo=read geom=check guess=(re
 ad,tcheck) scf=(maxcycle=1)\\title\\0,1\O,0,-0.67503224,-1.47251451,0.
 92057482\C,0,-0.72292926,-0.63560148,-0.20281564\C,0,-1.09061481,0.848
 07546,-0.01819664\N,0,0.07156921,1.20740656,-0.85767841\C,0,0.65718567
 ,-0.11667017,-0.6559672\C,0,1.700857,-0.19956458,0.4342509\O,0,2.12423
 367,0.76359242,1.01347906\H,0,-1.56161306,-1.76252893,1.14056955\H,0,-
 1.266491,-1.10301145,-1.02816766\H,0,-0.98845568,1.13852349,1.03231548

 Normal termination of Gaussian 16 at Wed Apr  9 03:52:43 2025.
