 Gaussian 16, Revision C.01,

 ----------------------------------------------------------------------
 #t hf aug-cc-pvdz symm=none int=(grid=ultrafine) guess=(read,tcheck) s
 table=(opt,rrhf)
 ----------------------------------------------------------------------
 -----
 title
 -----
 Symbolic Z-matrix:
 Charge =  0 Multiplicity = 1

 SCF Done:  E(RHF) =  -266.770561612     A.U. after   14 cycles
 Normal termination of Gaussian 16 at Wed Apr  9 03:02:34 2025.
 Gaussian 16:  ES64L-G16RevC.01  3-Jul-2019

 ----------------------------------------------------------------------
 #t hf aug-cc-pvdz iop(5/13=1,5/36=2,99/5=2) pseudo=read geom=check gue
 ss=(read,tcheck) scf=(maxcycle=1)
 ----------------------------------------------------------------------
 -----
 title
 -----
 Structure from the checkpoint file:  "Grambow2020_b97d3_006474_reverse_mol2.chk"
 Charge =  0 Multiplicity = 1

                         Standard orientation:
 ---------------------------------------------------------------------
 Center     Atomic      Atomic             Coordinates (Angstroms)
 Number     Number       Type             X           Y           Z
 ---------------------------------------------------------------------
      1          8           0        2.250669   -0.549056   -0.099551
      2          6           0       -1.495952   -1.194226   -0.093514
      3          6           0       -0.861895   -0.026065   -0.046371
      4          6           0       -0.293831    1.185546   -0.579986
      5          8           0       -0.215512    0.766066    0.860991
      6          1           0        1.768587   -0.114651    0.629718
      7          1           0       -1.908466   -1.549299   -1.034796
      8          1           0       -1.633010   -1.795117    0.803541
      9          1           0        1.651029   -1.279163   -0.337568
     10          1           0       -0.920826    2.063930   -0.745545
     11          1           0        0.671496    1.146696   -1.087650
 ---------------------------------------------------------------------

 SCF Done:  E(RHF) =  -266.856934213     A.U. after    2 cycles

 The electronic state is 1-A.
 Alpha  occ. eigenvalues --  -20.62764 -20.56936 -11.34160 -11.33219 -11.25345
 Alpha  occ. eigenvalues --   -1.41465  -1.29656  -1.02786  -0.95098  -0.79074
 Alpha  occ. eigenvalues --   -0.71810  -0.69783  -0.68187  -0.63962  -0.59243
 Alpha  occ. eigenvalues --   -0.57436  -0.53329  -0.51482  -0.49182  -0.37925
 Alpha virt. eigenvalues --    0.03232   0.04097   0.04959   0.05692   0.07238
 Alpha virt. eigenvalues --    0.07667   0.09127   0.10307   0.11482   0.12735
 Alpha virt. eigenvalues --    0.14476   0.15306   0.16021   0.16805   0.17651

 Mulliken charges:
               1
     1  O   -0.369170
     2  C    0.738198
     3  C   -0.085778
     4  C    0.826159
     5  O   -0.688452
     6  H    0.208338
     7  H   -0.208101
     8  H   -0.276732
     9  H    0.173362
    10  H   -0.167297
    11  H   -0.150527
 Sum of Mulliken charges =  -0.00000

 Dipole moment (field-independent basis, Debye):
    X=             -2.4094    Y=              0.0347    Z=             -1.4961  Tot=              2.8363

 Test job not archived.
 1\1\GINC-SE340\SP\RHF\Aug-CC-pVDZ\C3H6O2\OHZDE\09-Apr-2025\0\\#t hf au
 g-cc-pvdz iop(5/13=1,5/36=2,99/5=2) pseudo=read geom=check guess=(read
 ,tcheck) scf=(maxcycle=1)\\title\\0,1\O,0,0.11275093,0.48668863,-2.338
 43322\C,0,-1.04958008,0.5884672,1.27986436\C,0,-0.14512974,-0.21562271
 ,0.72826816\C,0,1.17748001,-0.65235419,0.36028439\O,0,-0.09423811,-1.3
 5018078,-0.03250546\H,0,-0.17679615,-0.37566979,-1.98425102\H,0,-0.727
 18317,1.45777453,1.84786348\H,0,-2.11403191,0.37823019,1.19439563\H,0,
 -0.34717953,1.11534376,-1.75317086\H,0,1.78787175,-1.22096872,1.064692

 Normal termination of Gaussian 16 at Wed Apr  9 03:02:36 2025.
