 Gaussian 16, Revision C.01,

 ----------------------------------------------------------------------
 #t hf aug-cc-pvdz symm=none int=(grid=ultrafine) guess=(read,tcheck) s
 table=(opt,rrhf)
 ----------------------------------------------------------------------
 -----
 title
 -----
 Symbolic Z-matrix:
 Charge =  0 Multiplicity = 1

 SCF Done:  E(RHF) =  -359.775763506     A.U. after   13 cycles
 Normal termination of Gaussian 16 at Wed Apr  9 03:51:35 2025.
 Gaussian 16:  ES64L-G16RevC.01  3-Jul-2019

 ----------------------------------------------------------------------
 #t hf aug-cc-pvdz iop(5/13=1,5/36=2,99/5=2) pseudo=read geom=check gue
 ss=(read,tcheck) scf=(maxcycle=1)
 ----------------------------------------------------------------------
 -----
 title
 -----
 Structure from the checkpoint file:  "Grambow2020_wb97xd3_008265_reverse_mol2.chk"
 Charge =  0 Multiplicity = 1

                         Standard orientation:
 ---------------------------------------------------------------------
 Center     Atomic      Atomic             Coordinates (Angstroms)
 Number     Number       Type             X           Y           Z
 ---------------------------------------------------------------------
      1          6           0        2.194898   -0.638273   -0.415621
      2          6           0        1.093851   -0.083318    0.456143
      3          6           0        0.587180    1.324822    0.056256
      4          7           0       -0.842601    1.163139   -0.176759
      5          6           0       -1.074761   -0.069132   -0.009581
      6          8           0       -2.246045   -0.675361   -0.140291
      7          8           0       -0.090887   -0.906771    0.330035
      8          1           0        1.893040   -0.629251   -1.464660
      9          1           0        2.444177   -1.661152   -0.131967
     10          1           0        3.091633   -0.023954   -0.309582
     11          1           0        1.385176   -0.122999    1.508438
     12          1           0        1.082457    1.682058   -0.851926
     13          1           0        0.770542    2.062627    0.839713
     14          1           0       -2.880365    0.003155   -0.393838
 ---------------------------------------------------------------------

 SCF Done:  E(RHF) =  -359.889291874     A.U. after    2 cycles

 The electronic state is 1-A.
 Alpha  occ. eigenvalues --  -20.62919 -20.61568 -15.59992 -11.40574 -11.31050
 Alpha  occ. eigenvalues --  -11.27034 -11.24008  -1.44992  -1.37258  -1.18722
 Alpha  occ. eigenvalues --   -1.05951  -0.93747  -0.87781  -0.81329  -0.74046
 Alpha  occ. eigenvalues --   -0.71195  -0.68410  -0.64656  -0.61307  -0.58266
 Alpha  occ. eigenvalues --   -0.57872  -0.56710  -0.54719  -0.51868  -0.49934
 Alpha  occ. eigenvalues --   -0.43081  -0.37617
 Alpha virt. eigenvalues --    0.03295   0.04116   0.04555   0.04837   0.06458
 Alpha virt. eigenvalues --    0.06953   0.07600   0.10129   0.10600   0.12153
 Alpha virt. eigenvalues --    0.13299   0.14271   0.14758   0.15062   0.15689

 Mulliken charges:
               1
     1  C    0.404085
     2  C    0.221152
     3  C    0.777868
     4  N   -0.464836
     5  C    0.584599
     6  O   -0.417034
     7  O   -0.623435
     8  H   -0.019437
     9  H   -0.044088
    10  H    0.017949
    11  H   -0.232370
    12  H   -0.206784
    13  H   -0.121389
    14  H    0.123721
 Sum of Mulliken charges =  -0.00000

 Dipole moment (field-independent basis, Debye):
    X=              1.6428    Y=              0.7310    Z=              0.0800  Tot=              1.7999

 Test job not archived.
 1\1\GINC-SE108\SP\RHF\Aug-CC-pVDZ\C4H7N1O2\OHZDE\09-Apr-2025\0\\#t hf
 aug-cc-pvdz iop(5/13=1,5/36=2,99/5=2) pseudo=read geom=check guess=(re
 ad,tcheck) scf=(maxcycle=1)\\title\\0,1\C,0,-1.59505466,-0.96323849,0.
 01152036\C,0,-0.43279364,-0.2314342,-0.61606547\C,0,-0.19332096,1.2019
 3496,-0.0797914\N,0,1.17784376,1.1993868,0.4147895\C,0,1.59295712,0.01
 538261,0.25306842\O,0,2.78808498,-0.45284023,0.5831314\O,0,0.8041616,-
 0.91308587,-0.29532466\H,0,-1.49517831,-0.97836443,1.09847907\H,0,-1.6
 5452527,-1.99062436,-0.34878818\H,0,-2.52821483,-0.45556232,-0.2419417

 Normal termination of Gaussian 16 at Wed Apr  9 03:51:39 2025.
