 Gaussian 16, Revision C.01,

 ----------------------------------------------------------------------
 #t hf aug-cc-pvdz symm=none int=(grid=ultrafine) guess=(read,tcheck) s
 table=(opt,rrhf)
 ----------------------------------------------------------------------
 -----
 title
 -----
 Symbolic Z-matrix:
 Charge =  0 Multiplicity = 1

 SCF Done:  E(RHF) =  -343.553958322     A.U. after   15 cycles
 Normal termination of Gaussian 16 at Wed Apr  9 15:38:07 2025.
 Gaussian 16:  ES64L-G16RevC.01  3-Jul-2019

 ----------------------------------------------------------------------
 #t hf aug-cc-pvdz iop(5/13=1,5/36=2,99/5=2) pseudo=read geom=check gue
 ss=(read,tcheck) scf=(maxcycle=1)
 ----------------------------------------------------------------------
 -----
 title
 -----
 Structure from the checkpoint file:  "Grambow2020_wb97xd3_007225_forward_mol1.chk"
 Charge =  0 Multiplicity = 1

                         Standard orientation:
 ---------------------------------------------------------------------
 Center     Atomic      Atomic             Coordinates (Angstroms)
 Number     Number       Type             X           Y           Z
 ---------------------------------------------------------------------
      1          8           0        2.503518   -0.064160    0.034700
      2          6           0        1.273520   -0.687801   -0.298472
      3          6           0        0.177887   -0.029375    0.497056
      4          6           0       -0.129431    1.397405    0.000421
      5          6           0       -1.489868    0.937639   -0.417057
      6          6           0       -1.271715   -0.381476    0.047553
      7          8           0       -1.857732   -1.441484    0.082603
      8          1           0        3.214049   -0.506803   -0.431602
      9          1           0        1.280708   -1.754686   -0.052505
     10          1           0        1.057266   -0.590517   -1.370519
     11          1           0        0.383034   -0.113227    1.567817
     12          1           0        0.078868    2.081850    1.105166
     13          1           0        0.538335    2.005946   -0.606962
     14          1           0       -2.273535    1.477344   -0.926182
     15          1           0       -0.807373    2.026891    0.799365
 ---------------------------------------------------------------------

 SCF Done:  E(RHF) =  -343.659962902     A.U. after    2 cycles

 The electronic state is 1-A.
 Alpha  occ. eigenvalues --  -20.59046 -20.50429 -11.34328 -11.31103 -11.30476
 Alpha  occ. eigenvalues --  -11.26812 -11.22091  -1.34298  -1.30298  -1.17942
 Alpha  occ. eigenvalues --   -1.00409  -0.93441  -0.85239  -0.73985  -0.73581
 Alpha  occ. eigenvalues --   -0.69486  -0.66642  -0.64152  -0.61781  -0.60115
 Alpha  occ. eigenvalues --   -0.55363  -0.53433  -0.51901  -0.50158  -0.47506
 Alpha  occ. eigenvalues --   -0.38628  -0.30852
 Alpha virt. eigenvalues --    0.01823   0.03308   0.03987   0.04698   0.05966
 Alpha virt. eigenvalues --    0.06472   0.06863   0.07301   0.10377   0.11623
 Alpha virt. eigenvalues --    0.11915   0.12429   0.13605   0.14089   0.14798

 Mulliken charges:
               1
     1  O   -0.559465
     2  C    0.951073
     3  C   -0.279205
     4  C    0.060020
     5  C    0.378483
     6  C    0.052660
     7  O   -0.567160
     8  H    0.145762
     9  H   -0.055748
    10  H   -0.039992
    11  H   -0.070023
    12  H    0.144878
    13  H   -0.206258
    14  H   -0.288096
    15  H    0.333071
 Sum of Mulliken charges =  -0.00000

 Dipole moment (field-independent basis, Debye):
    X=              4.3109    Y=              4.9733    Z=              0.2178  Tot=              6.5852

 Test job not archived.
 1\1\GINC-SE043\SP\RHF\Aug-CC-pVDZ\C5H8O2\OHZDE\09-Apr-2025\0\\#t hf au
 g-cc-pvdz iop(5/13=1,5/36=2,99/5=2) pseudo=read geom=check guess=(read
 ,tcheck) scf=(maxcycle=1)\\title\\0,1\O,0,2.25255359,0.54399258,0.2858
 981\C,0,1.40655928,-0.51442966,-0.13465266\C,0,0.0255566,-0.26151894,0
 .40910315\C,0,-0.67804112,0.91099068,-0.30290923\C,0,-1.68725888,-0.05
 009416,-0.84536263\C,0,-1.09822004,-1.15839893,-0.19098483\O,0,-1.2630
 3629,-2.35571249,-0.10416855\H,0,3.14494597,0.36879011,-0.01603592\H,0
 ,1.75077655,-1.48262037,0.24339046\H,0,1.36354713,-0.57626598,-1.23002

 Normal termination of Gaussian 16 at Wed Apr  9 15:38:13 2025.
