 Gaussian 16, Revision C.01,

 ----------------------------------------------------------------------
 #t hf aug-cc-pvdz symm=none int=(grid=ultrafine) guess=(read,tcheck) s
 table=(opt,rrhf)
 ----------------------------------------------------------------------
 -----
 title
 -----
 Symbolic Z-matrix:
 Charge =  0 Multiplicity = 1

 SCF Done:  E(RHF) =  -302.670727890     A.U. after   17 cycles
 Normal termination of Gaussian 16 at Wed Apr  9 04:05:53 2025.
 Gaussian 16:  ES64L-G16RevC.01  3-Jul-2019

 ----------------------------------------------------------------------
 #t hf aug-cc-pvdz iop(5/13=1,5/36=2,99/5=2) pseudo=read geom=check gue
 ss=(read,tcheck) scf=(maxcycle=1)
 ----------------------------------------------------------------------
 -----
 title
 -----
 Structure from the checkpoint file:  "Grambow2020_wb97xd3_009324_forward_mol1.chk"
 Charge =  0 Multiplicity = 1

                         Standard orientation:
 ---------------------------------------------------------------------
 Center     Atomic      Atomic             Coordinates (Angstroms)
 Number     Number       Type             X           Y           Z
 ---------------------------------------------------------------------
      1          6           0        2.338104   -0.402417    0.129286
      2          7           0        0.928629   -0.106595   -0.005764
      3          6           0       -0.022550   -0.886094   -0.458447
      4          6           0       -1.210543   -0.127652   -0.334391
      5          6           0       -2.323742   -0.605539    0.282054
      6          6           0       -0.721579    1.222856   -0.186266
      7          7           0        0.541864    1.228333    0.062754
      8          1           0        2.711881    0.148304    0.986703
      9          1           0        2.868773   -0.104398   -0.776496
     10          1           0        2.454278   -1.469591    0.301599
     11          1           0        0.100599   -1.955864   -0.508353
     12          1           0        0.106237   -0.204618    2.120472
     13          1           0       -2.495477   -1.669146    0.383924
     14          1           0       -3.101147    0.061586    0.629211
     15          1           0       -1.296728    2.134640   -0.129413
 ---------------------------------------------------------------------

 SCF Done:  E(RHF) =  -302.761029162     A.U. after    2 cycles

 The electronic state is 1-A.
 Alpha  occ. eigenvalues --  -15.76687 -15.68936 -11.33217 -11.32337 -11.30869
 Alpha  occ. eigenvalues --  -11.29748 -11.28290  -1.38308  -1.16082  -1.12015
 Alpha  occ. eigenvalues --   -1.01466  -0.92480  -0.82958  -0.81708  -0.74253
 Alpha  occ. eigenvalues --   -0.68149  -0.66108  -0.65804  -0.62659  -0.58628
 Alpha  occ. eigenvalues --   -0.57912  -0.56303  -0.48282  -0.41500  -0.40554
 Alpha  occ. eigenvalues --   -0.21312
 Alpha virt. eigenvalues --    0.00666   0.02576   0.03340   0.03973   0.05345
 Alpha virt. eigenvalues --    0.05832   0.06429   0.08232   0.09023   0.10250
 Alpha virt. eigenvalues --    0.10965   0.11743   0.12455   0.13555   0.13954

 Mulliken charges:
               1
     1  C    0.947394
     2  N   -0.679719
     3  C    0.337568
     4  C    0.044998
     5  C    0.986468
     6  C    0.351849
     7  N   -0.024287
     8  H   -0.087214
     9  H   -0.027042
    10  H   -0.181593
    11  H   -0.453714
    12  H   -0.445262
    13  H   -0.231202
    14  H   -0.244450
    15  H   -0.293793
 Sum of Mulliken charges =   0.00000

 Dipole moment (field-independent basis, Debye):
    X=             -1.0926    Y=             -1.7990    Z=             -5.9534  Tot=              6.3145

 Test job not archived.
 1\1\GINC-SE094\SP\RHF\Aug-CC-pVDZ\C5H8N2\OHZDE\09-Apr-2025\0\\#t hf au
 g-cc-pvdz iop(5/13=1,5/36=2,99/5=2) pseudo=read geom=check guess=(read
 ,tcheck) scf=(maxcycle=1)\\title\\0,1\C,0,-2.24409821,-0.02430114,-0.4
 9585279\N,0,-0.89118834,0.10057916,0.00054279\C,0,-0.07115871,-0.85432
 45,0.36522569\C,0,1.12813676,-0.19365912,0.72182178\C,0,2.33923879,-0.
 55217382,0.21953378\C,0,0.70399492,1.17367482,0.90997148\N,0,-0.477069
 41,1.35745292,0.43076128\H,0,-2.41751809,0.78847282,-1.19405773\H,0,-2
 .95073445,0.02829954,0.33406517\H,0,-2.33819609,-0.97621009,-1.0126355

 Normal termination of Gaussian 16 at Wed Apr  9 04:05:58 2025.
