 Gaussian 16, Revision C.01,

 ----------------------------------------------------------------------
 #t hf aug-cc-pvdz symm=none int=(grid=ultrafine) guess=(read,tcheck) s
 table=(opt,rrhf)
 ----------------------------------------------------------------------
 -----
 title
 -----
 Symbolic Z-matrix:
 Charge =  0 Multiplicity = 1

 SCF Done:  E(RHF) =  -308.937525108     A.U. after   15 cycles

 1\1\GINC-SE054\Stability\RHF\Aug-CC-pVDZ\C6H12O1\OHZDE\09-Apr-2025\0\\
 #t hf aug-cc-pvdz symm=none int=(grid=ultrafine) guess=(read,tcheck) s
 table=(opt,rrhf)\\title\\0,1\C,0,2.63949789,-1.38575691,0.70846817\O,0
 ,1.38917782,-1.11716262,0.45494165\C,0,0.56901282,-0.3133791,1.0286837
 6\C,0,-0.30782103,1.7316921,-1.14269272\C,0,-1.11116905,1.27231556,0.0
 6704821\C,0,-0.82462853,-0.17787123,0.50828047\C,0,-1.13741813,-1.1957
 0126,-0.58409235\H,0,3.08393444,-2.12640761,0.06910329\H,0,3.13090979,
 -0.88930814,1.5332744\H,0,0.76400915,1.59645359,-0.97773412\H,0,0.9398

 Normal termination of Gaussian 16 at Wed Apr  9 03:54:05 2025.
 Gaussian 16:  ES64L-G16RevC.01  3-Jul-2019

 ----------------------------------------------------------------------
 #t hf aug-cc-pvdz iop(5/13=1,5/36=2,99/5=2) pseudo=read geom=check gue
 ss=(read,tcheck) scf=(maxcycle=1)
 ----------------------------------------------------------------------
 -----
 title
 -----
 Structure from the checkpoint file:  "Grambow2020_wb97xd3_008397_reverse_mol2.chk"
 Charge =  0 Multiplicity = 1

                         Standard orientation:
 ---------------------------------------------------------------------
 Center     Atomic      Atomic             Coordinates (Angstroms)
 Number     Number       Type             X           Y           Z
 ---------------------------------------------------------------------
      1          6           0       -2.784159   -0.520914   -0.249100
      2          8           0       -1.604840    0.024943   -0.144386
      3          6           0       -0.694147   -0.106644    0.750734
      4          6           0        1.812506   -1.217845   -0.714856
      5          6           0        1.787160   -0.351090    0.537327
      6          6           0        0.598132    0.629155    0.609199
      7          6           0        0.579838    1.614966   -0.554818
      8          1           0       -3.353833   -0.211237   -1.106099
      9          1           0       -3.120806   -1.204978    0.517045
     10          1           0        0.872372   -1.761692   -0.836097
     11          1           0       -0.894392   -0.785118    1.575883
     12          1           0        2.618299   -1.951884   -0.663323
     13          1           0        1.969826   -0.622007   -1.615665
     14          1           0        2.715948    0.223944    0.611846
     15          1           0        1.757117   -0.994502    1.422490
     16          1           0        0.744474    1.211344    1.529736
     17          1           0        1.543222    2.122774   -0.630006
     18          1           0        0.384264    1.116770   -1.505064
     19          1           0       -0.193750    2.371272   -0.416572
 ---------------------------------------------------------------------

 SCF Done:  E(RHF) =  -309.037294448     A.U. after    2 cycles

 The electronic state is 1-A.
 Alpha  occ. eigenvalues --  -20.70209 -11.29733 -11.25783 -11.25016 -11.23430
 Alpha  occ. eigenvalues --  -11.22557 -11.22263  -1.46059  -1.10070  -1.02089
 Alpha  occ. eigenvalues --   -0.97308  -0.89438  -0.82698  -0.78941  -0.71508
 Alpha  occ. eigenvalues --   -0.68993  -0.66988  -0.62323  -0.61366  -0.58327
 Alpha  occ. eigenvalues --   -0.54687  -0.54080  -0.52816  -0.50984  -0.48120
 Alpha  occ. eigenvalues --   -0.47377  -0.47048  -0.23166
 Alpha virt. eigenvalues --    0.03290   0.04269   0.04359   0.04505   0.06027
 Alpha virt. eigenvalues --    0.06040   0.06380   0.06628   0.06761   0.08432
 Alpha virt. eigenvalues --    0.08826   0.09124   0.09974   0.13488   0.13735

 Mulliken charges:
               1
     1  C    0.624224
     2  O   -0.111272
     3  C    0.852536
     4  C    0.531435
     5  C    0.273153
     6  C   -0.793340
     7  C    0.702454
     8  H   -0.431854
     9  H   -0.321320
    10  H   -0.110237
    11  H   -0.488218
    12  H   -0.090854
    13  H   -0.108054
    14  H   -0.129389
    15  H   -0.134220
    16  H   -0.052876
    17  H   -0.078422
    18  H   -0.050923
    19  H   -0.082824
 Sum of Mulliken charges =  -0.00000

 Dipole moment (field-independent basis, Debye):
    X=              1.4433    Y=             -0.0128    Z=              1.0348  Tot=              1.7760

 Test job not archived.
 1\1\GINC-SE054\SP\RHF\Aug-CC-pVDZ\C6H12O1\OHZDE\09-Apr-2025\0\\#t hf a
 ug-cc-pvdz iop(5/13=1,5/36=2,99/5=2) pseudo=read geom=check guess=(rea
 d,tcheck) scf=(maxcycle=1)\\title\\0,1\C,0,2.63949789,-1.38575691,0.70
 846817\O,0,1.38917782,-1.11716262,0.45494165\C,0,0.56901282,-0.3133791
 ,1.02868376\C,0,-0.30782103,1.7316921,-1.14269272\C,0,-1.11116905,1.27
 231556,0.06704821\C,0,-0.82462853,-0.17787123,0.50828047\C,0,-1.137418
 13,-1.19570126,-0.58409235\H,0,3.08393444,-2.12640761,0.06910329\H,0,3
 .13090979,-0.88930814,1.5332744\H,0,0.76400915,1.59645359,-0.97773412\

 Normal termination of Gaussian 16 at Wed Apr  9 03:54:13 2025.
