 Gaussian 16, Revision C.01,

 ----------------------------------------------------------------------
 #t hf aug-cc-pvdz symm=none int=(grid=ultrafine) guess=(read,tcheck) s
 table=(opt,rrhf)
 ----------------------------------------------------------------------
 -----
 title
 -----
 Symbolic Z-matrix:
 Charge =  0 Multiplicity = 1

 SCF Done:  E(RHF) =  -308.977781187     A.U. after   14 cycles

 1\1\GINC-SE043\Stability\RHF\Aug-CC-pVDZ\C6H12O1\OHZDE\09-Apr-2025\0\\
 #t hf aug-cc-pvdz symm=none int=(grid=ultrafine) guess=(read,tcheck) s
 table=(opt,rrhf)\\title\\0,1\C,0,2.55306179,0.08339261,-0.44018646\C,0
 ,1.57839897,-0.13182511,0.75154997\O,0,2.23722771,0.09516833,1.9776434
 8\C,0,0.53551909,0.83867829,0.45415626\C,0,-0.45561372,0.36879931,-0.5
 300333\C,0,-1.70527404,0.02140458,0.31897355\C,0,-2.84643744,-0.483061
 02,-0.55503181\H,0,2.18546429,-0.37737174,-1.35640483\H,0,3.49551488,-
 0.37821725,-0.14967609\H,0,2.73630987,1.14565994,-0.61538695\H,0,1.248

 Normal termination of Gaussian 16 at Wed Apr  9 15:54:20 2025.
 Gaussian 16:  ES64L-G16RevC.01  3-Jul-2019

 ----------------------------------------------------------------------
 #t hf aug-cc-pvdz iop(5/13=1,5/36=2,99/5=2) pseudo=read geom=check gue
 ss=(read,tcheck) scf=(maxcycle=1)
 ----------------------------------------------------------------------
 -----
 title
 -----
 Structure from the checkpoint file:  "Grambow2020_wb97xd3_007567_reverse_mol2.chk"
 Charge =  0 Multiplicity = 1

                         Standard orientation:
 ---------------------------------------------------------------------
 Center     Atomic      Atomic             Coordinates (Angstroms)
 Number     Number       Type             X           Y           Z
 ---------------------------------------------------------------------
      1          6           0        2.068581    1.227549   -0.139623
      2          6           0        1.397233   -0.164497   -0.307025
      3          8           0        2.346983   -1.194889   -0.148429
      4          6           0        0.386344   -0.128337    0.739261
      5          6           0       -0.844202    0.587008    0.357427
      6          6           0       -1.873907   -0.538969    0.083510
      7          6           0       -3.225571    0.033183   -0.324253
      8          1           0        1.458533    2.027745   -0.557254
      9          1           0        3.017389    1.173686   -0.671187
     10          1           0        2.280418    1.441673    0.910121
     11          1           0        0.999440   -0.231734   -1.330283
     12          1           0        2.212164   -1.537085    0.741382
     13          1           0       -1.498644   -1.195738   -0.706355
     14          1           0       -0.773360    1.220114   -0.539859
     15          1           0       -1.225894    1.183661    1.189898
     16          1           0       -1.974967   -1.153886    0.979390
     17          1           0       -3.146771    0.629637   -1.235498
     18          1           0       -3.632340    0.673552    0.461027
     19          1           0       -3.942702   -0.768128   -0.509732
 ---------------------------------------------------------------------

 SCF Done:  E(RHF) =  -309.074187273     A.U. after    2 cycles

 The electronic state is 1-A.
 Alpha  occ. eigenvalues --  -20.56286 -11.29443 -11.26784 -11.25050 -11.24405
 Alpha  occ. eigenvalues --  -11.24219 -11.23484  -1.32433  -1.09956  -1.03851
 Alpha  occ. eigenvalues --   -0.96346  -0.87695  -0.82370  -0.77311  -0.67275
 Alpha  occ. eigenvalues --   -0.65678  -0.63508  -0.59935  -0.58667  -0.57640
 Alpha  occ. eigenvalues --   -0.55554  -0.54260  -0.52873  -0.49739  -0.49333
 Alpha  occ. eigenvalues --   -0.47630  -0.44905  -0.35213
 Alpha virt. eigenvalues --    0.03291   0.04079   0.04417   0.04690   0.05933
 Alpha virt. eigenvalues --    0.06349   0.06472   0.06632   0.07806   0.08405
 Alpha virt. eigenvalues --    0.08844   0.09435   0.09999   0.11914   0.12957

 Mulliken charges:
               1
     1  C    0.368825
     2  C    0.588321
     3  O   -0.600914
     4  C   -0.442966
     5  C    0.522255
     6  C    0.154969
     7  C    0.437661
     8  H   -0.044177
     9  H   -0.021091
    10  H   -0.067010
    11  H   -0.189449
    12  H    0.172239
    13  H   -0.165892
    14  H   -0.273736
    15  H   -0.138673
    16  H   -0.114524
    17  H   -0.081446
    18  H   -0.057978
    19  H   -0.046414
 Sum of Mulliken charges =   0.00000

 Dipole moment (field-independent basis, Debye):
    X=             -2.0263    Y=              1.6236    Z=             -0.5521  Tot=              2.6546

 Test job not archived.
 1\1\GINC-SE043\SP\RHF\Aug-CC-pVDZ\C6H12O1\OHZDE\09-Apr-2025\0\\#t hf a
 ug-cc-pvdz iop(5/13=1,5/36=2,99/5=2) pseudo=read geom=check guess=(rea
 d,tcheck) scf=(maxcycle=1)\\title\\0,1\C,0,2.55306179,0.08339261,-0.44
 018646\C,0,1.57839897,-0.13182511,0.75154997\O,0,2.23722771,0.09516833
 ,1.97764348\C,0,0.53551909,0.83867829,0.45415626\C,0,-0.45561372,0.368
 79931,-0.5300333\C,0,-1.70527404,0.02140458,0.31897355\C,0,-2.84643744
 ,-0.48306102,-0.55503181\H,0,2.18546429,-0.37737174,-1.35640483\H,0,3.
 49551488,-0.37821725,-0.14967609\H,0,2.73630987,1.14565994,-0.61538695

 Normal termination of Gaussian 16 at Wed Apr  9 15:54:27 2025.
