 Gaussian 16, Revision C.01,

 ----------------------------------------------------------------------
 #t hf aug-cc-pvdz symm=none int=(grid=ultrafine) guess=(read,tcheck) s
 table=(opt,rrhf)
 ----------------------------------------------------------------------
 -----
 title
 -----
 Symbolic Z-matrix:
 Charge =  0 Multiplicity = 1

 SCF Done:  E(RHF) =  -343.568974015     A.U. after   15 cycles
 Normal termination of Gaussian 16 at Wed Apr  9 03:34:26 2025.
 Gaussian 16:  ES64L-G16RevC.01  3-Jul-2019

 ----------------------------------------------------------------------
 #t hf aug-cc-pvdz iop(5/13=1,5/36=2,99/5=2) pseudo=read geom=check gue
 ss=(read,tcheck) scf=(maxcycle=1)
 ----------------------------------------------------------------------
 -----
 title
 -----
 Structure from the checkpoint file:  "Grambow2020_wb97xd3_007149_reverse_mol1.chk"
 Charge =  0 Multiplicity = 1

                         Standard orientation:
 ---------------------------------------------------------------------
 Center     Atomic      Atomic             Coordinates (Angstroms)
 Number     Number       Type             X           Y           Z
 ---------------------------------------------------------------------
      1          8           0       -1.911871    0.968919   -0.317029
      2          6           0       -1.017744    0.024372   -0.049297
      3          6           0        0.887790    1.389935    0.055055
      4          6           0        1.727237    0.360729    0.346772
      5          8           0        1.905492   -0.649247   -0.445412
      6          6           0       -0.581327   -1.125312   -0.614706
      7          6           0       -0.897546   -1.098497    0.885789
      8          1           0       -2.098666    1.467354    0.483770
      9          1           0        0.590794    1.583840   -0.966330
     10          1           0        0.740782    2.182195    0.779006
     11          1           0        2.172912    0.284042    1.344255
     12          1           0        0.828099   -0.987437   -0.703414
     13          1           0       -1.012077   -1.708238   -1.414785
     14          1           0       -1.819117   -1.544940    1.255578
     15          1           0       -0.062156   -1.141559    1.579781
 ---------------------------------------------------------------------

 SCF Done:  E(RHF) =  -343.678527165     A.U. after    2 cycles

 The electronic state is 1-A.
 Alpha  occ. eigenvalues --  -20.64806 -20.55318 -11.36997 -11.30712 -11.26905
 Alpha  occ. eigenvalues --  -11.22805 -11.22178  -1.41453  -1.32965  -1.16840
 Alpha  occ. eigenvalues --   -0.99931  -0.87496  -0.82986  -0.79275  -0.72987
 Alpha  occ. eigenvalues --   -0.69035  -0.68294  -0.66719  -0.65446  -0.59242
 Alpha  occ. eigenvalues --   -0.57036  -0.54409  -0.49282  -0.47817  -0.46572
 Alpha  occ. eigenvalues --   -0.36847  -0.33774
 Alpha virt. eigenvalues --    0.02535   0.04150   0.04514   0.04965   0.06363
 Alpha virt. eigenvalues --    0.06626   0.07075   0.08473   0.08696   0.10343
 Alpha virt. eigenvalues --    0.12083   0.12736   0.13060   0.13740   0.14671

 Mulliken charges:
               1
     1  O   -0.456931
     2  C    0.196678
     3  C    0.307819
     4  C    0.859290
     5  O   -0.725490
     6  C    0.132721
     7  C    0.637963
     8  H    0.200657
     9  H   -0.193586
    10  H   -0.384490
    11  H   -0.228632
    12  H    0.524943
    13  H   -0.350132
    14  H   -0.288802
    15  H   -0.232009
 Sum of Mulliken charges =  -0.00000

 Dipole moment (field-independent basis, Debye):
    X=             -3.2203    Y=              1.2529    Z=              2.5334  Tot=              4.2846

 Test job not archived.
 1\1\GINC-SE402\SP\RHF\Aug-CC-pVDZ\C5H8O2\OHZDE\09-Apr-2025\0\\#t hf au
 g-cc-pvdz iop(5/13=1,5/36=2,99/5=2) pseudo=read geom=check guess=(read
 ,tcheck) scf=(maxcycle=1)\\title\\0,1\O,0,-0.39789047,-1.45339003,-1.5
 4347048\C,0,-0.50145367,-0.41595796,-0.72108333\C,0,1.50894588,-0.7183
 7258,0.45090336\C,0,1.32725648,0.37641328,1.2366954\O,0,0.31970189,0.5
 0684235,2.04118471\C,0,-1.37331477,0.03540816,0.21060692\C,0,-0.820144
 03,1.01054377,-0.83596338\H,0,0.23878068,-1.2499755,-2.2347603\H,0,1.0
 2452148,-1.65432759,0.6924675\H,0,2.34314744,-0.7490562,-0.23942834\H,

 Normal termination of Gaussian 16 at Wed Apr  9 03:34:31 2025.
