 Gaussian 16, Revision C.01,

 ----------------------------------------------------------------------
 #t hf aug-cc-pvdz symm=none int=(grid=ultrafine) guess=(read,tcheck) s
 table=(opt,rrhf)
 ----------------------------------------------------------------------
 -----
 title
 -----
 Symbolic Z-matrix:
 Charge =  0 Multiplicity = 1

 SCF Done:  E(RHF) =  -305.724996340     A.U. after   15 cycles
 Normal termination of Gaussian 16 at Wed Apr  9 03:04:22 2025.
 Gaussian 16:  ES64L-G16RevC.01  3-Jul-2019

 ----------------------------------------------------------------------
 #t hf aug-cc-pvdz iop(5/13=1,5/36=2,99/5=2) pseudo=read geom=check gue
 ss=(read,tcheck) scf=(maxcycle=1)
 ----------------------------------------------------------------------
 -----
 title
 -----
 Structure from the checkpoint file:  "Grambow2020_b97d3_006518_reverse_mol2.chk"
 Charge =  0 Multiplicity = 1

                         Standard orientation:
 ---------------------------------------------------------------------
 Center     Atomic      Atomic             Coordinates (Angstroms)
 Number     Number       Type             X           Y           Z
 ---------------------------------------------------------------------
      1          8           0       -2.270249   -0.310725    0.159298
      2          6           0       -1.161499    0.515317    0.325910
      3          6           0        1.363522    1.127829   -0.056692
      4          6           0        1.822214   -0.265626    0.479014
      5          6           0        0.711477   -1.012703   -0.230786
      6          8           0       -0.113851    0.171806   -0.620051
      7          1           0       -2.656445   -0.115347   -0.715863
      8          1           0       -1.337877    1.580210    0.126170
      9          1           0       -0.803384    0.372824    1.350477
     10          1           0        1.770925    1.196584   -1.091099
     11          1           0        2.828081   -0.592367    0.174328
     12          1           0        1.755198   -0.338673    1.575785
     13          1           0        0.091358   -1.715679    0.343326
     14          1           0        1.010653   -1.465105   -1.181774
 ---------------------------------------------------------------------

 SCF Done:  E(RHF) =  -305.819266002     A.U. after    2 cycles

 The electronic state is 1-A.
 Alpha  occ. eigenvalues --  -20.61874 -20.60091 -11.35935 -11.31452 -11.25276
 Alpha  occ. eigenvalues --  -11.23888  -1.38915  -1.32606  -1.04926  -0.93178
 Alpha  occ. eigenvalues --   -0.88974  -0.78043  -0.73423  -0.70574  -0.67567
 Alpha  occ. eigenvalues --   -0.63141  -0.60520  -0.59493  -0.54287  -0.52562
 Alpha  occ. eigenvalues --   -0.50912  -0.48705  -0.46422  -0.32432
 Alpha virt. eigenvalues --    0.03276   0.04219   0.04789   0.05200   0.06221
 Alpha virt. eigenvalues --    0.07029   0.07268   0.07890   0.10422   0.12167
 Alpha virt. eigenvalues --    0.13040   0.13473   0.14485   0.14919   0.15689

 Mulliken charges:
               1
     1  O   -0.510081
     2  C    1.093905
     3  C    0.038160
     4  C    0.344653
     5  C    0.718267
     6  O   -0.886218
     7  H    0.180037
     8  H   -0.156104
     9  H   -0.124665
    10  H   -0.077749
    11  H   -0.107675
    12  H   -0.155692
    13  H   -0.108929
    14  H   -0.247908
 Sum of Mulliken charges =  -0.00000

 Dipole moment (field-independent basis, Debye):
    X=             -0.3360    Y=             -2.0551    Z=             -0.9587  Tot=              2.2925

 Test job not archived.
 1\1\GINC-SE123\SP\RHF\Aug-CC-pVDZ\C4H8O2\OHZDE\09-Apr-2025\0\\#t hf au
 g-cc-pvdz iop(5/13=1,5/36=2,99/5=2) pseudo=read geom=check guess=(read
 ,tcheck) scf=(maxcycle=1)\\title\\0,1\O,0,-2.01617118,1.47821415,0.111
 60894\C,0,-1.50392493,0.18347133,0.08559955\C,0,0.45012132,-1.55242799
 ,0.34180953\C,0,1.34371272,-0.75152691,-0.65776453\C,0,0.93551408,0.59
 482467,-0.09528237\O,0,-0.21001601,0.12590793,0.74354581\H,0,-2.204343
 62,1.70374863,1.04271155\H,0,-2.09430936,-0.56372868,0.63162186\H,0,-1
 .40317435,-0.10314761,-0.96605997\H,0,1.0341758,-1.60001749,1.28907772

 Normal termination of Gaussian 16 at Wed Apr  9 03:04:26 2025.
