 Gaussian 16, Revision C.01,

 ----------------------------------------------------------------------
 #t hf aug-cc-pvdz symm=none int=(grid=ultrafine) guess=(read,tcheck) s
 table=(opt,rrhf)
 ----------------------------------------------------------------------
 -----
 title
 -----
 Symbolic Z-matrix:
 Charge =  0 Multiplicity = 1

 SCF Done:  E(RHF) =  -339.132887518     A.U. after   17 cycles
 Normal termination of Gaussian 16 at Wed Apr  9 14:12:56 2025.
 Gaussian 16:  ES64L-G16RevC.01  3-Jul-2019

 ----------------------------------------------------------------------
 #t hf aug-cc-pvdz iop(5/13=1,5/36=2,99/5=2) pseudo=read geom=check gue
 ss=(read,tcheck) scf=(maxcycle=1)
 ----------------------------------------------------------------------
 -----
 title
 -----
 Structure from the checkpoint file:  "Grambow2020_b97d3_006820_reverse_mol2.chk"
 Charge =  0 Multiplicity = 1

                         Standard orientation:
 ---------------------------------------------------------------------
 Center     Atomic      Atomic             Coordinates (Angstroms)
 Number     Number       Type             X           Y           Z
 ---------------------------------------------------------------------
      1          8           0        1.918971   -0.501177   -0.614794
      2          6           0        1.489006    0.438758   -0.007672
      3          6           0       -2.083537    0.772814   -0.651832
      4          8           0        0.288501    0.563211    0.655019
      5          6           0       -1.631251   -0.372983   -0.119342
      6          8           0       -0.496241   -0.714904    0.554044
      7          1           0        1.972362    1.422549    0.161361
      8          1           0       -2.307519   -1.231122   -0.242443
 ---------------------------------------------------------------------

 SCF Done:  E(RHF) =  -339.237364076     A.U. after    2 cycles

 The electronic state is 1-A.
 Alpha  occ. eigenvalues --  -20.72749 -20.72660 -20.61346 -11.44165 -11.34519
 Alpha  occ. eigenvalues --  -11.33045  -1.50641  -1.40422  -1.31272  -1.04471
 Alpha  occ. eigenvalues --   -0.90688  -0.79899  -0.77655  -0.75177  -0.70744
 Alpha  occ. eigenvalues --   -0.66022  -0.63900  -0.61071  -0.54516  -0.51684
 Alpha  occ. eigenvalues --   -0.47778  -0.40523
 Alpha virt. eigenvalues --    0.02231   0.03685   0.03993   0.07037   0.08166
 Alpha virt. eigenvalues --    0.09296   0.10336   0.10795   0.11315   0.12226
 Alpha virt. eigenvalues --    0.13754   0.14103   0.15479   0.15786   0.16021

 Mulliken charges:
               1
     1  O   -0.333458
     2  C    0.773681
     3  C   -0.146443
     4  O   -0.328507
     5  C    0.666631
     6  O   -0.365520
     7  H   -0.094143
     8  H   -0.172241
 Sum of Mulliken charges =  -0.00000

 Dipole moment (field-independent basis, Debye):
    X=             -0.0699    Y=              0.4607    Z=              1.1304  Tot=              1.2227

 Test job not archived.
 1\1\GINC-SE054\SP\RHF\Aug-CC-pVDZ\C3H2O3\OHZDE\09-Apr-2025\0\\#t hf au
 g-cc-pvdz iop(5/13=1,5/36=2,99/5=2) pseudo=read geom=check guess=(read
 ,tcheck) scf=(maxcycle=1)\\title\\0,1\O,0,-2.13292146,0.26019774,0.109
 87042\C,0,-1.20554486,0.91565689,0.49365522\C,0,1.72917038,-1.21784241
 ,0.84752855\O,0,0.11731039,0.84343358,0.11855573\C,0,1.1414117,-1.1283
 5335,-0.3555885\O,0,0.30363871,-0.21842733,-0.92897892\H,0,-1.211037,1
 .73792189,1.23790019\H,0,1.37360613,-1.95756801,-1.03924369\\Version=E
 S64L-G16RevC.01\State=1-A\HF=-339.2373641\RMSD=3.287e-03\Dipole=0.2552

 Normal termination of Gaussian 16 at Wed Apr  9 14:12:59 2025.
