 Gaussian 16, Revision C.01,

 ----------------------------------------------------------------------
 #t hf aug-cc-pvdz symm=none int=(grid=ultrafine) guess=(read,tcheck) s
 table=(opt,rrhf)
 ----------------------------------------------------------------------
 -----
 title
 -----
 Symbolic Z-matrix:
 Charge =  0 Multiplicity = 1

 SCF Done:  E(RHF) =  -320.355040222     A.U. after   16 cycles
 Normal termination of Gaussian 16 at Wed Apr  9 15:58:42 2025.
 Gaussian 16:  ES64L-G16RevC.01  3-Jul-2019

 ----------------------------------------------------------------------
 #t hf aug-cc-pvdz iop(5/13=1,5/36=2,99/5=2) pseudo=read geom=check gue
 ss=(read,tcheck) scf=(maxcycle=1)
 ----------------------------------------------------------------------
 -----
 title
 -----
 Structure from the checkpoint file:  "Grambow2020_wb97xd3_007650_reverse_mol2.chk"
 Charge =  0 Multiplicity = 1

                         Standard orientation:
 ---------------------------------------------------------------------
 Center     Atomic      Atomic             Coordinates (Angstroms)
 Number     Number       Type             X           Y           Z
 ---------------------------------------------------------------------
      1          7           0       -3.090028   -0.647157   -0.553291
      2          6           0       -2.212183   -0.155180   -0.000907
      3          6           0        0.017374    0.697529    0.161099
      4          6           0       -1.141203    0.469161    0.711653
      5          8           0        2.198058   -1.139401    0.316566
      6          6           0        2.279770   -0.105414   -0.283424
      7          6           0        1.186681    0.907583   -0.368357
      8          1           0       -1.322142    0.754247    1.742591
      9          1           0        3.201696    0.173351   -0.827089
     10          1           0        1.383544    1.835635   -0.895379
 ---------------------------------------------------------------------

 SCF Done:  E(RHF) =  -320.453367756     A.U. after    2 cycles

 The electronic state is 1-A.
 Alpha  occ. eigenvalues --  -20.59800 -15.65443 -11.37742 -11.34159 -11.32501
 Alpha  occ. eigenvalues --  -11.30659 -11.30124  -1.39076  -1.21362  -1.14212
 Alpha  occ. eigenvalues --   -1.05437  -0.89227  -0.80569  -0.72883  -0.72201
 Alpha  occ. eigenvalues --   -0.70183  -0.65270  -0.58534  -0.56246  -0.53708
 Alpha  occ. eigenvalues --   -0.48431  -0.47649  -0.43760  -0.41209
 Alpha virt. eigenvalues --    0.02144   0.03055   0.03914   0.04629   0.06964
 Alpha virt. eigenvalues --    0.07686   0.08695   0.09824   0.10398   0.10683
 Alpha virt. eigenvalues --    0.11305   0.12323   0.13847   0.14317   0.14756

 Mulliken charges:
               1
     1  N   -0.120313
     2  C   -0.669206
     3  C   -0.760276
     4  C    1.506392
     5  O   -0.414540
     6  C    0.517647
     7  C    0.621214
     8  H   -0.248431
     9  H   -0.122080
    10  H   -0.310407
 Sum of Mulliken charges =   0.00000

 Dipole moment (field-independent basis, Debye):
    X=              2.9298    Y=              4.3837    Z=              0.2912  Tot=              5.2807

 Test job not archived.
 1\1\GINC-SE138\SP\RHF\Aug-CC-pVDZ\C5H3N1O1\OHZDE\09-Apr-2025\0\\#t hf
 aug-cc-pvdz iop(5/13=1,5/36=2,99/5=2) pseudo=read geom=check guess=(re
 ad,tcheck) scf=(maxcycle=1)\\title\\0,1\N,0,3.21932584,1.16992752,-0.7
 6772415\C,0,2.34848299,0.85858315,-0.08766532\C,0,0.27170894,-0.233767
 24,0.3793062\C,0,1.2835804,0.47831138,0.78750106\O,0,-2.1536832,0.9258
 3193,-0.58332846\C,0,-1.98710737,-0.26021847,-0.54686933\C,0,-0.756639
 52,-0.92202887,-0.0213457\H,0,1.34155444,0.80366955,1.82076105\H,0,-2.
 76148538,-0.96168931,-0.90950995\H,0,-0.72956115,-2.00636365,0.0143236

 Normal termination of Gaussian 16 at Wed Apr  9 15:58:45 2025.
