 Gaussian 16, Revision C.01,

 ----------------------------------------------------------------------
 #t hf aug-cc-pvdz symm=none int=(grid=ultrafine) guess=(read,tcheck) s
 table=(opt,rrhf)
 ----------------------------------------------------------------------
 -----
 title
 -----
 Symbolic Z-matrix:
 Charge =  0 Multiplicity = 1

 SCF Done:  E(RHF) =  -374.453468282     A.U. after   15 cycles
 Normal termination of Gaussian 16 at Wed Apr  9 15:45:41 2025.
 Gaussian 16:  ES64L-G16RevC.01  3-Jul-2019

 ----------------------------------------------------------------------
 #t hf aug-cc-pvdz iop(5/13=1,5/36=2,99/5=2) pseudo=read geom=check gue
 ss=(read,tcheck) scf=(maxcycle=1)
 ----------------------------------------------------------------------
 -----
 title
 -----
 Structure from the checkpoint file:  "Grambow2020_wb97xd3_007338_reverse_mol1.chk"
 Charge =  0 Multiplicity = 1

                         Standard orientation:
 ---------------------------------------------------------------------
 Center     Atomic      Atomic             Coordinates (Angstroms)
 Number     Number       Type             X           Y           Z
 ---------------------------------------------------------------------
      1          7           0       -2.369443   -0.280710    0.077285
      2          6           0       -0.956558   -0.182170   -0.168384
      3          6           0       -0.648097    1.109453   -0.077615
      4          8           0        0.734433    1.167903    0.020072
      5          6           0        1.240132   -0.109928    0.033867
      6          8           0        2.402796   -0.381781    0.035240
      7          7           0        0.158104   -0.995357    0.028620
      8          1           0       -2.943075   -0.706581   -0.643762
      9          1           0       -2.639858   -0.621347    0.996018
     10          1           0       -2.163566    0.974987    0.099917
     11          1           0        0.315174   -1.907703   -0.363217
 ---------------------------------------------------------------------

 SCF Done:  E(RHF) =  -374.569389782     A.U. after    2 cycles

 The electronic state is 1-A.
 Alpha  occ. eigenvalues --  -20.62282 -20.54430 -15.74657 -15.67817 -11.41729
 Alpha  occ. eigenvalues --  -11.29634 -11.26501  -1.43663  -1.33916  -1.27986
 Alpha  occ. eigenvalues --   -1.20794  -1.00434  -0.85643  -0.81917  -0.78803
 Alpha  occ. eigenvalues --   -0.76841  -0.68792  -0.66607  -0.65181  -0.61637
 Alpha  occ. eigenvalues --   -0.55465  -0.52642  -0.49908  -0.47885  -0.39227
 Alpha  occ. eigenvalues --   -0.32492
 Alpha virt. eigenvalues --    0.00629   0.03125   0.03699   0.05404   0.08891
 Alpha virt. eigenvalues --    0.10335   0.10683   0.11303   0.11982   0.12640
 Alpha virt. eigenvalues --    0.12850   0.14810   0.15554   0.16167   0.17080

 Mulliken charges:
               1
     1  N   -0.543456
     2  C    0.657298
     3  C   -0.022565
     4  O   -0.553775
     5  C    0.582762
     6  O   -0.417873
     7  N   -0.439026
     8  H    0.143949
     9  H    0.115052
    10  H    0.535031
    11  H   -0.057398
 Sum of Mulliken charges =  -0.00000

 Dipole moment (field-independent basis, Debye):
    X=             -8.1845    Y=             -4.2666    Z=             -0.0033  Tot=              9.2299

 Test job not archived.
 1\1\GINC-SE131\SP\RHF\Aug-CC-pVDZ\C3H4N2O2\OHZDE\09-Apr-2025\0\\#t hf
 aug-cc-pvdz iop(5/13=1,5/36=2,99/5=2) pseudo=read geom=check guess=(re
 ad,tcheck) scf=(maxcycle=1)\\title\\0,1\N,0,-1.75566727,0.10098676,-0.
 03823664\C,0,-0.32914141,0.010009,-0.19007373\C,0,0.12924941,1.2596252
 4,-0.19388761\O,0,1.50010533,1.16612269,-0.00321062\C,0,1.84363922,-0.
 15434675,0.1614711\O,0,2.96201278,-0.55815617,0.27042199\N,0,0.6635546
 8,-0.9041383,0.15841638\H,0,-2.33267644,-0.32370604,-0.7572811\H,0,-2.
 12064315,-0.1144149,0.88568002\H,0,-1.39919759,1.32036593,-0.11384657\

 Normal termination of Gaussian 16 at Wed Apr  9 15:45:45 2025.
