 Gaussian 16, Revision C.01,

 ----------------------------------------------------------------------
 #t hf aug-cc-pvdz symm=none int=(grid=ultrafine) guess=(read,tcheck) s
 table=(opt,rrhf)
 ----------------------------------------------------------------------
 -----
 title
 -----
 Symbolic Z-matrix:
 Charge =  0 Multiplicity = 1

 SCF Done:  E(RHF) =  -338.677974033     A.U. after   14 cycles
 Normal termination of Gaussian 16 at Wed Apr  9 15:17:50 2025.
 Gaussian 16:  ES64L-G16RevC.01  3-Jul-2019

 ----------------------------------------------------------------------
 #t hf aug-cc-pvdz iop(5/13=1,5/36=2,99/5=2) pseudo=read geom=check gue
 ss=(read,tcheck) scf=(maxcycle=1)
 ----------------------------------------------------------------------
 -----
 title
 -----
 Structure from the checkpoint file:  "Grambow2020_wb97xd3_006838_reverse_mol2.chk"
 Charge =  0 Multiplicity = 1

                         Standard orientation:
 ---------------------------------------------------------------------
 Center     Atomic      Atomic             Coordinates (Angstroms)
 Number     Number       Type             X           Y           Z
 ---------------------------------------------------------------------
      1          7           0        1.304449    1.784236   -0.049282
      2          6           0        0.734028    0.501636    0.032672
      3          6           0        1.734568   -0.597463    0.023125
      4          7           0        1.417058   -1.815284   -0.075298
      5          6           0       -1.789466    0.005785    0.462709
      6          8           0       -2.728555   -0.260702   -0.493504
      7          6           0       -0.546468    0.270009    0.188104
      8          1           0        2.041340    1.857749   -0.734894
      9          1           0        0.620483    2.512743   -0.177957
     10          1           0        2.773170   -0.253130    0.113250
     11          1           0        2.245475   -2.404485   -0.048176
     12          1           0       -3.555529   -0.481520   -0.063751
     13          1           0       -2.143012   -0.008209    1.491957
 ---------------------------------------------------------------------

 SCF Done:  E(RHF) =  -338.782319095     A.U. after    2 cycles

 The electronic state is 1-A.
 Alpha  occ. eigenvalues --  -20.59940 -15.63393 -15.62286 -11.31273 -11.30148
 Alpha  occ. eigenvalues --  -11.29670 -11.22896  -1.35989  -1.21026  -1.16921
 Alpha  occ. eigenvalues --   -1.03448  -0.94315  -0.84239  -0.74507  -0.72443
 Alpha  occ. eigenvalues --   -0.70723  -0.67897  -0.64506  -0.59798  -0.58445
 Alpha  occ. eigenvalues --   -0.55922  -0.52240  -0.44096  -0.42473  -0.35218
 Alpha  occ. eigenvalues --   -0.32370
 Alpha virt. eigenvalues --    0.03217   0.03374   0.04202   0.05495   0.06410
 Alpha virt. eigenvalues --    0.07224   0.09413   0.10384   0.10736   0.12105
 Alpha virt. eigenvalues --    0.12452   0.13392   0.14198   0.15093   0.15640

 Mulliken charges:
               1
     1  N   -0.464091
     2  C    0.469349
     3  C    0.760827
     4  N   -0.396384
     5  C    0.992861
     6  O   -0.565036
     7  C   -0.378957
     8  H   -0.043413
     9  H    0.013864
    10  H   -0.344663
    11  H    0.035767
    12  H    0.186092
    13  H   -0.266218
 Sum of Mulliken charges =  -0.00000

 Dipole moment (field-independent basis, Debye):
    X=              0.7099    Y=              1.3145    Z=              0.7791  Tot=              1.6849

 Test job not archived.
 1\1\GINC-SE114\SP\RHF\Aug-CC-pVDZ\C4H6N2O1\OHZDE\09-Apr-2025\0\\#t hf
 aug-cc-pvdz iop(5/13=1,5/36=2,99/5=2) pseudo=read geom=check guess=(re
 ad,tcheck) scf=(maxcycle=1)\\title\\0,1\N,0,-1.99042278,0.38763065,-0.
 21137236\C,0,-0.67306361,-0.10158613,-0.16247148\C,0,-0.54888777,-1.52
 237553,-0.58095546\N,0,0.51661622,-2.18672526,-0.45085132\C,0,1.446967
 ,1.3402691,0.31223301\O,0,2.0627681,1.48611174,1.52333414\C,0,0.375289
 19,0.6251084,0.13811384\H,0,-2.67468882,-0.25032827,0.16713238\H,0,-2.
 0870034,1.30261444,0.19919425\H,0,-1.46671307,-1.93876073,-1.01638924\

 Normal termination of Gaussian 16 at Wed Apr  9 15:17:54 2025.
