 Gaussian 16, Revision C.01,

 ----------------------------------------------------------------------
 #t hf aug-cc-pvdz symm=none int=(grid=ultrafine) guess=(read,tcheck) s
 table=(opt,rrhf)
 ----------------------------------------------------------------------
 -----
 title
 -----
 Symbolic Z-matrix:
 Charge =  0 Multiplicity = 1

 SCF Done:  E(RHF) =  -306.454113082     A.U. after   16 cycles
 Normal termination of Gaussian 16 at Wed Apr  9 15:46:05 2025.
 Gaussian 16:  ES64L-G16RevC.01  3-Jul-2019

 ----------------------------------------------------------------------
 #t hf aug-cc-pvdz iop(5/13=1,5/36=2,99/5=2) pseudo=read geom=check gue
 ss=(read,tcheck) scf=(maxcycle=1)
 ----------------------------------------------------------------------
 -----
 title
 -----
 Structure from the checkpoint file:  "Grambow2020_wb97xd3_007359_forward_mol1.chk"
 Charge =  0 Multiplicity = 1

                         Standard orientation:
 ---------------------------------------------------------------------
 Center     Atomic      Atomic             Coordinates (Angstroms)
 Number     Number       Type             X           Y           Z
 ---------------------------------------------------------------------
      1          6           0       -1.728842   -0.043495    0.747948
      2          6           0       -1.736665   -0.301977   -0.751299
      3          6           0       -0.510266    0.114668   -0.062526
      4          6           0        0.434219    1.294181   -0.208481
      5          6           0        1.580601    0.352763    0.014101
      6          8           0        0.903760   -0.631543    0.841879
      7          6           0        1.206103   -0.875692   -0.701989
      8          1           0       -2.183176    0.851735    1.157864
      9          1           0       -1.799226   -0.917705    1.382041
     10          1           0       -1.814376   -1.332318   -1.065733
     11          1           0       -2.179963    0.418331   -1.431979
     12          1           0        0.415009    1.753833   -1.196931
     13          1           0        0.280631    2.039873    0.575831
     14          1           0        2.575723    0.620423    0.354275
     15          1           0        2.004393   -1.624511   -0.736927
 ---------------------------------------------------------------------

 SCF Done:  E(RHF) =  -306.545569977     A.U. after    2 cycles

 The electronic state is 1-A.
 Alpha  occ. eigenvalues --  -20.58624 -11.36428 -11.28678 -11.25876 -11.25798
 Alpha  occ. eigenvalues --  -11.25451 -11.22177  -1.35542  -1.16926  -1.03093
 Alpha  occ. eigenvalues --   -0.89618  -0.85071  -0.80768  -0.74555  -0.70885
 Alpha  occ. eigenvalues --   -0.67773  -0.62038  -0.59804  -0.56263  -0.54047
 Alpha  occ. eigenvalues --   -0.52968  -0.49498  -0.47048  -0.44069  -0.42545
 Alpha  occ. eigenvalues --   -0.29215
 Alpha virt. eigenvalues --    0.03225   0.04068   0.04643   0.04830   0.06108
 Alpha virt. eigenvalues --    0.06422   0.06551   0.07598   0.09430   0.10505
 Alpha virt. eigenvalues --    0.10787   0.12800   0.13237   0.13840   0.14030

 Mulliken charges:
               1
     1  C    0.610014
     2  C    0.483831
     3  C    0.016735
     4  C    0.287448
     5  C    0.845425
     6  O   -0.899243
     7  C    0.114797
     8  H   -0.216270
     9  H   -0.158742
    10  H   -0.190515
    11  H   -0.205519
    12  H   -0.019234
    13  H   -0.026612
    14  H   -0.315029
    15  H   -0.327086
 Sum of Mulliken charges =  -0.00000

 Dipole moment (field-independent basis, Debye):
    X=             -1.7679    Y=              2.5935    Z=             -0.1792  Tot=              3.1439

 Test job not archived.
 1\1\GINC-SE042\SP\RHF\Aug-CC-pVDZ\C6H8O1\OHZDE\09-Apr-2025\0\\#t hf au
 g-cc-pvdz iop(5/13=1,5/36=2,99/5=2) pseudo=read geom=check guess=(read
 ,tcheck) scf=(maxcycle=1)\\title\\0,1\C,0,-1.43696683,0.1068259,-1.014
 48916\C,0,-1.68012568,-0.04299515,0.47984795\C,0,-0.31976348,-0.051300
 94,-0.0691512\C,0,0.82226319,-1.05122652,-0.04610713\C,0,1.76881026,0.
 09466634,0.15632786\O,0,1.00977676,1.1334136,-0.51973398\C,0,1.0653147
 6,1.01046856,1.06656652\H,0,-1.64408369,-0.71242191,-1.69406455\H,0,-1
 .60803193,1.09217409,-1.42812614\H,0,-2.00581526,0.8401333,1.00949072\

 Normal termination of Gaussian 16 at Wed Apr  9 15:46:10 2025.
