 Gaussian 16, Revision C.01,

 ----------------------------------------------------------------------
 #t hf aug-cc-pvdz symm=none int=(grid=ultrafine) guess=(read,tcheck) s
 table=(opt,rrhf)
 ----------------------------------------------------------------------
 -----
 title
 -----
 Symbolic Z-matrix:
 Charge =  0 Multiplicity = 1

 SCF Done:  E(RHF) =  -337.488220298     A.U. after   16 cycles
 Normal termination of Gaussian 16 at Wed Apr  9 04:04:01 2025.
 Gaussian 16:  ES64L-G16RevC.01  3-Jul-2019

 ----------------------------------------------------------------------
 #t hf aug-cc-pvdz iop(5/13=1,5/36=2,99/5=2) pseudo=read geom=check gue
 ss=(read,tcheck) scf=(maxcycle=1)
 ----------------------------------------------------------------------
 -----
 title
 -----
 Structure from the checkpoint file:  "Grambow2020_wb97xd3_009178_forward_mol1.chk"
 Charge =  0 Multiplicity = 1

                         Standard orientation:
 ---------------------------------------------------------------------
 Center     Atomic      Atomic             Coordinates (Angstroms)
 Number     Number       Type             X           Y           Z
 ---------------------------------------------------------------------
      1          8           0        2.405581    0.095485   -0.014248
      2          6           0        1.303093   -0.246201   -0.002058
      3          6           0        0.365005   -1.226837    0.010101
      4          6           0       -1.058999   -1.232305    0.005358
      5          7           0       -1.879467   -0.246212   -0.019246
      6          6           0       -0.960617    1.604326    0.002483
      7          7           0        0.195491    1.485398    0.017853
      8          1           0        0.842453   -2.199257    0.025353
      9          1           0       -1.461545   -2.247475    0.024546
     10          1           0       -2.848820   -0.538947   -0.013472
     11          1           0       -1.879796    2.153594   -0.007997
 ---------------------------------------------------------------------

 SCF Done:  E(RHF) =  -337.592336106     A.U. after    2 cycles

 The electronic state is 1-A.
 Alpha  occ. eigenvalues --  -20.62099 -15.62991 -15.62748 -11.41899 -11.32926
 Alpha  occ. eigenvalues --  -11.32882 -11.24691  -1.43368  -1.21700  -1.18531
 Alpha  occ. eigenvalues --   -1.05159  -0.87449  -0.80854  -0.74241  -0.72940
 Alpha  occ. eigenvalues --   -0.67820  -0.65773  -0.64040  -0.58425  -0.53692
 Alpha  occ. eigenvalues --   -0.51797  -0.51323  -0.47029  -0.38381  -0.34095
 Alpha virt. eigenvalues --    0.02495   0.03310   0.04618   0.06742   0.07898
 Alpha virt. eigenvalues --    0.08781   0.09211   0.11141   0.11685   0.12177
 Alpha virt. eigenvalues --    0.12786   0.13221   0.13896   0.14399   0.15061

 Mulliken charges:
               1
     1  O   -0.258187
     2  C   -0.329472
     3  C    1.120902
     4  C    0.494608
     5  N   -0.298177
     6  C    0.278297
     7  N   -0.232331
     8  H   -0.301349
     9  H   -0.339253
    10  H   -0.057797
    11  H   -0.077240
 Sum of Mulliken charges =  -0.00000

 Dipole moment (field-independent basis, Debye):
    X=             -4.8220    Y=             -1.6906    Z=              0.0246  Tot=              5.1099

 Test job not archived.
 1\1\GINC-SE009\SP\RHF\Aug-CC-pVDZ\C4H4N2O1\OHZDE\09-Apr-2025\0\\#t hf
 aug-cc-pvdz iop(5/13=1,5/36=2,99/5=2) pseudo=read geom=check guess=(re
 ad,tcheck) scf=(maxcycle=1)\\title\\0,1\O,0,2.48675003,-1.32318939,-0.
 01766136\C,0,1.59429619,-0.59113569,-0.01703378\C,0,1.09480371,0.67063
 614,-0.03267785\C,0,-0.22162492,1.21279038,-0.0022938\N,0,-1.35227815,
 0.60932148,0.05771195\C,0,-1.19917727,-1.45121461,0.05797483\N,0,-0.08
 421032,-1.77727045,0.01921929\H,0,1.90290492,1.39092241,-0.07684536\H,
 0,-0.21237552,2.30448733,-0.03537044\H,0,-2.13973588,1.24591406,0.0633

 Normal termination of Gaussian 16 at Wed Apr  9 04:04:05 2025.
