 Gaussian 16, Revision C.01,

 ----------------------------------------------------------------------
 #t hf aug-cc-pvdz symm=none int=(grid=ultrafine) guess=(read,tcheck) s
 table=(opt,rrhf)
 ----------------------------------------------------------------------
 -----
 title
 -----
 Symbolic Z-matrix:
 Charge =  0 Multiplicity = 1

 SCF Done:  E(RHF) =  -305.593761715     A.U. after   20 cycles
 Normal termination of Gaussian 16 at Wed Apr  9 14:17:22 2025.
 Gaussian 16:  ES64L-G16RevC.01  3-Jul-2019

 ----------------------------------------------------------------------
 #t hf aug-cc-pvdz iop(5/13=1,5/36=2,99/5=2) pseudo=read geom=check gue
 ss=(read,tcheck) scf=(maxcycle=1)
 ----------------------------------------------------------------------
 -----
 title
 -----
 Structure from the checkpoint file:  "Grambow2020_b97d3_006973_reverse_mol1.chk"
 Charge =  0 Multiplicity = 1

                         Standard orientation:
 ---------------------------------------------------------------------
 Center     Atomic      Atomic             Coordinates (Angstroms)
 Number     Number       Type             X           Y           Z
 ---------------------------------------------------------------------
      1          8           0        1.812672   -1.057933   -0.161829
      2          6           0        1.928137    0.226217    0.152108
      3          6           0        0.579468    0.968707   -0.273283
      4          6           0       -0.449793    0.094920    0.429186
      5          6           0       -1.923552    0.440119   -0.030887
      6          8           0       -2.028615   -0.896165   -0.150674
      7          1           0       -0.002181   -0.925045    0.136216
      8          1           0        2.157824    0.469858    1.217258
      9          1           0        2.664098    0.770697   -0.493736
     10          1           0        0.503786    2.034124   -0.004240
     11          1           0        0.497470    0.853266   -1.359577
     12          1           0       -0.445372    0.093760    1.523255
     13          1           0       -1.960421    1.031070   -0.964455
     14          1           0       -2.493222    0.925278    0.782563
 ---------------------------------------------------------------------

 SCF Done:  E(RHF) =  -305.686367276     A.U. after    2 cycles

 The electronic state is 1-A.
 Alpha  occ. eigenvalues --  -20.70923 -20.47917 -11.38211 -11.33654 -11.28534
 Alpha  occ. eigenvalues --  -11.27529  -1.40282  -1.23079  -1.08184  -0.95587
 Alpha  occ. eigenvalues --   -0.88985  -0.80397  -0.73940  -0.70482  -0.66615
 Alpha  occ. eigenvalues --   -0.65487  -0.60467  -0.56743  -0.54294  -0.54131
 Alpha  occ. eigenvalues --   -0.52362  -0.49386  -0.37303  -0.33695
 Alpha virt. eigenvalues --   -0.07265   0.02035   0.03551   0.04039   0.05305
 Alpha virt. eigenvalues --    0.06163   0.06580   0.08229   0.08920   0.09599
 Alpha virt. eigenvalues --    0.11712   0.12330   0.13548   0.14078   0.14320

 Mulliken charges:
               1
     1  O   -0.791318
     2  C    0.777294
     3  C    0.051371
     4  C   -0.014035
     5  C    0.795972
     6  O   -0.423171
     7  H    0.214655
     8  H   -0.138606
     9  H   -0.044658
    10  H   -0.149654
    11  H   -0.007212
    12  H   -0.156710
    13  H   -0.099215
    14  H   -0.014715
 Sum of Mulliken charges =  -0.00000

 Dipole moment (field-independent basis, Debye):
    X=             -4.8609    Y=              5.8723    Z=              1.0761  Tot=              7.6987

 Test job not archived.
 1\1\GINC-SE114\SP\RHF\Aug-CC-pVDZ\C4H8O2\OHZDE\09-Apr-2025\0\\#t hf au
 g-cc-pvdz iop(5/13=1,5/36=2,99/5=2) pseudo=read geom=check guess=(read
 ,tcheck) scf=(maxcycle=1)\\title\\0,1\O,0,2.08835064,0.86312432,0.0799
 894\C,0,1.8264391,-0.40838821,-0.19494082\C,0,0.336136,-0.72714647,0.2
 831246\C,0,-0.42439384,0.38504792,-0.42466386\C,0,-1.92120538,0.483475
 07,0.07799244\O,0,-1.64036385,1.79722014,0.15701764\H,0,0.30198226,1.2
 4309284,-0.17435902\H,0,1.94595616,-0.73339719,-1.2564235\H,0,2.397245
 04,-1.12311694,0.45201891\H,0,-0.04581641,-1.73365638,0.0501554\H,0,0.

 Normal termination of Gaussian 16 at Wed Apr  9 14:17:26 2025.
