 Gaussian 16, Revision C.01,

 ----------------------------------------------------------------------
 #t hf aug-cc-pvdz symm=none int=(grid=ultrafine) guess=(read,tcheck) s
 table=(opt,rrhf)
 ----------------------------------------------------------------------
 -----
 title
 -----
 Symbolic Z-matrix:
 Charge =  0 Multiplicity = 1

 SCF Done:  E(RHF) =  -323.692929500     A.U. after   17 cycles
 Normal termination of Gaussian 16 at Wed Apr  9 15:58:13 2025.
 Gaussian 16:  ES64L-G16RevC.01  3-Jul-2019

 ----------------------------------------------------------------------
 #t hf aug-cc-pvdz iop(5/13=1,5/36=2,99/5=2) pseudo=read geom=check gue
 ss=(read,tcheck) scf=(maxcycle=1)
 ----------------------------------------------------------------------
 -----
 title
 -----
 Structure from the checkpoint file:  "Grambow2020_wb97xd3_007620_forward_mol1.chk"
 Charge =  0 Multiplicity = 1

                         Standard orientation:
 ---------------------------------------------------------------------
 Center     Atomic      Atomic             Coordinates (Angstroms)
 Number     Number       Type             X           Y           Z
 ---------------------------------------------------------------------
      1          6           0        1.725712    1.358232    0.122968
      2          6           0        1.477098    0.010634   -0.489413
      3          7           0        1.438758   -1.149840    0.402281
      4          6           0        0.228771   -0.751778   -0.311827
      5          6           0       -0.880609   -0.309184    0.575674
      6          6           0       -1.847460    0.932631   -0.231440
      7          8           0       -2.377086   -0.250495   -0.250444
      8          1           0        1.286312    1.428939    1.118257
      9          1           0        2.797395    1.536762    0.227578
     10          1           0        1.300022    2.144679   -0.501900
     11          1           0        1.959617   -0.139720   -1.451659
     12          1           0        1.864063   -1.968569   -0.012515
     13          1           0       -0.109868   -1.360513   -1.143176
     14          1           0       -0.646066    0.486677    1.299734
     15          1           0       -1.301705   -1.115821    1.182848
     16          1           0       -2.425461    1.597209    0.472643
 ---------------------------------------------------------------------

 SCF Done:  E(RHF) =  -323.790898056     A.U. after    2 cycles

 The electronic state is 1-A.
 Alpha  occ. eigenvalues --  -20.62719 -15.63301 -11.34019 -11.29676 -11.28508
 Alpha  occ. eigenvalues --  -11.27881 -11.23149  -1.38369  -1.25777  -1.00853
 Alpha  occ. eigenvalues --   -0.99293  -0.86172  -0.83757  -0.78515  -0.73263
 Alpha  occ. eigenvalues --   -0.68381  -0.62519  -0.61821  -0.59121  -0.57509
 Alpha  occ. eigenvalues --   -0.56559  -0.54911  -0.51649  -0.47658  -0.46253
 Alpha  occ. eigenvalues --   -0.40207  -0.32728
 Alpha virt. eigenvalues --    0.03174   0.03974   0.04131   0.04888   0.06396
 Alpha virt. eigenvalues --    0.06558   0.07012   0.07291   0.09479   0.09679
 Alpha virt. eigenvalues --    0.11266   0.12853   0.13246   0.13805   0.14045

 Mulliken charges:
               1
     1  C    0.405902
     2  C    0.094974
     3  N   -0.633124
     4  C    0.871131
     5  C    0.213728
     6  C    0.296946
     7  O   -0.535783
     8  H    0.007424
     9  H    0.000562
    10  H    0.087777
    11  H   -0.343456
    12  H   -0.001731
    13  H   -0.355126
    14  H    0.148729
    15  H   -0.059479
    16  H   -0.198475
 Sum of Mulliken charges =  -0.00000

 Dipole moment (field-independent basis, Debye):
    X=              1.7633    Y=             -0.5760    Z=              0.2912  Tot=              1.8777

 Test job not archived.
 1\1\GINC-SE226\SP\RHF\Aug-CC-pVDZ\C5H9N1O1\OHZDE\09-Apr-2025\0\\#t hf
 aug-cc-pvdz iop(5/13=1,5/36=2,99/5=2) pseudo=read geom=check guess=(re
 ad,tcheck) scf=(maxcycle=1)\\title\\0,1\C,0,-1.37296086,-0.06926848,1.
 28765999\C,0,-1.30823618,0.0544107,-0.2067809\N,0,-0.87842998,1.335752
 92,-0.76955552\C,0,-0.04948846,0.14982079,-0.96676676\C,0,1.28982503,0
 .23299492,-0.32365487\C,0,1.81723676,-1.3737918,0.19442824\O,0,2.35799
 146,-0.96664585,-0.91122455\H,0,-0.59392229,0.52250752,1.76887828\H,0,
 -2.33292635,0.29458327,1.6583343\H,0,-1.25446816,-1.11109473,1.5888718

 Normal termination of Gaussian 16 at Wed Apr  9 15:58:19 2025.
