 Gaussian 16, Revision C.01,

 ----------------------------------------------------------------------
 #t hf aug-cc-pvdz symm=none int=(grid=ultrafine) guess=(read,tcheck) s
 table=(opt,rrhf)
 ----------------------------------------------------------------------
 -----
 title
 -----
 Symbolic Z-matrix:
 Charge =  0 Multiplicity = 1

 SCF Done:  E(RHF) =  -286.856269364     A.U. after   14 cycles
 Normal termination of Gaussian 16 at Wed Apr  9 03:34:29 2025.
 Gaussian 16:  ES64L-G16RevC.01  3-Jul-2019

 ----------------------------------------------------------------------
 #t hf aug-cc-pvdz iop(5/13=1,5/36=2,99/5=2) pseudo=read geom=check gue
 ss=(read,tcheck) scf=(maxcycle=1)
 ----------------------------------------------------------------------
 -----
 title
 -----
 Structure from the checkpoint file:  "Grambow2020_wb97xd3_007179_reverse_mol2.chk"
 Charge =  0 Multiplicity = 1

                         Standard orientation:
 ---------------------------------------------------------------------
 Center     Atomic      Atomic             Coordinates (Angstroms)
 Number     Number       Type             X           Y           Z
 ---------------------------------------------------------------------
      1          6           0       -2.498409   -0.469041    0.194580
      2          6           0       -1.058063   -0.177766   -0.030996
      3          6           0       -0.016242   -0.945580   -0.327233
      4          6           0        1.198439   -0.063512   -0.430198
      5          6           0        0.715981    1.343133   -0.128399
      6          6           0        2.377671   -0.472015    0.452208
      7          7           0       -0.574134    1.166470    0.068418
      8          1           0       -3.124661    0.047974   -0.537136
      9          1           0       -2.687978   -1.537627    0.110882
     10          1           0       -2.813113   -0.142320    1.189213
     11          1           0       -0.041014   -2.016209   -0.469260
     12          1           0        1.546434   -0.023025   -1.472624
     13          1           0        2.083599   -0.485056    1.503311
     14          1           0        2.734365   -1.469211    0.188236
     15          1           0        3.197294    0.236904    0.337755
     16          1           0       -1.192251    1.931958    0.290920
 ---------------------------------------------------------------------

 SCF Done:  E(RHF) =  -286.942826026     A.U. after    2 cycles

 The electronic state is 1-A.
 Alpha  occ. eigenvalues --  -15.66953 -11.28406 -11.25395 -11.24675 -11.23452
 Alpha  occ. eigenvalues --  -11.22760 -11.22489  -1.26125  -1.05819  -1.04251
 Alpha  occ. eigenvalues --   -0.95085  -0.88068  -0.77648  -0.76936  -0.66297
 Alpha  occ. eigenvalues --   -0.62084  -0.60228  -0.59287  -0.57576  -0.55704
 Alpha  occ. eigenvalues --   -0.53803  -0.49981  -0.48615  -0.47476  -0.34314
 Alpha  occ. eigenvalues --   -0.33654
 Alpha virt. eigenvalues --    0.02879   0.03793   0.04511   0.04624   0.06083
 Alpha virt. eigenvalues --    0.06669   0.06928   0.07439   0.08738   0.11081
 Alpha virt. eigenvalues --    0.11466   0.11804   0.12437   0.13251   0.13980

 Mulliken charges:
               1
     1  C    0.595567
     2  C   -0.256049
     3  C    0.682109
     4  C   -0.666217
     5  C   -0.067933
     6  C    0.628331
     7  N   -0.412229
     8  H    0.042329
     9  H   -0.030104
    10  H    0.038940
    11  H   -0.369725
    12  H    0.025198
    13  H   -0.032624
    14  H   -0.011682
    15  H   -0.050940
    16  H   -0.114970
 Sum of Mulliken charges =  -0.00000

 Dipole moment (field-independent basis, Debye):
    X=             -2.7427    Y=             -1.8996    Z=              0.1978  Tot=              3.3422

 Test job not archived.
 1\1\GINC-SE462\SP\RHF\Aug-CC-pVDZ\C6H9N1\OHZDE\09-Apr-2025\0\\#t hf au
 g-cc-pvdz iop(5/13=1,5/36=2,99/5=2) pseudo=read geom=check guess=(read
 ,tcheck) scf=(maxcycle=1)\\title\\0,1\C,0,-2.49599416,-0.03584018,-0.2
 2541918\C,0,-1.04322461,-0.08395056,0.08678287\C,0,-0.09638166,0.84580
 999,0.1282593\C,0,1.1964226,0.17764926,0.51076893\C,0,0.87044773,-1.29
 584667,0.66903212\C,0,2.36107343,0.41205948,-0.4508669\N,0,-0.42248033
 ,-1.33052925,0.42108503\H,0,-3.09419361,-0.36036513,0.63000097\H,0,-2.
 79564228,0.97764604,-0.48594827\H,0,-2.7379572,-0.69127679,-1.06621421

 Normal termination of Gaussian 16 at Wed Apr  9 03:34:34 2025.
