 Gaussian 16, Revision C.01,

 ----------------------------------------------------------------------
 #t hf aug-cc-pvdz symm=none int=(grid=ultrafine) guess=(read,tcheck) s
 table=(opt,rrhf)
 ----------------------------------------------------------------------
 -----
 title
 -----
 Symbolic Z-matrix:
 Charge =  0 Multiplicity = 1

 SCF Done:  E(RHF) =  -301.976051926     A.U. after   13 cycles
 Normal termination of Gaussian 16 at Wed Apr  9 14:17:15 2025.
 Gaussian 16:  ES64L-G16RevC.01  3-Jul-2019

 ----------------------------------------------------------------------
 #t hf aug-cc-pvdz iop(5/13=1,5/36=2,99/5=2) pseudo=read geom=check gue
 ss=(read,tcheck) scf=(maxcycle=1)
 ----------------------------------------------------------------------
 -----
 title
 -----
 Structure from the checkpoint file:  "Grambow2020_b97d3_006946_reverse_mol2.chk"
 Charge =  0 Multiplicity = 1

                         Standard orientation:
 ---------------------------------------------------------------------
 Center     Atomic      Atomic             Coordinates (Angstroms)
 Number     Number       Type             X           Y           Z
 ---------------------------------------------------------------------
      1          6           0        2.224087   -0.494230    0.118442
      2          7           0        1.176976    0.468748   -0.209751
      3          6           0       -0.134935    0.147309   -0.060540
      4          8           0       -0.564842   -1.161496   -0.055507
      5          7           0       -1.230888    0.849822    0.039315
      6          6           0       -1.887035   -0.459717    0.054380
      7          1           0        2.402675   -0.587588    1.202812
      8          1           0        3.155753   -0.188485   -0.372461
      9          1           0        1.933064   -1.474851   -0.271910
     10          1           0        1.371145    1.449107   -0.028664
     11          1           0       -0.380472    3.276802    0.122253
     12          1           0        0.086993    3.861641    0.136857
     13          1           0       -2.505310   -0.698985   -0.821348
     14          1           0       -2.380421   -0.735835    0.995881
 ---------------------------------------------------------------------

 SCF Done:  E(RHF) =  -302.073318185     A.U. after    2 cycles

 The electronic state is 1-A.
 Alpha  occ. eigenvalues --  -20.60985 -15.66186 -15.59875 -11.39152 -11.33549
 Alpha  occ. eigenvalues --  -11.28828  -1.41928  -1.22140  -1.14770  -0.96818
 Alpha  occ. eigenvalues --   -0.89777  -0.77620  -0.70103  -0.69886  -0.66981
 Alpha  occ. eigenvalues --   -0.62413  -0.61419  -0.57965  -0.56847  -0.54201
 Alpha  occ. eigenvalues --   -0.52540  -0.46256  -0.43969  -0.35436
 Alpha virt. eigenvalues --    0.03099   0.04025   0.04666   0.05361   0.06539
 Alpha virt. eigenvalues --    0.07255   0.08129   0.08996   0.10643   0.11914
 Alpha virt. eigenvalues --    0.13193   0.13283   0.14559   0.14914   0.15656

 Mulliken charges:
               1
     1  C    0.750193
     2  N   -0.327094
     3  C    0.611700
     4  O   -0.736732
     5  N   -0.539537
     6  C    0.976235
     7  H   -0.061940
     8  H   -0.164341
     9  H   -0.116451
    10  H   -0.042432
    11  H    0.054365
    12  H   -0.035772
    13  H   -0.186830
    14  H   -0.181364
 Sum of Mulliken charges =  -0.00000

 Dipole moment (field-independent basis, Debye):
    X=              1.9033    Y=             -0.7043    Z=              0.5247  Tot=              2.0961

 Test job not archived.
 1\1\GINC-SE212\SP\RHF\Aug-CC-pVDZ\C3H8N2O1\OHZDE\09-Apr-2025\0\\#t hf
 aug-cc-pvdz iop(5/13=1,5/36=2,99/5=2) pseudo=read geom=check guess=(re
 ad,tcheck) scf=(maxcycle=1)\\title\\0,1\C,0,-2.05907671,0.25793298,0.5
 2074339\N,0,-0.70659283,-0.27819596,0.64253331\C,0,0.20587439,-0.09485
 606,-0.34766301\O,0,-0.17509509,0.16338453,-1.64612045\N,0,1.50884895,
 -0.16053727,-0.39815579\C,0,1.31380827,0.10298324,-1.82579812\H,0,-2.1
 143828,1.3424862,0.71349286\H,0,-2.71445055,-0.26483884,1.22761111\H,0
 ,-2.42192612,0.06601891,-0.49424176\H,0,-0.29228899,-0.29321417,1.5697

 Normal termination of Gaussian 16 at Wed Apr  9 14:17:19 2025.
