 Gaussian 16, Revision C.01,

 ----------------------------------------------------------------------
 #t hf aug-cc-pvdz symm=none int=(grid=ultrafine) guess=(read,tcheck) s
 table=(opt,rrhf)
 ----------------------------------------------------------------------
 -----
 title
 -----
 Symbolic Z-matrix:
 Charge =  0 Multiplicity = 1

 SCF Done:  E(RHF) =  -343.562339805     A.U. after   14 cycles
 Normal termination of Gaussian 16 at Wed Apr  9 17:01:23 2025.
 Gaussian 16:  ES64L-G16RevC.01  3-Jul-2019

 ----------------------------------------------------------------------
 #t hf aug-cc-pvdz iop(5/13=1,5/36=2,99/5=2) pseudo=read geom=check gue
 ss=(read,tcheck) scf=(maxcycle=1)
 ----------------------------------------------------------------------
 -----
 title
 -----
 Structure from the checkpoint file:  "Grambow2020_wb97xd3_009124_reverse_mol1.chk"
 Charge =  0 Multiplicity = 1

                         Standard orientation:
 ---------------------------------------------------------------------
 Center     Atomic      Atomic             Coordinates (Angstroms)
 Number     Number       Type             X           Y           Z
 ---------------------------------------------------------------------
      1          6           0       -1.471390   -1.406539   -0.223194
      2          6           0       -1.168261   -0.100535    0.092403
      3          8           0       -1.773122    0.939436    0.270692
      4          6           0        0.512607    0.209825   -0.094420
      5          8           0        0.656899    1.538278   -0.386843
      6          6           0        1.665781   -0.703020   -0.499717
      7          6           0        1.405613   -0.430060    0.939245
      8          1           0       -0.334433   -0.477470   -0.930089
      9          1           0       -0.698476   -2.161440   -0.171849
     10          1           0       -2.501600   -1.732545   -0.282054
     11          1           0       -0.176435    1.943682   -0.081213
     12          1           0        2.474987   -0.176778   -0.987920
     13          1           0        1.448833   -1.686538   -0.898003
     14          1           0        0.991303   -1.218968    1.552437
     15          1           0        2.059507    0.270323    1.442000
 ---------------------------------------------------------------------

 SCF Done:  E(RHF) =  -343.669909863     A.U. after    2 cycles

 The electronic state is 1-A.
 Alpha  occ. eigenvalues --  -20.58934 -20.54261 -11.37200 -11.34616 -11.28589
 Alpha  occ. eigenvalues --  -11.27379 -11.25571  -1.37868  -1.33357  -1.17016
 Alpha  occ. eigenvalues --   -1.05912  -0.87416  -0.86761  -0.79075  -0.72636
 Alpha  occ. eigenvalues --   -0.69070  -0.66949  -0.65828  -0.62389  -0.61483
 Alpha  occ. eigenvalues --   -0.57602  -0.55008  -0.54722  -0.50999  -0.45131
 Alpha  occ. eigenvalues --   -0.42042  -0.34179
 Alpha virt. eigenvalues --    0.02905   0.03982   0.04415   0.05104   0.06476
 Alpha virt. eigenvalues --    0.06564   0.07297   0.07965   0.09549   0.10700
 Alpha virt. eigenvalues --    0.11715   0.13052   0.13417   0.14705   0.14790

 Mulliken charges:
               1
     1  C    0.719561
     2  C   -0.152217
     3  O   -0.595898
     4  C   -0.340897
     5  O   -0.584112
     6  C    0.555544
     7  C    0.803377
     8  H    0.825636
     9  H   -0.247716
    10  H   -0.284875
    11  H    0.214003
    12  H   -0.222047
    13  H   -0.245416
    14  H   -0.262667
    15  H   -0.182276
 Sum of Mulliken charges =   0.00000

 Dipole moment (field-independent basis, Debye):
    X=              2.8356    Y=             -3.6678    Z=             -0.1424  Tot=              4.6383

 Test job not archived.
 1\1\GINC-SE219\SP\RHF\Aug-CC-pVDZ\C5H8O2\OHZDE\09-Apr-2025\0\\#t hf au
 g-cc-pvdz iop(5/13=1,5/36=2,99/5=2) pseudo=read geom=check guess=(read
 ,tcheck) scf=(maxcycle=1)\\title\\0,1\C,0,1.63744212,0.33909189,-1.072
 64603\C,0,1.371691,-0.14662773,0.18853965\O,0,1.99773857,-0.64346115,1
 .10527482\C,0,-0.3160174,-0.37777449,0.42253174\O,0,-0.47186463,-1.379
 24575,1.3411641\C,0,-1.50566547,-0.10609386,-0.49304934\C,0,-1.1289599
 1,0.88656159,0.54884004\H,0,0.455592,-0.70653985,-0.66591926\H,0,0.864
 68194,0.8664025,-1.61550316\H,0,2.65682315,0.41915799,-1.42694513\H,0,

 Normal termination of Gaussian 16 at Wed Apr  9 17:01:29 2025.
