 Gaussian 16, Revision C.01,

 ----------------------------------------------------------------------
 #t hf aug-cc-pvdz symm=none int=(grid=ultrafine) guess=(read,tcheck) s
 table=(opt,rrhf)
 ----------------------------------------------------------------------
 -----
 title
 -----
 Symbolic Z-matrix:
 Charge =  0 Multiplicity = 1

 SCF Done:  E(RHF) =  -286.656247466     A.U. after   16 cycles
 Normal termination of Gaussian 16 at Wed Apr  9 15:58:12 2025.
 Gaussian 16:  ES64L-G16RevC.01  3-Jul-2019

 ----------------------------------------------------------------------
 #t hf aug-cc-pvdz iop(5/13=1,5/36=2,99/5=2) pseudo=read geom=check gue
 ss=(read,tcheck) scf=(maxcycle=1)
 ----------------------------------------------------------------------
 -----
 title
 -----
 Structure from the checkpoint file:  "Grambow2020_wb97xd3_007626_reverse_mol1.chk"
 Charge =  0 Multiplicity = 1

                         Standard orientation:
 ---------------------------------------------------------------------
 Center     Atomic      Atomic             Coordinates (Angstroms)
 Number     Number       Type             X           Y           Z
 ---------------------------------------------------------------------
      1          6           0        1.975557   -0.847738    0.012662
      2          6           0        0.663916   -0.120524   -0.059569
      3          6           0        0.546773    1.248775   -0.663072
      4          6           0        0.249004    1.040364    0.761348
      5          6           0       -1.577019   -0.142865    0.755671
      6          7           0       -1.809890   -0.311805   -0.569860
      7          6           0       -0.613463   -0.939426   -0.056798
      8          1           0        1.987047   -1.546660    0.853189
      9          1           0        2.800621   -0.147911    0.152357
     10          1           0        2.163366   -1.419133   -0.900530
     11          1           0        1.493233    1.715208   -0.913789
     12          1           0       -0.241637    1.504830   -1.372734
     13          1           0        0.736299    1.467105    1.626049
     14          1           0       -1.330849    0.774335    1.361268
     15          1           0       -1.813238    0.427264   -1.260464
     16          1           0       -0.594221   -2.023921   -0.057778
 ---------------------------------------------------------------------

 SCF Done:  E(RHF) =  -286.740637649     A.U. after    2 cycles

 The electronic state is 1-A.
 Alpha  occ. eigenvalues --  -15.65300 -11.29451 -11.28991 -11.25043 -11.24077
 Alpha  occ. eigenvalues --  -11.23684 -11.23308  -1.29410  -1.14575  -0.97425
 Alpha  occ. eigenvalues --   -0.91537  -0.84859  -0.80202  -0.74338  -0.71414
 Alpha  occ. eigenvalues --   -0.65446  -0.61204  -0.58213  -0.57625  -0.54181
 Alpha  occ. eigenvalues --   -0.51481  -0.48216  -0.45745  -0.42678  -0.38422
 Alpha  occ. eigenvalues --   -0.27985
 Alpha virt. eigenvalues --    0.03372   0.03984   0.04238   0.04691   0.05994
 Alpha virt. eigenvalues --    0.06615   0.06941   0.07006   0.09059   0.09326
 Alpha virt. eigenvalues --    0.10803   0.12158   0.13037   0.13250   0.14124

 Mulliken charges:
               1
     1  C    0.658296
     2  C   -0.240695
     3  C    0.629085
     4  C    0.017447
     5  C    0.089894
     6  N   -0.477303
     7  C    1.001245
     8  H    0.061361
     9  H   -0.057121
    10  H    0.025109
    11  H   -0.371550
    12  H   -0.407394
    13  H   -0.495576
    14  H   -0.043683
    15  H   -0.002305
    16  H   -0.386809
 Sum of Mulliken charges =  -0.00000

 Dipole moment (field-independent basis, Debye):
    X=              1.4380    Y=              0.4671    Z=             -0.9081  Tot=              1.7637

 Test job not archived.
 1\1\GINC-SE173\SP\RHF\Aug-CC-pVDZ\C6H9N1\OHZDE\09-Apr-2025\0\\#t hf au
 g-cc-pvdz iop(5/13=1,5/36=2,99/5=2) pseudo=read geom=check guess=(read
 ,tcheck) scf=(maxcycle=1)\\title\\0,1\C,0,1.55168788,-0.60855657,0.921
 91691\C,0,0.36256697,-0.12132539,0.14534794\C,0,0.49999353,0.8444235,-
 0.99542354\C,0,-0.24610352,1.22730262,0.21197746\C,0,-2.02039112,-0.03
 122241,0.16254499\N,0,-1.82342371,-0.76752996,-0.95944338\C,0,-0.88042
 213,-0.99093039,0.11266615\H,0,1.26541468,-0.88163626,1.94102627\H,0,2
 .31614743,0.16675519,0.98897478\H,0,1.99867595,-1.4891167,0.45234395\H

 Normal termination of Gaussian 16 at Wed Apr  9 15:58:18 2025.
