 Gaussian 16, Revision C.01,

 ----------------------------------------------------------------------
 #t hf aug-cc-pvdz symm=none int=(grid=ultrafine) guess=(read,tcheck) s
 table=(opt,rrhf)
 ----------------------------------------------------------------------
 -----
 title
 -----
 Symbolic Z-matrix:
 Charge =  0 Multiplicity = 1

 SCF Done:  E(RHF) =  -286.700169843     A.U. after   15 cycles
 Normal termination of Gaussian 16 at Wed Apr  9 16:34:21 2025.
 Gaussian 16:  ES64L-G16RevC.01  3-Jul-2019

 ----------------------------------------------------------------------
 #t hf aug-cc-pvdz iop(5/13=1,5/36=2,99/5=2) pseudo=read geom=check gue
 ss=(read,tcheck) scf=(maxcycle=1)
 ----------------------------------------------------------------------
 -----
 title
 -----
 Structure from the checkpoint file:  "Grambow2020_wb97xd3_008595_reverse_mol1.chk"
 Charge =  0 Multiplicity = 1

                         Standard orientation:
 ---------------------------------------------------------------------
 Center     Atomic      Atomic             Coordinates (Angstroms)
 Number     Number       Type             X           Y           Z
 ---------------------------------------------------------------------
      1          6           0       -1.952585    0.329160   -0.137731
      2          6           0       -0.873361   -0.548072   -0.626476
      3          6           0        0.520852   -0.020893   -1.025953
      4          6           0        1.390245   -0.778614    0.023093
      5          6           0        0.611341    0.159163    0.980189
      6          6           0        0.730209    1.214336   -0.125719
      7          7           0       -0.726869   -0.484025    0.835259
      8          1           0       -1.778692   -0.146183    1.148235
      9          1           0       -1.667349    1.381392   -0.164500
     10          1           0       -1.124364   -1.524244   -1.037890
     11          1           0        0.756275   -0.016707   -2.087058
     12          1           0        1.223184   -1.849116    0.146351
     13          1           0        2.454366   -0.552946   -0.041256
     14          1           0        0.880405    0.327878    2.019577
     15          1           0        0.034504    2.049138   -0.155502
     16          1           0        1.749540    1.588486   -0.199186
 ---------------------------------------------------------------------

 SCF Done:  E(RHF) =  -286.781034348     A.U. after    2 cycles

 The electronic state is 1-A.
 Alpha  occ. eigenvalues --  -15.66171 -11.29018 -11.27489 -11.25724 -11.24775
 Alpha  occ. eigenvalues --  -11.24378 -11.24272  -1.28140  -1.11732  -0.97584
 Alpha  occ. eigenvalues --   -0.92305  -0.84649  -0.79321  -0.75299  -0.71624
 Alpha  occ. eigenvalues --   -0.68234  -0.59435  -0.57558  -0.55255  -0.51998
 Alpha  occ. eigenvalues --   -0.50715  -0.50118  -0.46825  -0.45178  -0.38510
 Alpha  occ. eigenvalues --   -0.33598
 Alpha virt. eigenvalues --    0.02981   0.03710   0.04103   0.04734   0.06269
 Alpha virt. eigenvalues --    0.06690   0.07082   0.07286   0.08982   0.10901
 Alpha virt. eigenvalues --    0.11833   0.12416   0.12679   0.13064   0.13513

 Mulliken charges:
               1
     1  C   -0.274375
     2  C    0.875912
     3  C    0.211326
     4  C    0.627018
     5  C    0.739229
     6  C    0.699248
     7  N   -0.959773
     8  H    0.330028
     9  H   -0.151182
    10  H   -0.323061
    11  H   -0.351313
    12  H   -0.224940
    13  H   -0.323327
    14  H   -0.332826
    15  H   -0.233471
    16  H   -0.308493
 Sum of Mulliken charges =  -0.00000

 Dipole moment (field-independent basis, Debye):
    X=              3.1345    Y=              0.7938    Z=             -0.1832  Tot=              3.2386

 Test job not archived.
 1\1\GINC-SE125\SP\RHF\Aug-CC-pVDZ\C6H9N1\OHZDE\09-Apr-2025\0\\#t hf au
 g-cc-pvdz iop(5/13=1,5/36=2,99/5=2) pseudo=read geom=check guess=(read
 ,tcheck) scf=(maxcycle=1)\\title\\0,1\C,0,1.88333405,0.86834437,0.3573
 6827\C,0,1.12142545,-0.36947379,0.6032005\C,0,-0.38809452,-0.37640597,
 0.92355857\C,0,-0.90611515,-1.18256272,-0.30617661\C,0,-0.42175003,0.0
 9590377,-1.03628967\C,0,-0.93660232,0.86326469,0.18708133\N,0,1.042573
 47,-0.11325362,-0.84260881\H,0,1.94370976,0.58220347,-0.99332711\H,0,1
 .2715553,1.75973628,0.50025342\H,0,1.65217261,-1.27286562,0.89877933\H

 Normal termination of Gaussian 16 at Wed Apr  9 16:34:30 2025.
