 Gaussian 16, Revision C.01,

 ----------------------------------------------------------------------
 #t hf aug-cc-pvdz symm=none int=(grid=ultrafine) guess=(read,tcheck) s
 table=(opt,rrhf)
 ----------------------------------------------------------------------
 -----
 title
 -----
 Symbolic Z-matrix:
 Charge =  0 Multiplicity = 1

 SCF Done:  E(RHF) =  -308.903801921     A.U. after   16 cycles

 1\1\GINC-SE114\Stability\RHF\Aug-CC-pVDZ\C6H12O1\OHZDE\09-Apr-2025\0\\
 #t hf aug-cc-pvdz symm=none int=(grid=ultrafine) guess=(read,tcheck) s
 table=(opt,rrhf)\\title\\0,1\C,0,1.75286782,-0.39339272,-0.98956044\C,
 0,0.91550888,0.48975657,-0.0970423\O,0,0.49347427,1.66478922,-0.797228
 99\C,0,-0.43540722,2.18588636,0.04842407\C,0,-0.45007894,-0.03682867,0
 .37764677\C,0,-0.44956391,-0.81037626,1.66713323\C,0,-1.31608717,-0.62
 626462,-0.70204257\H,0,2.67896934,0.10949959,-1.26938231\H,0,2.0132456
 7,-1.31535211,-0.46499493\H,0,1.2124881,-0.65559775,-1.90004225\H,0,1.

 Normal termination of Gaussian 16 at Wed Apr  9 14:34:04 2025.
 Gaussian 16:  ES64L-G16RevC.01  3-Jul-2019

 ----------------------------------------------------------------------
 #t hf aug-cc-pvdz iop(5/13=1,5/36=2,99/5=2) pseudo=read geom=check gue
 ss=(read,tcheck) scf=(maxcycle=1)
 ----------------------------------------------------------------------
 -----
 title
 -----
 Structure from the checkpoint file:  "Grambow2020_wb97xd3_006575_forward_mol1.chk"
 Charge =  0 Multiplicity = 1

                         Standard orientation:
 ---------------------------------------------------------------------
 Center     Atomic      Atomic             Coordinates (Angstroms)
 Number     Number       Type             X           Y           Z
 ---------------------------------------------------------------------
      1          6           0        0.981037    1.783049    0.086541
      2          6           0        0.612824    0.426417   -0.462714
      3          8           0        1.516292   -0.576481    0.013751
      4          6           0        0.890623   -1.726304   -0.354947
      5          6           0       -0.724580   -0.198593   -0.028935
      6          6           0       -1.916542    0.127364   -0.885749
      7          6           0       -0.993311   -0.165271    1.450865
      8          1           0        1.959127    2.094713   -0.280979
      9          1           0        0.247025    2.526776   -0.231377
     10          1           0        1.008823    1.770223    1.176863
     11          1           0        0.643736    0.438467   -1.562532
     12          1           0        1.053098   -2.483615    0.425070
     13          1           0       -0.231523   -1.447495   -0.658116
     14          1           0       -1.720540   -0.070642   -1.942987
     15          1           0       -2.182590    1.188788   -0.797681
     16          1           0       -2.792143   -0.447432   -0.578360
     17          1           0       -1.320653    0.835762    1.762789
     18          1           0       -0.102685   -0.414444    2.029275
     19          1           0       -1.792312   -0.859217    1.717659
 ---------------------------------------------------------------------

 SCF Done:  E(RHF) =  -309.001050822     A.U. after    2 cycles

 The electronic state is 1-A.
 Alpha  occ. eigenvalues --  -20.58570 -11.29903 -11.29498 -11.27474 -11.24132
 Alpha  occ. eigenvalues --  -11.23583 -11.23311  -1.37156  -1.08882  -1.01409
 Alpha  occ. eigenvalues --   -0.94875  -0.88284  -0.87892  -0.73159  -0.68088
 Alpha  occ. eigenvalues --   -0.66924  -0.64829  -0.60430  -0.58520  -0.56426
 Alpha  occ. eigenvalues --   -0.55691  -0.54927  -0.54136  -0.51831  -0.50524
 Alpha  occ. eigenvalues --   -0.48710  -0.45499  -0.27127
 Alpha virt. eigenvalues --    0.03162   0.04224   0.04522   0.04946   0.05925
 Alpha virt. eigenvalues --    0.06353   0.06549   0.06970   0.07120   0.08989
 Alpha virt. eigenvalues --    0.09290   0.09654   0.09777   0.12700   0.12903

 Mulliken charges:
               1
     1  C    0.534270
     2  C    0.450454
     3  O   -0.656353
     4  C    0.346667
     5  C   -2.047377
     6  C    0.983429
     7  C    0.640415
     8  H   -0.016170
     9  H    0.008830
    10  H    0.032928
    11  H   -0.345615
    12  H   -0.253460
    13  H    0.463750
    14  H   -0.110024
    15  H    0.026379
    16  H   -0.031241
    17  H    0.081654
    18  H   -0.045618
    19  H   -0.062917
 Sum of Mulliken charges =  -0.00000

 Dipole moment (field-independent basis, Debye):
    X=             -2.2145    Y=              1.6157    Z=              0.6029  Tot=              2.8068

 Test job not archived.
 1\1\GINC-SE114\SP\RHF\Aug-CC-pVDZ\C6H12O1\OHZDE\09-Apr-2025\0\\#t hf a
 ug-cc-pvdz iop(5/13=1,5/36=2,99/5=2) pseudo=read geom=check guess=(rea
 d,tcheck) scf=(maxcycle=1)\\title\\0,1\C,0,1.75286782,-0.39339272,-0.9
 8956044\C,0,0.91550888,0.48975657,-0.0970423\O,0,0.49347427,1.66478922
 ,-0.79722899\C,0,-0.43540722,2.18588636,0.04842407\C,0,-0.45007894,-0.
 03682867,0.37764677\C,0,-0.44956391,-0.81037626,1.66713323\C,0,-1.3160
 8717,-0.62626462,-0.70204257\H,0,2.67896934,0.10949959,-1.26938231\H,0
 ,2.01324567,-1.31535211,-0.46499493\H,0,1.2124881,-0.65559775,-1.90004

 Normal termination of Gaussian 16 at Wed Apr  9 14:34:12 2025.
