 Gaussian 16, Revision C.01,

 ----------------------------------------------------------------------
 #t hf aug-cc-pvdz symm=none int=(grid=ultrafine) guess=(read,tcheck) s
 table=(opt,rrhf)
 ----------------------------------------------------------------------
 -----
 title
 -----
 Symbolic Z-matrix:
 Charge =  0 Multiplicity = 1

 SCF Done:  E(RHF) =  -231.750890790     A.U. after   12 cycles
 Normal termination of Gaussian 16 at Wed Apr  9 14:21:16 2025.
 Gaussian 16:  ES64L-G16RevC.01  3-Jul-2019

 ----------------------------------------------------------------------
 #t hf aug-cc-pvdz iop(5/13=1,5/36=2,99/5=2) pseudo=read geom=check gue
 ss=(read,tcheck) scf=(maxcycle=1)
 ----------------------------------------------------------------------
 -----
 title
 -----
 Structure from the checkpoint file:  "Grambow2020_wb97xd3_006054_forward_mol2.chk"
 Charge =  0 Multiplicity = 1

                         Standard orientation:
 ---------------------------------------------------------------------
 Center     Atomic      Atomic             Coordinates (Angstroms)
 Number     Number       Type             X           Y           Z
 ---------------------------------------------------------------------
      1          6           0       -1.388955   -0.018574    0.734824
      2          6           0       -0.773319   -0.744235   -0.419882
      3          6           0       -0.773684    0.764487   -0.381630
      4          6           0        0.773176    0.765056   -0.381129
      5          6           0        1.389156   -0.019062    0.734405
      6          6           0        0.773496   -0.744029   -0.420070
      7          1           0       -0.969867   -0.044380    1.731843
      8          1           0       -2.472411   -0.019182    0.724150
      9          1           0       -1.352992   -1.390076   -1.063460
     10          1           0       -1.353786    1.441921   -0.991463
     11          1           0        1.352786    1.443252   -0.990591
     12          1           0        2.472602   -0.017360    0.721794
     13          1           0        0.971837   -0.045601    1.732285
     14          1           0        1.352618   -1.390434   -1.063665
 ---------------------------------------------------------------------

 SCF Done:  E(RHF) =  -231.821559757     A.U. after    2 cycles

 The electronic state is 1-A.
 Alpha  occ. eigenvalues --  -11.23707 -11.23678 -11.23656 -11.23609 -11.23462
 Alpha  occ. eigenvalues --  -11.23456  -1.20799  -1.06617  -0.87021  -0.86060
 Alpha  occ. eigenvalues --   -0.75894  -0.71707  -0.71276  -0.64817  -0.60876
 Alpha  occ. eigenvalues --   -0.53397  -0.53364  -0.49443  -0.45510  -0.44403
 Alpha  occ. eigenvalues --   -0.40131  -0.32440
 Alpha virt. eigenvalues --    0.03521   0.04166   0.04764   0.04775   0.06186
 Alpha virt. eigenvalues --    0.06455   0.06618   0.09099   0.10025   0.12190
 Alpha virt. eigenvalues --    0.12532   0.14083   0.14278   0.14491   0.14942

 Mulliken charges:
               1
     1  C    0.946911
     2  C    0.300588
     3  C    0.301395
     4  C    0.299660
     5  C    0.948124
     6  C    0.300474
     7  H   -0.330869
     8  H   -0.362941
     9  H   -0.427779
    10  H   -0.427433
    11  H   -0.427907
    12  H   -0.361427
    13  H   -0.331122
    14  H   -0.427674
 Sum of Mulliken charges =   0.00000

 Dipole moment (field-independent basis, Debye):
    X=              0.0005    Y=              0.0081    Z=             -0.3338  Tot=              0.3339

 Test job not archived.
 1\1\GINC-SE229\SP\RHF\Aug-CC-pVDZ\C6H8\OHZDE\09-Apr-2025\0\\#t hf aug-
 cc-pvdz iop(5/13=1,5/36=2,99/5=2) pseudo=read geom=check guess=(read,t
 check) scf=(maxcycle=1)\\title\\0,1\C,0,1.25027978,-0.81628266,-0.4150
 7386\C,0,0.96701484,0.22917572,0.6172617\C,0,0.65557142,0.4903146,-0.8
 3618735\C,0,-0.84290411,0.64921383,-0.48676093\C,0,-1.44043843,-0.5299
 187,0.21415771\C,0,-0.53124418,0.38867004,0.96714339\H,0,0.70650657,-1
 .75014415,-0.46568626\H,0,2.30136993,-0.91755676,-0.65785632\H,0,1.751
 96936,0.66909361,1.21529571\H,0,1.16743962,1.15907226,-1.51300789\H,0,

 Normal termination of Gaussian 16 at Wed Apr  9 14:21:20 2025.
