 Gaussian 16, Revision C.01,

 ----------------------------------------------------------------------
 #t hf aug-cc-pvdz symm=none int=(grid=ultrafine) guess=(read,tcheck) s
 table=(opt,rrhf)
 ----------------------------------------------------------------------
 -----
 title
 -----
 Symbolic Z-matrix:
 Charge =  0 Multiplicity = 1

 SCF Done:  E(RHF) =  -321.544876318     A.U. after   14 cycles
 Normal termination of Gaussian 16 at Wed Apr  9 04:05:33 2025.
 Gaussian 16:  ES64L-G16RevC.01  3-Jul-2019

 ----------------------------------------------------------------------
 #t hf aug-cc-pvdz iop(5/13=1,5/36=2,99/5=2) pseudo=read geom=check gue
 ss=(read,tcheck) scf=(maxcycle=1)
 ----------------------------------------------------------------------
 -----
 title
 -----
 Structure from the checkpoint file:  "Grambow2020_wb97xd3_009372_reverse_mol2.chk"
 Charge =  0 Multiplicity = 1

                         Standard orientation:
 ---------------------------------------------------------------------
 Center     Atomic      Atomic             Coordinates (Angstroms)
 Number     Number       Type             X           Y           Z
 ---------------------------------------------------------------------
      1          8           0        2.514940   -0.022084   -0.503994
      2          6           0        1.264701   -0.060074   -0.038601
      3          6           0        0.363319    1.117647    0.160992
      4          6           0       -0.658451    0.055481    0.694547
      5          6           0        0.405713   -0.985850    0.392768
      6          6           0       -1.899373   -0.048643   -0.066873
      7          7           0       -2.871413   -0.140212   -0.670125
      8          1           0        0.686385    1.844947    0.906273
      9          1           0        0.051291    1.629538   -0.748974
     10          1           0       -0.903599    0.183692    1.750548
     11          1           0        0.413142   -2.060020    0.504170
     12          1           0        2.877696   -0.911362   -0.546182
 ---------------------------------------------------------------------

 SCF Done:  E(RHF) =  -321.642377966     A.U. after    2 cycles

 The electronic state is 1-A.
 Alpha  occ. eigenvalues --  -20.63466 -15.63142 -11.33666 -11.30247 -11.28010
 Alpha  occ. eigenvalues --  -11.27371 -11.25416  -1.40274  -1.20183  -1.17034
 Alpha  occ. eigenvalues --   -0.95969  -0.93493  -0.83007  -0.72371  -0.71486
 Alpha  occ. eigenvalues --   -0.69461  -0.63000  -0.58415  -0.56913  -0.55301
 Alpha  occ. eigenvalues --   -0.53731  -0.52273  -0.45393  -0.44826  -0.36891
 Alpha virt. eigenvalues --    0.02381   0.03608   0.04344   0.05610   0.06230
 Alpha virt. eigenvalues --    0.08760   0.09946   0.10807   0.11333   0.12097
 Alpha virt. eigenvalues --    0.13201   0.13435   0.13985   0.14169   0.14918

 Mulliken charges:
               1
     1  O   -0.531618
     2  C    0.201079
     3  C    0.198818
     4  C    0.677637
     5  C    0.467284
     6  C   -0.537823
     7  N   -0.144941
     8  H   -0.020362
     9  H   -0.100451
    10  H   -0.093504
    11  H   -0.257368
    12  H    0.141250
 Sum of Mulliken charges =   0.00000

 Dipole moment (field-independent basis, Debye):
    X=              4.0123    Y=             -0.7259    Z=              2.0109  Tot=              4.5464

 Test job not archived.
 1\1\GINC-SE364\SP\RHF\Aug-CC-pVDZ\C5H5N1O1\OHZDE\09-Apr-2025\0\\#t hf
 aug-cc-pvdz iop(5/13=1,5/36=2,99/5=2) pseudo=read geom=check guess=(re
 ad,tcheck) scf=(maxcycle=1)\\title\\0,1\O,0,-2.33100792,-0.67483189,0.
 03163594\C,0,-1.02751926,-0.40333686,-0.05968424\C,0,-0.42548016,0.933
 2514,-0.36041169\C,0,0.9411839,0.17129806,-0.26795069\C,0,0.12359462,-
 1.07061723,0.04362638\C,0,1.83980149,0.63479974,0.78473195\N,0,2.54384
 046,0.99005445,1.61856827\H,0,-0.64520576,1.3447676,-1.34588404\H,0,-0
 .57145675,1.69647855,0.40352994\H,0,1.48821737,0.14839963,-1.21235777\

 Normal termination of Gaussian 16 at Wed Apr  9 04:05:38 2025.
