 Gaussian 16, Revision C.01,

 ----------------------------------------------------------------------
 #t hf aug-cc-pvdz symm=none int=(grid=ultrafine) guess=(read,tcheck) s
 table=(opt,rrhf)
 ----------------------------------------------------------------------
 -----
 title
 -----
 Symbolic Z-matrix:
 Charge =  0 Multiplicity = 1

 SCF Done:  E(RHF) =  -321.420808406     A.U. after   16 cycles
 Normal termination of Gaussian 16 at Wed Apr  9 03:39:15 2025.
 Gaussian 16:  ES64L-G16RevC.01  3-Jul-2019

 ----------------------------------------------------------------------
 #t hf aug-cc-pvdz iop(5/13=1,5/36=2,99/5=2) pseudo=read geom=check gue
 ss=(read,tcheck) scf=(maxcycle=1)
 ----------------------------------------------------------------------
 -----
 title
 -----
 Structure from the checkpoint file:  "Grambow2020_wb97xd3_007493_reverse_mol2.chk"
 Charge =  0 Multiplicity = 1

                         Standard orientation:
 ---------------------------------------------------------------------
 Center     Atomic      Atomic             Coordinates (Angstroms)
 Number     Number       Type             X           Y           Z
 ---------------------------------------------------------------------
      1          8           0        0.250609    1.680868    0.205045
      2          6           0        0.381573    0.502001   -0.114000
      3          6           0        1.688113   -0.151104   -0.058199
      4          6           0        2.751409   -0.696696    0.024858
      5          6           0       -0.683837   -0.324127   -0.594801
      6          6           0       -1.445608   -1.186049    0.309771
      7          7           0       -1.989230    0.148347   -0.054409
      8          1           0        3.701699   -1.171822    0.093362
      9          1           0       -2.772930    0.212769   -0.685913
     10          1           0       -1.213645   -1.260444    1.370661
     11          1           0       -2.017142   -2.024467   -0.077628
     12          1           0       -1.928138    0.894446    0.634245
 ---------------------------------------------------------------------

 SCF Done:  E(RHF) =  -321.518666302     A.U. after    2 cycles

 The electronic state is 1-A.
 Alpha  occ. eigenvalues --  -20.54206 -15.73172 -11.34866 -11.31818 -11.25386
 Alpha  occ. eigenvalues --  -11.24780 -11.24228  -1.34214  -1.29652  -1.04537
 Alpha  occ. eigenvalues --   -0.99458  -0.92358  -0.82580  -0.78787  -0.72920
 Alpha  occ. eigenvalues --   -0.69759  -0.64919  -0.60806  -0.56919  -0.55449
 Alpha  occ. eigenvalues --   -0.50495  -0.44781  -0.40933  -0.40827  -0.32694
 Alpha virt. eigenvalues --    0.02194   0.03635   0.04231   0.04269   0.07312
 Alpha virt. eigenvalues --    0.08181   0.08555   0.09826   0.11252   0.11719
 Alpha virt. eigenvalues --    0.12336   0.12797   0.13882   0.14615   0.14979

 Mulliken charges:
               1
     1  O   -0.658260
     2  C    0.092674
     3  C   -0.392480
     4  C    1.129809
     5  C   -0.126362
     6  C    1.079046
     7  N   -0.175309
     8  H   -0.469308
     9  H    0.012556
    10  H   -0.273525
    11  H   -0.284921
    12  H    0.066079
 Sum of Mulliken charges =  -0.00000

 Dipole moment (field-independent basis, Debye):
    X=             -3.8325    Y=             -3.1406    Z=              1.5068  Tot=              5.1790

 Test job not archived.
 1\1\GINC-SE080\SP\RHF\Aug-CC-pVDZ\C5H5N1O1\OHZDE\09-Apr-2025\0\\#t hf
 aug-cc-pvdz iop(5/13=1,5/36=2,99/5=2) pseudo=read geom=check guess=(re
 ad,tcheck) scf=(maxcycle=1)\\title\\0,1\O,0,0.43827928,1.00090646,1.76
 875626\C,0,0.62003869,0.64219688,0.60817072\C,0,1.93566394,0.19137845,
 0.15806171\C,0,3.00414632,-0.21486191,-0.20038327\C,0,-0.38924366,0.66
 039612,-0.40660689\C,0,-1.18899521,-0.52812665,-0.70538325\N,0,-1.7397
 5415,0.51031366,0.20405036\H,0,3.95914841,-0.56647479,-0.51315704\H,0,
 -2.48006206,1.11456277,-0.11837654\H,0,-1.02792293,-1.47702613,-0.1969

 Normal termination of Gaussian 16 at Wed Apr  9 03:39:19 2025.
