 Gaussian 16, Revision C.01,

 ----------------------------------------------------------------------
 #t hf aug-cc-pvdz symm=none int=(grid=ultrafine) guess=(read,tcheck) s
 table=(opt,rrhf)
 ----------------------------------------------------------------------
 -----
 title
 -----
 Symbolic Z-matrix:
 Charge =  0 Multiplicity = 1

 SCF Done:  E(RHF) =  -322.446321416     A.U. after   17 cycles
 Normal termination of Gaussian 16 at Wed Apr  9 16:03:02 2025.
 Gaussian 16:  ES64L-G16RevC.01  3-Jul-2019

 ----------------------------------------------------------------------
 #t hf aug-cc-pvdz iop(5/13=1,5/36=2,99/5=2) pseudo=read geom=check gue
 ss=(read,tcheck) scf=(maxcycle=1)
 ----------------------------------------------------------------------
 -----
 title
 -----
 Structure from the checkpoint file:  "Grambow2020_wb97xd3_007711_forward_mol1.chk"
 Charge =  0 Multiplicity = 1

                         Standard orientation:
 ---------------------------------------------------------------------
 Center     Atomic      Atomic             Coordinates (Angstroms)
 Number     Number       Type             X           Y           Z
 ---------------------------------------------------------------------
      1          6           0       -2.519607    0.136997    0.278989
      2          7           0       -1.439376   -0.583362   -0.353225
      3          6           0       -0.250414   -0.216571   -0.063392
      4          8           0        0.358745    1.181588   -0.248379
      5          6           0        1.594262    0.700050   -0.086463
      6          6           0        1.712959   -0.499442    0.697321
      7          6           0        1.010540   -0.945969   -0.445563
      8          1           0       -2.707601    1.089307   -0.229461
      9          1           0       -3.432884   -0.456137    0.231799
     10          1           0       -2.299706    0.363652    1.331799
     11          1           0        2.440255    1.332644   -0.322903
     12          1           0        0.085982   -0.165545    1.214814
     13          1           0        2.628420   -0.882368    1.138708
     14          1           0        1.204773   -1.701116   -1.190492
 ---------------------------------------------------------------------

 SCF Done:  E(RHF) =  -322.543406742     A.U. after    2 cycles

 The electronic state is 1-A.
 Alpha  occ. eigenvalues --  -20.61045 -15.57834 -11.37361 -11.35385 -11.34523
 Alpha  occ. eigenvalues --  -11.30418 -11.23323  -1.41126  -1.17711  -1.15765
 Alpha  occ. eigenvalues --   -0.96200  -0.87781  -0.82776  -0.80219  -0.69609
 Alpha  occ. eigenvalues --   -0.68823  -0.65883  -0.63152  -0.59480  -0.58241
 Alpha  occ. eigenvalues --   -0.55644  -0.51269  -0.46774  -0.40083  -0.36978
 Alpha  occ. eigenvalues --   -0.28994
 Alpha virt. eigenvalues --    0.02089   0.02622   0.03911   0.04190   0.05081
 Alpha virt. eigenvalues --    0.06833   0.07180   0.08281   0.08960   0.10725
 Alpha virt. eigenvalues --    0.10993   0.11452   0.13145   0.13655   0.14145

 Mulliken charges:
               1
     1  C    0.682617
     2  N   -0.574672
     3  C   -0.134244
     4  O   -0.668398
     5  C    0.699695
     6  C    0.484197
     7  C    0.584975
     8  H   -0.076155
     9  H   -0.230796
    10  H   -0.033119
    11  H   -0.314663
    12  H    0.252113
    13  H   -0.315379
    14  H   -0.356171
 Sum of Mulliken charges =  -0.00000

 Dipole moment (field-independent basis, Debye):
    X=              5.1520    Y=             -0.5550    Z=              1.0668  Tot=              5.2904

 Test job not archived.
 1\1\GINC-SE037\SP\RHF\Aug-CC-pVDZ\C5H7N1O1\OHZDE\09-Apr-2025\0\\#t hf
 aug-cc-pvdz iop(5/13=1,5/36=2,99/5=2) pseudo=read geom=check guess=(re
 ad,tcheck) scf=(maxcycle=1)\\title\\0,1\C,0,2.2594845,0.02879146,0.902
 59771\N,0,1.1593057,0.8658034,0.4848307\C,0,0.11442566,0.2743627,0.048
 25979\O,0,0.02927304,-0.70444415,-1.13276939\C,0,-1.30079033,-0.587445
 39,-1.17567031\C,0,-1.94912233,-0.23083247,0.05708279\C,0,-1.20692066,
 0.93295048,-0.24903678\H,0,2.83796379,-0.31972051,0.039662\H,0,2.92803
 356,0.59755814,1.54886042\H,0,1.91328796,-0.86060044,1.44782043\H,0,-1

 Normal termination of Gaussian 16 at Wed Apr  9 16:03:06 2025.
