 Gaussian 16, Revision C.01,

 ----------------------------------------------------------------------
 #t hf aug-cc-pvdz symm=none int=(grid=ultrafine) guess=(read,tcheck) s
 table=(opt,rrhf)
 ----------------------------------------------------------------------
 -----
 title
 -----
 Symbolic Z-matrix:
 Charge =  0 Multiplicity = 1

 SCF Done:  E(RHF) =  -302.775777441     A.U. after   17 cycles
 Normal termination of Gaussian 16 at Wed Apr  9 15:33:05 2025.
 Gaussian 16:  ES64L-G16RevC.01  3-Jul-2019

 ----------------------------------------------------------------------
 #t hf aug-cc-pvdz iop(5/13=1,5/36=2,99/5=2) pseudo=read geom=check gue
 ss=(read,tcheck) scf=(maxcycle=1)
 ----------------------------------------------------------------------
 -----
 title
 -----
 Structure from the checkpoint file:  "Grambow2020_wb97xd3_006959_forward_mol1.chk"
 Charge =  0 Multiplicity = 1

                         Standard orientation:
 ---------------------------------------------------------------------
 Center     Atomic      Atomic             Coordinates (Angstroms)
 Number     Number       Type             X           Y           Z
 ---------------------------------------------------------------------
      1          6           0        0.470455    1.536570    0.257124
      2          6           0        0.834353    0.058723    0.166870
      3          6           0        2.028652   -0.210172   -0.745582
      4          7           0        0.601514   -0.755882    1.231199
      5          6           0       -0.424666   -0.901171   -0.156543
      6          6           0       -1.701762   -0.226714   -0.213938
      7          7           0       -2.726374    0.282839   -0.288060
      8          1           0        0.233907    1.961088   -0.720287
      9          1           0        1.337476    2.069905    0.651344
     10          1           0       -0.365924    1.692522    0.935062
     11          1           0        2.913626    0.243960   -0.295915
     12          1           0        2.211601   -1.280926   -0.834919
     13          1           0        1.896454    0.227995   -1.736959
     14          1           0       -0.440720   -1.719002    0.621754
     15          1           0       -0.154592   -1.427655   -1.069645
 ---------------------------------------------------------------------

 SCF Done:  E(RHF) =  -302.863473408     A.U. after    2 cycles

 The electronic state is 1-A.
 Alpha  occ. eigenvalues --  -15.65639 -15.65041 -11.33823 -11.32643 -11.30172
 Alpha  occ. eigenvalues --  -11.25107 -11.24534  -1.25385  -1.20297  -1.02938
 Alpha  occ. eigenvalues --   -0.98085  -0.96383  -0.76929  -0.74031  -0.65205
 Alpha  occ. eigenvalues --   -0.64309  -0.60152  -0.59273  -0.56588  -0.55649
 Alpha  occ. eigenvalues --   -0.54725  -0.52985  -0.50859  -0.47432  -0.44336
 Alpha  occ. eigenvalues --   -0.37498
 Alpha virt. eigenvalues --    0.02661   0.03626   0.04513   0.04834   0.06533
 Alpha virt. eigenvalues --    0.06853   0.07456   0.07892   0.09181   0.10299
 Alpha virt. eigenvalues --    0.11774   0.13091   0.13653   0.13892   0.14533

 Mulliken charges:
               1
     1  C    0.727091
     2  C   -1.125464
     3  C    0.678611
     4  N   -0.913708
     5  C    0.772601
     6  C   -0.312691
     7  N   -0.133840
     8  H    0.079592
     9  H   -0.001910
    10  H   -0.008365
    11  H   -0.024322
    12  H   -0.009935
    13  H    0.061152
    14  H    0.286536
    15  H   -0.075347
 Sum of Mulliken charges =  -0.00000

 Dipole moment (field-independent basis, Debye):
    X=              3.3643    Y=             -0.6039    Z=             -1.8935  Tot=              3.9075

 Test job not archived.
 1\1\GINC-SE129\SP\RHF\Aug-CC-pVDZ\C5H8N2\OHZDE\09-Apr-2025\0\\#t hf au
 g-cc-pvdz iop(5/13=1,5/36=2,99/5=2) pseudo=read geom=check guess=(read
 ,tcheck) scf=(maxcycle=1)\\title\\0,1\C,0,-0.6461256,1.33143917,-0.123
 16177\C,0,-0.33969102,-0.15014646,-0.31185157\C,0,-1.24970032,-1.06013
 527,0.50974757\N,0,0.1550397,-0.58684439,-1.50144305\C,0,1.22490928,-0
 .51622151,-0.14115958\C,0,2.09386497,0.62000746,0.06635236\N,0,2.80612
 396,1.49874954,0.25468274\H,0,-0.55600741,1.63920015,0.92022978\H,0,-1
 .67925723,1.50021411,-0.43257124\H,0,0.00266077,1.94681283,-0.74271036

 Normal termination of Gaussian 16 at Wed Apr  9 15:33:10 2025.
