 Gaussian 16, Revision C.01,

 ----------------------------------------------------------------------
 #t hf aug-cc-pvdz symm=none int=(grid=ultrafine) guess=(read,tcheck) s
 table=(opt,rrhf)
 ----------------------------------------------------------------------
 -----
 title
 -----
 Symbolic Z-matrix:
 Charge =  0 Multiplicity = 1

 SCF Done:  E(RHF) =  -352.360261180     A.U. after   17 cycles
 Normal termination of Gaussian 16 at Wed Apr  9 16:25:42 2025.
 Gaussian 16:  ES64L-G16RevC.01  3-Jul-2019

 ----------------------------------------------------------------------
 #t hf aug-cc-pvdz iop(5/13=1,5/36=2,99/5=2) pseudo=read geom=check gue
 ss=(read,tcheck) scf=(maxcycle=1)
 ----------------------------------------------------------------------
 -----
 title
 -----
 Structure from the checkpoint file:  "Grambow2020_wb97xd3_008228_forward_mol2.chk"
 Charge =  0 Multiplicity = 1

                         Standard orientation:
 ---------------------------------------------------------------------
 Center     Atomic      Atomic             Coordinates (Angstroms)
 Number     Number       Type             X           Y           Z
 ---------------------------------------------------------------------
      1          7           0       -2.730891   -0.262505    0.000084
      2          6           0       -1.584825   -0.165541   -0.000324
      3          6           0       -0.172810   -0.095321   -0.000856
      4          6           0        0.739937   -1.237862    0.000762
      5          8           0        1.938459   -1.133395   -0.000684
      6          7           0        0.957938    2.057514    0.000683
      7          7           0        0.398463    1.100840   -0.000228
      8          1           0        0.219959   -2.211441    0.004199
 ---------------------------------------------------------------------

 SCF Done:  E(RHF) =  -352.468121371     A.U. after    2 cycles

 The electronic state is 1-A.
 Alpha  occ. eigenvalues --  -20.59562 -15.88487 -15.83024 -15.66490 -11.38877
 Alpha  occ. eigenvalues --  -11.35536 -11.32059  -1.51560  -1.39298  -1.23402
 Alpha  occ. eigenvalues --   -1.18512  -0.95112  -0.86822  -0.76752  -0.74381
 Alpha  occ. eigenvalues --   -0.73049  -0.68678  -0.66235  -0.59353  -0.57236
 Alpha  occ. eigenvalues --   -0.53291  -0.50769  -0.47769  -0.38122
 Alpha virt. eigenvalues --    0.03552   0.04443   0.05288   0.05930   0.07633
 Alpha virt. eigenvalues --    0.09436   0.10003   0.10313   0.10494   0.11053
 Alpha virt. eigenvalues --    0.13269   0.13893   0.14865   0.15143   0.15949

 Mulliken charges:
               1
     1  N   -0.129453
     2  C   -0.590853
     3  C    1.128280
     4  C    0.551796
     5  O   -0.476491
     6  N   -0.276513
     7  N   -0.084838
     8  H   -0.121928
 Sum of Mulliken charges =  -0.00000

 Dipole moment (field-independent basis, Debye):
    X=              0.6832    Y=              1.3368    Z=              0.0044  Tot=              1.5013

 Test job not archived.
 1\1\GINC-SE057\SP\RHF\Aug-CC-pVDZ\C3H1N3O1\OHZDE\09-Apr-2025\0\\#t hf
 aug-cc-pvdz iop(5/13=1,5/36=2,99/5=2) pseudo=read geom=check guess=(re
 ad,tcheck) scf=(maxcycle=1)\\title\\0,1\N,0,2.68110009,-0.31870002,0.0
 3184735\C,0,1.53294746,-0.27142265,0.0806325\C,0,0.12433629,-0.1644952
 5,0.13629448\C,0,-0.64196568,1.07912434,0.06772896\O,0,-1.84308876,1.1
 2545002,0.11800781\N,0,-1.25801592,-2.15130325,0.37078589\N,0,-0.58722
 645,-1.27554749,0.26434277\H,0,-0.00808704,1.97689429,-0.03450577\\Ver
 sion=ES64L-G16RevC.01\State=1-A\HF=-352.4681214\RMSD=5.231e-03\Dipole=

 Normal termination of Gaussian 16 at Wed Apr  9 16:25:45 2025.
