 Gaussian 16, Revision C.01,

 ----------------------------------------------------------------------
 #t hf aug-cc-pvdz symm=none int=(grid=ultrafine) guess=(read,tcheck) s
 table=(opt,rrhf)
 ----------------------------------------------------------------------
 -----
 title
 -----
 Symbolic Z-matrix:
 Charge =  0 Multiplicity = 1

 SCF Done:  E(RHF) =  -308.888518227     A.U. after   16 cycles

 1\1\GINC-SE026\Stability\RHF\Aug-CC-pVDZ\C6H12O1\OHZDE\09-Apr-2025\0\\
 #t hf aug-cc-pvdz symm=none int=(grid=ultrafine) guess=(read,tcheck) s
 table=(opt,rrhf)\\title\\0,1\C,0,-1.00558285,-1.58935713,-0.63220117\C
 ,0,-0.82264965,-0.10711446,-0.44314869\C,0,-0.94050945,0.52167035,0.90
 851524\C,0,-0.78865914,1.87467644,1.08163197\O,0,1.21307077,1.70875619
 ,-0.22172263\C,0,1.2361457,0.56556634,-0.69470784\C,0,1.98833258,-0.53
 973997,0.01124088\H,0,-2.03431882,-1.89332902,-0.84511438\H,0,-0.40142
 991,-1.91442417,-1.48203754\H,0,-0.66109407,-2.14312287,0.2434929\H,0,

 Normal termination of Gaussian 16 at Wed Apr  9 03:28:19 2025.
 Gaussian 16:  ES64L-G16RevC.01  3-Jul-2019

 ----------------------------------------------------------------------
 #t hf aug-cc-pvdz iop(5/13=1,5/36=2,99/5=2) pseudo=read geom=check gue
 ss=(read,tcheck) scf=(maxcycle=1)
 ----------------------------------------------------------------------
 -----
 title
 -----
 Structure from the checkpoint file:  "Grambow2020_wb97xd3_006730_reverse_mol1.chk"
 Charge =  0 Multiplicity = 1

                         Standard orientation:
 ---------------------------------------------------------------------
 Center     Atomic      Atomic             Coordinates (Angstroms)
 Number     Number       Type             X           Y           Z
 ---------------------------------------------------------------------
      1          6           0        2.261019    0.144649   -0.123347
      2          6           0        0.912975   -0.440693   -0.449541
      3          6           0        0.188051   -1.308508    0.529049
      4          6           0       -1.034400   -1.855371    0.228706
      5          8           0       -1.714181    0.325522   -0.488782
      6          6           0       -0.696561    1.029384   -0.501390
      7          6           0       -0.343150    1.885316    0.693738
      8          1           0        3.107863   -0.481902   -0.417143
      9          1           0        2.373319    1.091598   -0.655858
     10          1           0        2.349392    0.358246    0.943769
     11          1           0        0.731978   -0.692324   -1.490953
     12          1           0        0.466064   -1.155967    1.567094
     13          1           0        1.069445   -1.854529   -0.048327
     14          1           0       -1.687920   -2.205957    1.013701
     15          1           0       -1.312918   -2.070472   -0.792032
     16          1           0       -0.273559    1.356663   -1.468055
     17          1           0       -0.419403    1.297782    1.611013
     18          1           0        0.652014    2.326022    0.617235
     19          1           0       -1.070441    2.697998    0.766526
 ---------------------------------------------------------------------

 SCF Done:  E(RHF) =  -308.986194020     A.U. after    2 cycles

 The electronic state is 1-A.
 Alpha  occ. eigenvalues --  -20.52265 -11.30433 -11.27044 -11.26742 -11.25195
 Alpha  occ. eigenvalues --  -11.24770 -11.22251  -1.30070  -1.11709  -1.00564
 Alpha  occ. eigenvalues --   -0.97605  -0.88340  -0.79056  -0.76070  -0.65612
 Alpha  occ. eigenvalues --   -0.64171  -0.63688  -0.62828  -0.58956  -0.56598
 Alpha  occ. eigenvalues --   -0.55621  -0.54603  -0.53587  -0.52591  -0.51081
 Alpha  occ. eigenvalues --   -0.44187  -0.39909  -0.26153
 Alpha virt. eigenvalues --    0.03047   0.04160   0.04384   0.04615   0.05896
 Alpha virt. eigenvalues --    0.06346   0.06380   0.06707   0.07280   0.08375
 Alpha virt. eigenvalues --    0.08802   0.09384   0.09658   0.11914   0.13165

 Mulliken charges:
               1
     1  C    0.600643
     2  C   -1.005440
     3  C    0.644768
     4  C    0.910659
     5  O   -0.640603
     6  C    0.642528
     7  C    0.286584
     8  H   -0.074467
     9  H   -0.041390
    10  H   -0.038186
    11  H   -0.385425
    12  H   -0.346565
    13  H    0.416405
    14  H   -0.321973
    15  H   -0.280792
    16  H   -0.148100
    17  H   -0.051164
    18  H   -0.104999
    19  H   -0.062483
 Sum of Mulliken charges =  -0.00000

 Dipole moment (field-independent basis, Debye):
    X=              3.7923    Y=             -0.5631    Z=              0.5503  Tot=              3.8732

 Test job not archived.
 1\1\GINC-SE026\SP\RHF\Aug-CC-pVDZ\C6H12O1\OHZDE\09-Apr-2025\0\\#t hf a
 ug-cc-pvdz iop(5/13=1,5/36=2,99/5=2) pseudo=read geom=check guess=(rea
 d,tcheck) scf=(maxcycle=1)\\title\\0,1\C,0,-1.00558285,-1.58935713,-0.
 63220117\C,0,-0.82264965,-0.10711446,-0.44314869\C,0,-0.94050945,0.521
 67035,0.90851524\C,0,-0.78865914,1.87467644,1.08163197\O,0,1.21307077,
 1.70875619,-0.22172263\C,0,1.2361457,0.56556634,-0.69470784\C,0,1.9883
 3258,-0.53973997,0.01124088\H,0,-2.03431882,-1.89332902,-0.84511438\H,
 0,-0.40142991,-1.91442417,-1.48203754\H,0,-0.66109407,-2.14312287,0.24

 Normal termination of Gaussian 16 at Wed Apr  9 03:28:28 2025.
