 Gaussian 16, Revision C.01,

 ----------------------------------------------------------------------
 #t hf aug-cc-pvdz symm=none int=(grid=ultrafine) guess=(read,tcheck) s
 table=(opt,rrhf)
 ----------------------------------------------------------------------
 -----
 title
 -----
 Symbolic Z-matrix:
 Charge =  0 Multiplicity = 1

 SCF Done:  E(RHF) =  -337.421615643     A.U. after   16 cycles
 Normal termination of Gaussian 16 at Wed Apr  9 16:36:53 2025.
 Gaussian 16:  ES64L-G16RevC.01  3-Jul-2019

 ----------------------------------------------------------------------
 #t hf aug-cc-pvdz iop(5/13=1,5/36=2,99/5=2) pseudo=read geom=check gue
 ss=(read,tcheck) scf=(maxcycle=1)
 ----------------------------------------------------------------------
 -----
 title
 -----
 Structure from the checkpoint file:  "Grambow2020_wb97xd3_008693_forward_mol1.chk"
 Charge =  0 Multiplicity = 1

                         Standard orientation:
 ---------------------------------------------------------------------
 Center     Atomic      Atomic             Coordinates (Angstroms)
 Number     Number       Type             X           Y           Z
 ---------------------------------------------------------------------
      1          8           0        2.394842    0.045780   -0.362559
      2          6           0        1.263353   -0.050489   -0.148820
      3          6           0        0.185848    0.014897    0.927558
      4          6           0       -0.577842    1.147339    0.396834
      5          7           0       -1.439483    0.765603   -0.498172
      6          6           0       -1.210227   -0.601412   -0.610597
      7          7           0       -0.662105   -1.048335    0.585735
      8          1           0        0.148903   -0.451510   -1.146129
      9          1           0       -0.379641    2.191377    0.604072
     10          1           0       -1.903854   -1.208355   -1.182354
     11          1           0       -0.279818   -1.980638    0.622092
 ---------------------------------------------------------------------

 SCF Done:  E(RHF) =  -337.519311860     A.U. after    2 cycles

 The electronic state is 1-A.
 Alpha  occ. eigenvalues --  -20.64966 -15.67533 -15.65571 -11.41528 -11.35897
 Alpha  occ. eigenvalues --  -11.31414 -11.28692  -1.45375  -1.34391  -1.17364
 Alpha  occ. eigenvalues --   -1.03340  -0.90123  -0.81068  -0.80197  -0.74637
 Alpha  occ. eigenvalues --   -0.72632  -0.67148  -0.64572  -0.60680  -0.59918
 Alpha  occ. eigenvalues --   -0.55656  -0.45690  -0.44833  -0.40150  -0.36334
 Alpha virt. eigenvalues --    0.02696   0.03884   0.04402   0.05138   0.06010
 Alpha virt. eigenvalues --    0.08956   0.09337   0.09608   0.10131   0.10733
 Alpha virt. eigenvalues --    0.11927   0.13458   0.13672   0.14646   0.15108

 Mulliken charges:
               1
     1  O   -0.259704
     2  C    0.127930
     3  C   -0.228782
     4  C    0.725031
     5  N   -0.608201
     6  C    0.565638
     7  N   -0.378329
     8  H    0.453364
     9  H   -0.212600
    10  H   -0.177238
    11  H   -0.007110
 Sum of Mulliken charges =  -0.00000

 Dipole moment (field-independent basis, Debye):
    X=             -1.2458    Y=             -1.8743    Z=             -0.4889  Tot=              2.3031

 Test job not archived.
 1\1\GINC-SE163\SP\RHF\Aug-CC-pVDZ\C4H4N2O1\OHZDE\09-Apr-2025\0\\#t hf
 aug-cc-pvdz iop(5/13=1,5/36=2,99/5=2) pseudo=read geom=check guess=(re
 ad,tcheck) scf=(maxcycle=1)\\title\\0,1\O,0,-2.5029497,-0.51692933,0.5
 6115178\C,0,-1.40710596,-0.34114233,0.23952399\C,0,-0.47019234,-0.1435
 5006,-0.94665936\C,0,-0.00956526,1.21141127,-0.63167254\N,0,0.98654128
 ,1.1959,0.20302262\C,0,1.1495598,-0.15449942,0.49245934\N,0,0.65926359
 ,-0.88949268,-0.5802859\H,0,-0.15583023,-0.29465472,1.15034339\H,0,-0.
 50087856,2.12808926,-0.93260285\H,0,2.02272066,-0.47359312,1.05118513\

 Normal termination of Gaussian 16 at Wed Apr  9 16:36:57 2025.
