 Gaussian 16, Revision C.01,

 ----------------------------------------------------------------------
 #t hf aug-cc-pvdz symm=none int=(grid=ultrafine) guess=(read,tcheck) s
 table=(opt,rrhf)
 ----------------------------------------------------------------------
 -----
 title
 -----
 Symbolic Z-matrix:
 Charge =  0 Multiplicity = 1

 SCF Done:  E(RHF) =  -358.358355625     A.U. after   16 cycles
 Normal termination of Gaussian 16 at Wed Apr  9 03:39:14 2025.
 Gaussian 16:  ES64L-G16RevC.01  3-Jul-2019

 ----------------------------------------------------------------------
 #t hf aug-cc-pvdz iop(5/13=1,5/36=2,99/5=2) pseudo=read geom=check gue
 ss=(read,tcheck) scf=(maxcycle=1)
 ----------------------------------------------------------------------
 -----
 title
 -----
 Structure from the checkpoint file:  "Grambow2020_wb97xd3_007458_forward_mol1.chk"
 Charge =  0 Multiplicity = 1

                         Standard orientation:
 ---------------------------------------------------------------------
 Center     Atomic      Atomic             Coordinates (Angstroms)
 Number     Number       Type             X           Y           Z
 ---------------------------------------------------------------------
      1          8           0       -2.484147   -0.344371   -0.228424
      2          6           0       -1.569696    0.573487    0.312605
      3          6           0       -0.139129    0.311774   -0.122534
      4          7           0        0.315364   -1.012758    0.053273
      5          8           0        1.589896   -0.917630    0.080284
      6          6           0        2.010708    0.396237   -0.010040
      7          6           0        0.976672    1.286934   -0.088391
      8          1           0       -2.279983   -1.221615    0.103095
      9          1           0       -1.851364    1.565119   -0.036244
     10          1           0       -1.599397    0.583953    1.407643
     11          1           0        3.085194    0.479267    0.039792
     12          1           0       -0.079316    0.368002   -1.251916
 ---------------------------------------------------------------------

 SCF Done:  E(RHF) =  -358.464668033     A.U. after    2 cycles

 The electronic state is 1-A.
 Alpha  occ. eigenvalues --  -20.76370 -20.59477 -15.78323 -11.31939 -11.31432
 Alpha  occ. eigenvalues --  -11.30897 -11.23861  -1.55769  -1.35251  -1.17298
 Alpha  occ. eigenvalues --   -1.10654  -0.97211  -0.86057  -0.82434  -0.77023
 Alpha  occ. eigenvalues --   -0.75401  -0.71186  -0.66196  -0.63982  -0.60846
 Alpha  occ. eigenvalues --   -0.57025  -0.52595  -0.51238  -0.48828  -0.37447
 Alpha  occ. eigenvalues --   -0.36642
 Alpha virt. eigenvalues --    0.00170   0.03654   0.04014   0.04649   0.05554
 Alpha virt. eigenvalues --    0.06947   0.08948   0.09969   0.10945   0.12488
 Alpha virt. eigenvalues --    0.13014   0.13658   0.14172   0.15070   0.15803

 Mulliken charges:
               1
     1  O   -0.530345
     2  C    1.041008
     3  C   -0.259361
     4  N   -0.214155
     5  O   -0.483562
     6  C    0.818354
     7  C   -0.512030
     8  H    0.167667
     9  H   -0.087558
    10  H    0.017154
    11  H   -0.292109
    12  H    0.334936
 Sum of Mulliken charges =  -0.00000

 Dipole moment (field-independent basis, Debye):
    X=              0.3500    Y=             -2.0736    Z=              0.7763  Tot=              2.2417

 Test job not archived.
 1\1\GINC-SE207\SP\RHF\Aug-CC-pVDZ\C4H5N1O2\OHZDE\09-Apr-2025\0\\#t hf
 aug-cc-pvdz iop(5/13=1,5/36=2,99/5=2) pseudo=read geom=check guess=(re
 ad,tcheck) scf=(maxcycle=1)\\title\\0,1\O,0,-2.32846145,0.53069303,0.1
 0610117\C,0,-1.3935631,-0.51649927,0.07870071\C,0,0.04127105,-0.033453
 22,0.18951697\N,0,0.40752818,0.99030519,-0.71027804\O,0,1.68197812,0.9
 1963171,-0.78094971\C,0,2.18284061,-0.12534686,-0.02686525\C,0,1.20828
 442,-0.84909401,0.60173566\H,0,-2.1943394,1.08987463,-0.66232029\H,0,-
 1.5973258,-1.16364011,0.92961614\H,0,-1.48322981,-1.12175979,-0.829989

 Normal termination of Gaussian 16 at Wed Apr  9 03:39:19 2025.
