 Gaussian 16, Revision C.01,

 ----------------------------------------------------------------------
 #t hf aug-cc-pvdz symm=none int=(grid=ultrafine) guess=(read,tcheck) s
 table=(opt,rrhf)
 ----------------------------------------------------------------------
 -----
 title
 -----
 Symbolic Z-matrix:
 Charge =  0 Multiplicity = 1

 SCF Done:  E(RHF) =  -295.707125875     A.U. after   20 cycles
 Normal termination of Gaussian 16 at Wed Apr  9 14:05:55 2025.
 Gaussian 16:  ES64L-G16RevC.01  3-Jul-2019

 ----------------------------------------------------------------------
 #t hf aug-cc-pvdz iop(5/13=1,5/36=2,99/5=2) pseudo=read geom=check gue
 ss=(read,tcheck) scf=(maxcycle=1)
 ----------------------------------------------------------------------
 -----
 title
 -----
 Structure from the checkpoint file:  "Grambow2020_b97d3_006780_reverse_mol1.chk"
 Charge =  0 Multiplicity = 1

                         Standard orientation:
 ---------------------------------------------------------------------
 Center     Atomic      Atomic             Coordinates (Angstroms)
 Number     Number       Type             X           Y           Z
 ---------------------------------------------------------------------
      1          7           0        2.001762   -0.065370   -0.107659
      2          6           0        0.626133   -0.022114    0.026993
      3          7           0       -0.134450   -1.104422    0.091169
      4          7           0       -1.404944   -0.941267   -0.145618
      5          6           0       -1.272087    1.321847   -0.054399
      6          7           0       -0.036128    1.193796    0.009288
      7          1           0        2.491867    0.640809    0.438096
      8          1           0        2.373060   -1.000665    0.033890
      9          1           0       -1.924095   -1.713557    0.300357
     10          1           0       -2.048782    0.695848    0.461831
 ---------------------------------------------------------------------

 SCF Done:  E(RHF) =  -295.792481583     A.U. after    2 cycles

 The electronic state is 1-A.
 Alpha  occ. eigenvalues --  -15.69807 -15.69267 -15.67883 -15.66043 -11.37648
 Alpha  occ. eigenvalues --  -11.32452  -1.34124  -1.22980  -1.19327  -1.01984
 Alpha  occ. eigenvalues --   -0.88344  -0.77046  -0.73601  -0.69000  -0.66954
 Alpha  occ. eigenvalues --   -0.62259  -0.56200  -0.51138  -0.47523  -0.46960
 Alpha  occ. eigenvalues --   -0.39983  -0.28866
 Alpha virt. eigenvalues --    0.02904   0.03656   0.04289   0.04775   0.07158
 Alpha virt. eigenvalues --    0.07923   0.10229   0.10450   0.12278   0.13232
 Alpha virt. eigenvalues --    0.14347   0.14916   0.16257   0.16634   0.17263

 Mulliken charges:
               1
     1  N   -0.302924
     2  C    0.893654
     3  N   -0.273528
     4  N   -0.302905
     5  C    0.186475
     6  N   -0.385310
     7  H    0.020017
     8  H    0.043158
     9  H    0.075319
    10  H    0.046044
 Sum of Mulliken charges =  -0.00000

 Dipole moment (field-independent basis, Debye):
    X=              1.2564    Y=             -1.5346    Z=              2.3016  Tot=              3.0383

 Test job not archived.
 1\1\GINC-SE138\SP\RHF\Aug-CC-pVDZ\C2H4N4\OHZDE\09-Apr-2025\0\\#t hf au
 g-cc-pvdz iop(5/13=1,5/36=2,99/5=2) pseudo=read geom=check guess=(read
 ,tcheck) scf=(maxcycle=1)\\title\\0,1\N,0,1.92036383,-0.06785797,-0.31
 051125\C,0,0.55736886,0.04584228,-0.10636503\N,0,-0.25414869,-0.995975
 38,-0.00611212\N,0,-1.52478166,-0.7662095,-0.1779894\C,0,-1.27024105,1
 .48654605,-0.08877984\N,0,-0.04095467,1.29444585,-0.08795839\H,0,2.473
 33429,0.60942818,0.21126184\H,0,2.24929009,-1.02176548,-0.18991804\H,0
 ,-2.0601704,-1.51272782,0.29202305\H,0,-2.0513676,0.89910678,0.4647361

 Normal termination of Gaussian 16 at Wed Apr  9 14:05:58 2025.
