 Gaussian 16, Revision C.01,

 ----------------------------------------------------------------------
 #t hf aug-cc-pvdz symm=none int=(grid=ultrafine) guess=(read,tcheck) s
 table=(opt,rrhf)
 ----------------------------------------------------------------------
 -----
 title
 -----
 Symbolic Z-matrix:
 Charge =  0 Multiplicity = 1

 SCF Done:  E(RHF) =  -343.583090659     A.U. after   15 cycles
 Normal termination of Gaussian 16 at Wed Apr  9 16:01:05 2025.
 Gaussian 16:  ES64L-G16RevC.01  3-Jul-2019

 ----------------------------------------------------------------------
 #t hf aug-cc-pvdz iop(5/13=1,5/36=2,99/5=2) pseudo=read geom=check gue
 ss=(read,tcheck) scf=(maxcycle=1)
 ----------------------------------------------------------------------
 -----
 title
 -----
 Structure from the checkpoint file:  "Grambow2020_wb97xd3_007678_reverse_mol1.chk"
 Charge =  0 Multiplicity = 1

                         Standard orientation:
 ---------------------------------------------------------------------
 Center     Atomic      Atomic             Coordinates (Angstroms)
 Number     Number       Type             X           Y           Z
 ---------------------------------------------------------------------
      1          6           0       -2.334912    0.098930   -0.408438
      2          6           0       -1.158429   -0.242429    0.457677
      3          6           0       -0.200855   -1.199302    0.138553
      4          8           0        1.575147   -0.617107   -0.788502
      5          6           0        1.149638   -0.618330    0.488584
      6          6           0        0.471144    0.757287    0.667097
      7          8           0        0.738521    1.557420   -0.331031
      8          1           0       -2.516170   -0.684300   -1.146898
      9          1           0       -2.125303    1.020038   -0.960550
     10          1           0       -3.245992    0.254639    0.168943
     11          1           0       -1.268437   -0.059809    1.522595
     12          1           0       -0.255504   -1.946974   -0.644705
     13          1           0        1.806811   -1.001575    1.272905
     14          1           0        0.310381    1.237432    1.625508
     15          1           0        1.225355    0.881113   -0.942367
 ---------------------------------------------------------------------

 SCF Done:  E(RHF) =  -343.688441149     A.U. after    2 cycles

 The electronic state is 1-A.
 Alpha  occ. eigenvalues --  -20.59090 -20.50319 -11.36105 -11.32464 -11.30748
 Alpha  occ. eigenvalues --  -11.26760 -11.24709  -1.38996  -1.26917  -1.11845
 Alpha  occ. eigenvalues --   -0.99347  -0.90900  -0.84560  -0.79150  -0.73903
 Alpha  occ. eigenvalues --   -0.67804  -0.66941  -0.63962  -0.60720  -0.58485
 Alpha  occ. eigenvalues --   -0.56168  -0.54145  -0.53671  -0.49991  -0.43003
 Alpha  occ. eigenvalues --   -0.39897  -0.36463
 Alpha virt. eigenvalues --    0.02627   0.03463   0.03898   0.04952   0.05772
 Alpha virt. eigenvalues --    0.05977   0.06867   0.07309   0.08359   0.11201
 Alpha virt. eigenvalues --    0.11585   0.12986   0.13098   0.13563   0.14062

 Mulliken charges:
               1
     1  C    0.204145
     2  C   -0.313028
     3  C    0.553576
     4  O   -0.914202
     5  C    0.607071
     6  C    0.966667
     7  O   -0.630873
     8  H    0.001711
     9  H    0.059152
    10  H   -0.021874
    11  H   -0.003444
    12  H   -0.321151
    13  H   -0.249095
    14  H   -0.298234
    15  H    0.359580
 Sum of Mulliken charges =  -0.00000

 Dipole moment (field-independent basis, Debye):
    X=             -3.5765    Y=             -0.8023    Z=              3.4778  Tot=              5.0527

 Test job not archived.
 1\1\GINC-SE009\SP\RHF\Aug-CC-pVDZ\C5H8O2\OHZDE\09-Apr-2025\0\\#t hf au
 g-cc-pvdz iop(5/13=1,5/36=2,99/5=2) pseudo=read geom=check guess=(read
 ,tcheck) scf=(maxcycle=1)\\title\\0,1\C,0,1.8992514,-0.48351652,0.4537
 5476\C,0,0.56142801,0.16085569,0.66777864\C,0,0.04146551,1.17317321,-0
 .13175001\O,0,-1.25254674,0.694457,-1.69665486\C,0,-1.41635563,0.85408
 452,-0.37011987\C,0,-1.16733169,-0.55183052,0.21803997\O,0,-1.14153427
 ,-1.46525188,-0.71628399\H,0,2.52842311,0.1294223,-0.19437788\H,0,1.76
 327305,-1.44696909,-0.04671557\H,0,2.4291373,-0.6638199,1.38884442\H,0

 Normal termination of Gaussian 16 at Wed Apr  9 16:01:10 2025.
