 Gaussian 16, Revision C.01,

 ----------------------------------------------------------------------
 #t hf aug-cc-pvdz symm=none int=(grid=ultrafine) guess=(read,tcheck) s
 table=(opt,rrhf)
 ----------------------------------------------------------------------
 -----
 title
 -----
 Symbolic Z-matrix:
 Charge =  0 Multiplicity = 1

 SCF Done:  E(RHF) =  -343.730036002     A.U. after   14 cycles
 Normal termination of Gaussian 16 at Wed Apr  9 03:27:23 2025.
 Gaussian 16:  ES64L-G16RevC.01  3-Jul-2019

 ----------------------------------------------------------------------
 #t hf aug-cc-pvdz iop(5/13=1,5/36=2,99/5=2) pseudo=read geom=check gue
 ss=(read,tcheck) scf=(maxcycle=1)
 ----------------------------------------------------------------------
 -----
 title
 -----
 Structure from the checkpoint file:  "Grambow2020_wb97xd3_006716_reverse_mol2.chk"
 Charge =  0 Multiplicity = 1

                         Standard orientation:
 ---------------------------------------------------------------------
 Center     Atomic      Atomic             Coordinates (Angstroms)
 Number     Number       Type             X           Y           Z
 ---------------------------------------------------------------------
      1          8           0       -2.280523   -1.012940   -0.168372
      2          6           0       -2.136984    0.224536    0.510745
      3          6           0       -1.080575    1.127344   -0.074486
      4          8           0        2.915079    0.376294    0.174036
      5          6           0        2.213282   -0.596454    0.145702
      6          6           0        0.742567   -0.599002   -0.178040
      7          6           0        0.159188    0.764006   -0.379534
      8          1           0       -2.432475   -0.825329   -1.097026
      9          1           0       -3.094989    0.755034    0.543606
     10          1           0       -1.886027   -0.037882    1.542477
     11          1           0       -1.371616    2.157278   -0.256933
     12          1           0        2.638392   -1.600008    0.357383
     13          1           0        0.219981   -1.167135    0.596847
     14          1           0        0.631303   -1.214786   -1.080654
     15          1           0        0.834111    1.503408   -0.797327
 ---------------------------------------------------------------------

 SCF Done:  E(RHF) =  -343.838269568     A.U. after    2 cycles

 The electronic state is 1-A.
 Alpha  occ. eigenvalues --  -20.58039 -20.57633 -11.34812 -11.29835 -11.25800
 Alpha  occ. eigenvalues --  -11.25163 -11.24406  -1.36854  -1.33312  -1.09165
 Alpha  occ. eigenvalues --   -1.00913  -0.92248  -0.81580  -0.75419  -0.71637
 Alpha  occ. eigenvalues --   -0.67434  -0.67355  -0.63133  -0.62742  -0.61372
 Alpha  occ. eigenvalues --   -0.58032  -0.55380  -0.52262  -0.49928  -0.46765
 Alpha  occ. eigenvalues --   -0.43934  -0.37030
 Alpha virt. eigenvalues --    0.03083   0.03812   0.04543   0.05038   0.05905
 Alpha virt. eigenvalues --    0.06561   0.07180   0.08655   0.10038   0.11054
 Alpha virt. eigenvalues --    0.11917   0.12311   0.12502   0.14247   0.14311

 Mulliken charges:
               1
     1  O   -0.567593
     2  C    0.779435
     3  C    0.265403
     4  O   -0.455924
     5  C    0.698549
     6  C   -0.243383
     7  C    0.331039
     8  H    0.173646
     9  H   -0.123561
    10  H   -0.000606
    11  H   -0.375626
    12  H   -0.133530
    13  H   -0.000098
    14  H    0.082611
    15  H   -0.430361
 Sum of Mulliken charges =  -0.00000

 Dipole moment (field-independent basis, Debye):
    X=             -2.2191    Y=             -0.8966    Z=             -0.8966  Tot=              2.5558

 Test job not archived.
 1\1\GINC-SE364\SP\RHF\Aug-CC-pVDZ\C5H8O2\OHZDE\09-Apr-2025\0\\#t hf au
 g-cc-pvdz iop(5/13=1,5/36=2,99/5=2) pseudo=read geom=check guess=(read
 ,tcheck) scf=(maxcycle=1)\\title\\0,1\O,0,1.5179074,1.07220147,-1.2720
 1925\C,0,1.90944514,-0.01703313,-0.45139937\C,0,0.85368857,-1.08296163
 ,-0.30063588\O,0,-2.59112697,-0.56003143,1.80907586\C,0,-2.14729311,0.
 43245002,1.3015787\C,0,-1.0336139,0.46810684,0.28853217\C,0,-0.4188432
 4,-0.86714927,0.00947652\H,0,1.23110087,0.71863837,-2.11666154\H,0,2.8
 3331948,-0.46754531,-0.83057859\H,0,2.1489325,0.42326696,0.52076091\H,

 Normal termination of Gaussian 16 at Wed Apr  9 03:27:27 2025.
