 Gaussian 16, Revision C.01,

 ----------------------------------------------------------------------
 #t hf aug-cc-pvdz symm=none int=(grid=ultrafine) guess=(read,tcheck) s
 table=(opt,rrhf)
 ----------------------------------------------------------------------
 -----
 title
 -----
 Symbolic Z-matrix:
 Charge =  0 Multiplicity = 1

 SCF Done:  E(RHF) =  -301.673458529     A.U. after   15 cycles
 Normal termination of Gaussian 16 at Wed Apr  9 16:46:06 2025.
 Gaussian 16:  ES64L-G16RevC.01  3-Jul-2019

 ----------------------------------------------------------------------
 #t hf aug-cc-pvdz iop(5/13=1,5/36=2,99/5=2) pseudo=read geom=check gue
 ss=(read,tcheck) scf=(maxcycle=1)
 ----------------------------------------------------------------------
 -----
 title
 -----
 Structure from the checkpoint file:  "Grambow2020_wb97xd3_008853_forward_mol2.chk"
 Charge =  0 Multiplicity = 1

                         Standard orientation:
 ---------------------------------------------------------------------
 Center     Atomic      Atomic             Coordinates (Angstroms)
 Number     Number       Type             X           Y           Z
 ---------------------------------------------------------------------
      1          7           0        2.432340   -0.614444   -0.081963
      2          6           0        1.532837    0.096786   -0.032629
      3          6           0        0.400408    0.990281    0.030204
      4          6           0       -0.864738    0.690130   -0.671575
      5          6           0       -1.117792   -0.802605   -0.771641
      6          6           0       -0.980040   -0.814632    0.765052
      7          7           0       -0.796106    0.672048    0.820310
      8          1           0        0.679042    2.033430    0.113456
      9          1           0       -1.384086    1.469557   -1.215875
     10          1           0       -2.125899   -1.035933   -1.106690
     11          1           0       -0.399166   -1.378054   -1.355268
     12          1           0       -1.898134   -1.074899    1.286428
     13          1           0       -0.149445   -1.377083    1.193060
 ---------------------------------------------------------------------

 SCF Done:  E(RHF) =  -301.760449905     A.U. after    2 cycles

 The electronic state is 1-A.
 Alpha  occ. eigenvalues --  -15.65811 -15.64717 -11.32444 -11.30578 -11.29466
 Alpha  occ. eigenvalues --  -11.28411 -11.26054  -1.31298  -1.20148  -1.04188
 Alpha  occ. eigenvalues --   -0.96033  -0.91472  -0.77486  -0.73754  -0.70017
 Alpha  occ. eigenvalues --   -0.64702  -0.60212  -0.57531  -0.56098  -0.52260
 Alpha  occ. eigenvalues --   -0.50774  -0.48163  -0.47097  -0.45153  -0.39165
 Alpha virt. eigenvalues --    0.02735   0.03608   0.04428   0.05113   0.06377
 Alpha virt. eigenvalues --    0.07388   0.09009   0.09626   0.10603   0.11940
 Alpha virt. eigenvalues --    0.12922   0.13428   0.14094   0.14542   0.14921

 Mulliken charges:
               1
     1  N   -0.173165
     2  C   -0.786638
     3  C    1.468977
     4  C    0.473265
     5  C    0.527252
     6  C    0.900818
     7  N   -0.965180
     8  H   -0.331260
     9  H   -0.347345
    10  H   -0.107765
    11  H   -0.159691
    12  H   -0.254713
    13  H   -0.244556
 Sum of Mulliken charges =  -0.00000

 Dipole moment (field-independent basis, Debye):
    X=             -3.1061    Y=              0.7770    Z=             -1.2585  Tot=              3.4403

 Test job not archived.
 1\1\GINC-SE026\SP\RHF\Aug-CC-pVDZ\C5H6N2\OHZDE\09-Apr-2025\0\\#t hf au
 g-cc-pvdz iop(5/13=1,5/36=2,99/5=2) pseudo=read geom=check guess=(read
 ,tcheck) scf=(maxcycle=1)\\title\\0,1\N,0,2.28037303,0.17528866,1.6850
 5484\C,0,1.76349859,0.25742035,0.66354554\C,0,1.11186995,0.36121032,-0
 .62069959\C,0,-0.03438755,-0.49870329,-0.98100929\C,0,-0.86670963,-0.8
 7224935,0.23142951\C,0,-0.99215274,0.6465344,0.47247532\N,0,-0.2171204
 3,0.96849692,-0.76960712\H,0,1.78252635,0.64505081,-1.42218633\H,0,-0.
 08837962,-0.95118192,-1.96378043\H,0,-1.81320439,-1.33655882,-0.036048

 Normal termination of Gaussian 16 at Wed Apr  9 16:46:10 2025.
