 Gaussian 16, Revision C.01,

 ----------------------------------------------------------------------
 #t hf aug-cc-pvdz symm=none int=(grid=ultrafine) guess=(read,tcheck) s
 table=(opt,rrhf)
 ----------------------------------------------------------------------
 -----
 title
 -----
 Symbolic Z-matrix:
 Charge =  0 Multiplicity = 1

 SCF Done:  E(RHF) =  -342.365361716     A.U. after   16 cycles
 Normal termination of Gaussian 16 at Wed Apr  9 03:58:36 2025.
 Gaussian 16:  ES64L-G16RevC.01  3-Jul-2019

 ----------------------------------------------------------------------
 #t hf aug-cc-pvdz iop(5/13=1,5/36=2,99/5=2) pseudo=read geom=check gue
 ss=(read,tcheck) scf=(maxcycle=1)
 ----------------------------------------------------------------------
 -----
 title
 -----
 Structure from the checkpoint file:  "Grambow2020_wb97xd3_008769_reverse_mol1.chk"
 Charge =  0 Multiplicity = 1

                         Standard orientation:
 ---------------------------------------------------------------------
 Center     Atomic      Atomic             Coordinates (Angstroms)
 Number     Number       Type             X           Y           Z
 ---------------------------------------------------------------------
      1          8           0        2.286854   -0.716292   -0.020542
      2          6           0        1.610239    0.245419   -0.250878
      3          6           0        0.309461    0.538522    0.467541
      4          8           0       -0.508108    1.408751   -0.317386
      5          6           0       -1.860529    0.094656    0.172357
      6          6           0       -1.351020   -1.043619   -0.593918
      7          6           0       -0.627349   -0.622474    0.655003
      8          1           0        1.897652    1.001884   -1.010130
      9          1           0        0.565039    1.002517    1.430869
     10          1           0       -1.658972    1.312248    0.119593
     11          1           0       -1.930471   -1.949899   -0.444936
     12          1           0       -0.983932   -0.897724   -1.601986
     13          1           0       -0.604100   -1.283724    1.509382
 ---------------------------------------------------------------------

 SCF Done:  E(RHF) =  -342.467929442     A.U. after    2 cycles

 The electronic state is 1-A.
 Alpha  occ. eigenvalues --  -20.58481 -20.58394 -11.34866 -11.32477 -11.32087
 Alpha  occ. eigenvalues --  -11.27847 -11.27728  -1.37669  -1.33642  -1.16794
 Alpha  occ. eigenvalues --   -0.99946  -0.88001  -0.81045  -0.76644  -0.71961
 Alpha  occ. eigenvalues --   -0.70706  -0.68396  -0.65691  -0.60158  -0.55764
 Alpha  occ. eigenvalues --   -0.54771  -0.54000  -0.47881  -0.45628  -0.44620
 Alpha  occ. eigenvalues --   -0.37999
 Alpha virt. eigenvalues --    0.03128   0.04118   0.04562   0.05138   0.05670
 Alpha virt. eigenvalues --    0.06355   0.06502   0.09485   0.09836   0.10921
 Alpha virt. eigenvalues --    0.11804   0.13483   0.14089   0.14200   0.14232

 Mulliken charges:
               1
     1  O   -0.493809
     2  C    0.622723
     3  C    0.399717
     4  O   -0.899051
     5  C   -0.135864
     6  C    0.765975
     7  C    0.449923
     8  H   -0.064338
     9  H   -0.086134
    10  H    0.338540
    11  H   -0.205506
    12  H   -0.330792
    13  H   -0.361383
 Sum of Mulliken charges =  -0.00000

 Dipole moment (field-independent basis, Debye):
    X=             -2.1081    Y=             -0.5744    Z=              0.7168  Tot=              2.2995

 Test job not archived.
 1\1\GINC-SE343\SP\RHF\Aug-CC-pVDZ\C5H6O2\OHZDE\09-Apr-2025\0\\#t hf au
 g-cc-pvdz iop(5/13=1,5/36=2,99/5=2) pseudo=read geom=check guess=(read
 ,tcheck) scf=(maxcycle=1)\\title\\0,1\O,0,1.60197189,1.70280813,-1.149
 24522\C,0,1.67175746,0.81921305,-0.34293248\C,0,0.77059618,-0.39798504
 ,-0.36289226\O,0,0.71472436,-0.99784519,0.9328205\C,0,-1.19024553,-0.9
 9869856,0.52437832\C,0,-1.42525204,0.44555561,0.56109317\C,0,-0.690547
 78,-0.1443646,-0.61068653\H,0,2.41644895,0.82750533,0.47966952\H,0,1.1
 8338881,-1.09864971,-1.1026785\H,0,-0.28476011,-1.72273171,0.95077301\

 Normal termination of Gaussian 16 at Wed Apr  9 03:58:40 2025.
