 Gaussian 16, Revision C.01,

 ----------------------------------------------------------------------
 #t hf aug-cc-pvdz symm=none int=(grid=ultrafine) guess=(read,tcheck) s
 table=(opt,rrhf)
 ----------------------------------------------------------------------
 -----
 title
 -----
 Symbolic Z-matrix:
 Charge =  0 Multiplicity = 1

 SCF Done:  E(RHF) =  -358.557724926     A.U. after   14 cycles
 Normal termination of Gaussian 16 at Wed Apr  9 03:33:09 2025.
 Gaussian 16:  ES64L-G16RevC.01  3-Jul-2019

 ----------------------------------------------------------------------
 #t hf aug-cc-pvdz iop(5/13=1,5/36=2,99/5=2) pseudo=read geom=check gue
 ss=(read,tcheck) scf=(maxcycle=1)
 ----------------------------------------------------------------------
 -----
 title
 -----
 Structure from the checkpoint file:  "Grambow2020_wb97xd3_007071_reverse_mol2.chk"
 Charge =  0 Multiplicity = 1

                         Standard orientation:
 ---------------------------------------------------------------------
 Center     Atomic      Atomic             Coordinates (Angstroms)
 Number     Number       Type             X           Y           Z
 ---------------------------------------------------------------------
      1          8           0        2.434717   -0.792727   -0.140144
      2          6           0        1.619284    0.012236    0.062729
      3          7           0        0.868782    0.893769    0.384920
      4          6           0       -0.388770    1.383514   -0.102561
      5          6           0       -1.464290    0.324771   -0.180652
      6          8           0       -1.080890   -0.935410   -0.686059
      7          6           0       -1.494483   -0.853935    0.673991
      8          1           0       -0.707332   -1.007322    1.405159
      9          1           0       -0.253347    1.823380   -1.095107
     10          1           0       -0.728767    2.180038    0.561525
     11          1           0       -2.407830    0.702097   -0.572154
     12          1           0       -2.445266   -1.328993    0.894725
 ---------------------------------------------------------------------

 SCF Done:  E(RHF) =  -358.671832006     A.U. after    2 cycles

 The electronic state is 1-A.
 Alpha  occ. eigenvalues --  -20.62011 -20.60107 -15.65014 -11.41388 -11.31746
 Alpha  occ. eigenvalues --  -11.31372 -11.30667  -1.42708  -1.40323  -1.24458
 Alpha  occ. eigenvalues --   -1.03701  -0.93057  -0.86073  -0.74921  -0.73858
 Alpha  occ. eigenvalues --   -0.71494  -0.67685  -0.66793  -0.63787  -0.61974
 Alpha  occ. eigenvalues --   -0.56761  -0.56613  -0.49007  -0.47303  -0.44197
 Alpha  occ. eigenvalues --   -0.42255
 Alpha virt. eigenvalues --    0.02740   0.03972   0.04566   0.05191   0.06551
 Alpha virt. eigenvalues --    0.08340   0.09934   0.10461   0.10895   0.12554
 Alpha virt. eigenvalues --    0.13502   0.13726   0.14193   0.14979   0.15303

 Mulliken charges:
               1
     1  O   -0.209958
     2  C   -0.176895
     3  N   -0.112968
     4  C    0.804097
     5  C    0.364510
     6  O   -0.708769
     7  C    0.916167
     8  H   -0.249722
     9  H   -0.018894
    10  H   -0.080008
    11  H   -0.308415
    12  H   -0.219146
 Sum of Mulliken charges =  -0.00000

 Dipole moment (field-independent basis, Debye):
    X=             -3.4940    Y=              2.6231    Z=              1.1789  Tot=              4.5253

 Test job not archived.
 1\1\GINC-SE126\SP\RHF\Aug-CC-pVDZ\C4H5N1O2\OHZDE\09-Apr-2025\0\\#t hf
 aug-cc-pvdz iop(5/13=1,5/36=2,99/5=2) pseudo=read geom=check guess=(re
 ad,tcheck) scf=(maxcycle=1)\\title\\0,1\O,0,2.57839165,1.59620837,0.62
 303878\C,0,1.8897763,0.93497296,-0.0422666\N,0,1.22722146,0.33757298,-
 0.84743414\C,0,0.34812457,-0.79536399,-0.79675453\C,0,-0.77304546,-0.6
 5028411,0.2060956\O,0,-0.43630771,-0.10254222,1.46191199\C,0,-1.317870
 98,0.63479795,0.6213111\H,0,-0.90509936,1.55080451,0.21107624\H,0,0.92
 11878,-1.69625282,-0.5580781\H,0,-0.08495792,-0.93963066,-1.78805873\H

 Normal termination of Gaussian 16 at Wed Apr  9 03:33:13 2025.
