 Gaussian 16, Revision C.01,

 ----------------------------------------------------------------------
 #t hf aug-cc-pvdz symm=none int=(grid=ultrafine) guess=(read,tcheck) s
 table=(opt,rrhf)
 ----------------------------------------------------------------------
 -----
 title
 -----
 Symbolic Z-matrix:
 Charge =  0 Multiplicity = 1

 SCF Done:  E(RHF) =  -269.824387534     A.U. after   15 cycles

 1\1\GINC-SE138\Stability\RHF\Aug-CC-pVDZ\C5H10O1\OHZDE\09-Apr-2025\0\\
 #t hf aug-cc-pvdz symm=none int=(grid=ultrafine) guess=(read,tcheck) s
 table=(opt,rrhf)\\title\\0,1\C,0,-1.40847828,-1.14925348,-0.10076996\C
 ,0,-0.76659501,-0.00910872,0.61833561\C,0,-1.27252862,1.32403104,0.176
 7718\C,0,1.40929955,-0.16546347,0.75271287\C,0,2.20824924,-0.08176528,
 -0.47873258\O,0,0.83014877,0.0589752,-0.81541296\H,0,-1.60226461,-0.98
 562373,-1.17867191\H,0,-2.39140031,-1.27019608,0.39512581\H,0,-0.87073
 346,-2.09811348,0.03190457\H,0,-1.47023453,1.42500027,-0.90818699\H,0,

 Normal termination of Gaussian 16 at Wed Apr  9 14:03:13 2025.
 Gaussian 16:  ES64L-G16RevC.01  3-Jul-2019

 ----------------------------------------------------------------------
 #t hf aug-cc-pvdz iop(5/13=1,5/36=2,99/5=2) pseudo=read geom=check gue
 ss=(read,tcheck) scf=(maxcycle=1)
 ----------------------------------------------------------------------
 -----
 title
 -----
 Structure from the checkpoint file:  "Grambow2020_b97d3_006767_forward_mol1.chk"
 Charge =  0 Multiplicity = 1

                         Standard orientation:
 ---------------------------------------------------------------------
 Center     Atomic      Atomic             Coordinates (Angstroms)
 Number     Number       Type             X           Y           Z
 ---------------------------------------------------------------------
      1          6           0        1.462610    1.252740   -0.118090
      2          6           0        0.962185    0.001860    0.525287
      3          6           0        1.491154   -1.239610   -0.112799
      4          6           0       -1.193122   -0.000547    0.888146
      5          6           0       -2.110317   -0.002998   -0.260998
      6          8           0       -0.769204   -0.015666   -0.744298
      7          1           0        1.551618    1.219642   -1.221350
      8          1           0        2.483813    1.383713    0.290155
      9          1           0        0.890774    2.144306    0.173838
     10          1           0        1.579909   -1.209530   -1.216264
     11          1           0        0.942801   -2.143929    0.184499
     12          1           0        2.515337   -1.341499    0.296653
     13          1           0       -1.063818    0.928392    1.435555
     14          1           0       -1.070126   -0.923113    1.447400
     15          1           0       -2.669605    0.915785   -0.489126
     16          1           0       -2.682127   -0.917109   -0.476261
 ---------------------------------------------------------------------

 SCF Done:  E(RHF) =  -269.907159934     A.U. after    2 cycles

 The electronic state is 1-A.
 Alpha  occ. eigenvalues --  -20.58529 -11.32250 -11.29536 -11.24860 -11.21991
 Alpha  occ. eigenvalues --  -11.21984  -1.32171  -1.03269  -0.96255  -0.92081
 Alpha  occ. eigenvalues --   -0.85304  -0.70936  -0.69617  -0.65341  -0.59314
 Alpha  occ. eigenvalues --   -0.58374  -0.56194  -0.54157  -0.52846  -0.52758
 Alpha  occ. eigenvalues --   -0.48533  -0.46017  -0.45882  -0.30077
 Alpha virt. eigenvalues --    0.03366   0.04559   0.04663   0.04939   0.06348
 Alpha virt. eigenvalues --    0.06584   0.07028   0.07157   0.08892   0.09534
 Alpha virt. eigenvalues --    0.09692   0.11335   0.13015   0.13749   0.15136

 Mulliken charges:
               1
     1  C    0.493256
     2  C   -0.992774
     3  C    0.491344
     4  C    0.867056
     5  C    0.771144
     6  O   -0.664902
     7  H   -0.029844
     8  H    0.037905
     9  H   -0.098113
    10  H   -0.030528
    11  H   -0.094344
    12  H    0.041426
    13  H   -0.198394
    14  H   -0.199362
    15  H   -0.196895
    16  H   -0.196973
 Sum of Mulliken charges =  -0.00000

 Dipole moment (field-independent basis, Debye):
    X=             -1.5597    Y=              0.0295    Z=              1.1406  Tot=              1.9325

 Test job not archived.
 1\1\GINC-SE138\SP\RHF\Aug-CC-pVDZ\C5H10O1\OHZDE\09-Apr-2025\0\\#t hf a
 ug-cc-pvdz iop(5/13=1,5/36=2,99/5=2) pseudo=read geom=check guess=(rea
 d,tcheck) scf=(maxcycle=1)\\title\\0,1\C,0,-1.40847828,-1.14925348,-0.
 10076996\C,0,-0.76659501,-0.00910872,0.61833561\C,0,-1.27252862,1.3240
 3104,0.1767718\C,0,1.40929955,-0.16546347,0.75271287\C,0,2.20824924,-0
 .08176528,-0.47873258\O,0,0.83014877,0.0589752,-0.81541296\H,0,-1.6022
 6461,-0.98562373,-1.17867191\H,0,-2.39140031,-1.27019608,0.39512581\H,
 0,-0.87073346,-2.09811348,0.03190457\H,0,-1.47023453,1.42500027,-0.908

 Normal termination of Gaussian 16 at Wed Apr  9 14:03:18 2025.
