 Gaussian 16, Revision C.01,

 ----------------------------------------------------------------------
 #t hf aug-cc-pvdz symm=none int=(grid=ultrafine) guess=(read,tcheck) s
 table=(opt,rrhf)
 ----------------------------------------------------------------------
 -----
 title
 -----
 Symbolic Z-matrix:
 Charge =  0 Multiplicity = 1

 SCF Done:  E(RHF) =  -267.469957416     A.U. after   19 cycles
 Normal termination of Gaussian 16 at Wed Apr  9 14:22:09 2025.
 Gaussian 16:  ES64L-G16RevC.01  3-Jul-2019

 ----------------------------------------------------------------------
 #t hf aug-cc-pvdz iop(5/13=1,5/36=2,99/5=2) pseudo=read geom=check gue
 ss=(read,tcheck) scf=(maxcycle=1)
 ----------------------------------------------------------------------
 -----
 title
 -----
 Structure from the checkpoint file:  "Grambow2020_wb97xd3_006078_reverse_mol1.chk"
 Charge =  0 Multiplicity = 1

                         Standard orientation:
 ---------------------------------------------------------------------
 Center     Atomic      Atomic             Coordinates (Angstroms)
 Number     Number       Type             X           Y           Z
 ---------------------------------------------------------------------
      1          8           0       -0.214969   -1.215409   -0.171006
      2          6           0       -1.308132   -0.634785    0.238306
      3          6           0       -1.656202    0.598914   -0.239401
      4          6           0        0.411596    1.211667    0.184365
      5          6           0        0.929405   -0.104998   -0.037970
      6          6           0        2.173601   -0.132066   -0.017451
      7          1           0       -1.788997   -1.059592    1.122186
      8          1           0       -2.486161    1.129703    0.211368
      9          1           0       -1.409048    0.869549   -1.256903
     10          1           0        0.498569    1.952336   -0.599844
     11          1           0        0.398332    1.597184    1.197286
     12          1           0        3.205456   -0.398300   -0.073140
 ---------------------------------------------------------------------

 SCF Done:  E(RHF) =  -267.553566722     A.U. after    2 cycles

 The electronic state is 1-A.
 Alpha  occ. eigenvalues --  -20.58843 -11.31937 -11.31693 -11.30204 -11.24439
 Alpha  occ. eigenvalues --  -11.24200  -1.35713  -1.09326  -1.02077  -0.90761
 Alpha  occ. eigenvalues --   -0.81279  -0.74574  -0.69853  -0.67773  -0.63874
 Alpha  occ. eigenvalues --   -0.62937  -0.58483  -0.55793  -0.50093  -0.39878
 Alpha  occ. eigenvalues --   -0.36807  -0.29458
 Alpha virt. eigenvalues --    0.03340   0.04045   0.04485   0.05260   0.05642
 Alpha virt. eigenvalues --    0.05961   0.06975   0.10878   0.11243   0.11469
 Alpha virt. eigenvalues --    0.11520   0.13097   0.13587   0.15133   0.15355

 Mulliken charges:
               1
     1  O   -0.748803
     2  C    0.711736
     3  C    0.478660
     4  C    0.260821
     5  C    0.295554
     6  C    0.587429
     7  H   -0.265959
     8  H   -0.290266
     9  H   -0.233178
    10  H   -0.153293
    11  H   -0.216302
    12  H   -0.426399
 Sum of Mulliken charges =  -0.00000

 Dipole moment (field-independent basis, Debye):
    X=             -0.7155    Y=              2.4629    Z=              0.8153  Tot=              2.6912

 Test job not archived.
 1\1\GINC-SE229\SP\RHF\Aug-CC-pVDZ\C5H6O1\OHZDE\09-Apr-2025\0\\#t hf au
 g-cc-pvdz iop(5/13=1,5/36=2,99/5=2) pseudo=read geom=check guess=(read
 ,tcheck) scf=(maxcycle=1)\\title\\0,1\O,0,-0.46913531,-1.27232293,0.58
 451357\C,0,-1.12674843,-0.31178186,1.17151551\C,0,-1.55379227,0.772244
 08,0.45465214\C,0,0.4783618,0.86945358,-0.37705381\C,0,0.67590718,-0.5
 4450885,-0.26370085\C,0,1.73859891,-0.91620677,-0.79446024\H,0,-1.1132
 8503,-0.30284501,2.26361171\H,0,-1.97141648,1.62482577,0.97662506\H,0,
 -1.84977125,0.64959082,-0.57830009\H,0,0.21312887,1.28987725,-1.338320

 Normal termination of Gaussian 16 at Wed Apr  9 14:22:12 2025.
