 Gaussian 16, Revision C.01,

 ----------------------------------------------------------------------
 #t hf aug-cc-pvdz symm=none int=(grid=ultrafine) guess=(read,tcheck) s
 table=(opt,rrhf)
 ----------------------------------------------------------------------
 -----
 title
 -----
 Symbolic Z-matrix:
 Charge =  0 Multiplicity = 1

 SCF Done:  E(RHF) =  -308.974321641     A.U. after   15 cycles

 1\1\GINC-SE173\Stability\RHF\Aug-CC-pVDZ\C6H12O1\OHZDE\09-Apr-2025\0\\
 #t hf aug-cc-pvdz symm=none int=(grid=ultrafine) guess=(read,tcheck) s
 table=(opt,rrhf)\\title\\0,1\C,0,1.53407439,1.24667086,0.32530766\C,0,
 0.8945139,-0.16073129,0.1750509\C,0,1.90938384,-1.14240784,-0.39876249
 \C,0,-0.21318168,0.14477353,-0.74205779\C,0,-2.3769651,-0.76640853,-0.
 50387988\C,0,-1.50704429,0.43978051,-0.10781275\O,0,-1.61238137,0.5509
 7961,1.31484125\H,0,0.84883844,1.9877778,0.74184978\H,0,2.38378435,1.1
 5971949,1.00348505\H,0,1.89099058,1.61636544,-0.63629398\H,0,0.5685706

 Normal termination of Gaussian 16 at Wed Apr  9 16:26:28 2025.
 Gaussian 16:  ES64L-G16RevC.01  3-Jul-2019

 ----------------------------------------------------------------------
 #t hf aug-cc-pvdz iop(5/13=1,5/36=2,99/5=2) pseudo=read geom=check gue
 ss=(read,tcheck) scf=(maxcycle=1)
 ----------------------------------------------------------------------
 -----
 title
 -----
 Structure from the checkpoint file:  "Grambow2020_wb97xd3_008289_reverse_mol2.chk"
 Charge =  0 Multiplicity = 1

                         Standard orientation:
 ---------------------------------------------------------------------
 Center     Atomic      Atomic             Coordinates (Angstroms)
 Number     Number       Type             X           Y           Z
 ---------------------------------------------------------------------
      1          6           0       -1.693823    1.202428    0.377575
      2          6           0       -1.071260   -0.075770   -0.247741
      3          6           0       -2.115650   -1.182370   -0.334906
      4          6           0        0.000830   -0.352439    0.719465
      5          6           0        2.165651   -1.046051    0.085912
      6          6           0        1.321333    0.204541    0.388679
      7          8           0        1.484701    1.072013   -0.737469
      8          1           0       -0.986904    2.031030    0.454909
      9          1           0       -2.516150    1.524197   -0.262530
     10          1           0       -2.086433    0.996510    1.373665
     11          1           0       -0.707746    0.192859   -1.248252
     12          1           0       -2.947080   -0.882334   -0.978279
     13          1           0       -2.502577   -1.420800    0.657268
     14          1           0       -1.680905   -2.092184   -0.751712
     15          1           0        2.250511   -1.685711    0.960652
     16          1           0        3.152704   -0.710328   -0.230597
     17          1           0        1.724505   -1.616841   -0.733596
     18          1           0        1.739253    0.682724    1.284431
     19          1           0        1.040724    1.902739   -0.560111
 ---------------------------------------------------------------------

 SCF Done:  E(RHF) =  -309.070287741     A.U. after    2 cycles

 The electronic state is 1-A.
 Alpha  occ. eigenvalues --  -20.57341 -11.29441 -11.25694 -11.24765 -11.24167
 Alpha  occ. eigenvalues --  -11.23625 -11.22365  -1.32682  -1.09792  -1.03237
 Alpha  occ. eigenvalues --   -0.93751  -0.90582  -0.82553  -0.74608  -0.69765
 Alpha  occ. eigenvalues --   -0.66621  -0.61659  -0.59416  -0.56928  -0.55171
 Alpha  occ. eigenvalues --   -0.54905  -0.54128  -0.53457  -0.50411  -0.49102
 Alpha  occ. eigenvalues --   -0.48392  -0.44718  -0.34459
 Alpha virt. eigenvalues --    0.03292   0.04122   0.04281   0.04968   0.06165
 Alpha virt. eigenvalues --    0.06274   0.06836   0.06943   0.07435   0.08559
 Alpha virt. eigenvalues --    0.09156   0.09425   0.09614   0.12658   0.13017

 Mulliken charges:
               1
     1  C    0.696029
     2  C   -0.882941
     3  C    0.790083
     4  C   -0.478822
     5  C    0.476439
     6  C    0.384426
     7  O   -0.549628
     8  H   -0.194000
     9  H   -0.048385
    10  H    0.032898
    11  H   -0.153250
    12  H   -0.004000
    13  H    0.020173
    14  H   -0.047921
    15  H    0.021253
    16  H   -0.034534
    17  H   -0.050570
    18  H   -0.106449
    19  H    0.129198
 Sum of Mulliken charges =  -0.00000

 Dipole moment (field-independent basis, Debye):
    X=             -0.7127    Y=              1.2894    Z=             -0.1580  Tot=              1.4818

 Test job not archived.
 1\1\GINC-SE173\SP\RHF\Aug-CC-pVDZ\C6H12O1\OHZDE\09-Apr-2025\0\\#t hf a
 ug-cc-pvdz iop(5/13=1,5/36=2,99/5=2) pseudo=read geom=check guess=(rea
 d,tcheck) scf=(maxcycle=1)\\title\\0,1\C,0,1.53407439,1.24667086,0.325
 30766\C,0,0.8945139,-0.16073129,0.1750509\C,0,1.90938384,-1.14240784,-
 0.39876249\C,0,-0.21318168,0.14477353,-0.74205779\C,0,-2.3769651,-0.76
 640853,-0.50387988\C,0,-1.50704429,0.43978051,-0.10781275\O,0,-1.61238
 137,0.55097961,1.31484125\H,0,0.84883844,1.9877778,0.74184978\H,0,2.38
 378435,1.15971949,1.00348505\H,0,1.89099058,1.61636544,-0.63629398\H,0

 Normal termination of Gaussian 16 at Wed Apr  9 16:26:36 2025.
