 Gaussian 16, Revision C.01,

 ----------------------------------------------------------------------
 #t hf aug-cc-pvdz symm=none int=(grid=ultrafine) guess=(read,tcheck) s
 table=(opt,rrhf)
 ----------------------------------------------------------------------
 -----
 title
 -----
 Symbolic Z-matrix:
 Charge =  0 Multiplicity = 1

 SCF Done:  E(RHF) =  -359.716332516     A.U. after   15 cycles
 Normal termination of Gaussian 16 at Wed Apr  9 17:14:27 2025.
 Gaussian 16:  ES64L-G16RevC.01  3-Jul-2019

 ----------------------------------------------------------------------
 #t hf aug-cc-pvdz iop(5/13=1,5/36=2,99/5=2) pseudo=read geom=check gue
 ss=(read,tcheck) scf=(maxcycle=1)
 ----------------------------------------------------------------------
 -----
 title
 -----
 Structure from the checkpoint file:  "Grambow2020_wb97xd3_009402_reverse_mol2.chk"
 Charge =  0 Multiplicity = 1

                         Standard orientation:
 ---------------------------------------------------------------------
 Center     Atomic      Atomic             Coordinates (Angstroms)
 Number     Number       Type             X           Y           Z
 ---------------------------------------------------------------------
      1          8           0       -2.438671   -0.745328   -0.079945
      2          6           0       -2.088318    0.370495   -0.333601
      3          6           0       -0.747627    0.965042    0.036738
      4          8           0        0.053175    0.142661    0.824932
      5          6           0        0.703468   -0.898127    0.129275
      6          7           0        2.007581   -0.595525   -0.401300
      7          6           0        2.543866    0.516662   -0.162315
      8          1           0        0.084570   -1.257787   -0.697520
      9          1           0       -2.750963    1.072727   -0.885321
     10          1           0       -0.255853    1.273614   -0.899876
     11          1           0       -0.941541    1.884855    0.599168
     12          1           0        0.820982   -1.720253    0.836828
     13          1           0        2.069845    1.297170    0.438985
     14          1           0        3.535519    0.715255   -0.563638
 ---------------------------------------------------------------------

 SCF Done:  E(RHF) =  -359.829978035     A.U. after    2 cycles

 The electronic state is 1-A.
 Alpha  occ. eigenvalues --  -20.59303 -20.58665 -15.63616 -11.35572 -11.32197
 Alpha  occ. eigenvalues --  -11.31932 -11.29011  -1.38734  -1.36172  -1.20342
 Alpha  occ. eigenvalues --   -1.02520  -0.94754  -0.82461  -0.78206  -0.73259
 Alpha  occ. eigenvalues --   -0.70611  -0.69728  -0.67564  -0.64113  -0.59838
 Alpha  occ. eigenvalues --   -0.58546  -0.55691  -0.51724  -0.51082  -0.43969
 Alpha  occ. eigenvalues --   -0.42794  -0.41269
 Alpha virt. eigenvalues --    0.02803   0.03977   0.04521   0.05189   0.06092
 Alpha virt. eigenvalues --    0.06711   0.07468   0.09438   0.10297   0.10779
 Alpha virt. eigenvalues --    0.11915   0.12915   0.13912   0.14444   0.14962

 Mulliken charges:
               1
     1  O   -0.427488
     2  C    0.544620
     3  C    0.473322
     4  O   -0.726216
     5  C    1.001513
     6  N   -0.488126
     7  C    0.658713
     8  H   -0.112833
     9  H   -0.121432
    10  H   -0.015325
    11  H   -0.146746
    12  H   -0.190734
    13  H   -0.199942
    14  H   -0.249327
 Sum of Mulliken charges =  -0.00000

 Dipole moment (field-independent basis, Debye):
    X=              0.5437    Y=              3.9282    Z=             -0.9847  Tot=              4.0860

 Test job not archived.
 1\1\GINC-SE029\SP\RHF\Aug-CC-pVDZ\C4H7N1O2\OHZDE\09-Apr-2025\0\\#t hf
 aug-cc-pvdz iop(5/13=1,5/36=2,99/5=2) pseudo=read geom=check guess=(re
 ad,tcheck) scf=(maxcycle=1)\\title\\0,1\O,0,-0.64366709,0.8771707,2.57
 433566\C,0,-1.24377751,1.11939065,1.56768526\C,0,-0.68904262,0.9690436
 7,0.16848691\O,0,0.65898129,0.62459103,0.11345494\C,0,0.93695306,-0.73
 389076,0.37290979\N,0,0.94541939,-1.61397935,-0.76689803\C,0,0.7970354
 1,-1.14786717,-1.92551662\H,0,0.23075783,-1.14192692,1.10145267\H,0,-2
 .29461703,1.48220139,1.5946511\H,0,-1.33688038,0.25575222,-0.36614044\

 Normal termination of Gaussian 16 at Wed Apr  9 17:14:31 2025.
