 Gaussian 16, Revision C.01,

 ----------------------------------------------------------------------
 #t hf aug-cc-pvdz symm=none int=(grid=ultrafine) guess=(read,tcheck) s
 table=(opt,rrhf)
 ----------------------------------------------------------------------
 -----
 title
 -----
 Symbolic Z-matrix:
 Charge =  0 Multiplicity = 1

 SCF Done:  E(RHF) =  -360.874946475     A.U. after   13 cycles
 Normal termination of Gaussian 16 at Wed Apr  9 16:37:08 2025.
 Gaussian 16:  ES64L-G16RevC.01  3-Jul-2019

 ----------------------------------------------------------------------
 #t hf aug-cc-pvdz iop(5/13=1,5/36=2,99/5=2) pseudo=read geom=check gue
 ss=(read,tcheck) scf=(maxcycle=1)
 ----------------------------------------------------------------------
 -----
 title
 -----
 Structure from the checkpoint file:  "Grambow2020_wb97xd3_008681_reverse_mol2.chk"
 Charge =  0 Multiplicity = 1

                         Standard orientation:
 ---------------------------------------------------------------------
 Center     Atomic      Atomic             Coordinates (Angstroms)
 Number     Number       Type             X           Y           Z
 ---------------------------------------------------------------------
      1          6           0       -2.813004    0.046911    0.592829
      2          7           0       -1.782013    0.055647   -0.467959
      3          6           0       -0.630452   -0.815856   -0.265644
      4          6           0        0.508778   -0.043047   -0.114137
      5          8           0        0.478651    1.207823   -0.147991
      6          8           0        1.667011   -0.714915    0.073926
      7          6           0        2.823092    0.090923    0.227637
      8          1           0       -3.228226   -0.955269    0.676478
      9          1           0       -3.603196    0.760974    0.355134
     10          1           0       -2.326589    0.314419    1.527430
     11          1           0       -1.274446    0.974860   -0.475263
     12          1           0       -2.221912   -0.069801   -1.377584
     13          1           0       -0.751450   -1.882717   -0.287896
     14          1           0        3.654490   -0.602810    0.338962
     15          1           0        2.748048    0.726959    1.111373
     16          1           0        2.981594    0.727012   -0.644508
 ---------------------------------------------------------------------

 SCF Done:  E(RHF) =  -360.991682103     A.U. after    2 cycles

 The electronic state is 1-A.
 Alpha  occ. eigenvalues --  -20.57349 -20.49695 -15.73699 -11.34089 -11.30372
 Alpha  occ. eigenvalues --  -11.26567 -11.20719  -1.37239  -1.28746  -1.24766
 Alpha  occ. eigenvalues --   -1.00349  -0.95732  -0.88875  -0.77734  -0.75506
 Alpha  occ. eigenvalues --   -0.70573  -0.65778  -0.64853  -0.64032  -0.61831
 Alpha  occ. eigenvalues --   -0.58590  -0.55964  -0.54537  -0.52382  -0.49932
 Alpha  occ. eigenvalues --   -0.44772  -0.43398  -0.28870
 Alpha virt. eigenvalues --    0.02078   0.03906   0.04049   0.04821   0.06271
 Alpha virt. eigenvalues --    0.06739   0.07354   0.08032   0.08562   0.10647
 Alpha virt. eigenvalues --    0.11535   0.12999   0.14216   0.15109   0.15277

 Mulliken charges:
               1
     1  C    0.833718
     2  N   -0.380377
     3  C    0.839066
     4  C    0.167959
     5  O   -0.699732
     6  O   -0.558046
     7  C    0.761749
     8  H   -0.138532
     9  H   -0.129383
    10  H   -0.118023
    11  H    0.227659
    12  H    0.102708
    13  H   -0.479921
    14  H   -0.267834
    15  H   -0.081086
    16  H   -0.079925
 Sum of Mulliken charges =  -0.00000

 Dipole moment (field-independent basis, Debye):
    X=             -5.0677    Y=             -0.5539    Z=             -0.4671  Tot=              5.1192

 Test job not archived.
 1\1\GINC-SE097\SP\RHF\Aug-CC-pVDZ\C4H9N1O2\OHZDE\09-Apr-2025\0\\#t hf
 aug-cc-pvdz iop(5/13=1,5/36=2,99/5=2) pseudo=read geom=check guess=(re
 ad,tcheck) scf=(maxcycle=1)\\title\\0,1\C,0,-2.62476933,0.31682707,0.0
 3123894\N,0,-1.52150764,-0.55764427,0.48555416\C,0,-0.34479787,0.10761
 843,1.03265552\C,0,0.73972569,-0.12240326,0.20263595\O,0,0.64858413,-0
 .80011027,-0.84576094\O,0,1.91396606,0.42754518,0.5860347\C,0,3.013435
 67,0.18290502,-0.27468721\H,0,-2.99347601,0.89244189,0.87769789\H,0,-3
 .43096313,-0.28426707,-0.392466\H,0,-2.22148049,0.99452184,-0.71691122

 Normal termination of Gaussian 16 at Wed Apr  9 16:37:13 2025.
