 Gaussian 16, Revision C.01,

 ----------------------------------------------------------------------
 #t hf aug-cc-pvdz symm=none int=(grid=ultrafine) guess=(read,tcheck) s
 table=(opt,rrhf)
 ----------------------------------------------------------------------
 -----
 title
 -----
 Symbolic Z-matrix:
 Charge =  0 Multiplicity = 1

 SCF Done:  E(RHF) =  -338.743112243     A.U. after   14 cycles
 Normal termination of Gaussian 16 at Wed Apr  9 03:39:21 2025.
 Gaussian 16:  ES64L-G16RevC.01  3-Jul-2019

 ----------------------------------------------------------------------
 #t hf aug-cc-pvdz iop(5/13=1,5/36=2,99/5=2) pseudo=read geom=check gue
 ss=(read,tcheck) scf=(maxcycle=1)
 ----------------------------------------------------------------------
 -----
 title
 -----
 Structure from the checkpoint file:  "Grambow2020_wb97xd3_007481_forward_mol2.chk"
 Charge =  0 Multiplicity = 1

                         Standard orientation:
 ---------------------------------------------------------------------
 Center     Atomic      Atomic             Coordinates (Angstroms)
 Number     Number       Type             X           Y           Z
 ---------------------------------------------------------------------
      1          6           0        2.463377    0.294070    0.008850
      2          8           0        1.439478   -0.682019   -0.009757
      3          6           0        0.194257   -0.183345   -0.005413
      4          6           0       -0.348255    1.069209   -0.006106
      5          7           0       -1.723962    0.967899    0.000939
      6          6           0       -1.991543   -0.302361    0.004986
      7          7           0       -0.852588   -1.057499    0.001217
      8          1           0        2.398574    0.941766   -0.870321
      9          1           0        3.406993   -0.246314   -0.005291
     10          1           0        2.401602    0.904041    0.914975
     11          1           0        0.153643    2.022436   -0.006766
     12          1           0       -2.975044   -0.746086    0.011268
     13          1           0       -0.772750   -2.057935    0.005197
 ---------------------------------------------------------------------

 SCF Done:  E(RHF) =  -338.848151190     A.U. after    2 cycles

 The electronic state is 1-A.
 Alpha  occ. eigenvalues --  -20.61666 -15.68007 -15.60838 -11.33479 -11.30455
 Alpha  occ. eigenvalues --  -11.30106 -11.24205  -1.39982  -1.30613  -1.13660
 Alpha  occ. eigenvalues --   -1.01042  -0.95312  -0.82535  -0.79934  -0.76975
 Alpha  occ. eigenvalues --   -0.68876  -0.66795  -0.66241  -0.59684  -0.59337
 Alpha  occ. eigenvalues --   -0.57440  -0.54042  -0.50930  -0.42593  -0.39566
 Alpha  occ. eigenvalues --   -0.30554
 Alpha virt. eigenvalues --    0.02975   0.03399   0.04930   0.05787   0.05868
 Alpha virt. eigenvalues --    0.07493   0.09313   0.09639   0.11710   0.12656
 Alpha virt. eigenvalues --    0.13205   0.14098   0.14686   0.16009   0.16238

 Mulliken charges:
               1
     1  C    0.764444
     2  O   -0.630225
     3  C    0.504702
     4  C    0.776775
     5  N   -0.680941
     6  C    0.721077
     7  N   -0.410330
     8  H   -0.059135
     9  H   -0.287821
    10  H   -0.056808
    11  H   -0.298483
    12  H   -0.225631
    13  H   -0.117625
 Sum of Mulliken charges =  -0.00000

 Dipole moment (field-independent basis, Debye):
    X=              2.1044    Y=             -2.3076    Z=              0.0349  Tot=              3.1232

 Test job not archived.
 1\1\GINC-SE403\SP\RHF\Aug-CC-pVDZ\C4H6N2O1\OHZDE\09-Apr-2025\0\\#t hf
 aug-cc-pvdz iop(5/13=1,5/36=2,99/5=2) pseudo=read geom=check guess=(re
 ad,tcheck) scf=(maxcycle=1)\\title\\0,1\C,0,-2.17992381,-0.00683308,-0
 .11517108\O,0,-1.08668415,-0.71952658,0.43105197\C,0,0.1161224,-0.1983
 7102,0.14658406\C,0,0.56148766,0.89154567,-0.54402558\N,0,1.93992446,0
 .9233689,-0.50181008\C,0,2.30304275,-0.112468,0.19127164\N,0,1.2255805
 5,-0.83806984,0.6155879\H,0,-2.20262268,1.01932501,0.26316055\H,0,-3.0
 7953979,-0.53102481,0.19874185\H,0,-2.12539386,0.00976155,-1.20773405\

 Normal termination of Gaussian 16 at Wed Apr  9 03:39:25 2025.
