 Gaussian 16, Revision C.01,

 ----------------------------------------------------------------------
 #t hf aug-cc-pvdz symm=none int=(grid=ultrafine) guess=(read,tcheck) s
 table=(opt,rrhf)
 ----------------------------------------------------------------------
 -----
 title
 -----
 Symbolic Z-matrix:
 Charge =  0 Multiplicity = 1

 SCF Done:  E(RHF) =  -394.357704490     A.U. after   15 cycles
 Normal termination of Gaussian 16 at Wed Apr  9 15:36:45 2025.
 Gaussian 16:  ES64L-G16RevC.01  3-Jul-2019

 ----------------------------------------------------------------------
 #t hf aug-cc-pvdz iop(5/13=1,5/36=2,99/5=2) pseudo=read geom=check gue
 ss=(read,tcheck) scf=(maxcycle=1)
 ----------------------------------------------------------------------
 -----
 title
 -----
 Structure from the checkpoint file:  "Grambow2020_wb97xd3_007208_reverse_mol2.chk"
 Charge =  0 Multiplicity = 1

                         Standard orientation:
 ---------------------------------------------------------------------
 Center     Atomic      Atomic             Coordinates (Angstroms)
 Number     Number       Type             X           Y           Z
 ---------------------------------------------------------------------
      1          7           0       -1.163649    1.629873    0.368458
      2          6           0       -0.612700    0.589375   -0.051333
      3          8           0        0.521869    0.577783   -0.855997
      4          6           0        1.674456    0.041661   -0.475166
      5          8           0        1.573196   -0.283978    0.799466
      6          6           0       -1.276613   -0.744899    0.183585
      7          8           0       -0.862758   -1.775216   -0.255675
      8          1           0       -0.638781    2.467565    0.123615
      9          1           0        2.408345   -0.682342    1.060849
     10          1           0       -2.193333   -0.659875    0.791469
 ---------------------------------------------------------------------

 SCF Done:  E(RHF) =  -394.482078721     A.U. after    2 cycles

 The electronic state is 1-A.
 Alpha  occ. eigenvalues --  -20.65869 -20.65713 -20.60882 -15.66566 -11.38952
 Alpha  occ. eigenvalues --  -11.38415 -11.37502  -1.48381  -1.40389  -1.38900
 Alpha  occ. eigenvalues --   -1.23098  -0.97423  -0.92928  -0.84065  -0.76423
 Alpha  occ. eigenvalues --   -0.73970  -0.73231  -0.68581  -0.65653  -0.64643
 Alpha  occ. eigenvalues --   -0.59362  -0.57105  -0.50732  -0.47617  -0.47459
 Alpha  occ. eigenvalues --   -0.41319
 Alpha virt. eigenvalues --    0.03112   0.04211   0.04633   0.05487   0.08461
 Alpha virt. eigenvalues --    0.09143   0.10416   0.10702   0.11240   0.12692
 Alpha virt. eigenvalues --    0.13511   0.13910   0.15120   0.16324   0.17522

 Mulliken charges:
               1
     1  N   -0.260056
     2  C    0.595284
     3  O   -0.581019
     4  C    0.301271
     5  O   -0.373918
     6  C    0.533473
     7  O   -0.413767
     8  H    0.033405
     9  H    0.240188
    10  H   -0.074861
 Sum of Mulliken charges =  -0.00000

 Dipole moment (field-independent basis, Debye):
    X=              0.5023    Y=              1.4595    Z=              2.2312  Tot=              2.7131

 Test job not archived.
 1\1\GINC-SE163\SP\RHF\Aug-CC-pVDZ\C3H3N1O3\OHZDE\09-Apr-2025\0\\#t hf
 aug-cc-pvdz iop(5/13=1,5/36=2,99/5=2) pseudo=read geom=check guess=(re
 ad,tcheck) scf=(maxcycle=1)\\title\\0,1\N,0,-0.83768226,1.54774824,-0.
 67130886\C,0,-0.50759617,0.3675515,-0.4251711\O,0,0.48436925,-0.324388
 71,-1.11225792\C,0,1.59189445,-0.7688647,-0.53196022\O,0,1.63198161,-0
 .28797589,0.69609502\C,0,-1.31341076,-0.4336914,0.56726398\O,0,-1.1189
 3007,-1.58927241,0.79658585\H,0,-0.2401659,1.97405287,-1.37728298\H,0,
 2.43094929,-0.62619119,1.11052187\H,0,-2.11029043,0.16199068,1.0439983

 Normal termination of Gaussian 16 at Wed Apr  9 15:36:49 2025.
