 Gaussian 16, Revision C.01,

 ----------------------------------------------------------------------
 #t hf aug-cc-pvdz symm=none int=(grid=ultrafine) guess=(read,tcheck) s
 table=(opt,rrhf)
 ----------------------------------------------------------------------
 -----
 title
 -----
 Symbolic Z-matrix:
 Charge =  0 Multiplicity = 1

 SCF Done:  E(RHF) =  -358.313401115     A.U. after   16 cycles
 Normal termination of Gaussian 16 at Wed Apr  9 03:28:02 2025.
 Gaussian 16:  ES64L-G16RevC.01  3-Jul-2019

 ----------------------------------------------------------------------
 #t hf aug-cc-pvdz iop(5/13=1,5/36=2,99/5=2) pseudo=read geom=check gue
 ss=(read,tcheck) scf=(maxcycle=1)
 ----------------------------------------------------------------------
 -----
 title
 -----
 Structure from the checkpoint file:  "Grambow2020_wb97xd3_006759_forward_mol1.chk"
 Charge =  0 Multiplicity = 1

                         Standard orientation:
 ---------------------------------------------------------------------
 Center     Atomic      Atomic             Coordinates (Angstroms)
 Number     Number       Type             X           Y           Z
 ---------------------------------------------------------------------
      1          8           0        2.438634   -0.812063   -0.187897
      2          6           0        1.428083   -0.312746    0.002035
      3          6           0        0.347241    0.634735   -0.040208
      4          8           0        0.588881    1.831551    0.124526
      5          7           0       -0.820891   -0.005382   -0.153549
      6          6           0       -2.255378    0.132027   -0.052651
      7          6           0       -1.488541   -1.152950    0.004394
      8          1           0        0.468839   -1.335180    1.494390
      9          1           0       -2.738431    0.485384   -0.959589
     10          1           0       -2.651607    0.527805    0.876423
     11          1           0       -0.277203   -1.592139    1.343404
     12          1           0       -1.463904   -2.010498   -0.654237
 ---------------------------------------------------------------------

 SCF Done:  E(RHF) =  -358.427651270     A.U. after    2 cycles

 The electronic state is 1-A.
 Alpha  occ. eigenvalues --  -20.72006 -20.53557 -15.73534 -11.46934 -11.41072
 Alpha  occ. eigenvalues --  -11.32296 -11.30370  -1.51881  -1.37251  -1.31411
 Alpha  occ. eigenvalues --   -1.09002  -0.92823  -0.88579  -0.81378  -0.75599
 Alpha  occ. eigenvalues --   -0.73870  -0.69731  -0.69049  -0.65798  -0.60141
 Alpha  occ. eigenvalues --   -0.57985  -0.56617  -0.52483  -0.47034  -0.44394
 Alpha  occ. eigenvalues --   -0.27918
 Alpha virt. eigenvalues --    0.00780   0.03041   0.04036   0.04819   0.05813
 Alpha virt. eigenvalues --    0.06683   0.08042   0.09062   0.09446   0.10978
 Alpha virt. eigenvalues --    0.11198   0.12227   0.12863   0.13413   0.13935

 Mulliken charges:
               1
     1  O   -0.118411
     2  C   -0.176866
     3  C    0.851419
     4  O   -0.542594
     5  N   -0.320704
     6  C    0.874012
     7  C    0.123915
     8  H   -0.069035
     9  H   -0.273317
    10  H   -0.216562
    11  H    0.254772
    12  H   -0.386630
 Sum of Mulliken charges =  -0.00000

 Dipole moment (field-independent basis, Debye):
    X=             -2.4547    Y=             -3.2884    Z=             -1.2147  Tot=              4.2795

 Test job not archived.
 1\1\GINC-SE412\SP\RHF\Aug-CC-pVDZ\C4H5N1O2\OHZDE\09-Apr-2025\0\\#t hf
 aug-cc-pvdz iop(5/13=1,5/36=2,99/5=2) pseudo=read geom=check guess=(re
 ad,tcheck) scf=(maxcycle=1)\\title\\0,1\O,0,2.51163827,0.97588141,1.24
 736067\C,0,1.73092126,0.37922516,0.66333382\C,0,0.92850396,-0.71497912
 ,0.18734246\O,0,1.47715886,-1.77341117,-0.12345497\N,0,-0.34480177,-0.
 32888031,0.0579217\C,0,-1.63035031,-0.67403206,-0.50337026\C,0,-1.1970
 3601,0.69305,-0.07234448\H,0,0.98222888,1.57073081,-0.82408594\H,0,-2.
 23660231,-1.32090525,0.1249242\H,0,-1.66721927,-0.88238376,-1.56734719

 Normal termination of Gaussian 16 at Wed Apr  9 03:28:07 2025.
