 Gaussian 16, Revision C.01,

 ----------------------------------------------------------------------
 #t hf aug-cc-pvdz symm=none int=(grid=ultrafine) guess=(read,tcheck) s
 table=(opt,rrhf)
 ----------------------------------------------------------------------
 -----
 title
 -----
 Symbolic Z-matrix:
 Charge =  0 Multiplicity = 1

 SCF Done:  E(RHF) =  -343.611295984     A.U. after   14 cycles
 Normal termination of Gaussian 16 at Wed Apr  9 03:34:22 2025.
 Gaussian 16:  ES64L-G16RevC.01  3-Jul-2019

 ----------------------------------------------------------------------
 #t hf aug-cc-pvdz iop(5/13=1,5/36=2,99/5=2) pseudo=read geom=check gue
 ss=(read,tcheck) scf=(maxcycle=1)
 ----------------------------------------------------------------------
 -----
 title
 -----
 Structure from the checkpoint file:  "Grambow2020_wb97xd3_007155_forward_mol1.chk"
 Charge =  0 Multiplicity = 1

                         Standard orientation:
 ---------------------------------------------------------------------
 Center     Atomic      Atomic             Coordinates (Angstroms)
 Number     Number       Type             X           Y           Z
 ---------------------------------------------------------------------
      1          8           0       -0.304227   -0.817852   -0.668892
      2          6           0        0.616378    0.075444   -0.021595
      3          6           0       -0.361931    1.193734    0.253581
      4          6           0       -1.495518    0.333741   -0.328199
      5          8           0       -2.154061   -0.455673    0.467151
      6          6           0        2.002449    0.180482   -0.534720
      7          6           0        1.722857   -0.460114    0.806899
      8          1           0       -1.120006   -1.154526    0.158584
      9          1           0       -0.539130    1.419469    1.303485
     10          1           0       -0.160465    2.105240   -0.308293
     11          1           0       -1.960336    0.652699   -1.268153
     12          1           0        2.464917    1.159191   -0.555930
     13          1           0        2.272674   -0.476108   -1.351052
     14          1           0        1.815693   -1.536319    0.872175
     15          1           0        1.987549    0.078827    1.707313
 ---------------------------------------------------------------------

 SCF Done:  E(RHF) =  -343.717657271     A.U. after    2 cycles

 The electronic state is 1-A.
 Alpha  occ. eigenvalues --  -20.59957 -20.53457 -11.38150 -11.31740 -11.25647
 Alpha  occ. eigenvalues --  -11.24999 -11.24938  -1.39928  -1.28528  -1.14274
 Alpha  occ. eigenvalues --   -1.03098  -0.85026  -0.84250  -0.78260  -0.73343
 Alpha  occ. eigenvalues --   -0.70248  -0.67380  -0.64188  -0.59970  -0.59227
 Alpha  occ. eigenvalues --   -0.57137  -0.53380  -0.52197  -0.48197  -0.44337
 Alpha  occ. eigenvalues --   -0.42125  -0.41609
 Alpha virt. eigenvalues --    0.03216   0.04073   0.04614   0.04882   0.06189
 Alpha virt. eigenvalues --    0.06444   0.07332   0.08075   0.09858   0.10958
 Alpha virt. eigenvalues --    0.12493   0.13044   0.13677   0.14087   0.14290

 Mulliken charges:
               1
     1  O   -0.983185
     2  C    0.348965
     3  C    0.233679
     4  C    1.040838
     5  O   -0.836610
     6  C    0.504089
     7  C    0.323078
     8  H    0.573057
     9  H   -0.066433
    10  H   -0.076900
    11  H   -0.189395
    12  H   -0.251185
    13  H   -0.192672
    14  H   -0.189930
    15  H   -0.237397
 Sum of Mulliken charges =  -0.00000

 Dipole moment (field-independent basis, Debye):
    X=              2.7995    Y=              2.4197    Z=             -0.4806  Tot=              3.7314

 Test job not archived.
 1\1\GINC-SE368\SP\RHF\Aug-CC-pVDZ\C5H8O2\OHZDE\09-Apr-2025\0\\#t hf au
 g-cc-pvdz iop(5/13=1,5/36=2,99/5=2) pseudo=read geom=check guess=(read
 ,tcheck) scf=(maxcycle=1)\\title\\0,1\O,0,0.55361087,-0.27477723,-1.12
 851241\C,0,-0.29914084,-0.05253308,0.00634668\C,0,0.77825607,-0.082785
 03,1.0654421\C,0,1.84229496,-0.23555219,-0.03344697\O,0,2.36454501,0.8
 354567,-0.55270652\C,0,-1.63412426,-0.69438629,0.04330953\C,0,-1.50265
 956,0.80409114,-0.11717779\H,0,1.27952227,0.68804713,-1.22640788\H,0,0
 .91924668,0.8411477,1.62322861\H,0,0.7097078,-0.93471087,1.74120602\H,

 Normal termination of Gaussian 16 at Wed Apr  9 03:34:26 2025.
