 Gaussian 16, Revision C.01,

 ----------------------------------------------------------------------
 #t hf aug-cc-pvdz symm=none int=(grid=ultrafine) guess=(read,tcheck) s
 table=(opt,rrhf)
 ----------------------------------------------------------------------
 -----
 title
 -----
 Symbolic Z-matrix:
 Charge =  0 Multiplicity = 1

 SCF Done:  E(RHF) =  -323.811986852     A.U. after   14 cycles
 Normal termination of Gaussian 16 at Wed Apr  9 15:14:05 2025.
 Gaussian 16:  ES64L-G16RevC.01  3-Jul-2019

 ----------------------------------------------------------------------
 #t hf aug-cc-pvdz iop(5/13=1,5/36=2,99/5=2) pseudo=read geom=check gue
 ss=(read,tcheck) scf=(maxcycle=1)
 ----------------------------------------------------------------------
 -----
 title
 -----
 Structure from the checkpoint file:  "Grambow2020_wb97xd3_006818_reverse_mol2.chk"
 Charge =  0 Multiplicity = 1

                         Standard orientation:
 ---------------------------------------------------------------------
 Center     Atomic      Atomic             Coordinates (Angstroms)
 Number     Number       Type             X           Y           Z
 ---------------------------------------------------------------------
      1          6           0       -1.710100   -1.424577    0.298078
      2          6           0       -1.080124   -0.265310   -0.454687
      3          6           0       -1.407660    1.178255    0.038706
      4          6           0        0.108355    1.505936    0.153851
      5          6           0        0.361738    0.076523   -0.175039
      6          7           0        1.435560   -0.626862   -0.134131
      7          8           0        2.602166   -0.234708    0.164308
      8          1           0       -2.790791   -1.440242    0.141887
      9          1           0       -1.521967   -1.341071    1.370646
     10          1           0       -1.316705   -2.386395   -0.039272
     11          1           0       -1.270512   -0.369350   -1.527757
     12          1           0       -1.973960    1.792393   -0.659030
     13          1           0       -1.916829    1.177216    1.002549
     14          1           0        0.471779    1.825794    1.131514
     15          1           0        0.487923    2.203449   -0.595779
     16          1           0        1.331569   -1.621060   -0.365762
 ---------------------------------------------------------------------

 SCF Done:  E(RHF) =  -323.910488650     A.U. after    2 cycles

 The electronic state is 1-A.
 Alpha  occ. eigenvalues --  -20.50993 -15.76634 -11.30137 -11.27121 -11.25464
 Alpha  occ. eigenvalues --  -11.25419 -11.25053  -1.37915  -1.17761  -1.08197
 Alpha  occ. eigenvalues --   -1.01093  -0.89256  -0.86408  -0.79798  -0.71663
 Alpha  occ. eigenvalues --   -0.66286  -0.65616  -0.60489  -0.59432  -0.59168
 Alpha  occ. eigenvalues --   -0.54265  -0.51760  -0.51098  -0.49724  -0.47302
 Alpha  occ. eigenvalues --   -0.42196  -0.33597
 Alpha virt. eigenvalues --    0.02533   0.03670   0.03945   0.04650   0.06145
 Alpha virt. eigenvalues --    0.06393   0.06921   0.07212   0.07707   0.10806
 Alpha virt. eigenvalues --    0.11597   0.12476   0.13082   0.13404   0.14019

 Mulliken charges:
               1
     1  C    0.615007
     2  C   -0.604039
     3  C    0.653982
     4  C    0.353201
     5  C    0.383450
     6  N    0.067636
     7  O   -0.870263
     8  H   -0.040777
     9  H   -0.004061
    10  H   -0.069162
    11  H   -0.092308
    12  H   -0.157917
    13  H   -0.173198
    14  H   -0.081843
    15  H   -0.028235
    16  H    0.048525
 Sum of Mulliken charges =   0.00000

 Dipole moment (field-independent basis, Debye):
    X=             -5.6846    Y=             -0.6787    Z=             -1.0083  Tot=              5.8131

 Test job not archived.
 1\1\GINC-SE100\SP\RHF\Aug-CC-pVDZ\C5H9N1O1\OHZDE\09-Apr-2025\0\\#t hf
 aug-cc-pvdz iop(5/13=1,5/36=2,99/5=2) pseudo=read geom=check guess=(re
 ad,tcheck) scf=(maxcycle=1)\\title\\0,1\C,0,-1.54211194,-1.0953924,0.1
 6026857\C,0,-0.48429335,-0.29000677,-0.5744418\C,0,-0.58158803,1.26553
 036,-0.50072758\C,0,0.88498283,1.35448924,0.0093606\C,0,0.87324961,-0.
 13298165,0.06308305\N,0,1.70353819,-0.97099662,0.57089083\O,0,2.810173
 13,-0.71538339,1.13110617\H,0,-2.5171912,-0.97037407,-0.31525725\H,0,-
 1.62602182,-0.77182843,1.19999628\H,0,-1.31098856,-2.16320872,0.157154

 Normal termination of Gaussian 16 at Wed Apr  9 15:14:11 2025.
