 Gaussian 16, Revision C.01,

 ----------------------------------------------------------------------
 #t hf aug-cc-pvdz symm=none int=(grid=ultrafine) guess=(read,tcheck) s
 table=(opt,rrhf)
 ----------------------------------------------------------------------
 -----
 title
 -----
 Symbolic Z-matrix:
 Charge =  0 Multiplicity = 1

 SCF Done:  E(RHF) =  -338.645503889     A.U. after   17 cycles
 Normal termination of Gaussian 16 at Wed Apr  9 03:39:25 2025.
 Gaussian 16:  ES64L-G16RevC.01  3-Jul-2019

 ----------------------------------------------------------------------
 #t hf aug-cc-pvdz iop(5/13=1,5/36=2,99/5=2) pseudo=read geom=check gue
 ss=(read,tcheck) scf=(maxcycle=1)
 ----------------------------------------------------------------------
 -----
 title
 -----
 Structure from the checkpoint file:  "Grambow2020_wb97xd3_007484_reverse_mol2.chk"
 Charge =  0 Multiplicity = 1

                         Standard orientation:
 ---------------------------------------------------------------------
 Center     Atomic      Atomic             Coordinates (Angstroms)
 Number     Number       Type             X           Y           Z
 ---------------------------------------------------------------------
      1          6           0        2.482805    0.251982   -0.045705
      2          8           0        1.335077   -0.519838   -0.353488
      3          6           0        0.219356   -0.143050    0.379058
      4          6           0       -0.389694    1.232893    0.104099
      5          7           0       -1.704536    1.010441   -0.139446
      6          6           0       -1.921347   -0.311184   -0.145564
      7          7           0       -0.874860   -1.061575    0.099556
      8          1           0        2.305194    1.312256   -0.233260
      9          1           0        3.280505   -0.115998   -0.687545
     10          1           0        2.770870    0.116680    1.004333
     11          1           0        0.418581   -0.162574    1.468312
     12          1           0       -2.894405   -0.752255   -0.341444
     13          1           0       -0.852295   -2.065306    0.145409
 ---------------------------------------------------------------------

 SCF Done:  E(RHF) =  -338.748228404     A.U. after    2 cycles

 The electronic state is 1-A.
 Alpha  occ. eigenvalues --  -20.59429 -15.69556 -15.60979 -11.37650 -11.33969
 Alpha  occ. eigenvalues --  -11.28743 -11.25683  -1.37761  -1.31288  -1.15168
 Alpha  occ. eigenvalues --   -1.01346  -0.92463  -0.84725  -0.79530  -0.76618
 Alpha  occ. eigenvalues --   -0.70718  -0.67138  -0.65364  -0.59460  -0.57392
 Alpha  occ. eigenvalues --   -0.54334  -0.51557  -0.47634  -0.43635  -0.40388
 Alpha  occ. eigenvalues --   -0.32648
 Alpha virt. eigenvalues --    0.01986   0.03526   0.04771   0.04987   0.06372
 Alpha virt. eigenvalues --    0.07184   0.07296   0.08881   0.10415   0.11275
 Alpha virt. eigenvalues --    0.12849   0.13307   0.14251   0.14495   0.15061

 Mulliken charges:
               1
     1  C    0.700079
     2  O   -0.756842
     3  C    1.040364
     4  C   -0.175236
     5  N   -0.588920
     6  C    0.762835
     7  N   -0.353478
     8  H   -0.036526
     9  H   -0.228912
    10  H   -0.038779
    11  H   -0.076320
    12  H   -0.149405
    13  H   -0.098859
 Sum of Mulliken charges =  -0.00000

 Dipole moment (field-independent basis, Debye):
    X=             -0.0734    Y=             -5.4757    Z=              1.2462  Tot=              5.6162

 Test job not archived.
 1\1\GINC-SE364\SP\RHF\Aug-CC-pVDZ\C4H6N2O1\OHZDE\09-Apr-2025\0\\#t hf
 aug-cc-pvdz iop(5/13=1,5/36=2,99/5=2) pseudo=read geom=check guess=(re
 ad,tcheck) scf=(maxcycle=1)\\title\\0,1\C,0,-2.1854905,0.14353266,-0.0
 6622306\O,0,-1.00479224,-0.37540591,0.52060792\C,0,0.12734501,-0.13716
 474,-0.2442015\C,0,0.60188166,1.30923767,-0.39419327\N,0,1.9091187,1.3
 0589913,-0.0354051\C,0,2.23069518,0.08072614,0.39965239\N,0,1.26872981
 ,-0.80886072,0.36010304\H,0,-2.10803347,1.22149004,-0.21758795\H,0,-2.
 99558974,-0.08307337,0.62376433\H,0,-2.38443064,-0.34080808,-1.0304352

 Normal termination of Gaussian 16 at Wed Apr  9 03:39:29 2025.
