 Gaussian 16, Revision C.01,

 ----------------------------------------------------------------------
 #t hf aug-cc-pvdz symm=none int=(grid=ultrafine) guess=(read,tcheck) s
 table=(opt,rrhf)
 ----------------------------------------------------------------------
 -----
 title
 -----
 Symbolic Z-matrix:
 Charge =  0 Multiplicity = 1

 SCF Done:  E(RHF) =  -323.750752119     A.U. after   15 cycles
 Normal termination of Gaussian 16 at Wed Apr  9 15:21:58 2025.
 Gaussian 16:  ES64L-G16RevC.01  3-Jul-2019

 ----------------------------------------------------------------------
 #t hf aug-cc-pvdz iop(5/13=1,5/36=2,99/5=2) pseudo=read geom=check gue
 ss=(read,tcheck) scf=(maxcycle=1)
 ----------------------------------------------------------------------
 -----
 title
 -----
 Structure from the checkpoint file:  "Grambow2020_wb97xd3_006865_reverse_mol1.chk"
 Charge =  0 Multiplicity = 1

                         Standard orientation:
 ---------------------------------------------------------------------
 Center     Atomic      Atomic             Coordinates (Angstroms)
 Number     Number       Type             X           Y           Z
 ---------------------------------------------------------------------
      1          6           0        2.449728   -0.294848   -0.673505
      2          7           0        1.236550    0.389966   -0.270615
      3          6           0        0.984552    0.484884    1.137649
      4          6           0        0.192544   -0.451640    0.281563
      5          6           0       -1.202079   -0.136125   -0.049558
      6          8           0       -2.098645   -1.043629    0.083458
      7          6           0       -1.825109    1.074329   -0.433645
      8          1           0        3.271501    0.421904   -0.685856
      9          1           0        2.320511   -0.689676   -1.681498
     10          1           0        2.719276   -1.124016   -0.002918
     11          1           0        1.685794    0.019243    1.825257
     12          1           0        0.530908    1.405672    1.484362
     13          1           0        0.392261   -1.511745    0.416462
     14          1           0       -2.234249    0.991637   -1.440413
     15          1           0       -2.779420    0.007462   -0.025903
     16          1           0       -1.371096    2.039187   -0.237879
 ---------------------------------------------------------------------

 SCF Done:  E(RHF) =  -323.850647320     A.U. after    2 cycles

 The electronic state is 1-A.
 Alpha  occ. eigenvalues --  -20.58583 -15.65132 -11.36112 -11.29502 -11.29379
 Alpha  occ. eigenvalues --  -11.27563 -11.20210  -1.37939  -1.28447  -1.02994
 Alpha  occ. eigenvalues --   -0.98506  -0.91751  -0.84459  -0.75738  -0.71395
 Alpha  occ. eigenvalues --   -0.69449  -0.64326  -0.62160  -0.60513  -0.60041
 Alpha  occ. eigenvalues --   -0.57081  -0.53115  -0.50411  -0.48900  -0.47126
 Alpha  occ. eigenvalues --   -0.39755  -0.34002
 Alpha virt. eigenvalues --    0.03011   0.03957   0.04253   0.04556   0.06444
 Alpha virt. eigenvalues --    0.06847   0.06998   0.07561   0.08421   0.10399
 Alpha virt. eigenvalues --    0.10978   0.11810   0.12528   0.13140   0.14545

 Mulliken charges:
               1
     1  C    0.760353
     2  N   -0.764233
     3  C    0.841545
     4  C    0.841857
     5  C   -0.078016
     6  O   -0.693859
     7  C    0.499069
     8  H   -0.197874
     9  H   -0.179211
    10  H   -0.125321
    11  H   -0.270951
    12  H   -0.298277
    13  H   -0.449904
    14  H   -0.044597
    15  H    0.458766
    16  H   -0.299347
 Sum of Mulliken charges =  -0.00000

 Dipole moment (field-independent basis, Debye):
    X=              3.3702    Y=              0.1346    Z=              0.6207  Tot=              3.4295

 Test job not archived.
 1\1\GINC-SE332\SP\RHF\Aug-CC-pVDZ\C5H9N1O1\OHZDE\09-Apr-2025\0\\#t hf
 aug-cc-pvdz iop(5/13=1,5/36=2,99/5=2) pseudo=read geom=check guess=(re
 ad,tcheck) scf=(maxcycle=1)\\title\\0,1\C,0,1.23037034,-0.1111889,-2.0
 010524\N,0,0.76342659,0.29273866,-0.68884134\C,0,1.24462259,-0.4636380
 8,0.43011616\C,0,-0.16571418,-0.61531732,-0.04441644\C,0,-1.26594966,-
 0.04243245,0.74008995\O,0,-2.29815813,-0.76149197,0.99026143\C,0,-1.40
 067453,1.20205902,1.39885845\H,0,2.17613206,0.39053073,-2.20843591\H,0
 ,0.50289491,0.19905834,-2.75149415\H,0,1.38425338,-1.19682035,-2.08815

 Normal termination of Gaussian 16 at Wed Apr  9 15:22:03 2025.
