 Gaussian 16, Revision C.01,

 ----------------------------------------------------------------------
 #t hf aug-cc-pvdz symm=none int=(grid=ultrafine) guess=(read,tcheck) s
 table=(opt,rrhf)
 ----------------------------------------------------------------------
 -----
 title
 -----
 Symbolic Z-matrix:
 Charge =  0 Multiplicity = 1

 SCF Done:  E(RHF) =  -268.646487645     A.U. after   16 cycles
 Normal termination of Gaussian 16 at Wed Apr  9 03:15:02 2025.
 Gaussian 16:  ES64L-G16RevC.01  3-Jul-2019

 ----------------------------------------------------------------------
 #t hf aug-cc-pvdz iop(5/13=1,5/36=2,99/5=2) pseudo=read geom=check gue
 ss=(read,tcheck) scf=(maxcycle=1)
 ----------------------------------------------------------------------
 -----
 title
 -----
 Structure from the checkpoint file:  "Grambow2020_b97d3_007035_forward_mol1.chk"
 Charge =  0 Multiplicity = 1

                         Standard orientation:
 ---------------------------------------------------------------------
 Center     Atomic      Atomic             Coordinates (Angstroms)
 Number     Number       Type             X           Y           Z
 ---------------------------------------------------------------------
      1          6           0       -2.315855    0.513796    0.335896
      2          6           0       -1.575176   -0.125069   -0.644668
      3          6           0       -0.489093   -0.756605   -0.676701
      4          6           0        0.524109   -0.990461    0.246057
      5          6           0        1.814060   -0.186670    0.187615
      6          8           0        1.622355    1.175451   -0.133305
      7          1           0       -1.204024    0.205477    1.406644
      8          1           0       -2.363713    1.605879    0.357946
      9          1           0       -3.188993    0.008627    0.759683
     10          1           0       -0.368928   -0.237567    1.413456
     11          1           0        0.648372   -2.004853    0.646539
     12          1           0        2.306806   -0.221124    1.169078
     13          1           0        2.492675   -0.690277   -0.532403
     14          1           0        0.950689    1.200288   -0.843701
 ---------------------------------------------------------------------

 SCF Done:  E(RHF) =  -268.731846394     A.U. after    2 cycles

 The electronic state is 1-A.
 Alpha  occ. eigenvalues --  -20.57935 -11.30817 -11.30509 -11.29451 -11.26306
 Alpha  occ. eigenvalues --  -11.25447  -1.32896  -1.10931  -1.02464  -0.93766
 Alpha  occ. eigenvalues --   -0.85141  -0.70796  -0.68862  -0.65975  -0.64536
 Alpha  occ. eigenvalues --   -0.62011  -0.61038  -0.58616  -0.52822  -0.47919
 Alpha  occ. eigenvalues --   -0.38639  -0.38186  -0.35882
 Alpha virt. eigenvalues --    0.03435   0.03830   0.04778   0.05273   0.06168
 Alpha virt. eigenvalues --    0.06978   0.07744   0.08443   0.09131   0.10103
 Alpha virt. eigenvalues --    0.10828   0.12311   0.12847   0.13638   0.13770

 Mulliken charges:
               1
     1  C    0.430123
     2  C   -0.588090
     3  C   -0.543377
     4  C   -0.162963
     5  C    0.962440
     6  O   -0.573226
     7  H    0.202775
     8  H   -0.042379
     9  H   -0.048837
    10  H    0.377553
    11  H   -0.069704
    12  H   -0.122965
    13  H   -0.032047
    14  H    0.210696
 Sum of Mulliken charges =  -0.00000

 Dipole moment (field-independent basis, Debye):
    X=             -0.5973    Y=             -1.1312    Z=              0.8340  Tot=              1.5271

 Test job not archived.
 1\1\GINC-SE462\SP\RHF\Aug-CC-pVDZ\C5H8O1\OHZDE\09-Apr-2025\0\\#t hf au
 g-cc-pvdz iop(5/13=1,5/36=2,99/5=2) pseudo=read geom=check guess=(read
 ,tcheck) scf=(maxcycle=1)\\title\\0,1\C,0,2.19961011,0.36910243,-0.479
 20406\C,0,1.52497211,-0.74127902,0.00056426\C,0,0.33535487,-1.14573746
 ,-0.02517438\C,0,-0.86846415,-0.5910979,-0.44463202\C,0,-1.84016608,-0
 .01118333,0.57171643\O,0,-1.21191611,0.69019743,1.62456029\H,0,0.85222
 287,0.98386247,-1.0124458\H,0,2.54717627,1.13805211,0.21602055\H,0,2.7
 9004116,0.28023026,-1.39607567\H,0,-0.05691651,0.72495372,-1.02479104\

 Normal termination of Gaussian 16 at Wed Apr  9 03:15:06 2025.
