 Gaussian 16, Revision C.01,

 ----------------------------------------------------------------------
 #t hf aug-cc-pvdz symm=none int=(grid=ultrafine) guess=(read,tcheck) s
 table=(opt,rrhf)
 ----------------------------------------------------------------------
 -----
 title
 -----
 Symbolic Z-matrix:
 Charge =  0 Multiplicity = 1

 SCF Done:  E(RHF) =  -307.765926348     A.U. after   16 cycles

 1\1\GINC-SE141\Stability\RHF\Aug-CC-pVDZ\C6H10O1\OHZDE\09-Apr-2025\0\\
 #t hf aug-cc-pvdz symm=none int=(grid=ultrafine) guess=(read,tcheck) s
 table=(opt,rrhf)\\title\\0,1\C,0,1.65291037,0.63401534,-0.5879841\C,0,
 0.44931163,0.20581493,0.21396897\C,0,0.19611115,-1.29145257,0.45055618
 \C,0,-1.27976472,-1.16519452,0.03603851\C,0,-0.97840407,0.18524708,-0.
 63860547\C,0,-1.45495665,1.48415022,-0.29680524\O,0,0.40079646,0.84748
 995,1.46230655\H,0,2.55338617,0.45223126,0.00345726\H,0,1.72696615,0.0
 760562,-1.52108765\H,0,1.5951384,1.69749822,-0.82822902\H,0,0.77793707

 Normal termination of Gaussian 16 at Wed Apr  9 03:33:12 2025.
 Gaussian 16:  ES64L-G16RevC.01  3-Jul-2019

 ----------------------------------------------------------------------
 #t hf aug-cc-pvdz iop(5/13=1,5/36=2,99/5=2) pseudo=read geom=check gue
 ss=(read,tcheck) scf=(maxcycle=1)
 ----------------------------------------------------------------------
 -----
 title
 -----
 Structure from the checkpoint file:  "Grambow2020_wb97xd3_007041_reverse_mol2.chk"
 Charge =  0 Multiplicity = 1

                         Standard orientation:
 ---------------------------------------------------------------------
 Center     Atomic      Atomic             Coordinates (Angstroms)
 Number     Number       Type             X           Y           Z
 ---------------------------------------------------------------------
      1          6           0        1.735827   -0.252399   -0.823064
      2          6           0        0.517263   -0.152441    0.060251
      3          6           0       -0.356228   -1.397370    0.281745
      4          6           0       -1.646643   -0.614056   -0.013593
      5          6           0       -0.821086    0.502021   -0.678787
      6          6           0       -0.653860    1.857459   -0.271474
      7          8           0        0.831860    0.376096    1.322837
      8          1           0        2.497179   -0.842811   -0.307835
      9          1           0        1.499932   -0.734299   -1.771542
     10          1           0        2.139195    0.740031   -1.033844
     11          1           0       -0.146545   -2.163121   -0.465703
     12          1           0       -0.245846   -1.821359    1.279188
     13          1           0       -2.137594   -0.262803    0.894213
     14          1           0       -2.376937   -1.109876   -0.651785
     15          1           0       -0.645606    0.321948   -1.741031
     16          1           0       -1.200059    2.002052    0.679943
     17          1           0        1.309762    1.202186    1.205231
 ---------------------------------------------------------------------

 SCF Done:  E(RHF) =  -307.857444039     A.U. after    2 cycles

 The electronic state is 1-A.
 Alpha  occ. eigenvalues --  -20.58890 -11.32911 -11.25848 -11.24258 -11.23900
 Alpha  occ. eigenvalues --  -11.23691 -11.23601  -1.35171  -1.13257  -0.99960
 Alpha  occ. eigenvalues --   -0.97762  -0.87126  -0.79937  -0.76661  -0.68342
 Alpha  occ. eigenvalues --   -0.66635  -0.62975  -0.60405  -0.59070  -0.56054
 Alpha  occ. eigenvalues --   -0.53547  -0.52695  -0.51612  -0.48966  -0.46422
 Alpha  occ. eigenvalues --   -0.40346  -0.34506
 Alpha virt. eigenvalues --    0.03378   0.04106   0.04644   0.05086   0.05845
 Alpha virt. eigenvalues --    0.06438   0.06608   0.06823   0.07469   0.09059
 Alpha virt. eigenvalues --    0.09220   0.11704   0.12484   0.12976   0.14080

 Mulliken charges:
               1
     1  C    0.643692
     2  C   -1.070057
     3  C    0.694264
     4  C    0.447024
     5  C    0.610458
     6  C   -0.148167
     7  O   -0.596054
     8  H    0.062354
     9  H   -0.018254
    10  H    0.041924
    11  H   -0.172819
    12  H   -0.081850
    13  H   -0.139129
    14  H   -0.193045
    15  H   -0.192543
    16  H   -0.065099
    17  H    0.177300
 Sum of Mulliken charges =   0.00000

 Dipole moment (field-independent basis, Debye):
    X=              0.0245    Y=             -1.8520    Z=             -0.6503  Tot=              1.9630

 Test job not archived.
 1\1\GINC-SE141\SP\RHF\Aug-CC-pVDZ\C6H10O1\OHZDE\09-Apr-2025\0\\#t hf a
 ug-cc-pvdz iop(5/13=1,5/36=2,99/5=2) pseudo=read geom=check guess=(rea
 d,tcheck) scf=(maxcycle=1)\\title\\0,1\C,0,1.65291037,0.63401534,-0.58
 79841\C,0,0.44931163,0.20581493,0.21396897\C,0,0.19611115,-1.29145257,
 0.45055618\C,0,-1.27976472,-1.16519452,0.03603851\C,0,-0.97840407,0.18
 524708,-0.63860547\C,0,-1.45495665,1.48415022,-0.29680524\O,0,0.400796
 46,0.84748995,1.46230655\H,0,2.55338617,0.45223126,0.00345726\H,0,1.72
 696615,0.0760562,-1.52108765\H,0,1.5951384,1.69749822,-0.82822902\H,0,

 Normal termination of Gaussian 16 at Wed Apr  9 03:33:19 2025.
