 Gaussian 16, Revision C.01,

 ----------------------------------------------------------------------
 #t hf aug-cc-pvdz symm=none int=(grid=ultrafine) guess=(read,tcheck) s
 table=(opt,rrhf)
 ----------------------------------------------------------------------
 -----
 title
 -----
 Symbolic Z-matrix:
 Charge =  0 Multiplicity = 1

 SCF Done:  E(RHF) =  -269.876845189     A.U. after   16 cycles

 1\1\GINC-SE054\Stability\RHF\Aug-CC-pVDZ\C5H10O1\OHZDE\09-Apr-2025\0\\
 #t hf aug-cc-pvdz symm=none int=(grid=ultrafine) guess=(read,tcheck) s
 table=(opt,rrhf)\\title\\0,1\C,0,-1.40596066,-1.13770428,-0.05189058\C
 ,0,-0.23003702,-0.1533899,0.04843231\C,0,-0.7335312,1.30099697,-0.0511
 4834\C,0,0.57695338,-0.54866594,1.29700691\C,0,1.93186715,0.05234799,-
 0.54604415\O,0,0.70420328,-0.4115227,-1.04128944\H,0,-2.02248005,-0.88
 629046,-0.92677052\H,0,-2.04500884,-1.0733546,0.84067165\H,0,-1.029718
 3,-2.16125956,-0.15004931\H,0,-1.18353436,1.48656061,-1.03718121\H,0,0

 Normal termination of Gaussian 16 at Wed Apr  9 14:03:16 2025.
 Gaussian 16:  ES64L-G16RevC.01  3-Jul-2019

 ----------------------------------------------------------------------
 #t hf aug-cc-pvdz iop(5/13=1,5/36=2,99/5=2) pseudo=read geom=check gue
 ss=(read,tcheck) scf=(maxcycle=1)
 ----------------------------------------------------------------------
 -----
 title
 -----
 Structure from the checkpoint file:  "Grambow2020_b97d3_006766_reverse_mol1.chk"
 Charge =  0 Multiplicity = 1

                         Standard orientation:
 ---------------------------------------------------------------------
 Center     Atomic      Atomic             Coordinates (Angstroms)
 Number     Number       Type             X           Y           Z
 ---------------------------------------------------------------------
      1          6           0       -1.615707   -0.841164   -0.319350
      2          6           0       -0.374150   -0.015595    0.053084
      3          6           0       -0.681071    1.492952   -0.040455
      4          6           0        0.137104   -0.561061    1.397518
      5          6           0        1.869558   -0.054471   -0.130819
      6          8           0        0.710076   -0.340769   -0.866506
      7          1           0       -2.026698   -0.477954   -1.272180
      8          1           0       -2.397421   -0.736287    0.446884
      9          1           0       -1.347169   -1.898349   -0.414778
     10          1           0       -0.916466    1.774977   -1.076915
     11          1           0        0.168807    2.101553    0.297100
     12          1           0       -1.544063    1.743540    0.592765
     13          1           0        1.618305   -0.448763    0.967683
     14          1           0       -0.100248    0.204256    2.178799
     15          1           0        2.711470   -0.673891   -0.465890
     16          1           0        2.138472    1.013101   -0.081282
 ---------------------------------------------------------------------

 SCF Done:  E(RHF) =  -269.959424073     A.U. after    2 cycles

 The electronic state is 1-A.
 Alpha  occ. eigenvalues --  -20.57858 -11.31115 -11.30947 -11.28011 -11.23567
 Alpha  occ. eigenvalues --  -11.23454  -1.34666  -1.06387  -0.94813  -0.93543
 Alpha  occ. eigenvalues --   -0.89313  -0.73872  -0.66861  -0.66126  -0.64276
 Alpha  occ. eigenvalues --   -0.60206  -0.56260  -0.55719  -0.54505  -0.51586
 Alpha  occ. eigenvalues --   -0.49851  -0.47195  -0.45365  -0.34951
 Alpha virt. eigenvalues --    0.03373   0.04049   0.04869   0.04887   0.06275
 Alpha virt. eigenvalues --    0.06707   0.06956   0.07164   0.07847   0.08002
 Alpha virt. eigenvalues --    0.09273   0.11801   0.12590   0.13634   0.14735

 Mulliken charges:
               1
     1  C    0.754013
     2  C   -1.209941
     3  C    0.658287
     4  C    0.005776
     5  C    0.704731
     6  O   -0.738644
     7  H    0.049831
     8  H    0.018479
     9  H    0.009216
    10  H    0.017627
    11  H   -0.116108
    12  H    0.057089
    13  H    0.116636
    14  H   -0.039607
    15  H   -0.204960
    16  H   -0.082424
 Sum of Mulliken charges =   0.00000

 Dipole moment (field-independent basis, Debye):
    X=             -0.1710    Y=              2.1002    Z=              0.5257  Tot=              2.1718

 Test job not archived.
 1\1\GINC-SE054\SP\RHF\Aug-CC-pVDZ\C5H10O1\OHZDE\09-Apr-2025\0\\#t hf a
 ug-cc-pvdz iop(5/13=1,5/36=2,99/5=2) pseudo=read geom=check guess=(rea
 d,tcheck) scf=(maxcycle=1)\\title\\0,1\C,0,-1.40596066,-1.13770428,-0.
 05189058\C,0,-0.23003702,-0.1533899,0.04843231\C,0,-0.7335312,1.300996
 97,-0.05114834\C,0,0.57695338,-0.54866594,1.29700691\C,0,1.93186715,0.
 05234799,-0.54604415\O,0,0.70420328,-0.4115227,-1.04128944\H,0,-2.0224
 8005,-0.88629046,-0.92677052\H,0,-2.04500884,-1.0733546,0.84067165\H,0
 ,-1.0297183,-2.16125956,-0.15004931\H,0,-1.18353436,1.48656061,-1.0371

 Normal termination of Gaussian 16 at Wed Apr  9 14:03:21 2025.
