 Gaussian 16, Revision C.01,

 ----------------------------------------------------------------------
 #t hf aug-cc-pvdz symm=none int=(grid=ultrafine) guess=(read,tcheck) s
 table=(opt,rrhf)
 ----------------------------------------------------------------------
 -----
 title
 -----
 Symbolic Z-matrix:
 Charge =  0 Multiplicity = 1

 SCF Done:  E(RHF) =  -269.634699190     A.U. after   14 cycles
 Normal termination of Gaussian 16 at Wed Apr  9 14:41:47 2025.
 Gaussian 16:  ES64L-G16RevC.01  3-Jul-2019

 ----------------------------------------------------------------------
 #t hf aug-cc-pvdz iop(5/13=1,5/36=2,99/5=2) pseudo=read geom=check gue
 ss=(read,tcheck) scf=(maxcycle=1)
 ----------------------------------------------------------------------
 -----
 title
 -----
 Structure from the checkpoint file:  "Grambow2020_wb97xd3_006592_reverse_mol2.chk"
 Charge =  0 Multiplicity = 1

                         Standard orientation:
 ---------------------------------------------------------------------
 Center     Atomic      Atomic             Coordinates (Angstroms)
 Number     Number       Type             X           Y           Z
 ---------------------------------------------------------------------
      1          6           0       -1.003669    1.783077   -0.026063
      2          6           0       -0.516668    0.355237   -0.305160
      3          6           0        0.636550   -0.015124    0.605495
      4          6           0        1.845306   -0.239383    0.184026
      5          6           0        3.050427   -0.467170   -0.247319
      6          6           0       -1.613500   -0.607051   -0.153038
      7          6           0       -2.516454   -1.380659   -0.010138
      8          1           0       -1.337876    1.877190    1.008500
      9          1           0       -0.192736    2.492534   -0.194638
     10          1           0       -1.839727    2.038076   -0.677911
     11          1           0       -0.163139    0.299912   -1.338022
     12          1           0        0.420583   -0.077784    1.668599
     13          1           0        3.365619   -1.467645   -0.520426
     14          1           0        3.772208    0.335642   -0.343851
     15          1           0       -3.316879   -2.071495    0.110933
 ---------------------------------------------------------------------

 SCF Done:  E(RHF) =  -269.721031525     A.U. after    2 cycles

 The electronic state is 1-A.
 Alpha  occ. eigenvalues --  -11.27857 -11.26753 -11.25589 -11.24949 -11.24509
 Alpha  occ. eigenvalues --  -11.23746 -11.23397  -1.11625  -1.05265  -1.00021
 Alpha  occ. eigenvalues --   -0.95220  -0.86569  -0.72448  -0.72164  -0.66697
 Alpha  occ. eigenvalues --   -0.64195  -0.61398  -0.59520  -0.56594  -0.53704
 Alpha  occ. eigenvalues --   -0.51913  -0.40479  -0.39309  -0.37801  -0.37018
 Alpha virt. eigenvalues --    0.03481   0.03840   0.04470   0.04853   0.05604
 Alpha virt. eigenvalues --    0.06493   0.07089   0.07649   0.10295   0.10888
 Alpha virt. eigenvalues --    0.11073   0.11321   0.11933   0.13494   0.13731

 Mulliken charges:
               1
     1  C    0.580218
     2  C   -0.703640
     3  C    1.010808
     4  C   -1.105188
     5  C    1.088107
     6  C   -0.509546
     7  C    1.119655
     8  H    0.005902
     9  H   -0.074618
    10  H   -0.080292
    11  H    0.013665
    12  H   -0.342751
    13  H   -0.229978
    14  H   -0.230591
    15  H   -0.541751
 Sum of Mulliken charges =  -0.00000

 Dipole moment (field-independent basis, Debye):
    X=              0.2818    Y=              0.5451    Z=             -0.1224  Tot=              0.6257

 Test job not archived.
 1\1\GINC-SE226\SP\RHF\Aug-CC-pVDZ\C7H8\OHZDE\09-Apr-2025\0\\#t hf aug-
 cc-pvdz iop(5/13=1,5/36=2,99/5=2) pseudo=read geom=check guess=(read,t
 check) scf=(maxcycle=1)\\title\\0,1\C,0,-0.35502235,-1.865052,-0.08046
 512\C,0,-0.36165435,-0.40397547,0.38751447\C,0,0.30436049,0.49795083,-
 0.63195791\C,0,1.41554464,1.13577191,-0.41407023\C,0,2.52473683,1.7742
 1478,-0.18528117\C,0,-1.73120215,0.05123263,0.65077491\C,0,-2.85650632
 ,0.41110608,0.84672327\H,0,-0.88682597,-1.9649217,-1.02813683\H,0,0.67
 125077,-2.2062431,-0.22086141\H,0,-0.8448901,-2.50568201,0.65339184\H,

 Normal termination of Gaussian 16 at Wed Apr  9 14:41:52 2025.
