 Gaussian 16, Revision C.01,

 ----------------------------------------------------------------------
 #t hf aug-cc-pvdz symm=none int=(grid=ultrafine) guess=(read,tcheck) s
 table=(opt,rrhf)
 ----------------------------------------------------------------------
 -----
 title
 -----
 Symbolic Z-matrix:
 Charge =  0 Multiplicity = 1

 SCF Done:  E(RHF) =  -287.883678766     A.U. after   18 cycles

 1\1\GINC-SE112\Stability\RHF\Aug-CC-pVDZ\C6H11N1\OHZDE\09-Apr-2025\0\\
 #t hf aug-cc-pvdz symm=none int=(grid=ultrafine) guess=(read,tcheck) s
 table=(opt,rrhf)\\title\\0,1\C,0,-2.55400581,0.27616945,-0.37053288\C,
 0,-1.17576005,-0.37718011,-0.39250478\C,0,-0.14866666,0.27422741,0.498
 58628\C,0,1.48884866,-0.97374159,0.52124852\C,0,2.56114892,-0.32426756
 ,-0.03752251\C,0,0.57292944,1.48050233,0.01698213\N,0,-0.22763248,2.36
 760641,0.12345472\H,0,-3.24756916,-0.27525243,-1.00867038\H,0,-2.49660
 434,1.30653171,-0.72141228\H,0,-2.96284375,0.29198237,0.64176573\H,0,-

 Normal termination of Gaussian 16 at Wed Apr  9 14:31:59 2025.
 Gaussian 16:  ES64L-G16RevC.01  3-Jul-2019

 ----------------------------------------------------------------------
 #t hf aug-cc-pvdz iop(5/13=1,5/36=2,99/5=2) pseudo=read geom=check gue
 ss=(read,tcheck) scf=(maxcycle=1)
 ----------------------------------------------------------------------
 -----
 title
 -----
 Structure from the checkpoint file:  "Grambow2020_wb97xd3_006570_forward_mol1.chk"
 Charge =  0 Multiplicity = 1

                         Standard orientation:
 ---------------------------------------------------------------------
 Center     Atomic      Atomic             Coordinates (Angstroms)
 Number     Number       Type             X           Y           Z
 ---------------------------------------------------------------------
      1          6           0       -2.567152   -0.520575   -0.103907
      2          6           0       -1.102578   -0.911857   -0.273705
      3          6           0       -0.122221   -0.049817    0.480671
      4          6           0        1.710847   -0.976241    0.335773
      5          6           0        2.575442   -0.164279   -0.354924
      6          6           0        0.305091    1.248191   -0.102702
      7          7           0       -0.629516    1.977808    0.079939
      8          1           0       -3.212466   -1.213689   -0.647485
      9          1           0       -2.741224    0.488517   -0.477391
     10          1           0       -2.857372   -0.540233    0.948487
     11          1           0       -0.968192   -1.934878    0.092004
     12          1           0       -0.833481   -0.919222   -1.334390
     13          1           0       -0.284533   -0.020156    1.555493
     14          1           0        1.839265   -1.087362    1.406837
     15          1           0        1.304654   -1.845336   -0.168975
     16          1           0        2.715764   -0.277166   -1.423234
     17          1           0        1.369151    1.272933   -0.557168
     18          1           0        3.278468    0.479408    0.159007
 ---------------------------------------------------------------------

 SCF Done:  E(RHF) =  -287.971989232     A.U. after    2 cycles

 The electronic state is 1-A.
 Alpha  occ. eigenvalues --  -15.63770 -11.30304 -11.27936 -11.25756 -11.25550
 Alpha  occ. eigenvalues --  -11.25279 -11.22838  -1.20503  -1.06878  -1.03781
 Alpha  occ. eigenvalues --   -0.93062  -0.82760  -0.81821  -0.74452  -0.66217
 Alpha  occ. eigenvalues --   -0.65023  -0.60724  -0.59932  -0.57667  -0.55639
 Alpha  occ. eigenvalues --   -0.53044  -0.52048  -0.51210  -0.49609  -0.43786
 Alpha  occ. eigenvalues --   -0.39827  -0.28983
 Alpha virt. eigenvalues --    0.03035   0.03915   0.04019   0.04561   0.05048
 Alpha virt. eigenvalues --    0.05990   0.06471   0.07082   0.07495   0.07705
 Alpha virt. eigenvalues --    0.08588   0.09136   0.12025   0.12360   0.13069

 Mulliken charges:
               1
     1  C    0.428592
     2  C   -0.029915
     3  C   -0.005433
     4  C    0.716260
     5  C    0.415742
     6  C    0.563596
     7  N   -0.549696
     8  H   -0.037484
     9  H   -0.042095
    10  H   -0.028165
    11  H   -0.102427
    12  H   -0.098909
    13  H   -0.253360
    14  H   -0.156963
    15  H   -0.280717
    16  H   -0.259884
    17  H   -0.015375
    18  H   -0.263765
 Sum of Mulliken charges =   0.00000

 Dipole moment (field-independent basis, Debye):
    X=              1.1096    Y=             -3.0379    Z=              0.1516  Tot=              3.2377

 Test job not archived.
 1\1\GINC-SE112\SP\RHF\Aug-CC-pVDZ\C6H11N1\OHZDE\09-Apr-2025\0\\#t hf a
 ug-cc-pvdz iop(5/13=1,5/36=2,99/5=2) pseudo=read geom=check guess=(rea
 d,tcheck) scf=(maxcycle=1)\\title\\0,1\C,0,-2.55400581,0.27616945,-0.3
 7053288\C,0,-1.17576005,-0.37718011,-0.39250478\C,0,-0.14866666,0.2742
 2741,0.49858628\C,0,1.48884866,-0.97374159,0.52124852\C,0,2.56114892,-
 0.32426756,-0.03752251\C,0,0.57292944,1.48050233,0.01698213\N,0,-0.227
 63248,2.36760641,0.12345472\H,0,-3.24756916,-0.27525243,-1.00867038\H,
 0,-2.49660434,1.30653171,-0.72141228\H,0,-2.96284375,0.29198237,0.6417

 Normal termination of Gaussian 16 at Wed Apr  9 14:32:06 2025.
