 Gaussian 16, Revision C.01,

 ----------------------------------------------------------------------
 #t hf aug-cc-pvdz symm=none int=(grid=ultrafine) guess=(read,tcheck) s
 table=(opt,rrhf)
 ----------------------------------------------------------------------
 -----
 title
 -----
 Symbolic Z-matrix:
 Charge =  0 Multiplicity = 1

 SCF Done:  E(RHF) =  -279.718377201     A.U. after   16 cycles
 Normal termination of Gaussian 16 at Wed Apr  9 03:15:48 2025.
 Gaussian 16:  ES64L-G16RevC.01  3-Jul-2019

 ----------------------------------------------------------------------
 #t hf aug-cc-pvdz iop(5/13=1,5/36=2,99/5=2) pseudo=read geom=check gue
 ss=(read,tcheck) scf=(maxcycle=1)
 ----------------------------------------------------------------------
 -----
 title
 -----
 Structure from the checkpoint file:  "Grambow2020_b97d3_007055_forward_mol1.chk"
 Charge =  0 Multiplicity = 1

                         Standard orientation:
 ---------------------------------------------------------------------
 Center     Atomic      Atomic             Coordinates (Angstroms)
 Number     Number       Type             X           Y           Z
 ---------------------------------------------------------------------
      1          7           0       -2.070529   -0.017707    0.084826
      2          6           0       -0.676944   -0.120749    0.004566
      3          6           0        0.122064   -1.287087   -0.099194
      4          6           0        1.456708   -0.605539   -0.031608
      5          7           0        1.417991    0.801039   -0.034994
      6          7           0        0.107352    1.009472    0.021551
      7          1           0       -2.469422   -0.954592    0.038554
      8          1           0       -2.495646    0.568992   -0.634912
      9          1           0        1.183986   -0.989966    1.036026
     10          1           0        2.402765   -1.065495   -0.315851
     11          1           0       -0.216354    1.971679    0.133920
 ---------------------------------------------------------------------

 SCF Done:  E(RHF) =  -279.796609420     A.U. after    2 cycles

 The electronic state is 1-A.
 Alpha  occ. eigenvalues --  -15.76087 -15.67802 -15.65046 -11.32944 -11.28687
 Alpha  occ. eigenvalues --  -11.23676  -1.36284  -1.19527  -1.08409  -1.02545
 Alpha  occ. eigenvalues --   -0.84821  -0.80269  -0.73850  -0.66889  -0.65685
 Alpha  occ. eigenvalues --   -0.62463  -0.55934  -0.50676  -0.49369  -0.44416
 Alpha  occ. eigenvalues --   -0.36168  -0.30603
 Alpha virt. eigenvalues --    0.02354   0.03998   0.04443   0.05127   0.07033
 Alpha virt. eigenvalues --    0.07515   0.09660   0.10604   0.11672   0.13530
 Alpha virt. eigenvalues --    0.13939   0.14926   0.15593   0.16408   0.17311

 Mulliken charges:
               1
     1  N   -0.368145
     2  C    0.876581
     3  C   -0.645806
     4  C    0.545060
     5  N   -0.553145
     6  N   -0.151667
     7  H    0.086248
     8  H   -0.007275
     9  H    0.327359
    10  H   -0.103291
    11  H   -0.005919
 Sum of Mulliken charges =   0.00000

 Dipole moment (field-independent basis, Debye):
    X=             -1.8080    Y=              2.6850    Z=             -0.3648  Tot=              3.2575

 Test job not archived.
 1\1\GINC-SE332\SP\RHF\Aug-CC-pVDZ\C3H5N3\OHZDE\09-Apr-2025\0\\#t hf au
 g-cc-pvdz iop(5/13=1,5/36=2,99/5=2) pseudo=read geom=check guess=(read
 ,tcheck) scf=(maxcycle=1)\\title\\0,1\N,0,-1.9400275,0.01641336,0.1325
 219\C,0,-0.54779103,-0.0517611,0.00536352\C,0,0.26956682,-1.19127718,-
 0.20188695\C,0,1.59256343,-0.48828287,-0.12553059\N,0,1.52727072,0.914
 08493,-0.03028092\N,0,0.21523044,1.09074001,0.07815617\H,0,-2.32241063
 ,-0.92319471,0.03287076\H,0,-2.39756564,0.64220244,-0.53231669\H,0,1.3
 5934962,-0.95080202,0.92026652\H,0,2.53814459,-0.9077669,-0.46800221\H

 Normal termination of Gaussian 16 at Wed Apr  9 03:15:52 2025.
