 Gaussian 16, Revision C.01,

 ----------------------------------------------------------------------
 #t hf aug-cc-pvdz symm=none int=(grid=ultrafine) guess=(read,tcheck) s
 table=(opt,rrhf)
 ----------------------------------------------------------------------
 -----
 title
 -----
 Symbolic Z-matrix:
 Charge =  0 Multiplicity = 1

 SCF Done:  E(RHF) =  -322.422947638     A.U. after   17 cycles
 Normal termination of Gaussian 16 at Wed Apr  9 14:27:43 2025.
 Gaussian 16:  ES64L-G16RevC.01  3-Jul-2019

 ----------------------------------------------------------------------
 #t hf aug-cc-pvdz iop(5/13=1,5/36=2,99/5=2) pseudo=read geom=check gue
 ss=(read,tcheck) scf=(maxcycle=1)
 ----------------------------------------------------------------------
 -----
 title
 -----
 Structure from the checkpoint file:  "Grambow2020_wb97xd3_006554_reverse_mol1.chk"
 Charge =  0 Multiplicity = 1

                         Standard orientation:
 ---------------------------------------------------------------------
 Center     Atomic      Atomic             Coordinates (Angstroms)
 Number     Number       Type             X           Y           Z
 ---------------------------------------------------------------------
      1          8           0        2.505478   -0.338586   -0.048790
      2          6           0        1.287808    0.273970   -0.176562
      3          6           0       -0.759778    0.541372   -0.780020
      4          6           0       -0.840712   -0.894425   -0.330290
      5          6           0       -2.089069   -0.289135    0.142009
      6          7           0       -0.609242    0.978633    0.588414
      7          6           0        0.164491   -0.289062    0.656135
      8          1           0        3.198521    0.256634   -0.339638
      9          1           0        1.306700    1.369336   -0.158954
     10          1           0       -1.190993    1.112585   -1.594945
     11          1           0       -0.739955   -1.784310   -0.941942
     12          1           0       -2.905194   -0.206235   -0.573329
     13          1           0       -2.402179   -0.220596    1.175617
     14          1           0        0.377532   -0.725475    1.636978
 ---------------------------------------------------------------------

 SCF Done:  E(RHF) =  -322.516616586     A.U. after    2 cycles

 The electronic state is 1-A.
 Alpha  occ. eigenvalues --  -20.57937 -15.64612 -11.32299 -11.31438 -11.28013
 Alpha  occ. eigenvalues --  -11.27707 -11.26880  -1.33981  -1.29176  -1.03289
 Alpha  occ. eigenvalues --   -0.94334  -0.86884  -0.84979  -0.72845  -0.71873
 Alpha  occ. eigenvalues --   -0.68542  -0.65426  -0.63912  -0.57862  -0.54952
 Alpha  occ. eigenvalues --   -0.52702  -0.48492  -0.47781  -0.44321  -0.38850
 Alpha  occ. eigenvalues --   -0.23983
 Alpha virt. eigenvalues --    0.02756   0.03926   0.04016   0.04865   0.05903
 Alpha virt. eigenvalues --    0.06932   0.07908   0.08572   0.10298   0.11200
 Alpha virt. eigenvalues --    0.12050   0.13328   0.13601   0.14122   0.14456

 Mulliken charges:
               1
     1  O   -0.581184
     2  C    0.501126
     3  C    0.563445
     4  C    0.372459
     5  C    1.019039
     6  N   -0.965414
     7  C    0.797511
     8  H    0.154137
     9  H   -0.223850
    10  H   -0.489639
    11  H   -0.288778
    12  H   -0.296051
    13  H   -0.288487
    14  H   -0.274314
 Sum of Mulliken charges =  -0.00000

 Dipole moment (field-independent basis, Debye):
    X=             -2.3603    Y=             -0.7612    Z=             -1.1149  Tot=              2.7191

 Test job not archived.
 1\1\GINC-SE113\SP\RHF\Aug-CC-pVDZ\C5H7N1O1\OHZDE\09-Apr-2025\0\\#t hf
 aug-cc-pvdz iop(5/13=1,5/36=2,99/5=2) pseudo=read geom=check guess=(re
 ad,tcheck) scf=(maxcycle=1)\\title\\0,1\O,0,2.62942149,0.49531032,0.46
 85611\C,0,1.47718846,0.23567108,-0.22369283\C,0,-0.39188373,-0.7141107
 5,-0.70614458\C,0,-0.59133868,-0.56073576,0.77945728\C,0,-1.900315,-0.
 25090477,0.19771776\N,0,-0.52576779,0.71259563,-0.88795666\C,0,0.19365
 199,0.70396931,0.41306624\H,0,3.37867449,0.46606692,-0.12889464\H,0,1.
 51135737,0.45678663,-1.29627594\H,0,-0.63123082,-1.48143951,-1.4343297

 Normal termination of Gaussian 16 at Wed Apr  9 14:27:47 2025.
