 Gaussian 16, Revision C.01,

 ----------------------------------------------------------------------
 #t hf aug-cc-pvdz symm=none int=(grid=ultrafine) guess=(read,tcheck) s
 table=(opt,rrhf)
 ----------------------------------------------------------------------
 -----
 title
 -----
 Symbolic Z-matrix:
 Charge =  0 Multiplicity = 1

 SCF Done:  E(RHF) =  -191.977411248     A.U. after   14 cycles
 Normal termination of Gaussian 16 at Wed Apr  9 03:20:17 2025.
 Gaussian 16:  ES64L-G16RevC.01  3-Jul-2019

 ----------------------------------------------------------------------
 #t hf aug-cc-pvdz iop(5/13=1,5/36=2,99/5=2) pseudo=read geom=check gue
 ss=(read,tcheck) scf=(maxcycle=1)
 ----------------------------------------------------------------------
 -----
 title
 -----
 Structure from the checkpoint file:  "Grambow2020_wb97xd3_006100_reverse_mol2.chk"
 Charge =  0 Multiplicity = 1

                         Standard orientation:
 ---------------------------------------------------------------------
 Center     Atomic      Atomic             Coordinates (Angstroms)
 Number     Number       Type             X           Y           Z
 ---------------------------------------------------------------------
      1          6           0       -1.680844   -0.283193   -0.176767
      2          6           0       -0.470778    0.590248    0.148185
      3          6           0        0.779732   -0.230661    0.298732
      4          8           0        1.805137   -0.040079   -0.294105
      5          1           0       -2.591035    0.315478   -0.212136
      6          1           0       -1.823941   -1.060227    0.577640
      7          1           0       -1.562257   -0.772423   -1.145083
      8          1           0       -0.298995    1.350133   -0.615066
      9          1           0       -0.634200    1.101838    1.103813
     10          1           0        0.700673   -1.072525    1.022776
 ---------------------------------------------------------------------

 SCF Done:  E(RHF) =  -192.040387790     A.U. after    2 cycles

 The electronic state is 1-A.
 Alpha  occ. eigenvalues --  -20.57368 -11.34335 -11.25304 -11.24761  -1.36450
 Alpha  occ. eigenvalues --   -1.06317  -0.90356  -0.79637  -0.68400  -0.65257
 Alpha  occ. eigenvalues --   -0.62288  -0.57422  -0.54959  -0.52165  -0.50510
 Alpha  occ. eigenvalues --   -0.43140
 Alpha virt. eigenvalues --    0.03173   0.04441   0.04637   0.05618   0.07198
 Alpha virt. eigenvalues --    0.07535   0.09939   0.10929   0.12257   0.14041
 Alpha virt. eigenvalues --    0.15042   0.15312   0.15911   0.16444   0.17003

 Mulliken charges:
               1
     1  C    0.325774
     2  C   -0.060547
     3  C    0.555227
     4  O   -0.442044
     5  H   -0.083354
     6  H   -0.076193
     7  H   -0.052689
     8  H   -0.083691
     9  H    0.034711
    10  H   -0.117193
 Sum of Mulliken charges =  -0.00000

 Dipole moment (field-independent basis, Debye):
    X=             -3.2417    Y=             -0.1688    Z=              1.3715  Tot=              3.5239

 Test job not archived.
 1\1\GINC-SE097\SP\RHF\Aug-CC-pVDZ\C3H6O1\OHZDE\09-Apr-2025\0\\#t hf au
 g-cc-pvdz iop(5/13=1,5/36=2,99/5=2) pseudo=read geom=check guess=(read
 ,tcheck) scf=(maxcycle=1)\\title\\0,1\C,0,-1.13534993,0.28621847,0.012
 09902\C,0,0.13643107,-0.45574005,-0.39388656\C,0,1.33307277,0.03802818
 ,0.37068592\O,0,2.08412756,-0.65530754,0.9987276\H,0,-1.97978019,-0.03
 131286,-0.59963352\H,0,-1.02254012,1.36560506,-0.11274964\H,0,-1.38527
 196,0.09285452,1.05670162\H,0,0.04672764,-1.53222545,-0.24348633\H,0,0
 .34063304,-0.27867231,-1.456245\H,0,1.49287711,1.138829,0.32682289\\Ve

 Normal termination of Gaussian 16 at Wed Apr  9 03:20:19 2025.
