 Gaussian 16, Revision C.01,

 ----------------------------------------------------------------------
 #t hf aug-cc-pvdz symm=none int=(grid=ultrafine) guess=(read,tcheck) s
 table=(opt,rrhf)
 ----------------------------------------------------------------------
 -----
 title
 -----
 Symbolic Z-matrix:
 Charge =  0 Multiplicity = 1

 SCF Done:  E(RHF) =  -306.548013721     A.U. after   18 cycles
 Normal termination of Gaussian 16 at Wed Apr  9 15:47:08 2025.
 Gaussian 16:  ES64L-G16RevC.01  3-Jul-2019

 ----------------------------------------------------------------------
 #t hf aug-cc-pvdz iop(5/13=1,5/36=2,99/5=2) pseudo=read geom=check gue
 ss=(read,tcheck) scf=(maxcycle=1)
 ----------------------------------------------------------------------
 -----
 title
 -----
 Structure from the checkpoint file:  "Grambow2020_wb97xd3_007369_forward_mol1.chk"
 Charge =  0 Multiplicity = 1

                         Standard orientation:
 ---------------------------------------------------------------------
 Center     Atomic      Atomic             Coordinates (Angstroms)
 Number     Number       Type             X           Y           Z
 ---------------------------------------------------------------------
      1          6           0       -1.964873   -0.385935    0.704594
      2          6           0       -2.005367    0.174743   -0.678082
      3          6           0       -0.685493   -0.007034    0.028843
      4          6           0        0.343117    1.038842    0.361387
      5          6           0        1.549910    0.176933   -0.435379
      6          8           0        2.463186   -0.309878    0.319445
      7          6           0        0.433687   -0.826234   -0.388647
      8          1           0       -2.291749    0.242186    1.522833
      9          1           0       -2.160399   -1.443117    0.832240
     10          1           0       -2.233775   -0.488920   -1.501147
     11          1           0       -2.328407    1.200280   -0.808479
     12          1           0        0.220094    2.013067   -0.108427
     13          1           0        0.625566    1.086934    1.406910
     14          1           0        1.781927    0.685855   -1.386727
     15          1           0        0.655370   -1.845157   -0.069058
 ---------------------------------------------------------------------

 SCF Done:  E(RHF) =  -306.640671004     A.U. after    2 cycles

 The electronic state is 1-A.
 Alpha  occ. eigenvalues --  -20.47515 -11.34283 -11.30401 -11.28341 -11.27986
 Alpha  occ. eigenvalues --  -11.27324 -11.26044  -1.27085  -1.19415  -1.07919
 Alpha  occ. eigenvalues --   -0.91318  -0.86263  -0.82859  -0.74958  -0.69956
 Alpha  occ. eigenvalues --   -0.69144  -0.64097  -0.60437  -0.55862  -0.55458
 Alpha  occ. eigenvalues --   -0.54522  -0.49706  -0.47803  -0.45279  -0.36511
 Alpha  occ. eigenvalues --   -0.34107
 Alpha virt. eigenvalues --    0.01369   0.02684   0.03769   0.04472   0.05061
 Alpha virt. eigenvalues --    0.06079   0.06409   0.06677   0.07960   0.09553
 Alpha virt. eigenvalues --    0.10872   0.11935   0.12506   0.13249   0.13771

 Mulliken charges:
               1
     1  C    0.569542
     2  C    0.602162
     3  C   -0.148449
     4  C    0.312162
     5  C    0.694713
     6  O   -0.787470
     7  C    0.294207
     8  H   -0.221023
     9  H   -0.219253
    10  H   -0.246875
    11  H   -0.230679
    12  H   -0.107449
    13  H   -0.112573
    14  H   -0.130232
    15  H   -0.268783
 Sum of Mulliken charges =  -0.00000

 Dipole moment (field-independent basis, Debye):
    X=             -6.5805    Y=              0.3357    Z=             -1.6099  Tot=              6.7829

 Test job not archived.
 1\1\GINC-SE129\SP\RHF\Aug-CC-pVDZ\C6H8O1\OHZDE\09-Apr-2025\0\\#t hf au
 g-cc-pvdz iop(5/13=1,5/36=2,99/5=2) pseudo=read geom=check guess=(read
 ,tcheck) scf=(maxcycle=1)\\title\\0,1\C,0,-1.69428518,0.28344194,-0.55
 358728\C,0,-1.52449898,-0.15294416,0.86364012\C,0,-0.31650754,0.074518
 03,-0.01035735\C,0,0.76073113,-0.90734873,-0.38180638\C,0,1.96456278,0
 .11998058,0.19217742\O,0,2.73643742,0.61197244,-0.7039094\C,0,0.761467
 2,1.01827685,0.20234159\H,0,-2.05208716,-0.44031974,-1.27403578\H,0,-2
 .00098922,1.30497671,-0.73948267\H,0,-1.71869575,0.56017345,1.65345374

 Normal termination of Gaussian 16 at Wed Apr  9 15:47:13 2025.
