 Gaussian 16, Revision C.01,

 ----------------------------------------------------------------------
 #t hf aug-cc-pvdz symm=none int=(grid=ultrafine) guess=(read,tcheck) s
 table=(opt,rrhf)
 ----------------------------------------------------------------------
 -----
 title
 -----
 Symbolic Z-matrix:
 Charge =  0 Multiplicity = 1

 SCF Done:  E(RHF) =  -306.740121567     A.U. after   15 cycles
 Normal termination of Gaussian 16 at Wed Apr  9 03:58:54 2025.
 Gaussian 16:  ES64L-G16RevC.01  3-Jul-2019

 ----------------------------------------------------------------------
 #t hf aug-cc-pvdz iop(5/13=1,5/36=2,99/5=2) pseudo=read geom=check gue
 ss=(read,tcheck) scf=(maxcycle=1)
 ----------------------------------------------------------------------
 -----
 title
 -----
 Structure from the checkpoint file:  "Grambow2020_wb97xd3_008779_reverse_mol2.chk"
 Charge =  0 Multiplicity = 1

                         Standard orientation:
 ---------------------------------------------------------------------
 Center     Atomic      Atomic             Coordinates (Angstroms)
 Number     Number       Type             X           Y           Z
 ---------------------------------------------------------------------
      1          8           0        2.680983    0.040744   -0.174245
      2          6           0        1.517224   -0.098012   -0.427398
      3          6           0        0.396343   -0.040633    0.585093
      4          6           0       -0.628793   -1.179682    0.376538
      5          6           0       -1.811332   -0.560911   -0.396976
      6          6           0       -1.604435    0.917142   -0.212916
      7          6           0       -0.428940    1.200558    0.329924
      8          1           0        1.181332   -0.269062   -1.474978
      9          1           0        0.850764   -0.050646    1.577411
     10          1           0       -0.195809   -2.040053   -0.137479
     11          1           0       -0.963568   -1.528125    1.353959
     12          1           0       -1.790940   -0.821812   -1.460058
     13          1           0       -2.777459   -0.898906   -0.015772
     14          1           0       -2.338690    1.656488   -0.509059
     15          1           0       -0.053899    2.195389    0.534353
 ---------------------------------------------------------------------

 SCF Done:  E(RHF) =  -306.833838807     A.U. after    2 cycles

 The electronic state is 1-A.
 Alpha  occ. eigenvalues --  -20.57187 -11.34045 -11.25494 -11.25190 -11.24928
 Alpha  occ. eigenvalues --  -11.24875 -11.24814  -1.36312  -1.14916  -0.99979
 Alpha  occ. eigenvalues --   -0.98089  -0.84911  -0.78795  -0.74707  -0.70611
 Alpha  occ. eigenvalues --   -0.66836  -0.65263  -0.60607  -0.57220  -0.54670
 Alpha  occ. eigenvalues --   -0.52400  -0.51127  -0.50632  -0.49069  -0.43757
 Alpha  occ. eigenvalues --   -0.36505
 Alpha virt. eigenvalues --    0.03084   0.04155   0.04290   0.04684   0.06273
 Alpha virt. eigenvalues --    0.06416   0.06839   0.07467   0.10397   0.10710
 Alpha virt. eigenvalues --    0.12086   0.13052   0.13456   0.14260   0.14431

 Mulliken charges:
               1
     1  O   -0.457001
     2  C    0.495071
     3  C    0.054878
     4  C    0.606289
     5  C    0.152301
     6  C    0.118514
     7  C    0.266824
     8  H   -0.104646
     9  H   -0.176697
    10  H   -0.132640
    11  H   -0.120053
    12  H   -0.023350
    13  H   -0.050305
    14  H   -0.292837
    15  H   -0.336345
 Sum of Mulliken charges =   0.00000

 Dipole moment (field-independent basis, Debye):
    X=             -3.7975    Y=             -0.4846    Z=             -0.2946  Tot=              3.8396

 Test job not archived.
 1\1\GINC-SE090\SP\RHF\Aug-CC-pVDZ\C6H8O1\OHZDE\09-Apr-2025\0\\#t hf au
 g-cc-pvdz iop(5/13=1,5/36=2,99/5=2) pseudo=read geom=check guess=(read
 ,tcheck) scf=(maxcycle=1)\\title\\0,1\O,0,-0.3155825,-3.05225272,-0.28
 939524\C,0,-0.1950632,-1.87834509,-0.50174077\C,0,-0.20654896,-0.79958
 642,0.55700916\C,0,-1.0751535,0.40992235,0.13934115\C,0,-0.0996093,1.4
 7929497,-0.39390766\C,0,1.23283268,1.01743818,0.12821373\C,0,1.177077,
 -0.19737425,0.65538488\H,0,-0.04492622,-1.5022349,-1.53880665\H,0,-0.5
 3539989,-1.26032052,1.49021574\H,0,-1.84099121,0.13985353,-0.59037228\

 Normal termination of Gaussian 16 at Wed Apr  9 03:58:59 2025.
