 Gaussian 16, Revision C.01,

 ----------------------------------------------------------------------
 #t hf aug-cc-pvdz symm=none int=(grid=ultrafine) guess=(read,tcheck) s
 table=(opt,rrhf)
 ----------------------------------------------------------------------
 -----
 title
 -----
 Symbolic Z-matrix:
 Charge =  0 Multiplicity = 1

 SCF Done:  E(RHF) =  -247.598289293     A.U. after   16 cycles
 Normal termination of Gaussian 16 at Wed Apr  9 03:21:36 2025.
 Gaussian 16:  ES64L-G16RevC.01  3-Jul-2019

 ----------------------------------------------------------------------
 #t hf aug-cc-pvdz iop(5/13=1,5/36=2,99/5=2) pseudo=read geom=check gue
 ss=(read,tcheck) scf=(maxcycle=1)
 ----------------------------------------------------------------------
 -----
 title
 -----
 Structure from the checkpoint file:  "Grambow2020_wb97xd3_006163_forward_mol1.chk"
 Charge =  0 Multiplicity = 1

                         Standard orientation:
 ---------------------------------------------------------------------
 Center     Atomic      Atomic             Coordinates (Angstroms)
 Number     Number       Type             X           Y           Z
 ---------------------------------------------------------------------
      1          6           0        0.454311    1.547584    0.125898
      2          6           0        0.536911    0.217190   -0.594197
      3          6           0        1.569443   -0.626359    0.061598
      4          6           0        0.114010   -1.087832    0.116526
      5          6           0       -1.136175   -0.548389    0.466740
      6          7           0       -1.967039    0.076065   -0.121073
      7          1           0       -0.484981    2.071379   -0.041994
      8          1           0        1.264867    2.169387   -0.262433
      9          1           0        0.607634    1.449539    1.210341
     10          1           0       -1.009867    0.308548   -1.066235
     11          1           0        2.068985   -0.234885    0.943159
     12          1           0        2.155180   -1.352029   -0.490942
     13          1           0       -0.063539   -1.957553   -0.503773
 ---------------------------------------------------------------------

 SCF Done:  E(RHF) =  -247.671525909     A.U. after    2 cycles

 The electronic state is 1-A.
 Alpha  occ. eigenvalues --  -15.65160 -11.33507 -11.29891 -11.28832 -11.27252
 Alpha  occ. eigenvalues --  -11.24015  -1.25397  -1.15675  -0.98270  -0.92294
 Alpha  occ. eigenvalues --   -0.78345  -0.72203  -0.66397  -0.62937  -0.60876
 Alpha  occ. eigenvalues --   -0.56143  -0.55668  -0.54154  -0.50037  -0.44796
 Alpha  occ. eigenvalues --   -0.39175  -0.32758
 Alpha virt. eigenvalues --    0.03039   0.03894   0.04564   0.04988   0.06266
 Alpha virt. eigenvalues --    0.06807   0.07200   0.07982   0.09030   0.10343
 Alpha virt. eigenvalues --    0.11084   0.13181   0.13467   0.14689   0.15158

 Mulliken charges:
               1
     1  C    0.586164
     2  C   -0.954102
     3  C    0.774800
     4  C    0.604797
     5  C   -0.343049
     6  N   -0.413136
     7  H   -0.165921
     8  H   -0.048028
     9  H   -0.035288
    10  H    0.647467
    11  H   -0.226824
    12  H   -0.221113
    13  H   -0.205767
 Sum of Mulliken charges =  -0.00000

 Dipole moment (field-independent basis, Debye):
    X=              2.7767    Y=             -0.9821    Z=              0.6812  Tot=              3.0230

 Test job not archived.
 1\1\GINC-SE097\SP\RHF\Aug-CC-pVDZ\C5H7N1\OHZDE\09-Apr-2025\0\\#t hf au
 g-cc-pvdz iop(5/13=1,5/36=2,99/5=2) pseudo=read geom=check guess=(read
 ,tcheck) scf=(maxcycle=1)\\title\\0,1\C,0,1.20799577,0.64933757,0.2524
 3375\C,0,0.29802566,-0.46964259,-0.2114046\C,0,-0.3812017,-1.06372864,
 0.9690512\C,0,-1.23552237,-0.34307348,-0.07260708\C,0,-1.24137879,0.89
 603879,-0.73681971\N,0,-0.72226261,1.31065476,-1.72899539\H,0,1.459437
 12,1.35591995,-0.53644942\H,0,2.13348023,0.1826196,0.59897976\H,0,0.78
 721927,1.21044397,1.09933694\H,0,0.09328804,0.21787483,-1.6636759\H,0,

 Normal termination of Gaussian 16 at Wed Apr  9 03:21:40 2025.
