 Gaussian 16, Revision C.01,

 ----------------------------------------------------------------------
 #t hf aug-cc-pvdz symm=none int=(grid=ultrafine) guess=(read,tcheck) s
 table=(opt,rrhf)
 ----------------------------------------------------------------------
 -----
 title
 -----
 Symbolic Z-matrix:
 Charge =  0 Multiplicity = 1

 SCF Done:  E(RHF) =  -321.349810583     A.U. after   18 cycles
 Normal termination of Gaussian 16 at Wed Apr  9 16:22:48 2025.
 Gaussian 16:  ES64L-G16RevC.01  3-Jul-2019

 ----------------------------------------------------------------------
 #t hf aug-cc-pvdz iop(5/13=1,5/36=2,99/5=2) pseudo=read geom=check gue
 ss=(read,tcheck) scf=(maxcycle=1)
 ----------------------------------------------------------------------
 -----
 title
 -----
 Structure from the checkpoint file:  "Grambow2020_wb97xd3_008185_forward_mol1.chk"
 Charge =  0 Multiplicity = 1

                         Standard orientation:
 ---------------------------------------------------------------------
 Center     Atomic      Atomic             Coordinates (Angstroms)
 Number     Number       Type             X           Y           Z
 ---------------------------------------------------------------------
      1          8           0        1.716150   -0.495116   -0.295114
      2          6           0        0.185559   -1.585881   -0.010255
      3          6           0       -0.372366   -0.404409    0.594657
      4          6           0        0.886090    0.600352    0.130197
      5          6           0        1.157309    1.816732    0.021462
      6          6           0       -1.624044    0.067216    0.038297
      7          7           0       -2.621733    0.432416   -0.394609
      8          1           0        2.302984   -0.193879   -1.014730
      9          1           0       -0.113340   -1.873401   -1.009611
     10          1           0        0.682983   -2.333309    0.589568
     11          1           0       -0.399793   -0.417430    1.681552
     12          1           0        0.754810    2.787975    0.230241
 ---------------------------------------------------------------------

 SCF Done:  E(RHF) =  -321.446604020     A.U. after    2 cycles

 The electronic state is 1-A.
 Alpha  occ. eigenvalues --  -20.65138 -15.64729 -11.39936 -11.32134 -11.30485
 Alpha  occ. eigenvalues --  -11.29834 -11.19091  -1.39344  -1.20935  -1.13083
 Alpha  occ. eigenvalues --   -1.00443  -0.92402  -0.83617  -0.75759  -0.69803
 Alpha  occ. eigenvalues --   -0.68611  -0.64210  -0.62788  -0.61375  -0.56493
 Alpha  occ. eigenvalues --   -0.55334  -0.47752  -0.46534  -0.36249  -0.28477
 Alpha virt. eigenvalues --    0.01195   0.02654   0.03522   0.04641   0.05134
 Alpha virt. eigenvalues --    0.06187   0.08832   0.09350   0.10496   0.11524
 Alpha virt. eigenvalues --    0.12218   0.13003   0.13249   0.14281   0.14644

 Mulliken charges:
               1
     1  O   -0.617140
     2  C    0.929915
     3  C    0.507605
     4  C    0.514760
     5  C   -0.026522
     6  C   -0.544932
     7  N   -0.096033
     8  H    0.194985
     9  H   -0.213288
    10  H   -0.169480
    11  H   -0.067653
    12  H   -0.412217
 Sum of Mulliken charges =  -0.00000

 Dipole moment (field-independent basis, Debye):
    X=              1.6198    Y=             -5.8023    Z=              0.6466  Tot=              6.0588

 Test job not archived.
 1\1\GINC-SE454\SP\RHF\Aug-CC-pVDZ\C5H5N1O1\OHZDE\09-Apr-2025\0\\#t hf
 aug-cc-pvdz iop(5/13=1,5/36=2,99/5=2) pseudo=read geom=check guess=(re
 ad,tcheck) scf=(maxcycle=1)\\title\\0,1\O,0,-1.41377735,0.71895605,0.0
 2940499\C,0,-0.93280021,-1.11552389,0.15964705\C,0,0.3259766,-0.681318
 18,-0.38809575\C,0,-0.02800645,0.9531941,-0.27834692\C,0,0.54158326,2.
 06640527,-0.31426617\C,0,1.50442262,-0.99432226,0.39418241\N,0,2.43810
 176,-1.25398307,1.00817061\H,0,-1.7490495,1.45074244,0.58171628\H,0,-1
 .01702414,-1.32767845,1.21729448\H,0,-1.7168237,-1.48916311,-0.4818886

 Normal termination of Gaussian 16 at Wed Apr  9 16:22:53 2025.
