 Gaussian 16, Revision C.01,

 ----------------------------------------------------------------------
 #t hf aug-cc-pvdz symm=none int=(grid=ultrafine) guess=(read,tcheck) s
 table=(opt,rrhf)
 ----------------------------------------------------------------------
 -----
 title
 -----
 Symbolic Z-matrix:
 Charge =  0 Multiplicity = 1

 SCF Done:  E(RHF) =  -322.490952341     A.U. after   17 cycles
 Normal termination of Gaussian 16 at Wed Apr  9 16:03:03 2025.
 Gaussian 16:  ES64L-G16RevC.01  3-Jul-2019

 ----------------------------------------------------------------------
 #t hf aug-cc-pvdz iop(5/13=1,5/36=2,99/5=2) pseudo=read geom=check gue
 ss=(read,tcheck) scf=(maxcycle=1)
 ----------------------------------------------------------------------
 -----
 title
 -----
 Structure from the checkpoint file:  "Grambow2020_wb97xd3_007710_reverse_mol1.chk"
 Charge =  0 Multiplicity = 1

                         Standard orientation:
 ---------------------------------------------------------------------
 Center     Atomic      Atomic             Coordinates (Angstroms)
 Number     Number       Type             X           Y           Z
 ---------------------------------------------------------------------
      1          6           0        2.207119   -0.785437    0.236220
      2          7           0        1.202943    1.468080    0.107077
      3          6           0        0.216891    0.827003   -0.150493
      4          8           0        0.319170   -0.621152   -0.403605
      5          6           0       -1.135761   -0.762115   -0.470725
      6          6           0       -1.749596   -0.300848    0.796409
      7          6           0       -1.300831    0.700120   -0.252135
      8          1           0        2.826930   -0.274880   -0.481689
      9          1           0        2.246064   -0.415389    1.247960
     10          1           0        2.046838   -1.842992    0.092229
     11          1           0       -1.545131   -1.431483   -1.210886
     12          1           0       -1.194697   -0.387307    1.722821
     13          1           0       -2.821386   -0.435021    0.883376
     14          1           0       -1.959505    1.407384   -0.730159
 ---------------------------------------------------------------------

 SCF Done:  E(RHF) =  -322.589805755     A.U. after    2 cycles

 The electronic state is 1-A.
 Alpha  occ. eigenvalues --  -20.59421 -15.53608 -11.37536 -11.31261 -11.28367
 Alpha  occ. eigenvalues --  -11.25675 -11.25585  -1.37188  -1.13388  -1.09636
 Alpha  occ. eigenvalues --   -0.98304  -0.87101  -0.83123  -0.73610  -0.67926
 Alpha  occ. eigenvalues --   -0.66868  -0.65434  -0.64722  -0.59277  -0.55569
 Alpha  occ. eigenvalues --   -0.52700  -0.47554  -0.46468  -0.41301  -0.35903
 Alpha  occ. eigenvalues --   -0.29714
 Alpha virt. eigenvalues --    0.01720   0.03232   0.04440   0.04925   0.05566
 Alpha virt. eigenvalues --    0.06124   0.06488   0.07826   0.10150   0.11268
 Alpha virt. eigenvalues --    0.11504   0.12187   0.13111   0.14360   0.15182

 Mulliken charges:
               1
     1  C    0.673395
     2  N   -0.622605
     3  C    0.022155
     4  O   -0.623966
     5  C    0.738496
     6  C    0.774923
     7  C    0.474050
     8  H    0.021186
     9  H    0.026979
    10  H   -0.103344
    11  H   -0.411227
    12  H   -0.331682
    13  H   -0.306645
    14  H   -0.331716
 Sum of Mulliken charges =   0.00000

 Dipole moment (field-independent basis, Debye):
    X=             -0.6736    Y=             -5.1354    Z=              0.2788  Tot=              5.1868

 Test job not archived.
 1\1\GINC-SE026\SP\RHF\Aug-CC-pVDZ\C5H7N1O1\OHZDE\09-Apr-2025\0\\#t hf
 aug-cc-pvdz iop(5/13=1,5/36=2,99/5=2) pseudo=read geom=check guess=(re
 ad,tcheck) scf=(maxcycle=1)\\title\\0,1\C,0,2.19878016,-0.57348774,0.5
 5361308\N,0,1.12051015,1.64730703,0.64737418\C,0,0.24974239,1.05967563
 ,0.05909278\O,0,0.48478891,-0.30606275,-0.44209663\C,0,-0.91201122,-0.
 44811124,-0.85437343\C,0,-1.80711524,-0.25998973,0.31121148\C,0,-1.201
 71906,0.93763584,-0.39727957\H,0,2.92792799,0.07911266,0.10340916\H,0,
 1.99999659,-0.41517747,1.60122545\H,0,2.13253084,-1.58195307,0.1748580

 Normal termination of Gaussian 16 at Wed Apr  9 16:03:08 2025.
