 Gaussian 16, Revision C.01,

 ----------------------------------------------------------------------
 #t hf aug-cc-pvdz symm=none int=(grid=ultrafine) guess=(read,tcheck) s
 table=(opt,rrhf)
 ----------------------------------------------------------------------
 -----
 title
 -----
 Symbolic Z-matrix:
 Charge =  0 Multiplicity = 1

 SCF Done:  E(RHF) =  -289.235198790     A.U. after   13 cycles

 1\1\GINC-SE174\Stability\RHF\Aug-CC-pVDZ\C6H13N1\OHZDE\09-Apr-2025\0\\
 #t hf aug-cc-pvdz symm=none int=(grid=ultrafine) guess=(read,tcheck) s
 table=(opt,rrhf)\\title\\0,1\C,0,-0.7185628,2.01752894,1.15723577\C,0,
 -1.44225766,0.70953449,0.97948263\N,0,-1.13530661,-0.36646419,0.400578
 64\C,0,-0.00418093,-2.03927303,-0.87136412\C,0,0.12869501,-0.62183434,
 -0.30647191\C,0,1.31752718,-0.59574242,0.65955294\C,0,0.3268443,0.3454
 1696,-1.47850634\H,0,-1.28738009,2.80766684,0.65951863\H,0,-0.69805104
 ,2.26796943,2.22072189\H,0,0.29732318,2.03245405,0.77708008\H,0,-2.431

 Normal termination of Gaussian 16 at Wed Apr  9 17:03:55 2025.
 Gaussian 16:  ES64L-G16RevC.01  3-Jul-2019

 ----------------------------------------------------------------------
 #t hf aug-cc-pvdz iop(5/13=1,5/36=2,99/5=2) pseudo=read geom=check gue
 ss=(read,tcheck) scf=(maxcycle=1)
 ----------------------------------------------------------------------
 -----
 title
 -----
 Structure from the checkpoint file:  "Grambow2020_wb97xd3_009132_reverse_mol2.chk"
 Charge =  0 Multiplicity = 1

                         Standard orientation:
 ---------------------------------------------------------------------
 Center     Atomic      Atomic             Coordinates (Angstroms)
 Number     Number       Type             X           Y           Z
 ---------------------------------------------------------------------
      1          6           0        2.384940   -0.379342    0.007384
      2          6           0        1.535326    0.863143   -0.016445
      3          7           0        0.289109    1.047667   -0.020300
      4          6           0       -2.073758    0.715235   -0.064152
      5          6           0       -0.728414   -0.013951    0.000878
      6          6           0       -0.671593   -0.808107    1.309807
      7          6           0       -0.618077   -0.927987   -1.224221
      8          1           0        2.972181   -0.424735   -0.913854
      9          1           0        3.098884   -0.303083    0.831163
     10          1           0        1.833243   -1.307652    0.110516
     11          1           0        2.132638    1.780769   -0.037729
     12          1           0       -2.907398    0.009090   -0.046360
     13          1           0       -2.173628    1.397486    0.781326
     14          1           0       -2.136351    1.308394   -0.977855
     15          1           0        0.233531   -1.408048    1.400444
     16          1           0       -0.711974   -0.126276    2.161370
     17          1           0       -1.527859   -1.482638    1.376356
     18          1           0       -0.603288   -0.328771   -2.136829
     19          1           0       -1.481977   -1.594418   -1.272502
     20          1           0        0.277691   -1.547732   -1.213451
 ---------------------------------------------------------------------

 SCF Done:  E(RHF) =  -289.326242712     A.U. after    2 cycles

 The electronic state is 1-A.
 Alpha  occ. eigenvalues --  -15.60594 -11.28374 -11.26746 -11.24166 -11.22128
 Alpha  occ. eigenvalues --  -11.22116 -11.20961  -1.19575  -1.06397  -0.98318
 Alpha  occ. eigenvalues --   -0.93330  -0.92169  -0.81963  -0.71306  -0.64577
 Alpha  occ. eigenvalues --   -0.62928  -0.60708  -0.58895  -0.58164  -0.55457
 Alpha  occ. eigenvalues --   -0.54479  -0.54099  -0.51244  -0.51217  -0.48134
 Alpha  occ. eigenvalues --   -0.45962  -0.39827  -0.36947
 Alpha virt. eigenvalues --    0.03328   0.04159   0.04345   0.04649   0.06385
 Alpha virt. eigenvalues --    0.06578   0.06743   0.07162   0.07317   0.08887
 Alpha virt. eigenvalues --    0.09094   0.09594   0.09639   0.11928   0.12932

 Mulliken charges:
               1
     1  C    0.438945
     2  C    0.053050
     3  N   -0.014187
     4  C    1.252901
     5  C   -3.236514
     6  C    1.229152
     7  C    1.243010
     8  H    0.017315
     9  H   -0.032577
    10  H   -0.281632
    11  H   -0.430093
    12  H    0.008865
    13  H   -0.014673
    14  H   -0.014863
    15  H   -0.121836
    16  H    0.004952
    17  H    0.014470
    18  H    0.007240
    19  H    0.007955
    20  H   -0.131481
 Sum of Mulliken charges =  -0.00000

 Dipole moment (field-independent basis, Debye):
    X=              1.2346    Y=             -1.6885    Z=              0.0299  Tot=              2.0919

 Test job not archived.
 1\1\GINC-SE174\SP\RHF\Aug-CC-pVDZ\C6H13N1\OHZDE\09-Apr-2025\0\\#t hf a
 ug-cc-pvdz iop(5/13=1,5/36=2,99/5=2) pseudo=read geom=check guess=(rea
 d,tcheck) scf=(maxcycle=1)\\title\\0,1\C,0,-0.7185628,2.01752894,1.157
 23577\C,0,-1.44225766,0.70953449,0.97948263\N,0,-1.13530661,-0.3664641
 9,0.40057864\C,0,-0.00418093,-2.03927303,-0.87136412\C,0,0.12869501,-0
 .62183434,-0.30647191\C,0,1.31752718,-0.59574242,0.65955294\C,0,0.3268
 443,0.34541696,-1.47850634\H,0,-1.28738009,2.80766684,0.65951863\H,0,-
 0.69805104,2.26796943,2.22072189\H,0,0.29732318,2.03245405,0.77708008\

 Normal termination of Gaussian 16 at Wed Apr  9 17:04:04 2025.
