 Gaussian 16, Revision C.01,

 ----------------------------------------------------------------------
 #t hf aug-cc-pvdz symm=none int=(grid=ultrafine) guess=(read,tcheck) s
 table=(opt,rrhf)
 ----------------------------------------------------------------------
 -----
 title
 -----
 Symbolic Z-matrix:
 Charge =  0 Multiplicity = 1

 SCF Done:  E(RHF) =  -263.678233575     A.U. after   18 cycles
 Normal termination of Gaussian 16 at Wed Apr  9 14:15:05 2025.
 Gaussian 16:  ES64L-G16RevC.01  3-Jul-2019

 ----------------------------------------------------------------------
 #t hf aug-cc-pvdz iop(5/13=1,5/36=2,99/5=2) pseudo=read geom=check gue
 ss=(read,tcheck) scf=(maxcycle=1)
 ----------------------------------------------------------------------
 -----
 title
 -----
 Structure from the checkpoint file:  "Grambow2020_b97d3_006855_forward_mol1.chk"
 Charge =  0 Multiplicity = 1

                         Standard orientation:
 ---------------------------------------------------------------------
 Center     Atomic      Atomic             Coordinates (Angstroms)
 Number     Number       Type             X           Y           Z
 ---------------------------------------------------------------------
      1          6           0        2.217765   -0.162116   -0.059743
      2          6           0        0.736061    0.006391   -0.157643
      3          6           0       -0.350667   -0.838481    0.345803
      4          7           0       -1.572426   -0.778120   -0.278916
      5          7           0       -1.464946    0.759688    0.185051
      6          6           0       -0.106432    1.090093   -0.022882
      7          1           0        2.516205   -0.647873    0.886171
      8          1           0        2.632346   -0.774060   -0.877389
      9          1           0        2.716750    0.815921   -0.099709
     10          1           0       -0.332610   -1.287073    1.349436
     11          1           0       -1.403058   -0.701232   -1.298320
     12          1           0        0.151610    2.148028    0.063656
 ---------------------------------------------------------------------

 SCF Done:  E(RHF) =  -263.750258520     A.U. after    2 cycles

 The electronic state is 1-A.
 Alpha  occ. eigenvalues --  -15.66933 -15.63915 -11.38516 -11.31824 -11.25739
 Alpha  occ. eigenvalues --  -11.24321  -1.29275  -1.08993  -1.02648  -0.93781
 Alpha  occ. eigenvalues --   -0.84157  -0.75932  -0.67152  -0.65535  -0.61034
 Alpha  occ. eigenvalues --   -0.58128  -0.56179  -0.51964  -0.48391  -0.44567
 Alpha  occ. eigenvalues --   -0.41017  -0.29016
 Alpha virt. eigenvalues --    0.02669   0.03583   0.04191   0.04922   0.05950
 Alpha virt. eigenvalues --    0.06919   0.07058   0.09820   0.10355   0.11968
 Alpha virt. eigenvalues --    0.13618   0.14416   0.14880   0.15500   0.15967

 Mulliken charges:
               1
     1  C    0.213223
     2  C   -0.513534
     3  C    0.922978
     4  N   -0.502079
     5  N   -0.841294
     6  C    0.950622
     7  H    0.049078
     8  H    0.055137
     9  H    0.008571
    10  H   -0.206046
    11  H    0.138711
    12  H   -0.275365
 Sum of Mulliken charges =  -0.00000

 Dipole moment (field-independent basis, Debye):
    X=              3.6907    Y=             -1.0087    Z=             -0.0421  Tot=              3.8263

 Test job not archived.
 1\1\GINC-SE041\SP\RHF\Aug-CC-pVDZ\C4H6N2\OHZDE\09-Apr-2025\0\\#t hf au
 g-cc-pvdz iop(5/13=1,5/36=2,99/5=2) pseudo=read geom=check guess=(read
 ,tcheck) scf=(maxcycle=1)\\title\\0,1\C,0,-1.67343143,-0.34769716,0.34
 240147\C,0,-0.22196248,-0.01800609,0.20836182\C,0,0.81677149,-0.627871
 38,-0.62670679\N,0,2.12643253,-0.52357295,-0.22605604\N,0,1.79443609,1
 .04521544,-0.36872229\C,0,0.47845147,1.16774956,0.13241216\H,0,-2.1058
 2118,-0.70179617,-0.61019153\H,0,-1.86491496,-1.13338437,1.09135315\H,
 0,-2.24004827,0.54155698,0.65112881\H,0,0.64373906,-0.90171061,-1.6773

 Normal termination of Gaussian 16 at Wed Apr  9 14:15:10 2025.
