 Gaussian 16, Revision C.01,

 ----------------------------------------------------------------------
 #t hf aug-cc-pvdz symm=none int=(grid=ultrafine) guess=(read,tcheck) s
 table=(opt,rrhf)
 ----------------------------------------------------------------------
 -----
 title
 -----
 Symbolic Z-matrix:
 Charge =  0 Multiplicity = 1

 SCF Done:  E(RHF) =  -359.583885000     A.U. after   15 cycles
 Normal termination of Gaussian 16 at Wed Apr  9 14:41:42 2025.
 Gaussian 16:  ES64L-G16RevC.01  3-Jul-2019

 ----------------------------------------------------------------------
 #t hf aug-cc-pvdz iop(5/13=1,5/36=2,99/5=2) pseudo=read geom=check gue
 ss=(read,tcheck) scf=(maxcycle=1)
 ----------------------------------------------------------------------
 -----
 title
 -----
 Structure from the checkpoint file:  "Grambow2020_wb97xd3_006593_reverse_mol1.chk"
 Charge =  0 Multiplicity = 1

                         Standard orientation:
 ---------------------------------------------------------------------
 Center     Atomic      Atomic             Coordinates (Angstroms)
 Number     Number       Type             X           Y           Z
 ---------------------------------------------------------------------
      1          6           0        2.618970   -0.259179    0.189149
      2          7           0        1.558363    0.508934   -0.417938
      3          6           0        0.373296    0.287165    0.017109
      4          6           0       -0.784917    1.148329    0.018505
      5          8           0       -1.924747    0.587149   -0.021322
      6          6           0       -1.634933   -0.907203    0.124674
      7          8           0       -0.371353   -1.074762   -0.270643
      8          1           0        2.574477   -1.324657   -0.072487
      9          1           0        3.582236    0.121050   -0.153309
     10          1           0        2.611577   -0.192097    1.290727
     11          1           0       -0.739099    2.222320    0.161445
     12          1           0        0.180557    0.376250    1.228762
     13          1           0       -2.371113   -1.420569   -0.492696
     14          1           0       -1.812873   -1.058603    1.202229
 ---------------------------------------------------------------------

 SCF Done:  E(RHF) =  -359.696384203     A.U. after    2 cycles

 The electronic state is 1-A.
 Alpha  occ. eigenvalues --  -20.69196 -20.59280 -15.53680 -11.42925 -11.39219
 Alpha  occ. eigenvalues --  -11.36453 -11.22356  -1.49543  -1.35237  -1.17184
 Alpha  occ. eigenvalues --   -1.04452  -0.94942  -0.88404  -0.84417  -0.76895
 Alpha  occ. eigenvalues --   -0.75942  -0.67495  -0.65862  -0.63201  -0.59816
 Alpha  occ. eigenvalues --   -0.59394  -0.57021  -0.53798  -0.50826  -0.46601
 Alpha  occ. eigenvalues --   -0.35244  -0.30213
 Alpha virt. eigenvalues --    0.02471   0.03715   0.04299   0.04704   0.05625
 Alpha virt. eigenvalues --    0.06784   0.07506   0.08018   0.08379   0.10872
 Alpha virt. eigenvalues --    0.11340   0.13630   0.13757   0.14147   0.14704

 Mulliken charges:
               1
     1  C    0.633964
     2  N   -0.669055
     3  C    0.207877
     4  C    0.821266
     5  O   -0.567023
     6  C    1.009158
     7  O   -0.662823
     8  H   -0.088254
     9  H   -0.244651
    10  H   -0.053008
    11  H   -0.212667
    12  H    0.153211
    13  H   -0.236841
    14  H   -0.091153
 Sum of Mulliken charges =  -0.00000

 Dipole moment (field-independent basis, Debye):
    X=             -4.6927    Y=              0.9862    Z=              2.3597  Tot=              5.3444

 Test job not archived.
 1\1\GINC-SE113\SP\RHF\Aug-CC-pVDZ\C4H7N1O2\OHZDE\09-Apr-2025\0\\#t hf
 aug-cc-pvdz iop(5/13=1,5/36=2,99/5=2) pseudo=read geom=check guess=(re
 ad,tcheck) scf=(maxcycle=1)\\title\\0,1\C,0,2.33400822,-0.15612782,-0.
 52738684\N,0,1.23466744,0.72597216,-0.83849682\C,0,0.0879007,0.3935316
 2,-0.3724065\C,0,-1.056669,1.21713453,-0.06467277\O,0,-2.20186934,0.67
 125413,-0.14373502\C,0,-1.91712936,-0.81088401,-0.38987841\O,0,-0.6930
 403,-0.86497057,-0.91871345\H,0,2.25613425,-1.12653252,-1.0352523\H,0,
 3.26925564,0.30534901,-0.84689102\H,0,2.41972512,-0.35869805,0.5541151

 Normal termination of Gaussian 16 at Wed Apr  9 14:41:46 2025.
