 Gaussian 16, Revision C.01,

 ----------------------------------------------------------------------
 #t hf aug-cc-pvdz symm=none int=(grid=ultrafine) guess=(read,tcheck) s
 table=(opt,rrhf)
 ----------------------------------------------------------------------
 -----
 title
 -----
 Symbolic Z-matrix:
 Charge =  0 Multiplicity = 1

 SCF Done:  E(RHF) =  -231.779617690     A.U. after   12 cycles
 Normal termination of Gaussian 16 at Wed Apr  9 14:15:13 2025.
 Gaussian 16:  ES64L-G16RevC.01  3-Jul-2019

 ----------------------------------------------------------------------
 #t hf aug-cc-pvdz iop(5/13=1,5/36=2,99/5=2) pseudo=read geom=check gue
 ss=(read,tcheck) scf=(maxcycle=1)
 ----------------------------------------------------------------------
 -----
 title
 -----
 Structure from the checkpoint file:  "Grambow2020_b97d3_006870_forward_mol2.chk"
 Charge =  0 Multiplicity = 1

                         Standard orientation:
 ---------------------------------------------------------------------
 Center     Atomic      Atomic             Coordinates (Angstroms)
 Number     Number       Type             X           Y           Z
 ---------------------------------------------------------------------
      1          6           0        1.228902   -0.631138   -0.345463
      2          6           0        0.768565    0.826686   -0.368689
      3          6           0       -0.770410    0.826119   -0.367421
      4          6           0       -1.228043   -0.632520   -0.345138
      5          6           0        0.000613   -0.889830    0.575107
      6          6           0       -0.000138    0.658689    0.922582
      7          1           0        2.173138   -0.736416    0.205503
      8          1           0        1.279050   -1.194009   -1.291595
      9          1           0        1.322543    1.704406   -0.697286
     10          1           0       -1.325773    1.702481   -0.697181
     11          1           0       -2.172266   -0.740739    0.205506
     12          1           0       -1.276379   -1.193619   -1.292431
     13          1           0        0.000702   -1.715944    1.291982
     14          1           0        0.002050    1.225803    1.849634
 ---------------------------------------------------------------------

 SCF Done:  E(RHF) =  -231.846976620     A.U. after    2 cycles

 The electronic state is 1-A.
 Alpha  occ. eigenvalues --  -11.24422 -11.23909 -11.23860 -11.23596 -11.23210
 Alpha  occ. eigenvalues --  -11.23200  -1.21227  -0.96153  -0.95333  -0.84536
 Alpha  occ. eigenvalues --   -0.73764  -0.71943  -0.69768  -0.60687  -0.59433
 Alpha  occ. eigenvalues --   -0.56727  -0.51973  -0.48273  -0.44359  -0.43811
 Alpha  occ. eigenvalues --   -0.39004  -0.36786
 Alpha virt. eigenvalues --    0.03457   0.04295   0.04511   0.04532   0.06488
 Alpha virt. eigenvalues --    0.06502   0.06877   0.07375   0.11372   0.12531
 Alpha virt. eigenvalues --    0.12618   0.12956   0.14000   0.14213   0.14870

 Mulliken charges:
               1
     1  C    0.494528
     2  C    0.351938
     3  C    0.352082
     4  C    0.493633
     5  C    0.282138
     6  C    0.220392
     7  H   -0.116444
     8  H   -0.168876
     9  H   -0.418723
    10  H   -0.418653
    11  H   -0.116805
    12  H   -0.168395
    13  H   -0.355068
    14  H   -0.431746
 Sum of Mulliken charges =  -0.00000

 Dipole moment (field-independent basis, Debye):
    X=              0.0005    Y=              0.0992    Z=              0.2134  Tot=              0.2353

 Test job not archived.
 1\1\GINC-SE220\SP\RHF\Aug-CC-pVDZ\C6H8\OHZDE\09-Apr-2025\0\\#t hf aug-
 cc-pvdz iop(5/13=1,5/36=2,99/5=2) pseudo=read geom=check guess=(read,t
 check) scf=(maxcycle=1)\\title\\0,1\C,0,-1.17365639,-0.23099073,0.7153
 2253\C,0,-0.46384139,1.07283265,0.34938707\C,0,0.98506945,0.72000286,-
 0.0308965\C,0,1.13989125,-0.79451211,0.10991213\C,0,-0.32319229,-0.882
 86358,-0.41376359\C,0,-0.13349301,0.56472968,-1.03596851\H,0,-2.237075
 93,-0.18911014,0.44400211\H,0,-1.05942337,-0.63771185,1.73317905\H,0,-
 0.73089902,2.08946049,0.63294802\H,0,1.76283836,1.48165918,-0.01930196

 Normal termination of Gaussian 16 at Wed Apr  9 14:15:17 2025.
