 Gaussian 16, Revision C.01,

 ----------------------------------------------------------------------
 #t hf aug-cc-pvdz symm=none int=(grid=ultrafine) guess=(read,tcheck) s
 table=(opt,rrhf)
 ----------------------------------------------------------------------
 -----
 title
 -----
 Symbolic Z-matrix:
 Charge =  0 Multiplicity = 1

 SCF Done:  E(RHF) =  -302.760068935     A.U. after   16 cycles
 Normal termination of Gaussian 16 at Wed Apr  9 16:48:41 2025.
 Gaussian 16:  ES64L-G16RevC.01  3-Jul-2019

 ----------------------------------------------------------------------
 #t hf aug-cc-pvdz iop(5/13=1,5/36=2,99/5=2) pseudo=read geom=check gue
 ss=(read,tcheck) scf=(maxcycle=1)
 ----------------------------------------------------------------------
 -----
 title
 -----
 Structure from the checkpoint file:  "Grambow2020_wb97xd3_008903_reverse_mol1.chk"
 Charge =  0 Multiplicity = 1

                         Standard orientation:
 ---------------------------------------------------------------------
 Center     Atomic      Atomic             Coordinates (Angstroms)
 Number     Number       Type             X           Y           Z
 ---------------------------------------------------------------------
      1          6           0       -1.972939   -1.324641    0.004885
      2          7           0       -0.625140   -0.818856   -0.077905
      3          6           0        2.616821   -0.949756    0.243285
      4          6           0        1.928310    0.160025   -0.022599
      5          6           0        0.903666    1.003416   -0.090705
      6          6           0       -0.454683    0.443467   -0.038318
      7          7           0       -1.464241    1.386174    0.012447
      8          1           0       -2.590551   -1.002287   -0.844793
      9          1           0       -1.951526   -2.413843   -0.001829
     10          1           0       -2.487625   -1.017168    0.927971
     11          1           0        3.014499   -1.463097   -0.639957
     12          1           0        3.056885    0.495749    0.013535
     13          1           0        1.060151    2.065567   -0.209217
     14          1           0       -2.378458    1.068276    0.281763
     15          1           0       -1.224762    2.300509    0.351444
 ---------------------------------------------------------------------

 SCF Done:  E(RHF) =  -302.851905845     A.U. after    2 cycles

 The electronic state is 1-A.
 Alpha  occ. eigenvalues --  -15.64047 -15.57936 -11.32263 -11.30480 -11.29161
 Alpha  occ. eigenvalues --  -11.24551 -11.24272  -1.23840  -1.12614  -1.11376
 Alpha  occ. eigenvalues --   -0.99752  -0.91246  -0.79560  -0.72351  -0.69136
 Alpha  occ. eigenvalues --   -0.67926  -0.62529  -0.60096  -0.59402  -0.55592
 Alpha  occ. eigenvalues --   -0.51704  -0.51365  -0.46779  -0.38788  -0.36361
 Alpha  occ. eigenvalues --   -0.30660
 Alpha virt. eigenvalues --    0.02760   0.03421   0.04213   0.05683   0.05973
 Alpha virt. eigenvalues --    0.06209   0.07783   0.08534   0.09501   0.09945
 Alpha virt. eigenvalues --    0.11465   0.11817   0.13466   0.13652   0.14072

 Mulliken charges:
               1
     1  C    0.733396
     2  N   -0.483889
     3  C   -0.171037
     4  C   -0.318835
     5  C    1.635356
     6  C   -0.041086
     7  N   -0.198393
     8  H   -0.083879
     9  H   -0.300203
    10  H   -0.117044
    11  H   -0.067577
    12  H   -0.036320
    13  H   -0.521279
    14  H    0.009928
    15  H   -0.039138
 Sum of Mulliken charges =  -0.00000

 Dipole moment (field-independent basis, Debye):
    X=             -0.4132    Y=              2.7514    Z=             -0.5054  Tot=              2.8278

 Test job not archived.
 1\1\GINC-SE037\SP\RHF\Aug-CC-pVDZ\C5H8N2\OHZDE\09-Apr-2025\0\\#t hf au
 g-cc-pvdz iop(5/13=1,5/36=2,99/5=2) pseudo=read geom=check guess=(read
 ,tcheck) scf=(maxcycle=1)\\title\\0,1\C,0,-1.92721529,-1.06439308,0.37
 592959\N,0,-0.53608567,-0.74726059,0.16755582\C,0,2.67989309,-1.107334
 01,0.56559739\C,0,2.10481023,-0.06342189,-0.03096166\C,0,1.17111013,0.
 82129054,-0.36462273\C,0,-0.23652943,0.44476154,-0.16923884\N,0,-1.143
 22915,1.45769531,-0.41892259\H,0,-2.5214126,-0.94934845,-0.54113348\H,
 0,-2.01768528,-2.10198064,0.69544625\H,0,-2.39352874,-0.4440159,1.1564

 Normal termination of Gaussian 16 at Wed Apr  9 16:48:58 2025.
