 Gaussian 16, Revision C.01,

 ----------------------------------------------------------------------
 #t hf aug-cc-pvdz symm=none int=(grid=ultrafine) guess=(read,tcheck) s
 table=(opt,rrhf)
 ----------------------------------------------------------------------
 -----
 title
 -----
 Symbolic Z-matrix:
 Charge =  0 Multiplicity = 1

 SCF Done:  E(RHF) =  -394.373974481     A.U. after   15 cycles
 Normal termination of Gaussian 16 at Wed Apr  9 15:36:45 2025.
 Gaussian 16:  ES64L-G16RevC.01  3-Jul-2019

 ----------------------------------------------------------------------
 #t hf aug-cc-pvdz iop(5/13=1,5/36=2,99/5=2) pseudo=read geom=check gue
 ss=(read,tcheck) scf=(maxcycle=1)
 ----------------------------------------------------------------------
 -----
 title
 -----
 Structure from the checkpoint file:  "Grambow2020_wb97xd3_007205_reverse_mol2.chk"
 Charge =  0 Multiplicity = 1

                         Standard orientation:
 ---------------------------------------------------------------------
 Center     Atomic      Atomic             Coordinates (Angstroms)
 Number     Number       Type             X           Y           Z
 ---------------------------------------------------------------------
      1          7           0       -1.282442    1.110666   -0.332095
      2          6           0       -1.693439   -0.106978    0.068828
      3          8           0       -2.543771   -0.929210   -0.028983
      4          6           0        1.961311    0.086764    0.218616
      5          8           0        2.928122   -0.362265   -0.296559
      6          6           0       -0.352799    0.333574    0.502386
      7          8           0        0.712339   -0.302801   -0.129833
      8          1           0       -1.149774    1.486353   -1.260617
      9          1           0        1.969892    0.843684    1.022076
     10          1           0       -0.106977    0.769341    1.467224
 ---------------------------------------------------------------------

 SCF Done:  E(RHF) =  -394.499661047     A.U. after    2 cycles

 The electronic state is 1-A.
 Alpha  occ. eigenvalues --  -20.66532 -20.59940 -20.59382 -15.69227 -11.42928
 Alpha  occ. eigenvalues --  -11.41442 -11.39781  -1.47099  -1.40719  -1.38184
 Alpha  occ. eigenvalues --   -1.30214  -0.97895  -0.89759  -0.86761  -0.78111
 Alpha  occ. eigenvalues --   -0.73564  -0.71553  -0.69841  -0.67424  -0.63811
 Alpha  occ. eigenvalues --   -0.59425  -0.58697  -0.51925  -0.51172  -0.48645
 Alpha  occ. eigenvalues --   -0.43058
 Alpha virt. eigenvalues --    0.02412   0.03170   0.04949   0.06896   0.08468
 Alpha virt. eigenvalues --    0.08783   0.10402   0.10992   0.11583   0.12677
 Alpha virt. eigenvalues --    0.13695   0.14051   0.14416   0.15718   0.16362

 Mulliken charges:
               1
     1  N   -0.344580
     2  C   -0.127831
     3  O   -0.308818
     4  C    0.737101
     5  O   -0.382219
     6  C    1.452346
     7  O   -0.651077
     8  H    0.002869
     9  H   -0.108882
    10  H   -0.268909
 Sum of Mulliken charges =  -0.00000

 Dipole moment (field-independent basis, Debye):
    X=              0.3899    Y=              4.4202    Z=              1.5601  Tot=              4.7037

 Test job not archived.
 1\1\GINC-SE113\SP\RHF\Aug-CC-pVDZ\C3H3N1O3\OHZDE\09-Apr-2025\0\\#t hf
 aug-cc-pvdz iop(5/13=1,5/36=2,99/5=2) pseudo=read geom=check guess=(re
 ad,tcheck) scf=(maxcycle=1)\\title\\0,1\N,0,-1.22266469,0.92891257,-0.
 52865309\C,0,-0.52725097,0.53600157,-1.61232054\O,0,-0.23940454,0.7992
 9168,-2.73326713\C,0,1.07102062,-0.74274193,1.42536233\O,0,2.05837703,
 -0.61936066,2.06696855\C,0,-0.34945716,-0.24473962,-0.37207604\O,0,0.8
 7304655,-0.0650412,0.27009735\H,0,-1.21542673,1.80523986,-0.02576856\H
 ,0,0.23085195,-1.41013698,1.68468768\H,0,-0.85118705,-1.1779063,-0.129

 Normal termination of Gaussian 16 at Wed Apr  9 15:36:49 2025.
