 Gaussian 16, Revision C.01,

 ----------------------------------------------------------------------
 #t hf aug-cc-pvdz symm=none int=(grid=ultrafine) guess=(read,tcheck) s
 table=(opt,rrhf)
 ----------------------------------------------------------------------
 -----
 title
 -----
 Symbolic Z-matrix:
 Charge =  0 Multiplicity = 1

 SCF Done:  E(RHF) =  -323.756406988     A.U. after   15 cycles
 Normal termination of Gaussian 16 at Wed Apr  9 16:48:53 2025.
 Gaussian 16:  ES64L-G16RevC.01  3-Jul-2019

 ----------------------------------------------------------------------
 #t hf aug-cc-pvdz iop(5/13=1,5/36=2,99/5=2) pseudo=read geom=check gue
 ss=(read,tcheck) scf=(maxcycle=1)
 ----------------------------------------------------------------------
 -----
 title
 -----
 Structure from the checkpoint file:  "Grambow2020_wb97xd3_008931_forward_mol1.chk"
 Charge =  0 Multiplicity = 1

                         Standard orientation:
 ---------------------------------------------------------------------
 Center     Atomic      Atomic             Coordinates (Angstroms)
 Number     Number       Type             X           Y           Z
 ---------------------------------------------------------------------
      1          6           0        2.255846   -0.194584    0.551725
      2          6           0        1.108876   -0.274871   -0.435314
      3          6           0        0.017069   -1.345605   -0.227645
      4          7           0       -1.022115   -0.280713   -0.246805
      5          6           0       -2.418557   -0.196409    0.462953
      6          6           0       -0.011768    0.746304   -0.250964
      7          8           0       -0.101421    1.913321   -0.076355
      8          1           0        1.891819   -0.209585    1.580567
      9          1           0        2.815821    0.729395    0.406610
     10          1           0        2.939551   -1.033867    0.417586
     11          1           0        1.473605   -0.249690   -1.465028
     12          1           0       -0.113307   -2.091372   -1.008111
     13          1           0        0.038194   -1.819676    0.754863
     14          1           0       -1.829830   -0.113166   -0.947093
     15          1           0       -2.698743   -1.245283    0.565257
     16          1           0       -2.259738    0.282657    1.429301
 ---------------------------------------------------------------------

 SCF Done:  E(RHF) =  -323.856922837     A.U. after    2 cycles

 The electronic state is 1-A.
 Alpha  occ. eigenvalues --  -20.59654 -15.70458 -11.39722 -11.31153 -11.28930
 Alpha  occ. eigenvalues --  -11.26147 -11.20604  -1.40674  -1.28334  -1.09481
 Alpha  occ. eigenvalues --   -0.98078  -0.92106  -0.84712  -0.77611  -0.72533
 Alpha  occ. eigenvalues --   -0.70056  -0.66573  -0.64012  -0.60920  -0.59366
 Alpha  occ. eigenvalues --   -0.56884  -0.54634  -0.53363  -0.51934  -0.47683
 Alpha  occ. eigenvalues --   -0.45440  -0.28585
 Alpha virt. eigenvalues --    0.02034   0.03477   0.03788   0.04850   0.06117
 Alpha virt. eigenvalues --    0.06648   0.06952   0.07468   0.08504   0.10145
 Alpha virt. eigenvalues --    0.11164   0.11975   0.12640   0.12748   0.13419

 Mulliken charges:
               1
     1  C    0.628010
     2  C   -0.656483
     3  C    1.106518
     4  N   -0.847218
     5  C    0.368279
     6  C    0.429539
     7  O   -0.376676
     8  H   -0.004628
     9  H   -0.000987
    10  H   -0.009960
    11  H   -0.090852
    12  H   -0.160824
    13  H   -0.222103
    14  H    0.403349
    15  H   -0.296585
    16  H   -0.269379
 Sum of Mulliken charges =  -0.00000

 Dipole moment (field-independent basis, Debye):
    X=              4.8311    Y=             -4.2894    Z=             -1.3604  Tot=              6.6022

 Test job not archived.
 1\1\GINC-SE220\SP\RHF\Aug-CC-pVDZ\C5H9N1O1\OHZDE\09-Apr-2025\0\\#t hf
 aug-cc-pvdz iop(5/13=1,5/36=2,99/5=2) pseudo=read geom=check guess=(re
 ad,tcheck) scf=(maxcycle=1)\\title\\0,1\C,0,2.12818901,-0.44763949,0.1
 8976309\C,0,0.99080134,0.51155019,-0.09753355\C,0,-0.13661285,0.069609
 59,-1.05422905\N,0,-1.14135703,0.36780436,0.00210214\C,0,-2.54259289,-
 0.27327608,0.29615645\C,0,-0.09910214,0.60330304,0.96844878\O,0,-0.153
 8791,0.72052111,2.14476182\H,0,1.75193941,-1.44192991,0.43690291\H,0,2
 .71871128,-0.09206944,1.03428749\H,0,2.78656149,-0.53538948,-0.6755034

 Normal termination of Gaussian 16 at Wed Apr  9 16:48:59 2025.
