 Gaussian 16, Revision C.01,

 ----------------------------------------------------------------------
 #t hf aug-cc-pvdz symm=none int=(grid=ultrafine) guess=(read,tcheck) s
 table=(opt,rrhf)
 ----------------------------------------------------------------------
 -----
 title
 -----
 Symbolic Z-matrix:
 Charge =  0 Multiplicity = 1

 SCF Done:  E(RHF) =  -283.553361746     A.U. after   16 cycles
 Normal termination of Gaussian 16 at Wed Apr  9 14:24:08 2025.
 Gaussian 16:  ES64L-G16RevC.01  3-Jul-2019

 ----------------------------------------------------------------------
 #t hf aug-cc-pvdz iop(5/13=1,5/36=2,99/5=2) pseudo=read geom=check gue
 ss=(read,tcheck) scf=(maxcycle=1)
 ----------------------------------------------------------------------
 -----
 title
 -----
 Structure from the checkpoint file:  "Grambow2020_wb97xd3_006226_forward_mol1.chk"
 Charge =  0 Multiplicity = 1

                         Standard orientation:
 ---------------------------------------------------------------------
 Center     Atomic      Atomic             Coordinates (Angstroms)
 Number     Number       Type             X           Y           Z
 ---------------------------------------------------------------------
      1          8           0        2.011016   -0.781857   -0.193099
      2          6           0        1.109591   -0.075275    0.035437
      3          6           0       -1.312130   -1.274598    0.139590
      4          6           0       -1.618936    0.028414   -0.078827
      5          6           0       -0.695370    1.063610   -0.305988
      6          7           0        0.596530    1.058114    0.309162
      7          1           0       -2.027216   -1.943406    0.603365
      8          1           0       -0.407996   -1.728713   -0.239899
      9          1           0       -2.665875    0.333153   -0.044536
     10          1           0       -0.984787    2.024991   -0.706045
     11          1           0        0.923103    1.709126    1.026499
 ---------------------------------------------------------------------

 SCF Done:  E(RHF) =  -283.641770789     A.U. after    2 cycles

 The electronic state is 1-A.
 Alpha  occ. eigenvalues --  -20.65578 -15.73415 -11.45452 -11.26706 -11.24988
 Alpha  occ. eigenvalues --  -11.21614  -1.45543  -1.30223  -1.05265  -0.92741
 Alpha  occ. eigenvalues --   -0.86239  -0.78961  -0.76093  -0.70216  -0.66430
 Alpha  occ. eigenvalues --   -0.63346  -0.62013  -0.57204  -0.52262  -0.49397
 Alpha  occ. eigenvalues --   -0.38778  -0.25301
 Alpha virt. eigenvalues --    0.02162   0.04238   0.04685   0.05760   0.06510
 Alpha virt. eigenvalues --    0.07185   0.08699   0.10037   0.11611   0.12283
 Alpha virt. eigenvalues --    0.13190   0.13876   0.14454   0.15291   0.15954

 Mulliken charges:
               1
     1  O   -0.204827
     2  C    0.009955
     3  C    0.413402
     4  C    0.619517
     5  C    0.491518
     6  N   -0.077559
     7  H   -0.325611
     8  H   -0.214924
     9  H   -0.366032
    10  H   -0.335577
    11  H   -0.009861
 Sum of Mulliken charges =  -0.00000

 Dipole moment (field-independent basis, Debye):
    X=              0.1537    Y=              3.0354    Z=              1.5847  Tot=              3.4276

 Test job not archived.
 1\1\GINC-SE162\SP\RHF\Aug-CC-pVDZ\C4H5N1O1\OHZDE\09-Apr-2025\0\\#t hf
 aug-cc-pvdz iop(5/13=1,5/36=2,99/5=2) pseudo=read geom=check guess=(re
 ad,tcheck) scf=(maxcycle=1)\\title\\0,1\O,0,-1.1769926,2.14534169,0.92
 491028\C,0,-0.33454257,1.45347301,0.50580469\C,0,-1.16859029,-0.906448
 39,-0.51844742\C,0,0.14310862,-1.12792402,-0.25373781\C,0,1.01647943,-
 0.22914722,0.38315185\N,0,0.87796921,1.18580566,0.22138177\H,0,-1.6909
 5353,-1.49168866,-1.265689\H,0,-1.7742872,-0.23572419,0.07396388\H,0,0
 .59406115,-2.06396677,-0.58628696\H,0,1.97415111,-0.53165956,0.7824166

 Normal termination of Gaussian 16 at Wed Apr  9 14:24:12 2025.
