 Gaussian 16, Revision C.01,

 ----------------------------------------------------------------------
 #t hf aug-cc-pvdz symm=none int=(grid=ultrafine) guess=(read,tcheck) s
 table=(opt,rrhf)
 ----------------------------------------------------------------------
 -----
 title
 -----
 Symbolic Z-matrix:
 Charge =  0 Multiplicity = 1

 SCF Done:  E(RHF) =  -344.930932068     A.U. after   13 cycles

 1\1\GINC-SE162\Stability\RHF\Aug-CC-pVDZ\C5H10O2\OHZDE\09-Apr-2025\0\\
 #t hf aug-cc-pvdz symm=none int=(grid=ultrafine) guess=(read,tcheck) s
 table=(opt,rrhf)\\title\\0,1\C,0,-2.373516,-0.53545983,-0.39709385\C,0
 ,-1.16753617,0.36077074,-0.63815366\C,0,0.09896042,-0.15964941,0.02065
 562\O,0,0.40729414,-1.41232949,-0.55756157\C,0,1.26251273,0.8115016,-0
 .14800048\C,0,2.54110545,0.35181259,0.48916428\O,0,2.69503499,-0.71865
 834,1.01894903\H,0,-3.2634642,-0.1343442,-0.88462188\H,0,-2.19223683,-
 1.53766254,-0.78505343\H,0,-2.58902158,-0.62349158,0.67076459\H,0,-0.9

 Normal termination of Gaussian 16 at Wed Apr  9 16:10:12 2025.
 Gaussian 16:  ES64L-G16RevC.01  3-Jul-2019

 ----------------------------------------------------------------------
 #t hf aug-cc-pvdz iop(5/13=1,5/36=2,99/5=2) pseudo=read geom=check gue
 ss=(read,tcheck) scf=(maxcycle=1)
 ----------------------------------------------------------------------
 -----
 title
 -----
 Structure from the checkpoint file:  "Grambow2020_wb97xd3_007828_forward_mol2.chk"
 Charge =  0 Multiplicity = 1

                         Standard orientation:
 ---------------------------------------------------------------------
 Center     Atomic      Atomic             Coordinates (Angstroms)
 Number     Number       Type             X           Y           Z
 ---------------------------------------------------------------------
      1          6           0        2.808554   -0.222734   -0.324050
      2          6           0        1.649947    0.661542    0.113458
      3          6           0        0.291929    0.033251   -0.150963
      4          8           0        0.204139   -1.152016    0.614574
      5          6           0       -0.847433    0.984697    0.198379
      6          6           0       -2.215257    0.418878   -0.048599
      7          8           0       -2.434049   -0.709663   -0.407486
      8          1           0        3.766844    0.256780   -0.118305
      9          1           0        2.783426   -1.177840    0.200282
     10          1           0        2.761527   -0.427968   -1.396516
     11          1           0        1.724348    0.874195    1.184970
     12          1           0        1.694616    1.624473   -0.404959
     13          1           0        0.218176   -0.213217   -1.220633
     14          1           0       -0.605279   -1.598781    0.347372
     15          1           0       -0.771203    1.923605   -0.362290
     16          1           0       -0.798932    1.263363    1.258800
     17          1           0       -3.060680    1.115009    0.125227
 ---------------------------------------------------------------------

 SCF Done:  E(RHF) =  -345.040022094     A.U. after    2 cycles

 The electronic state is 1-A.
 Alpha  occ. eigenvalues --  -20.58699 -20.56237 -11.35800 -11.29411 -11.25623
 Alpha  occ. eigenvalues --  -11.23223 -11.21902  -1.37932  -1.32170  -1.07267
 Alpha  occ. eigenvalues --   -1.01862  -0.90562  -0.81582  -0.78865  -0.72293
 Alpha  occ. eigenvalues --   -0.69730  -0.65823  -0.63920  -0.60615  -0.59053
 Alpha  occ. eigenvalues --   -0.57581  -0.54345  -0.52343  -0.51335  -0.49143
 Alpha  occ. eigenvalues --   -0.48463  -0.45421  -0.43484
 Alpha virt. eigenvalues --    0.03012   0.03957   0.04603   0.05058   0.05952
 Alpha virt. eigenvalues --    0.06550   0.07113   0.07403   0.08889   0.09491
 Alpha virt. eigenvalues --    0.10606   0.10905   0.11702   0.13687   0.15079

 Mulliken charges:
               1
     1  C    0.507312
     2  C    0.351254
     3  C    0.332998
     4  O   -0.617937
     5  C   -0.181593
     6  C    0.732586
     7  O   -0.489354
     8  H   -0.045769
     9  H   -0.032936
    10  H   -0.075936
    11  H   -0.111704
    12  H   -0.105854
    13  H   -0.237631
    14  H    0.168350
    15  H   -0.032882
    16  H   -0.023217
    17  H   -0.137687
 Sum of Mulliken charges =  -0.00000

 Dipole moment (field-independent basis, Debye):
    X=             -0.1170    Y=              3.5184    Z=             -0.2050  Tot=              3.5264

 Test job not archived.
 1\1\GINC-SE162\SP\RHF\Aug-CC-pVDZ\C5H10O2\OHZDE\09-Apr-2025\0\\#t hf a
 ug-cc-pvdz iop(5/13=1,5/36=2,99/5=2) pseudo=read geom=check guess=(rea
 d,tcheck) scf=(maxcycle=1)\\title\\0,1\C,0,-2.373516,-0.53545983,-0.39
 709385\C,0,-1.16753617,0.36077074,-0.63815366\C,0,0.09896042,-0.159649
 41,0.02065562\O,0,0.40729414,-1.41232949,-0.55756157\C,0,1.26251273,0.
 8115016,-0.14800048\C,0,2.54110545,0.35181259,0.48916428\O,0,2.6950349
 9,-0.71865834,1.01894903\H,0,-3.2634642,-0.1343442,-0.88462188\H,0,-2.
 19223683,-1.53766254,-0.78505343\H,0,-2.58902158,-0.62349158,0.6707645

 Normal termination of Gaussian 16 at Wed Apr  9 16:10:20 2025.
