 Gaussian 16, Revision C.01,

 ----------------------------------------------------------------------
 #t hf aug-cc-pvdz symm=none int=(grid=ultrafine) guess=(read,tcheck) s
 table=(opt,rrhf)
 ----------------------------------------------------------------------
 -----
 title
 -----
 Symbolic Z-matrix:
 Charge =  0 Multiplicity = 1

 SCF Done:  E(RHF) =  -321.420392034     A.U. after   15 cycles
 Normal termination of Gaussian 16 at Wed Apr  9 16:24:48 2025.
 Gaussian 16:  ES64L-G16RevC.01  3-Jul-2019

 ----------------------------------------------------------------------
 #t hf aug-cc-pvdz iop(5/13=1,5/36=2,99/5=2) pseudo=read geom=check gue
 ss=(read,tcheck) scf=(maxcycle=1)
 ----------------------------------------------------------------------
 -----
 title
 -----
 Structure from the checkpoint file:  "Grambow2020_wb97xd3_008192_reverse_mol1.chk"
 Charge =  0 Multiplicity = 1

                         Standard orientation:
 ---------------------------------------------------------------------
 Center     Atomic      Atomic             Coordinates (Angstroms)
 Number     Number       Type             X           Y           Z
 ---------------------------------------------------------------------
      1          8           0       -2.145748   -0.687267   -0.108101
      2          6           0       -0.822910   -1.073122    0.095913
      3          6           0        0.156852    0.048674   -0.325831
      4          6           0       -0.214679    1.303540    0.874654
      5          6           0       -0.239978    1.789794   -0.279652
      6          6           0        1.549305   -0.302895   -0.081491
      7          7           0        2.638143   -0.618153    0.091652
      8          1           0       -2.355000    0.005181    0.526794
      9          1           0       -0.614858   -1.344867    1.133348
     10          1           0       -0.637799   -1.939407   -0.542339
     11          1           0        0.036390    0.146237   -1.413027
     12          1           0       -0.301290    2.362121   -1.183098
 ---------------------------------------------------------------------

 SCF Done:  E(RHF) =  -321.516786097     A.U. after    2 cycles

 The electronic state is 1-A.
 Alpha  occ. eigenvalues --  -20.60158 -15.65451 -11.36253 -11.33037 -11.30951
 Alpha  occ. eigenvalues --  -11.30217 -11.28892  -1.36288  -1.21777  -1.16087
 Alpha  occ. eigenvalues --   -1.02731  -0.90569  -0.80896  -0.74583  -0.73578
 Alpha  occ. eigenvalues --   -0.65889  -0.64159  -0.58761  -0.55831  -0.53745
 Alpha  occ. eigenvalues --   -0.50913  -0.47869  -0.46765  -0.45379  -0.43920
 Alpha virt. eigenvalues --    0.02251   0.04062   0.04314   0.05900   0.06527
 Alpha virt. eigenvalues --    0.07688   0.08923   0.09608   0.10418   0.11123
 Alpha virt. eigenvalues --    0.12139   0.13065   0.13407   0.14385   0.14841

 Mulliken charges:
               1
     1  O   -0.537437
     2  C    1.054290
     3  C   -0.120782
     4  C   -0.244804
     5  C    0.684797
     6  C   -0.582041
     7  N   -0.123842
     8  H    0.195828
     9  H   -0.094773
    10  H   -0.108690
    11  H    0.115944
    12  H   -0.238490
 Sum of Mulliken charges =  -0.00000

 Dipole moment (field-independent basis, Debye):
    X=             -2.4899    Y=              1.5077    Z=             -2.5154  Tot=              3.8471

 Test job not archived.
 1\1\GINC-SE097\SP\RHF\Aug-CC-pVDZ\C5H5N1O1\OHZDE\09-Apr-2025\0\\#t hf
 aug-cc-pvdz iop(5/13=1,5/36=2,99/5=2) pseudo=read geom=check guess=(re
 ad,tcheck) scf=(maxcycle=1)\\title\\0,1\O,0,-1.87033897,0.40828316,0.6
 3530543\C,0,-0.7772174,-0.43292104,0.82990096\C,0,0.28202929,-0.237530
 1,-0.28187476\C,0,0.82982874,1.41929859,0.04785789\C,0,0.53284342,1.29
 604767,-1.16297422\C,0,1.46193162,-1.06860938,-0.08346602\N,0,2.364433
 94,-1.75695147,0.07965468\H,0,-1.5821281,1.31253652,0.79537625\H,0,-0.
 29534536,-0.28593223,1.79922885\H,0,-1.14512771,-1.45901949,0.76788631

 Normal termination of Gaussian 16 at Wed Apr  9 16:24:53 2025.
