 Gaussian 16, Revision C.01,

 ----------------------------------------------------------------------
 #t hf aug-cc-pvdz symm=none int=(grid=ultrafine) guess=(read,tcheck) s
 table=(opt,rrhf)
 ----------------------------------------------------------------------
 -----
 title
 -----
 Symbolic Z-matrix:
 Charge =  0 Multiplicity = 1

 SCF Done:  E(RHF) =  -380.765641548     A.U. after   13 cycles
 Normal termination of Gaussian 16 at Wed Apr  9 03:39:58 2025.
 Gaussian 16:  ES64L-G16RevC.01  3-Jul-2019

 ----------------------------------------------------------------------
 #t hf aug-cc-pvdz iop(5/13=1,5/36=2,99/5=2) pseudo=read geom=check gue
 ss=(read,tcheck) scf=(maxcycle=1)
 ----------------------------------------------------------------------
 -----
 title
 -----
 Structure from the checkpoint file:  "Grambow2020_wb97xd3_007510_forward_mol2.chk"
 Charge =  0 Multiplicity = 1

                         Standard orientation:
 ---------------------------------------------------------------------
 Center     Atomic      Atomic             Coordinates (Angstroms)
 Number     Number       Type             X           Y           Z
 ---------------------------------------------------------------------
      1          8           0        1.904328   -1.098964   -0.482880
      2          6           0        2.046589    0.233454   -0.024776
      3          6           0        0.878982    0.514266    0.902464
      4          6           0       -0.425613    0.461483    0.140948
      5          8           0       -0.669377    1.223503   -0.764534
      6          6           0       -1.428045   -0.594585    0.528461
      7          8           0       -2.584023   -0.524994   -0.241842
      8          1           0        2.505926   -1.249350   -1.212598
      9          1           0        2.022129    0.944533   -0.857214
     10          1           0        2.989616    0.363271    0.518770
     11          1           0        0.980524    1.517195    1.323542
     12          1           0        0.878305   -0.207938    1.721901
     13          1           0       -0.923945   -1.565855    0.420658
     14          1           0       -1.657695   -0.472218    1.596411
     15          1           0       -2.433765    0.186288   -0.880013
 ---------------------------------------------------------------------

 SCF Done:  E(RHF) =  -380.886295684     A.U. after    2 cycles

 The electronic state is 1-A.
 Alpha  occ. eigenvalues --  -20.58969 -20.57703 -20.56840 -11.35174 -11.30817
 Alpha  occ. eigenvalues --  -11.29827 -11.25931  -1.38087  -1.34333  -1.32237
 Alpha  occ. eigenvalues --   -1.06645  -0.97820  -0.87744  -0.77451  -0.74089
 Alpha  occ. eigenvalues --   -0.72697  -0.68288  -0.66258  -0.64114  -0.61188
 Alpha  occ. eigenvalues --   -0.59139  -0.59119  -0.55579  -0.53073  -0.51304
 Alpha  occ. eigenvalues --   -0.48252  -0.46389  -0.43740
 Alpha virt. eigenvalues --    0.02871   0.03975   0.04590   0.05015   0.06560
 Alpha virt. eigenvalues --    0.06787   0.07017   0.07582   0.10678   0.11880
 Alpha virt. eigenvalues --    0.12744   0.13114   0.13695   0.14309   0.15265

 Mulliken charges:
               1
     1  O   -0.560089
     2  C    0.801228
     3  C    0.311269
     4  C   -0.192878
     5  O   -0.619018
     6  C    0.664372
     7  O   -0.522607
     8  H    0.145183
     9  H   -0.101724
    10  H   -0.118493
    11  H    0.047552
    12  H   -0.133033
    13  H    0.080195
    14  H    0.033175
    15  H    0.164867
 Sum of Mulliken charges =  -0.00000

 Dipole moment (field-independent basis, Debye):
    X=              3.8801    Y=              0.2044    Z=              1.5758  Tot=              4.1929

 Test job not archived.
 1\1\GINC-SE284\SP\RHF\Aug-CC-pVDZ\C4H8O3\OHZDE\09-Apr-2025\0\\#t hf au
 g-cc-pvdz iop(5/13=1,5/36=2,99/5=2) pseudo=read geom=check guess=(read
 ,tcheck) scf=(maxcycle=1)\\title\\0,1\O,0,-1.23078617,1.63685817,0.020
 30346\C,0,-1.61406963,0.34948997,-0.42826296\C,0,-0.85172559,-0.660649
 3,0.40862666\C,0,0.63371246,-0.54453018,0.1543578\O,0,1.11420432,-0.74
 734429,-0.93559\C,0,1.51873205,-0.14337268,1.30593511\O,0,2.85894812,-
 0.08460876,0.93870147\H,0,-1.53801127,2.29472146,-0.60407864\H,0,-1.36
 044057,0.20468156,-1.48367189\H,0,-2.69201329,0.19478006,-0.30297442\H

 Normal termination of Gaussian 16 at Wed Apr  9 03:40:04 2025.
