 Gaussian 16, Revision C.01,

 ----------------------------------------------------------------------
 #t hf aug-cc-pvdz symm=none int=(grid=ultrafine) guess=(read,tcheck) s
 table=(opt,rrhf)
 ----------------------------------------------------------------------
 -----
 title
 -----
 Symbolic Z-matrix:
 Charge =  0 Multiplicity = 1

 SCF Done:  E(RHF) =  -344.690070157     A.U. after   15 cycles

 1\1\GINC-SE100\Stability\RHF\Aug-CC-pVDZ\C5H10O2\OHZDE\09-Apr-2025\0\\
 #t hf aug-cc-pvdz symm=none int=(grid=ultrafine) guess=(read,tcheck) s
 table=(opt,rrhf)\\title\\0,1\C,0,1.49319945,1.46985433,-0.58988685\O,0
 ,1.34486161,0.50070893,0.27112727\C,0,0.49787916,-0.46160907,0.2430542
 9\C,0,0.14419004,-1.38879351,1.36006831\O,0,-1.18322053,-1.48786991,0.
 80725772\C,0,-0.92267455,-0.53567861,-0.2515617\C,0,-1.78323933,0.7064
 8863,-0.13225348\H,0,1.90396161,-0.34799132,-1.97748309\H,0,0.73969596
 ,1.63723621,-1.34378152\H,0,2.29827384,2.14742729,-0.36724144\H,0,1.59

 Normal termination of Gaussian 16 at Wed Apr  9 15:01:32 2025.
 Gaussian 16:  ES64L-G16RevC.01  3-Jul-2019

 ----------------------------------------------------------------------
 #t hf aug-cc-pvdz iop(5/13=1,5/36=2,99/5=2) pseudo=read geom=check gue
 ss=(read,tcheck) scf=(maxcycle=1)
 ----------------------------------------------------------------------
 -----
 title
 -----
 Structure from the checkpoint file:  "Grambow2020_wb97xd3_006660_reverse_mol2.chk"
 Charge =  0 Multiplicity = 1

                         Standard orientation:
 ---------------------------------------------------------------------
 Center     Atomic      Atomic             Coordinates (Angstroms)
 Number     Number       Type             X           Y           Z
 ---------------------------------------------------------------------
      1          6           0       -2.324057    0.285556   -0.139653
      2          8           0       -1.367031   -0.574342   -0.357066
      3          6           0       -0.182501   -0.582726    0.133893
      4          6           0        0.985059   -1.389650   -0.333190
      5          8           0        1.850173   -0.326884    0.113510
      6          6           0        0.755891    0.532520    0.513037
      7          6           0        0.704376    1.812252   -0.297775
      8          1           0       -2.010430   -0.500999    2.024067
      9          1           0       -2.106374    1.213531    0.365935
     10          1           0       -3.247513    0.065196   -0.645114
     11          1           0       -1.314206   -0.809063    2.074847
     12          1           0        1.054059   -1.556608   -1.415282
     13          1           0        1.191033   -2.326025    0.193538
     14          1           0        0.822861    0.760791    1.582889
     15          1           0       -0.096212    2.469709    0.045186
     16          1           0        1.650829    2.340949   -0.176478
     17          1           0        0.558206    1.604615   -1.359014
 ---------------------------------------------------------------------

 SCF Done:  E(RHF) =  -344.803380326     A.U. after    2 cycles

 The electronic state is 1-A.
 Alpha  occ. eigenvalues --  -20.71184 -20.57665 -11.31039 -11.30940 -11.30320
 Alpha  occ. eigenvalues --  -11.29208 -11.23885  -1.47702  -1.35896  -1.05716
 Alpha  occ. eigenvalues --   -1.02638  -0.93115  -0.88960  -0.79193  -0.73587
 Alpha  occ. eigenvalues --   -0.72977  -0.70044  -0.65942  -0.62626  -0.59059
 Alpha  occ. eigenvalues --   -0.57394  -0.56379  -0.55815  -0.54085  -0.52057
 Alpha  occ. eigenvalues --   -0.47746  -0.45138  -0.25397
 Alpha virt. eigenvalues --    0.03480   0.04330   0.04616   0.05014   0.06025
 Alpha virt. eigenvalues --    0.06268   0.06638   0.07507   0.08032   0.08206
 Alpha virt. eigenvalues --    0.10125   0.10387   0.12640   0.13173   0.13630

 Mulliken charges:
               1
     1  C    0.841077
     2  O   -0.225157
     3  C   -0.531436
     4  C    0.908279
     5  O   -0.820623
     6  C    0.591930
     7  C    0.376673
     8  H   -0.073780
     9  H   -0.260084
    10  H   -0.353420
    11  H    0.173220
    12  H   -0.162068
    13  H   -0.155127
    14  H   -0.226065
    15  H   -0.034047
    16  H   -0.014704
    17  H   -0.034670
 Sum of Mulliken charges =  -0.00000

 Dipole moment (field-independent basis, Debye):
    X=             -0.8567    Y=              0.7783    Z=             -0.5625  Tot=              1.2869

 Test job not archived.
 1\1\GINC-SE100\SP\RHF\Aug-CC-pVDZ\C5H10O2\OHZDE\09-Apr-2025\0\\#t hf a
 ug-cc-pvdz iop(5/13=1,5/36=2,99/5=2) pseudo=read geom=check guess=(rea
 d,tcheck) scf=(maxcycle=1)\\title\\0,1\C,0,1.49319945,1.46985433,-0.58
 988685\O,0,1.34486161,0.50070893,0.27112727\C,0,0.49787916,-0.46160907
 ,0.24305429\C,0,0.14419004,-1.38879351,1.36006831\O,0,-1.18322053,-1.4
 8786991,0.80725772\C,0,-0.92267455,-0.53567861,-0.2515617\C,0,-1.78323
 933,0.70648863,-0.13225348\H,0,1.90396161,-0.34799132,-1.97748309\H,0,
 0.73969596,1.63723621,-1.34378152\H,0,2.29827384,2.14742729,-0.3672414

 Normal termination of Gaussian 16 at Wed Apr  9 15:01:38 2025.
