 Gaussian 16, Revision C.01,

 ----------------------------------------------------------------------
 #t hf aug-cc-pvdz symm=none int=(grid=ultrafine) guess=(read,tcheck) s
 table=(opt,rrhf)
 ----------------------------------------------------------------------
 -----
 title
 -----
 Symbolic Z-matrix:
 Charge =  0 Multiplicity = 1

 SCF Done:  E(RHF) =  -360.771250441     A.U. after   16 cycles
 Normal termination of Gaussian 16 at Wed Apr  9 16:00:09 2025.
 Gaussian 16:  ES64L-G16RevC.01  3-Jul-2019

 ----------------------------------------------------------------------
 #t hf aug-cc-pvdz iop(5/13=1,5/36=2,99/5=2) pseudo=read geom=check gue
 ss=(read,tcheck) scf=(maxcycle=1)
 ----------------------------------------------------------------------
 -----
 title
 -----
 Structure from the checkpoint file:  "Grambow2020_wb97xd3_007670_reverse_mol2.chk"
 Charge =  0 Multiplicity = 1

                         Standard orientation:
 ---------------------------------------------------------------------
 Center     Atomic      Atomic             Coordinates (Angstroms)
 Number     Number       Type             X           Y           Z
 ---------------------------------------------------------------------
      1          6           0        2.355206   -0.339236    0.513281
      2          8           0        1.690297   -0.089279   -0.702693
      3          6           0        0.351463   -0.506318   -0.703513
      4          6           0       -0.577343    0.517916   -0.108503
      5          7           0       -1.944612    0.164690    0.148478
      6          8           0       -2.228632   -0.963199   -0.160730
      7          6           0       -0.274360    1.774179    0.195289
      8          1           0        3.379429    0.011556    0.397246
      9          1           0        1.891003    0.190779    1.353673
     10          1           0        2.367538   -1.411802    0.741228
     11          1           0        0.225813   -1.458433   -0.173894
     12          1           0        0.065798   -0.686595   -1.742772
     13          1           0       -0.742301   -1.385240    2.482096
     14          1           0        0.718335    2.171274    0.028966
     15          1           0       -0.075815   -1.259554    2.790436
     16          1           0       -1.040630    2.415766    0.611735
 ---------------------------------------------------------------------

 SCF Done:  E(RHF) =  -360.888163771     A.U. after    2 cycles

 The electronic state is 1-A.
 Alpha  occ. eigenvalues --  -20.64052 -20.58693 -15.76843 -11.30555 -11.29280
 Alpha  occ. eigenvalues --  -11.28867 -11.27469  -1.47442  -1.35644  -1.12692
 Alpha  occ. eigenvalues --   -0.99152  -0.94331  -0.90142  -0.77280  -0.72750
 Alpha  occ. eigenvalues --   -0.70161  -0.68558  -0.66001  -0.63894  -0.62160
 Alpha  occ. eigenvalues --   -0.59588  -0.59333  -0.56526  -0.54854  -0.50893
 Alpha  occ. eigenvalues --   -0.46866  -0.40804  -0.39821
 Alpha virt. eigenvalues --    0.03334   0.04137   0.04283   0.05199   0.05713
 Alpha virt. eigenvalues --    0.06599   0.06812   0.07789   0.08551   0.09913
 Alpha virt. eigenvalues --    0.10598   0.12166   0.13138   0.13650   0.14038

 Mulliken charges:
               1
     1  C    0.779189
     2  O   -0.646303
     3  C    0.601730
     4  C    0.136645
     5  N   -0.387236
     6  O   -0.402040
     7  C    0.918208
     8  H   -0.231075
     9  H   -0.111936
    10  H   -0.073409
    11  H    0.065746
    12  H   -0.082116
    13  H    0.090008
    14  H   -0.319088
    15  H   -0.050962
    16  H   -0.287361
 Sum of Mulliken charges =  -0.00000

 Dipole moment (field-independent basis, Debye):
    X=              2.2961    Y=              1.3073    Z=              1.1350  Tot=              2.8756

 Test job not archived.
 1\1\GINC-SE226\SP\RHF\Aug-CC-pVDZ\C4H9N1O2\OHZDE\09-Apr-2025\0\\#t hf
 aug-cc-pvdz iop(5/13=1,5/36=2,99/5=2) pseudo=read geom=check guess=(re
 ad,tcheck) scf=(maxcycle=1)\\title\\0,1\C,0,1.9978497,-0.2296117,-0.03
 488509\O,0,1.25799631,-0.23844581,1.16332795\C,0,0.06979051,0.50281217
 ,1.09189447\C,0,-1.072249,-0.28360128,0.50617204\N,0,-2.29707459,0.389
 49151,0.17909317\O,0,-2.29324979,1.56733256,0.42625117\C,0,-1.09054813
 ,-1.58996616,0.27088392\H,0,2.89554991,-0.82115816,0.13762594\H,0,1.43
 742482,-0.66901368,-0.86885627\H,0,2.2888865,0.79134664,-0.3095687\H,0

 Normal termination of Gaussian 16 at Wed Apr  9 16:00:15 2025.
