 Gaussian 16, Revision C.01,

 ----------------------------------------------------------------------
 #t hf aug-cc-pvdz symm=none int=(grid=ultrafine) guess=(read,tcheck) s
 table=(opt,rrhf)
 ----------------------------------------------------------------------
 -----
 title
 -----
 Symbolic Z-matrix:
 Charge =  0 Multiplicity = 1

 SCF Done:  E(RHF) =  -271.823370047     A.U. after   15 cycles
 Normal termination of Gaussian 16 at Wed Apr  9 15:53:27 2025.
 Gaussian 16:  ES64L-G16RevC.01  3-Jul-2019

 ----------------------------------------------------------------------
 #t hf aug-cc-pvdz iop(5/13=1,5/36=2,99/5=2) pseudo=read geom=check gue
 ss=(read,tcheck) scf=(maxcycle=1)
 ----------------------------------------------------------------------
 -----
 title
 -----
 Structure from the checkpoint file:  "Grambow2020_wb97xd3_007424_reverse_mol1.chk"
 Charge =  0 Multiplicity = 1

                         Standard orientation:
 ---------------------------------------------------------------------
 Center     Atomic      Atomic             Coordinates (Angstroms)
 Number     Number       Type             X           Y           Z
 ---------------------------------------------------------------------
      1          6           0       -1.609630    1.228223   -0.192578
      2          6           0        0.714611    1.126395    0.373150
      3          6           0        0.597535   -0.037138    1.297295
      4          6           0        0.607039   -1.172583    0.328630
      5          6           0       -1.686564   -1.128657   -0.181082
      6          6           0        1.143125   -0.725747   -0.856939
      7          6           0        1.203197    0.680224   -0.830579
      8          1           0       -1.627444    1.252258   -1.276416
      9          1           0       -2.549089    0.921935    0.249748
     10          1           0       -1.309302    2.189765    0.208919
     11          1           0        0.747366    2.151697    0.711305
     12          1           0        1.525026   -0.096089    1.886670
     13          1           0       -0.240601   -0.009629    1.987788
     14          1           0        0.561090   -2.206279    0.638350
     15          1           0       -2.223288   -0.784357   -1.055260
     16          1           0       -2.269502   -1.068673    0.731270
     17          1           0       -1.331947   -2.138334   -0.348826
     18          1           0        1.395623   -1.347129   -1.705244
     19          1           0        1.506193    1.310536   -1.655679
 ---------------------------------------------------------------------

 SCF Done:  E(RHF) =  -271.909477295     A.U. after    2 cycles

 The electronic state is 1-A.
 Alpha  occ. eigenvalues --  -11.25299 -11.25071 -11.24476 -11.24047 -11.23654
 Alpha  occ. eigenvalues --  -11.23220 -11.23081  -1.15224  -0.96198  -0.96090
 Alpha  occ. eigenvalues --   -0.92741  -0.86740  -0.76498  -0.73024  -0.70619
 Alpha  occ. eigenvalues --   -0.60968  -0.58088  -0.57268  -0.55795  -0.53491
 Alpha  occ. eigenvalues --   -0.53031  -0.52558  -0.51616  -0.49474  -0.42444
 Alpha  occ. eigenvalues --   -0.29683  -0.27687
 Alpha virt. eigenvalues --    0.03380   0.03890   0.04296   0.05110   0.05238
 Alpha virt. eigenvalues --    0.05998   0.06168   0.06517   0.07179   0.08898
 Alpha virt. eigenvalues --    0.08941   0.09307   0.10304   0.11090   0.12730

 Mulliken charges:
               1
     1  C    0.533101
     2  C    0.531872
     3  C    0.319338
     4  C    0.435072
     5  C    0.561910
     6  C    0.327897
     7  C    0.317841
     8  H   -0.129728
     9  H   -0.113822
    10  H   -0.400868
    11  H   -0.379093
    12  H    0.020866
    13  H   -0.167482
    14  H   -0.375767
    15  H   -0.107793
    16  H   -0.159132
    17  H   -0.411756
    18  H   -0.387290
    19  H   -0.415168
 Sum of Mulliken charges =  -0.00000

 Dipole moment (field-independent basis, Debye):
    X=              0.5873    Y=             -0.1268    Z=              0.4244  Tot=              0.7356

 Test job not archived.
 1\1\GINC-SE097\SP\RHF\Aug-CC-pVDZ\C7H12\OHZDE\09-Apr-2025\0\\#t hf aug
 -cc-pvdz iop(5/13=1,5/36=2,99/5=2) pseudo=read geom=check guess=(read,
 tcheck) scf=(maxcycle=1)\\title\\0,1\C,0,-1.26125818,-1.33905695,-0.09
 935203\C,0,-1.09662058,1.04703377,0.01009203\C,0,-0.06270464,1.0811993
 7,1.08313065\C,0,1.18080273,0.85992233,0.28791792\C,0,1.06847661,-1.48
 675188,0.23449976\C,0,0.9127775,1.16077954,-1.02748019\C,0,-0.48023251
 ,1.26944021,-1.19711503\H,0,-1.15427333,-1.57348121,-1.15253791\H,0,-1
 .06511475,-2.17972149,0.55399182\H,0,-2.24579062,-0.93387812,0.1067674

 Normal termination of Gaussian 16 at Wed Apr  9 15:53:35 2025.
