 Gaussian 16, Revision C.01,

 ----------------------------------------------------------------------
 #t hf aug-cc-pvdz symm=none int=(grid=ultrafine) guess=(read,tcheck) s
 table=(opt,rrhf)
 ----------------------------------------------------------------------
 -----
 title
 -----
 Symbolic Z-matrix:
 Charge =  0 Multiplicity = 1

 SCF Done:  E(RHF) =  -302.801435198     A.U. after   15 cycles
 Normal termination of Gaussian 16 at Wed Apr  9 03:59:47 2025.
 Gaussian 16:  ES64L-G16RevC.01  3-Jul-2019

 ----------------------------------------------------------------------
 #t hf aug-cc-pvdz iop(5/13=1,5/36=2,99/5=2) pseudo=read geom=check gue
 ss=(read,tcheck) scf=(maxcycle=1)
 ----------------------------------------------------------------------
 -----
 title
 -----
 Structure from the checkpoint file:  "Grambow2020_wb97xd3_008841_reverse_mol2.chk"
 Charge =  0 Multiplicity = 1

                         Standard orientation:
 ---------------------------------------------------------------------
 Center     Atomic      Atomic             Coordinates (Angstroms)
 Number     Number       Type             X           Y           Z
 ---------------------------------------------------------------------
      1          6           0        1.851911    1.371018   -0.116739
      2          6           0        0.279713   -0.596306   -0.639248
      3          6           0       -1.037293   -1.001773   -0.006558
      4          6           0       -1.993950    0.105514   -0.007069
      5          7           0       -2.711061    1.000254    0.038614
      6          6           0        1.454868   -1.158640    0.062069
      7          7           0        1.071602    0.233866    0.355522
      8          1           0        2.195446    1.140909   -1.121777
      9          1           0        1.205964    2.247064   -0.158366
     10          1           0        2.700234    1.553248    0.545606
     11          1           0       -0.966872   -1.365154    1.037781
     12          1           0       -1.460455   -1.821147   -0.590992
     13          1           0        2.399869   -1.265702   -0.461809
     14          1           0        1.367682   -1.801507    0.942098
     15          1           0        0.702840    0.354570    1.293773
 ---------------------------------------------------------------------

 SCF Done:  E(RHF) =  -302.892112294     A.U. after    2 cycles

 The electronic state is 1-A.
 Alpha  occ. eigenvalues --  -15.72357 -15.62075 -11.29508 -11.29305 -11.27824
 Alpha  occ. eigenvalues --  -11.27261 -11.23392  -1.30297  -1.18179  -1.06170
 Alpha  occ. eigenvalues --   -1.00117  -0.90276  -0.81907  -0.73991  -0.67266
 Alpha  occ. eigenvalues --   -0.66104  -0.63481  -0.59987  -0.59266  -0.57681
 Alpha  occ. eigenvalues --   -0.53467  -0.50187  -0.46906  -0.44612  -0.44094
 Alpha  occ. eigenvalues --   -0.31473
 Alpha virt. eigenvalues --    0.02172   0.03456   0.03706   0.04927   0.06344
 Alpha virt. eigenvalues --    0.06701   0.06944   0.07903   0.09574   0.10814
 Alpha virt. eigenvalues --    0.11766   0.12175   0.13702   0.14185   0.14473

 Mulliken charges:
               1
     1  C    0.774141
     2  C   -0.465366
     3  C    0.415030
     4  C   -0.230334
     5  N   -0.222880
     6  C    1.217008
     7  N   -0.464687
     8  H   -0.140715
     9  H   -0.161502
    10  H   -0.130635
    11  H   -0.034414
    12  H    0.025878
    13  H   -0.340139
    14  H   -0.231829
    15  H   -0.009556
 Sum of Mulliken charges =  -0.00000

 Dipole moment (field-independent basis, Debye):
    X=              5.2619    Y=             -1.5431    Z=              3.0540  Tot=              6.2765

 Test job not archived.
 1\1\GINC-SE345\SP\RHF\Aug-CC-pVDZ\C5H8N2\OHZDE\09-Apr-2025\0\\#t hf au
 g-cc-pvdz iop(5/13=1,5/36=2,99/5=2) pseudo=read geom=check guess=(read
 ,tcheck) scf=(maxcycle=1)\\title\\0,1\C,0,-1.70361148,1.04246378,-0.21
 131897\C,0,0.39401609,-0.0372347,0.81308285\C,0,1.69881956,-0.46371659
 ,0.16902866\C,0,2.30905877,0.63480187,-0.58073351\N,0,2.74393794,1.488
 19341,-1.21279135\C,0,-0.64744688,-1.08670788,0.75818036\N,0,-0.694147
 96,-0.00864638,-0.2456537\H,0,-1.86463693,1.31147285,0.82924535\H,0,-1
 .32257541,1.91273706,-0.74411608\H,0,-2.63322406,0.69382751,-0.6650068

 Normal termination of Gaussian 16 at Wed Apr  9 03:59:52 2025.
