 Gaussian 16, Revision C.01,

 ----------------------------------------------------------------------
 #t hf aug-cc-pvdz symm=none int=(grid=ultrafine) guess=(read,tcheck) s
 table=(opt,rrhf)
 ----------------------------------------------------------------------
 -----
 title
 -----
 Symbolic Z-matrix:
 Charge =  0 Multiplicity = 1

 SCF Done:  E(RHF) =  -307.598382548     A.U. after   16 cycles

 1\1\GINC-SE232\Stability\RHF\Aug-CC-pVDZ\C6H10O1\OHZDE\09-Apr-2025\0\\
 #t hf aug-cc-pvdz symm=none int=(grid=ultrafine) guess=(read,tcheck) s
 table=(opt,rrhf)\\title\\0,1\C,0,1.62172625,-0.59754043,-0.39002365\C,
 0,0.66881889,0.32090205,0.343711\C,0,-0.05100203,1.44295226,-0.1641793
 \C,0,-1.38629419,0.73891189,-0.15652399\O,0,-1.62383218,-0.36114742,-1
 .0527221\C,0,-1.30570742,-1.34683191,-0.0549116\C,0,-0.68372317,-0.279
 73801,0.8398427\H,0,2.17783337,-1.21598981,0.31740003\H,0,2.33682224,-
 0.01035377,-0.96531452\H,0,1.09166318,-1.26161784,-1.07394494\H,0,1.65

 Normal termination of Gaussian 16 at Wed Apr  9 16:31:20 2025.
 Gaussian 16:  ES64L-G16RevC.01  3-Jul-2019

 ----------------------------------------------------------------------
 #t hf aug-cc-pvdz iop(5/13=1,5/36=2,99/5=2) pseudo=read geom=check gue
 ss=(read,tcheck) scf=(maxcycle=1)
 ----------------------------------------------------------------------
 -----
 title
 -----
 Structure from the checkpoint file:  "Grambow2020_wb97xd3_008497_forward_mol1.chk"
 Charge =  0 Multiplicity = 1

                         Standard orientation:
 ---------------------------------------------------------------------
 Center     Atomic      Atomic             Coordinates (Angstroms)
 Number     Number       Type             X           Y           Z
 ---------------------------------------------------------------------
      1          6           0        1.716534   -1.070113   -0.305334
      2          6           0        1.064488    0.118718    0.366566
      3          6           0        0.612768    1.335690   -0.225058
      4          6           0       -0.851510    0.991634   -0.097578
      5          8           0       -1.405647   -0.088851   -0.869077
      6          6           0       -1.279433   -1.030503    0.210628
      7          6           0       -0.361522   -0.078112    0.969923
      8          1           0        2.145572   -1.742928    0.439937
      9          1           0        2.517717   -0.733781   -0.962676
     10          1           0        0.999261   -1.638281   -0.898983
     11          1           0        2.270435    0.820342    0.458441
     12          1           0        0.879084    2.297465    0.187510
     13          1           0        2.240869    1.398447   -0.497450
     14          1           0       -1.589631    1.773150    0.089931
     15          1           0       -0.883794   -1.994024   -0.113847
     16          1           0       -2.244928   -1.184423    0.703843
     17          1           0       -0.497360    0.110955    2.031032
 ---------------------------------------------------------------------

 SCF Done:  E(RHF) =  -307.692685082     A.U. after    2 cycles

 The electronic state is 1-A.
 Alpha  occ. eigenvalues --  -20.57704 -11.30663 -11.29832 -11.27795 -11.27671
 Alpha  occ. eigenvalues --  -11.26429 -11.23700  -1.36142  -1.14511  -0.99195
 Alpha  occ. eigenvalues --   -0.98125  -0.88455  -0.82159  -0.73263  -0.70528
 Alpha  occ. eigenvalues --   -0.68233  -0.63752  -0.61716  -0.59043  -0.57550
 Alpha  occ. eigenvalues --   -0.55424  -0.51142  -0.49215  -0.45455  -0.43948
 Alpha  occ. eigenvalues --   -0.38578  -0.33489
 Alpha virt. eigenvalues --    0.02958   0.04092   0.04407   0.04841   0.05822
 Alpha virt. eigenvalues --    0.06284   0.06536   0.07452   0.07868   0.08974
 Alpha virt. eigenvalues --    0.10069   0.11028   0.11767   0.12295   0.13509

 Mulliken charges:
               1
     1  C    0.717050
     2  C   -0.581008
     3  C    0.156433
     4  C    0.762375
     5  O   -0.843537
     6  C    1.150415
     7  C    0.037301
     8  H    0.003221
     9  H   -0.087447
    10  H   -0.014054
    11  H    0.139427
    12  H   -0.371390
    13  H    0.138161
    14  H   -0.361361
    15  H   -0.213855
    16  H   -0.249169
    17  H   -0.382562
 Sum of Mulliken charges =  -0.00000

 Dipole moment (field-independent basis, Debye):
    X=             -0.6776    Y=             -0.6669    Z=              2.5559  Tot=              2.7270

 Test job not archived.
 1\1\GINC-SE232\SP\RHF\Aug-CC-pVDZ\C6H10O1\OHZDE\09-Apr-2025\0\\#t hf a
 ug-cc-pvdz iop(5/13=1,5/36=2,99/5=2) pseudo=read geom=check guess=(rea
 d,tcheck) scf=(maxcycle=1)\\title\\0,1\C,0,1.62172625,-0.59754043,-0.3
 9002365\C,0,0.66881889,0.32090205,0.343711\C,0,-0.05100203,1.44295226,
 -0.1641793\C,0,-1.38629419,0.73891189,-0.15652399\O,0,-1.62383218,-0.3
 6114742,-1.0527221\C,0,-1.30570742,-1.34683191,-0.0549116\C,0,-0.68372
 317,-0.27973801,0.8398427\H,0,2.17783337,-1.21598981,0.31740003\H,0,2.
 33682224,-0.01035377,-0.96531452\H,0,1.09166318,-1.26161784,-1.0739449

 Normal termination of Gaussian 16 at Wed Apr  9 16:31:27 2025.
