 Gaussian 16, Revision C.01,

 ----------------------------------------------------------------------
 #t hf aug-cc-pvdz symm=none int=(grid=ultrafine) guess=(read,tcheck) s
 table=(opt,rrhf)
 ----------------------------------------------------------------------
 -----
 title
 -----
 Symbolic Z-matrix:
 Charge =  0 Multiplicity = 1

 SCF Done:  E(RHF) =  -245.723607183     A.U. after   16 cycles
 Normal termination of Gaussian 16 at Wed Apr  9 14:20:01 2025.
 Gaussian 16:  ES64L-G16RevC.01  3-Jul-2019

 ----------------------------------------------------------------------
 #t hf aug-cc-pvdz iop(5/13=1,5/36=2,99/5=2) pseudo=read geom=check gue
 ss=(read,tcheck) scf=(maxcycle=1)
 ----------------------------------------------------------------------
 -----
 title
 -----
 Structure from the checkpoint file:  "Grambow2020_b97d3_007196_forward_mol1.chk"
 Charge =  0 Multiplicity = 1

                         Standard orientation:
 ---------------------------------------------------------------------
 Center     Atomic      Atomic             Coordinates (Angstroms)
 Number     Number       Type             X           Y           Z
 ---------------------------------------------------------------------
      1          8           0        1.520712   -0.767511    0.186911
      2          6           0        1.177342    0.377328   -0.134103
      3          6           0       -0.144535    0.946094   -0.150082
      4          6           0       -1.244461   -0.756792   -0.387025
      5          7           0       -1.247897    0.272644    0.490769
      6          1           0        1.945748    1.147141   -0.395438
      7          1           0       -0.319634    1.965514   -0.497511
      8          1           0       -1.584788   -0.555527   -1.399426
      9          1           0       -1.013925   -1.785145   -0.097653
     10          1           0       -1.187903    0.059819    1.486619
 ---------------------------------------------------------------------

 SCF Done:  E(RHF) =  -245.797276618     A.U. after    2 cycles

 The electronic state is 1-A.
 Alpha  occ. eigenvalues --  -20.52052 -15.68800 -11.36801 -11.32123 -11.26830
 Alpha  occ. eigenvalues --   -1.30627  -1.25786  -0.96588  -0.90675  -0.78578
 Alpha  occ. eigenvalues --   -0.71686  -0.68812  -0.64306  -0.61090  -0.57813
 Alpha  occ. eigenvalues --   -0.52167  -0.46446  -0.40527  -0.31370
 Alpha virt. eigenvalues --    0.02574   0.03672   0.03954   0.05417   0.05596
 Alpha virt. eigenvalues --    0.06997   0.10700   0.11579   0.12179   0.12525
 Alpha virt. eigenvalues --    0.14138   0.14843   0.15376   0.16398   0.17129

 Mulliken charges:
               1
     1  O   -0.602388
     2  C    0.485093
     3  C    0.423552
     4  C    0.825515
     5  N   -0.456244
     6  H   -0.105823
     7  H   -0.360286
     8  H   -0.126074
     9  H   -0.134108
    10  H    0.050763
 Sum of Mulliken charges =   0.00000

 Dipole moment (field-independent basis, Debye):
    X=             -3.8770    Y=              0.6374    Z=             -0.3662  Tot=              3.9461

 Test job not archived.
 1\1\GINC-SE212\SP\RHF\Aug-CC-pVDZ\C3H5N1O1\OHZDE\09-Apr-2025\0\\#t hf
 aug-cc-pvdz iop(5/13=1,5/36=2,99/5=2) pseudo=read geom=check guess=(re
 ad,tcheck) scf=(maxcycle=1)\\title\\0,1\O,0,0.97894567,-0.98333328,1.3
 7218393\C,0,1.30641641,-0.46446109,0.297408\C,0,0.52563432,0.38390767,
 -0.56384621\C,0,-1.34826672,-0.23334664,-0.041074\N,0,-0.71558383,0.96
 063581,-0.10734346\H,0,2.35130778,-0.57013886,-0.08780602\H,0,0.920989
 99,0.74566853,-1.51432303\H,0,-1.59252655,-0.7257477,-0.97871186\H,0,-
 1.7068882,-0.66584192,0.89633237\H,0,-0.71123488,1.55289249,0.72321328

 Normal termination of Gaussian 16 at Wed Apr  9 14:20:04 2025.
