 Gaussian 16, Revision C.01,

 ----------------------------------------------------------------------
 #t hf aug-cc-pvdz symm=none int=(grid=ultrafine) guess=(read,tcheck) s
 table=(opt,rrhf)
 ----------------------------------------------------------------------
 -----
 title
 -----
 Symbolic Z-matrix:
 Charge =  0 Multiplicity = 1

 SCF Done:  E(RHF) =  -320.324934349     A.U. after   15 cycles
 Normal termination of Gaussian 16 at Wed Apr  9 15:58:41 2025.
 Gaussian 16:  ES64L-G16RevC.01  3-Jul-2019

 ----------------------------------------------------------------------
 #t hf aug-cc-pvdz iop(5/13=1,5/36=2,99/5=2) pseudo=read geom=check gue
 ss=(read,tcheck) scf=(maxcycle=1)
 ----------------------------------------------------------------------
 -----
 title
 -----
 Structure from the checkpoint file:  "Grambow2020_wb97xd3_007652_reverse_mol2.chk"
 Charge =  0 Multiplicity = 1

                         Standard orientation:
 ---------------------------------------------------------------------
 Center     Atomic      Atomic             Coordinates (Angstroms)
 Number     Number       Type             X           Y           Z
 ---------------------------------------------------------------------
      1          7           0        2.578575   -0.617165   -0.001523
      2          6           0        1.480317   -0.282766   -0.000614
      3          6           0        0.081149    0.109607    0.000173
      4          6           0       -0.891722   -1.040578    0.002973
      5          8           0       -2.078794   -0.881020   -0.003234
      6          6           0       -0.333517    1.414751    0.637523
      7          6           0       -0.334534    1.414786   -0.636211
      8          1           0       -0.437573   -2.050096    0.011880
      9          1           0       -0.496214    1.861309    1.600857
     10          1           0       -0.496035    1.862293   -1.599270
 ---------------------------------------------------------------------

 SCF Done:  E(RHF) =  -320.422501008     A.U. after    2 cycles

 The electronic state is 1-A.
 Alpha  occ. eigenvalues --  -20.59448 -15.64913 -11.36804 -11.33373 -11.31796
 Alpha  occ. eigenvalues --  -11.31557 -11.29572  -1.38894  -1.23800  -1.19649
 Alpha  occ. eigenvalues --   -0.98637  -0.83453  -0.82700  -0.76747  -0.73459
 Alpha  occ. eigenvalues --   -0.67597  -0.59648  -0.59397  -0.55673  -0.52913
 Alpha  occ. eigenvalues --   -0.50171  -0.46316  -0.43469  -0.43061
 Alpha virt. eigenvalues --    0.02704   0.03385   0.04534   0.07243   0.07430
 Alpha virt. eigenvalues --    0.08231   0.08374   0.09785   0.09860   0.11199
 Alpha virt. eigenvalues --    0.12728   0.13498   0.14338   0.14690   0.14904

 Mulliken charges:
               1
     1  N   -0.096452
     2  C   -0.848441
     3  C    0.862220
     4  C    0.711491
     5  O   -0.481315
     6  C    0.303075
     7  C    0.301475
     8  H   -0.171508
     9  H   -0.290464
    10  H   -0.290079
 Sum of Mulliken charges =  -0.00000

 Dipole moment (field-independent basis, Debye):
    X=             -1.0687    Y=              2.4054    Z=              0.0181  Tot=              2.6322

 Test job not archived.
 1\1\GINC-SE168\SP\RHF\Aug-CC-pVDZ\C5H3N1O1\OHZDE\09-Apr-2025\0\\#t hf
 aug-cc-pvdz iop(5/13=1,5/36=2,99/5=2) pseudo=read geom=check guess=(re
 ad,tcheck) scf=(maxcycle=1)\\title\\0,1\N,0,2.32015402,-0.06378234,-1.
 58667601\C,0,1.37676798,-0.04258605,-0.93279039\C,0,0.18998909,0.01428
 032,-0.09615928\C,0,-0.00674506,1.32307534,0.62339798\O,0,-0.93328624,
 1.52344228,1.35552598\C,0,-1.02508572,-0.80693714,-0.45776698\C,0,-0.3
 5148166,-1.24985154,0.52837956\H,0,0.76395114,2.09416195,0.43127506\H,
 0,-1.85046024,-0.82256814,-1.14508687\H,0,-0.15651631,-1.93693869,1.33

 Normal termination of Gaussian 16 at Wed Apr  9 15:58:44 2025.
