 Gaussian 16, Revision C.01,

 ----------------------------------------------------------------------
 #t hf aug-cc-pvdz symm=none int=(grid=ultrafine) guess=(read,tcheck) s
 table=(opt,rrhf)
 ----------------------------------------------------------------------
 -----
 title
 -----
 Symbolic Z-matrix:
 Charge =  0 Multiplicity = 1

 SCF Done:  E(RHF) =  -323.704956779     A.U. after   15 cycles
 Normal termination of Gaussian 16 at Wed Apr  9 15:17:05 2025.
 Gaussian 16:  ES64L-G16RevC.01  3-Jul-2019

 ----------------------------------------------------------------------
 #t hf aug-cc-pvdz iop(5/13=1,5/36=2,99/5=2) pseudo=read geom=check gue
 ss=(read,tcheck) scf=(maxcycle=1)
 ----------------------------------------------------------------------
 -----
 title
 -----
 Structure from the checkpoint file:  "Grambow2020_wb97xd3_006830_forward_mol1.chk"
 Charge =  0 Multiplicity = 1

                         Standard orientation:
 ---------------------------------------------------------------------
 Center     Atomic      Atomic             Coordinates (Angstroms)
 Number     Number       Type             X           Y           Z
 ---------------------------------------------------------------------
      1          6           0        2.174825   -0.960020   -0.258510
      2          6           0        1.165371   -0.058650    0.431066
      3          6           0        0.845413    1.297466   -0.237813
      4          6           0       -0.664673    1.474980    0.068494
      5          6           0       -0.247649   -0.452980    0.342057
      6          7           0       -1.229587   -1.123080    0.100411
      7          8           0       -2.332746   -0.562546   -0.257306
      8          1           0        3.159790   -0.490387   -0.237747
      9          1           0        1.893646   -1.131207   -1.298623
     10          1           0        2.250690   -1.926803    0.239875
     11          1           0        1.437580    0.092746    1.479648
     12          1           0        1.464294    2.123550    0.116843
     13          1           0        0.993932    1.195322   -1.314393
     14          1           0       -1.103068    2.219247   -0.605547
     15          1           0       -0.813787    1.831429    1.088875
     16          1           0       -1.653721    0.643254   -0.185128
 ---------------------------------------------------------------------

 SCF Done:  E(RHF) =  -323.802298072     A.U. after    2 cycles

 The electronic state is 1-A.
 Alpha  occ. eigenvalues --  -20.56350 -15.72432 -11.34172 -11.29765 -11.26875
 Alpha  occ. eigenvalues --  -11.25815 -11.24089  -1.39478  -1.16728  -1.09341
 Alpha  occ. eigenvalues --   -1.00999  -0.90427  -0.85790  -0.74042  -0.70602
 Alpha  occ. eigenvalues --   -0.66376  -0.65322  -0.61205  -0.60454  -0.59022
 Alpha  occ. eigenvalues --   -0.55062  -0.53350  -0.51235  -0.50342  -0.43514
 Alpha  occ. eigenvalues --   -0.40771  -0.38211
 Alpha virt. eigenvalues --    0.02512   0.03739   0.03941   0.04941   0.06342
 Alpha virt. eigenvalues --    0.06523   0.06676   0.08079   0.08865   0.10347
 Alpha virt. eigenvalues --    0.10925   0.11400   0.13080   0.13463   0.14112

 Mulliken charges:
               1
     1  C    0.782281
     2  C   -0.512111
     3  C    0.470356
     4  C    0.276399
     5  C   -0.039662
     6  N    0.124647
     7  O   -0.870994
     8  H    0.007092
     9  H   -0.005837
    10  H   -0.001937
    11  H   -0.062897
    12  H   -0.094473
    13  H   -0.163264
    14  H   -0.117537
    15  H   -0.093117
    16  H    0.301055
 Sum of Mulliken charges =  -0.00000

 Dipole moment (field-independent basis, Debye):
    X=              5.2813    Y=              1.9516    Z=              0.6294  Tot=              5.6654

 Test job not archived.
 1\1\GINC-SE129\SP\RHF\Aug-CC-pVDZ\C5H9N1O1\OHZDE\09-Apr-2025\0\\#t hf
 aug-cc-pvdz iop(5/13=1,5/36=2,99/5=2) pseudo=read geom=check guess=(re
 ad,tcheck) scf=(maxcycle=1)\\title\\0,1\C,0,-1.68411252,-1.26130109,-0
 .21839998\C,0,-0.53633013,-0.35435035,-0.62707629\C,0,-0.45557586,1.03
 847223,0.0380143\C,0,1.07380336,1.255867,0.17741717\C,0,0.79657979,-0.
 69509879,-0.11008017\N,0,1.67859122,-1.31999233,0.44054863\O,0,2.61615
 988,-0.70703818,1.07645176\H,0,-2.62949747,-0.82760365,-0.5489985\H,0,
 -1.71665299,-1.37964383,0.86563849\H,0,-1.58985949,-2.24982214,-0.6686

 Normal termination of Gaussian 16 at Wed Apr  9 15:17:11 2025.
