 Gaussian 16, Revision C.01,

 ----------------------------------------------------------------------
 #t hf aug-cc-pvdz symm=none int=(grid=ultrafine) guess=(read,tcheck) s
 table=(opt,rrhf)
 ----------------------------------------------------------------------
 -----
 title
 -----
 Symbolic Z-matrix:
 Charge =  0 Multiplicity = 1

 SCF Done:  E(RHF) =  -307.688440202     A.U. after   17 cycles

 1\1\GINC-SE054\Stability\RHF\Aug-CC-pVDZ\C6H10O1\OHZDE\09-Apr-2025\0\\
 #t hf aug-cc-pvdz symm=none int=(grid=ultrafine) guess=(read,tcheck) s
 table=(opt,rrhf)\\title\\0,1\C,0,2.17036833,0.27974635,-0.49299591\C,0
 ,0.75364941,-0.11381385,-0.66735687\C,0,0.24239242,-1.28092096,0.13511
 579\C,0,-1.25679966,-1.01550374,-0.03997155\C,0,-1.24724811,0.46239472
 ,-0.35130459\C,0,-1.27836769,1.4180022,0.73161893\O,0,0.10877443,1.229
 43304,0.49280144\H,0,2.4818041,0.32939724,0.56164543\H,0,2.75164329,-0
 .50710733,-0.98939741\H,0,2.41175539,1.22138172,-0.98428927\H,0,0.5559

 Normal termination of Gaussian 16 at Wed Apr  9 03:33:08 2025.
 Gaussian 16:  ES64L-G16RevC.01  3-Jul-2019

 ----------------------------------------------------------------------
 #t hf aug-cc-pvdz iop(5/13=1,5/36=2,99/5=2) pseudo=read geom=check gue
 ss=(read,tcheck) scf=(maxcycle=1)
 ----------------------------------------------------------------------
 -----
 title
 -----
 Structure from the checkpoint file:  "Grambow2020_wb97xd3_007033_forward_mol1.chk"
 Charge =  0 Multiplicity = 1

                         Standard orientation:
 ---------------------------------------------------------------------
 Center     Atomic      Atomic             Coordinates (Angstroms)
 Number     Number       Type             X           Y           Z
 ---------------------------------------------------------------------
      1          6           0        2.193034   -0.582606    0.089317
      2          6           0        0.957892    0.150448    0.449092
      3          6           0        0.521452    1.278856   -0.447401
      4          6           0       -0.922663    1.397143    0.051817
      5          6           0       -1.136410    0.016951    0.626784
      6          6           0       -1.597506   -1.048527   -0.232881
      7          8           0       -0.182941   -1.156110   -0.297600
      8          1           0        2.244492   -0.852096   -0.976728
      9          1           0        3.014559    0.109469    0.311944
     10          1           0        2.346937   -1.475296    0.694075
     11          1           0        1.111258    2.172798   -0.227062
     12          1           0        0.599485    1.077338   -1.526790
     13          1           0       -1.660851    1.639685   -0.715850
     14          1           0       -0.989921    2.127133    0.858986
     15          1           0       -1.166058   -0.127455    1.695515
     16          1           0       -2.062360   -0.780240   -1.183893
     17          1           0       -2.068804   -1.916055    0.230229
 ---------------------------------------------------------------------

 SCF Done:  E(RHF) =  -307.780570448     A.U. after    2 cycles

 The electronic state is 1-A.
 Alpha  occ. eigenvalues --  -20.57476 -11.34167 -11.29772 -11.25299 -11.23575
 Alpha  occ. eigenvalues --  -11.22957 -11.20449  -1.32437  -1.08885  -1.01614
 Alpha  occ. eigenvalues --   -0.93700  -0.87187  -0.82746  -0.71747  -0.69960
 Alpha  occ. eigenvalues --   -0.63706  -0.63456  -0.60241  -0.56988  -0.55421
 Alpha  occ. eigenvalues --   -0.53124  -0.51387  -0.50275  -0.46954  -0.45971
 Alpha  occ. eigenvalues --   -0.44002  -0.28544
 Alpha virt. eigenvalues --    0.03178   0.04303   0.04390   0.04919   0.06298
 Alpha virt. eigenvalues --    0.06695   0.06712   0.06931   0.07462   0.09187
 Alpha virt. eigenvalues --    0.09757   0.11675   0.12570   0.13183   0.13451

 Mulliken charges:
               1
     1  C    0.455430
     2  C   -0.909175
     3  C    0.406029
     4  C    0.407292
     5  C    0.479183
     6  C    0.968631
     7  O   -0.709278
     8  H    0.009127
     9  H    0.027086
    10  H   -0.054443
    11  H   -0.054224
    12  H   -0.142707
    13  H   -0.067233
    14  H   -0.121243
    15  H   -0.303759
    16  H   -0.180085
    17  H   -0.210632
 Sum of Mulliken charges =  -0.00000

 Dipole moment (field-independent basis, Debye):
    X=             -2.9837    Y=              1.5172    Z=              0.0004  Tot=              3.3473

 Test job not archived.
 1\1\GINC-SE054\SP\RHF\Aug-CC-pVDZ\C6H10O1\OHZDE\09-Apr-2025\0\\#t hf a
 ug-cc-pvdz iop(5/13=1,5/36=2,99/5=2) pseudo=read geom=check guess=(rea
 d,tcheck) scf=(maxcycle=1)\\title\\0,1\C,0,2.17036833,0.27974635,-0.49
 299591\C,0,0.75364941,-0.11381385,-0.66735687\C,0,0.24239242,-1.280920
 96,0.13511579\C,0,-1.25679966,-1.01550374,-0.03997155\C,0,-1.24724811,
 0.46239472,-0.35130459\C,0,-1.27836769,1.4180022,0.73161893\O,0,0.1087
 7443,1.22943304,0.49280144\H,0,2.4818041,0.32939724,0.56164543\H,0,2.7
 5164329,-0.50710733,-0.98939741\H,0,2.41175539,1.22138172,-0.98428927\

 Normal termination of Gaussian 16 at Wed Apr  9 03:33:15 2025.
