 Gaussian 16, Revision C.01,

 ----------------------------------------------------------------------
 #t hf aug-cc-pvdz symm=none int=(grid=ultrafine) guess=(read,tcheck) s
 table=(opt,rrhf)
 ----------------------------------------------------------------------
 -----
 title
 -----
 Symbolic Z-matrix:
 Charge =  0 Multiplicity = 1

 SCF Done:  E(RHF) =  -357.297103413     A.U. after   17 cycles
 Normal termination of Gaussian 16 at Wed Apr  9 16:34:47 2025.
 Gaussian 16:  ES64L-G16RevC.01  3-Jul-2019

 ----------------------------------------------------------------------
 #t hf aug-cc-pvdz iop(5/13=1,5/36=2,99/5=2) pseudo=read geom=check gue
 ss=(read,tcheck) scf=(maxcycle=1)
 ----------------------------------------------------------------------
 -----
 title
 -----
 Structure from the checkpoint file:  "Grambow2020_wb97xd3_008639_reverse_mol1.chk"
 Charge =  0 Multiplicity = 1

                         Standard orientation:
 ---------------------------------------------------------------------
 Center     Atomic      Atomic             Coordinates (Angstroms)
 Number     Number       Type             X           Y           Z
 ---------------------------------------------------------------------
      1          7           0        1.830970    0.656119    0.783472
      2          6           0        1.525309   -0.241308   -0.020312
      3          6           0       -0.099674    1.079872   -0.644561
      4          6           0       -1.373607    1.134588   -0.123848
      5          6           0       -1.723187   -0.154737    0.144621
      6          8           0       -1.968175   -1.242020    0.347859
      7          8           0        1.510740   -1.250341   -0.614381
      8          1           0        2.631544    0.436587    1.365347
      9          1           0        0.303075    2.052419   -0.936729
     10          1           0       -2.064972    1.946567    0.083855
 ---------------------------------------------------------------------

 SCF Done:  E(RHF) =  -357.409058954     A.U. after    2 cycles

 The electronic state is 1-A.
 Alpha  occ. eigenvalues --  -20.71294 -20.58970 -15.61387 -11.46426 -11.40845
 Alpha  occ. eigenvalues --  -11.28917 -11.27882  -1.52230  -1.39987  -1.18934
 Alpha  occ. eigenvalues --   -1.12938  -0.88972  -0.81661  -0.76179  -0.73593
 Alpha  occ. eigenvalues --   -0.71578  -0.70302  -0.67545  -0.63045  -0.62718
 Alpha  occ. eigenvalues --   -0.59083  -0.46953  -0.42632  -0.40737  -0.37542
 Alpha virt. eigenvalues --    0.02543   0.04320   0.04648   0.05989   0.06924
 Alpha virt. eigenvalues --    0.09247   0.09476   0.10285   0.11253   0.11655
 Alpha virt. eigenvalues --    0.12994   0.13438   0.14436   0.14551   0.14783

 Mulliken charges:
               1
     1  N    0.025188
     2  C    0.058013
     3  C    0.050835
     4  C    0.940593
     5  C   -0.274581
     6  O   -0.113565
     7  O   -0.250373
     8  H    0.027617
     9  H   -0.230210
    10  H   -0.233517
 Sum of Mulliken charges =  -0.00000

 Dipole moment (field-independent basis, Debye):
    X=             -2.6843    Y=              2.7609    Z=              1.1934  Tot=              4.0314

 Test job not archived.
 1\1\GINC-SE041\SP\RHF\Aug-CC-pVDZ\C4H3N1O2\OHZDE\09-Apr-2025\0\\#t hf
 aug-cc-pvdz iop(5/13=1,5/36=2,99/5=2) pseudo=read geom=check guess=(re
 ad,tcheck) scf=(maxcycle=1)\\title\\0,1\N,0,1.87095663,-0.24112091,-0.
 43418026\C,0,1.45851124,0.57865735,0.40410599\C,0,-0.30740631,-0.69905
 722,0.56144115\C,0,-1.4634381,-0.61528365,-0.18261095\C,0,-1.70340271,
 0.71532152,-0.35157065\O,0,-1.86117058,1.83170693,-0.46248593\O,0,1.37
 543929,1.51418134,1.10351518\H,0,2.77414994,-0.00891868,-0.8316911\H,0
 ,-0.00656062,-1.72146476,0.80142437\H,0,-2.13707778,-1.35402292,-0.607

 Normal termination of Gaussian 16 at Wed Apr  9 16:34:52 2025.
