 Gaussian 16, Revision C.01,

 ----------------------------------------------------------------------
 #t hf aug-cc-pvdz symm=none int=(grid=ultrafine) guess=(read,tcheck) s
 table=(opt,rrhf)
 ----------------------------------------------------------------------
 -----
 title
 -----
 Symbolic Z-matrix:
 Charge =  0 Multiplicity = 1

 SCF Done:  E(RHF) =  -359.759727291     A.U. after   14 cycles
 Normal termination of Gaussian 16 at Wed Apr  9 04:05:44 2025.
 Gaussian 16:  ES64L-G16RevC.01  3-Jul-2019

 ----------------------------------------------------------------------
 #t hf aug-cc-pvdz iop(5/13=1,5/36=2,99/5=2) pseudo=read geom=check gue
 ss=(read,tcheck) scf=(maxcycle=1)
 ----------------------------------------------------------------------
 -----
 title
 -----
 Structure from the checkpoint file:  "Grambow2020_wb97xd3_009385_reverse_mol2.chk"
 Charge =  0 Multiplicity = 1

                         Standard orientation:
 ---------------------------------------------------------------------
 Center     Atomic      Atomic             Coordinates (Angstroms)
 Number     Number       Type             X           Y           Z
 ---------------------------------------------------------------------
      1          6           0        2.831147    0.267610   -0.218786
      2          7           0        1.392184    0.170498   -0.308499
      3          6           0        0.830137   -0.744512    0.329600
      4          8           0       -0.502353   -0.979694    0.316513
      5          6           0       -1.448701   -0.030683   -0.037448
      6          8           0       -2.454823   -0.423171   -0.533564
      7          6           0       -1.171239    1.398605    0.324393
      8          1           0        3.284419   -0.504439    0.415701
      9          1           0        3.257863    0.194274   -1.220233
     10          1           0        3.102402    1.247616    0.177736
     11          1           0        1.332628   -1.499981    0.939235
     12          1           0       -0.592226    1.479369    1.242960
     13          1           0       -2.128415    1.904272    0.426674
     14          1           0       -0.592614    1.862199   -0.472733
 ---------------------------------------------------------------------

 SCF Done:  E(RHF) =  -359.875777046     A.U. after    2 cycles

 The electronic state is 1-A.
 Alpha  occ. eigenvalues --  -20.63486 -20.57092 -15.63511 -11.40678 -11.36816
 Alpha  occ. eigenvalues --  -11.27677 -11.25387  -1.44180  -1.35903  -1.21642
 Alpha  occ. eigenvalues --   -1.02360  -0.97685  -0.90071  -0.75070  -0.73284
 Alpha  occ. eigenvalues --   -0.69875  -0.69018  -0.63722  -0.62653  -0.60529
 Alpha  occ. eigenvalues --   -0.57891  -0.57317  -0.56156  -0.51791  -0.47687
 Alpha  occ. eigenvalues --   -0.43265  -0.41684
 Alpha virt. eigenvalues --    0.02900   0.03947   0.04154   0.05004   0.06419
 Alpha virt. eigenvalues --    0.06970   0.08095   0.09385   0.10010   0.11426
 Alpha virt. eigenvalues --    0.12526   0.13251   0.14194   0.14359   0.15114

 Mulliken charges:
               1
     1  C    0.742896
     2  N   -0.379331
     3  C    0.632775
     4  O   -0.563882
     5  C    0.430033
     6  O   -0.444375
     7  C    0.299300
     8  H   -0.115441
     9  H   -0.152554
    10  H   -0.151789
    11  H   -0.325811
    12  H    0.013667
    13  H   -0.107933
    14  H    0.122446
 Sum of Mulliken charges =   0.00000

 Dipole moment (field-independent basis, Debye):
    X=              4.0344    Y=              1.5780    Z=              2.0655  Tot=              4.7993

 Test job not archived.
 1\1\GINC-SE082\SP\RHF\Aug-CC-pVDZ\C4H7N1O2\OHZDE\09-Apr-2025\0\\#t hf
 aug-cc-pvdz iop(5/13=1,5/36=2,99/5=2) pseudo=read geom=check guess=(re
 ad,tcheck) scf=(maxcycle=1)\\title\\0,1\C,0,-1.89160673,-1.26072023,0.
 7259955\N,0,-0.87266754,-0.52281894,0.01510912\C,0,-0.85977002,0.71984
 467,0.14132814\O,0,0.01086678,1.54371011,-0.48656395\C,0,1.23185953,1.
 13028701,-0.99621267\O,0,1.65158713,1.71151721,-1.94408364\C,0,1.96878
 042,0.05507958,-0.25347729\H,0,-2.56713141,-0.62384508,1.3109273\H,0,-
 2.48210603,-1.83517272,0.01068097\H,0,-1.4154658,-1.9748253,1.40020905

 Normal termination of Gaussian 16 at Wed Apr  9 04:05:48 2025.
