 Gaussian 16, Revision C.01,

 ----------------------------------------------------------------------
 #t hf aug-cc-pvdz symm=none int=(grid=ultrafine) guess=(read,tcheck) s
 table=(opt,rrhf)
 ----------------------------------------------------------------------
 -----
 title
 -----
 Symbolic Z-matrix:
 Charge =  0 Multiplicity = 1

 SCF Done:  E(RHF) =  -306.535926090     A.U. after   15 cycles
 Normal termination of Gaussian 16 at Wed Apr  9 16:28:09 2025.
 Gaussian 16:  ES64L-G16RevC.01  3-Jul-2019

 ----------------------------------------------------------------------
 #t hf aug-cc-pvdz iop(5/13=1,5/36=2,99/5=2) pseudo=read geom=check gue
 ss=(read,tcheck) scf=(maxcycle=1)
 ----------------------------------------------------------------------
 -----
 title
 -----
 Structure from the checkpoint file:  "Grambow2020_wb97xd3_008449_reverse_mol1.chk"
 Charge =  0 Multiplicity = 1

                         Standard orientation:
 ---------------------------------------------------------------------
 Center     Atomic      Atomic             Coordinates (Angstroms)
 Number     Number       Type             X           Y           Z
 ---------------------------------------------------------------------
      1          6           0       -0.893635    1.339457   -0.707635
      2          6           0       -1.268254   -0.692021   -0.373601
      3          6           0        0.067501   -1.252633    0.062716
      4          8           0        1.223484   -0.724629   -0.503732
      5          6           0        1.404146    0.599257    0.020586
      6          6           0        0.020732    1.033921    0.489058
      7          6           0       -0.610010   -0.276543    0.933380
      8          1           0       -1.090143    0.086877   -1.261882
      9          1           0       -1.874244    1.619981   -0.294559
     10          1           0       -2.183406   -1.260927   -0.457835
     11          1           0        0.112900   -2.306659    0.303839
     12          1           0        1.778917    1.230927   -0.785367
     13          1           0        2.130522    0.567666    0.841574
     14          1           0        0.038142    1.834734    1.227367
     15          1           0       -1.023440   -0.484196    1.909696
 ---------------------------------------------------------------------

 SCF Done:  E(RHF) =  -306.626657524     A.U. after    2 cycles

 The electronic state is 1-A.
 Alpha  occ. eigenvalues --  -20.57705 -11.30745 -11.28431 -11.26962 -11.26008
 Alpha  occ. eigenvalues --  -11.25881 -11.25277  -1.36075  -1.16977  -1.04158
 Alpha  occ. eigenvalues --   -0.91541  -0.87538  -0.80406  -0.73985  -0.73196
 Alpha  occ. eigenvalues --   -0.67116  -0.63271  -0.61331  -0.58536  -0.56018
 Alpha  occ. eigenvalues --   -0.52585  -0.50427  -0.49094  -0.43847  -0.39873
 Alpha  occ. eigenvalues --   -0.32160
 Alpha virt. eigenvalues --    0.02759   0.03876   0.04321   0.04826   0.06018
 Alpha virt. eigenvalues --    0.06573   0.06885   0.07809   0.09825   0.11079
 Alpha virt. eigenvalues --    0.11818   0.12599   0.13148   0.13665   0.14272

 Mulliken charges:
               1
     1  C   -0.372635
     2  C    0.231655
     3  C    1.031217
     4  O   -0.780136
     5  C    1.147008
     6  C   -0.014740
     7  C    0.255160
     8  H    0.257241
     9  H    0.016120
    10  H   -0.418060
    11  H   -0.379507
    12  H   -0.164509
    13  H   -0.157027
    14  H   -0.258627
    15  H   -0.393159
 Sum of Mulliken charges =  -0.00000

 Dipole moment (field-independent basis, Debye):
    X=             -1.3907    Y=             -0.5614    Z=              3.1214  Tot=              3.4630

 Test job not archived.
 1\1\GINC-SE229\SP\RHF\Aug-CC-pVDZ\C6H8O1\OHZDE\09-Apr-2025\0\\#t hf au
 g-cc-pvdz iop(5/13=1,5/36=2,99/5=2) pseudo=read geom=check guess=(read
 ,tcheck) scf=(maxcycle=1)\\title\\0,1\C,0,0.43976259,1.56626524,0.2913
 7172\C,0,1.42856341,-0.26462226,0.07014111\C,0,0.34403998,-1.30185794,
 0.26210654\O,0,-0.6724256,-1.03528949,1.17407551\C,0,-1.503931,-0.0067
 4506,0.61647609\C,0,-0.62534112,0.70495623,-0.40518731\C,0,0.27450256,
 -0.41224152,-0.90988946\H,0,1.26758428,0.61550397,0.86191896\H,0,1.046
 61502,2.02531259,-0.50356583\H,0,2.46448409,-0.48181447,-0.14883153\H,

 Normal termination of Gaussian 16 at Wed Apr  9 16:28:15 2025.
