 Gaussian 16, Revision C.01,

 ----------------------------------------------------------------------
 #t hf aug-cc-pvdz symm=none int=(grid=ultrafine) guess=(read,tcheck) s
 table=(opt,rrhf)
 ----------------------------------------------------------------------
 -----
 title
 -----
 Symbolic Z-matrix:
 Charge =  0 Multiplicity = 1

 SCF Done:  E(RHF) =  -322.579190839     A.U. after   15 cycles
 Normal termination of Gaussian 16 at Wed Apr  9 15:47:01 2025.
 Gaussian 16:  ES64L-G16RevC.01  3-Jul-2019

 ----------------------------------------------------------------------
 #t hf aug-cc-pvdz iop(5/13=1,5/36=2,99/5=2) pseudo=read geom=check gue
 ss=(read,tcheck) scf=(maxcycle=1)
 ----------------------------------------------------------------------
 -----
 title
 -----
 Structure from the checkpoint file:  "Grambow2020_wb97xd3_007373_forward_mol1.chk"
 Charge =  0 Multiplicity = 1

                         Standard orientation:
 ---------------------------------------------------------------------
 Center     Atomic      Atomic             Coordinates (Angstroms)
 Number     Number       Type             X           Y           Z
 ---------------------------------------------------------------------
      1          6           0        1.461687   -0.184048    0.638275
      2          6           0        0.839844   -1.007395   -0.433916
      3          6           0       -0.543854   -1.165431   -0.410189
      4          8           0       -1.175392   -0.552673    0.700401
      5          6           0       -1.284347    0.670056   -0.007806
      6          7           0       -0.239162    1.449752   -0.255995
      7          6           0        0.986840    0.987852   -0.159173
      8          1           0        1.033904   -0.301211    1.626913
      9          1           0        2.545222   -0.242251    0.660800
     10          1           0        1.429575   -1.428288   -1.236472
     11          1           0       -1.045112   -2.043297   -0.803469
     12          1           0       -1.118390   -0.153123   -1.145518
     13          1           0       -2.269423    1.119992    0.062220
     14          1           0        1.740474    1.515094   -0.738867
 ---------------------------------------------------------------------

 SCF Done:  E(RHF) =  -322.675527923     A.U. after    2 cycles

 The electronic state is 1-A.
 Alpha  occ. eigenvalues --  -20.59147 -15.61921 -11.34952 -11.32314 -11.29913
 Alpha  occ. eigenvalues --  -11.26228 -11.25283  -1.38853  -1.21034  -1.09681
 Alpha  occ. eigenvalues --   -0.97237  -0.91654  -0.79483  -0.78437  -0.73163
 Alpha  occ. eigenvalues --   -0.67481  -0.66725  -0.62804  -0.62232  -0.55398
 Alpha  occ. eigenvalues --   -0.54275  -0.52779  -0.48761  -0.42896  -0.36958
 Alpha  occ. eigenvalues --   -0.31544
 Alpha virt. eigenvalues --    0.03141   0.03927   0.04705   0.04906   0.05918
 Alpha virt. eigenvalues --    0.06783   0.07487   0.09473   0.10556   0.11536
 Alpha virt. eigenvalues --    0.12820   0.13022   0.14024   0.14273   0.14604

 Mulliken charges:
               1
     1  C    0.898358
     2  C    0.188254
     3  C    0.230642
     4  O   -0.752762
     5  C    0.540660
     6  N   -0.437295
     7  C    0.379940
     8  H   -0.184559
     9  H   -0.149615
    10  H   -0.417103
    11  H   -0.184858
    12  H    0.494010
    13  H   -0.246287
    14  H   -0.359385
 Sum of Mulliken charges =   0.00000

 Dipole moment (field-independent basis, Debye):
    X=              1.1826    Y=             -1.4122    Z=             -0.9602  Tot=              2.0772

 Test job not archived.
 1\1\GINC-SE168\SP\RHF\Aug-CC-pVDZ\C5H7N1O1\OHZDE\09-Apr-2025\0\\#t hf
 aug-cc-pvdz iop(5/13=1,5/36=2,99/5=2) pseudo=read geom=check guess=(re
 ad,tcheck) scf=(maxcycle=1)\\title\\0,1\C,0,-1.37925647,-0.47226229,0.
 30579175\C,0,-0.83314836,0.75220542,-0.3396744\C,0,0.37201849,1.257197
 99,0.14273127\O,0,0.89113551,0.5476643,1.25394794\C,0,1.56456485,-0.35
 365632,0.3921999\N,0,0.92834773,-1.28002567,-0.3142001\C,0,-0.36766002
 ,-1.20496015,-0.51553694\H,0,-1.26051531,-0.52788174,1.3814019\H,0,-2.
 39325905,-0.71129367,0.00147976\H,0,-1.32274759,1.20946791,-1.18833953

 Normal termination of Gaussian 16 at Wed Apr  9 15:47:05 2025.
